Generated by trjconv : CNT in water t= 443.00000
33518
    1C        C    1   2.844   2.770   4.745
    1C        C    2   2.901   2.720   4.864
    1C        C    3   2.842   2.774   4.979
    1C        C    4   2.851   2.775   4.261
    1C        C    5   2.904   2.731   4.384
    1C        C    6   2.848   2.776   4.506
    1C        C    7   3.011   2.634   4.624
    1C        C    8   2.899   2.721   4.626
    1C        C    9   3.078   2.606   4.745
    1C        C   10   3.015   2.637   4.868
    1C        C   11   3.183   2.487   4.975
    1C        C   12   3.065   2.562   4.975
    1C        C   13   2.856   2.776   3.773
    1C        C   14   2.903   2.726   3.896
    1C        C   15   2.851   2.774   4.018
    1C        C   16   3.021   2.646   4.137
    1C        C   17   2.906   2.728   4.140
    1C        C   18   3.081   2.612   4.261
    1C        C   19   3.017   2.647   4.382
    1C        C   20   3.207   2.549   4.503
    1C        C   21   3.077   2.604   4.503
    1C        C   22   3.279   2.532   4.624
    1C        C   23   3.209   2.550   4.745
    1C        C   24   3.413   2.483   4.866
    1C        C   25   3.271   2.499   4.863
    1C        C   26   3.489   2.482   4.983
    1C        C   27   2.846   2.768   3.280
    1C        C   28   2.902   2.724   3.402
    1C        C   29   2.858   2.775   3.526
    1C        C   30   3.016   2.638   3.649
    1C        C   31   2.906   2.727   3.650
    1C        C   32   3.077   2.601   3.771
    1C        C   33   3.014   2.638   3.893
    1C        C   34   3.206   2.548   4.016
    1C        C   35   3.077   2.605   4.014
    1C        C   36   3.275   2.530   4.139
    1C        C   37   3.211   2.558   4.261
    1C        C   38   3.418   2.510   4.383
    1C        C   39   3.279   2.535   4.383
    1C        C   40   3.490   2.505   4.505
    1C        C   41   3.417   2.502   4.626
    1C        C   42   3.631   2.483   4.744
    1C        C   43   3.489   2.480   4.746
    1C        C   44   3.705   2.492   4.864
    1C        C   45   3.628   2.481   4.981
    1C        C   46   2.835   2.753   2.796
    1C        C   47   2.895   2.712   2.918
    1C        C   48   2.843   2.764   3.039
    1C        C   49   3.018   2.639   3.161
    1C        C   50   2.902   2.719   3.159
    1C        C   51   3.078   2.602   3.284
    1C        C   52   3.015   2.639   3.405
    1C        C   53   3.207   2.550   3.529
    1C        C   54   3.076   2.601   3.527
    1C        C   55   3.275   2.529   3.651
    1C        C   56   3.208   2.550   3.774
    1C        C   57   3.414   2.498   3.895
    1C        C   58   3.274   2.521   3.895
    1C        C   59   3.484   2.498   4.017
    1C        C   60   3.414   2.504   4.140
    1C        C   61   3.628   2.505   4.260
    1C        C   62   3.487   2.495   4.261
    1C        C   63   3.702   2.510   4.380
    1C        C   64   3.631   2.502   4.502
    1C        C   65   3.837   2.545   4.621
    1C        C   66   3.701   2.505   4.624
    1C        C   67   3.905   2.568   4.742
    1C        C   68   3.842   2.526   4.861
    1C        C   69   4.054   2.584   4.978
    1C        C   70   3.924   2.532   4.974
    1C        C   71   2.821   2.735   2.308
    1C        C   72   2.880   2.692   2.429
    1C        C   73   2.833   2.747   2.551
    1C        C   74   3.007   2.629   2.672
    1C        C   75   2.890   2.708   2.674
    1C        C   76   3.069   2.594   2.794
    1C        C   77   3.011   2.633   2.916
    1C        C   78   3.208   2.549   3.038
    1C        C   79   3.078   2.605   3.038
    1C        C   80   3.273   2.528   3.161
    1C        C   81   3.208   2.547   3.285
    1C        C   82   3.413   2.496   3.404
    1C        C   83   3.275   2.525   3.407
    1C        C   84   3.483   2.496   3.527
    1C        C   85   3.414   2.505   3.650
    1C        C   86   3.625   2.509   3.770
    1C        C   87   3.484   2.494   3.773
    1C        C   88   3.694   2.520   3.893
    1C        C   89   3.625   2.509   4.015
    1C        C   90   3.832   2.556   4.135
    1C        C   91   3.695   2.520   4.137
    1C        C   92   3.903   2.574   4.255
    1C        C   93   3.839   2.547   4.378
    1C        C   94   4.031   2.636   4.500
    1C        C   95   3.906   2.569   4.500
    1C        C   96   4.093   2.672   4.621
    1C        C   97   4.032   2.632   4.742
    1C        C   98   4.187   2.772   4.862
    1C        C   99   4.100   2.659   4.865
    1C        C  100   4.216   2.847   4.977
    1C        C  101   2.822   2.731   2.073
    1C        C  102   2.990   2.592   2.190
    1C        C  103   2.873   2.675   2.190
    1C        C  104   3.061   2.572   2.312
    1C        C  105   2.998   2.615   2.431
    1C        C  106   3.200   2.538   2.552
    1C        C  107   3.068   2.588   2.551
    1C        C  108   3.267   2.515   2.674
    1C        C  109   3.199   2.538   2.796
    1C        C  110   3.411   2.497   2.916
    1C        C  111   3.272   2.519   2.916
    1C        C  112   3.484   2.492   3.037
    1C        C  113   3.412   2.500   3.158
    1C        C  114   3.623   2.499   3.282
    1C        C  115   3.482   2.492   3.281
    1C        C  116   3.694   2.512   3.404
    1C        C  117   3.624   2.504   3.526
    1C        C  118   3.831   2.552   3.648
    1C        C  119   3.694   2.517   3.647
    1C        C  120   3.896   2.581   3.770
    1C        C  121   3.831   2.554   3.893
    1C        C  122   4.025   2.646   4.013
    1C        C  123   3.898   2.584   4.013
    1C        C  124   4.086   2.683   4.135
    1C        C  125   4.028   2.641   4.257
    1C        C  126   4.195   2.773   4.376
    1C        C  127   4.088   2.681   4.378
    1C        C  128   4.245   2.822   4.499
    1C        C  129   4.196   2.769   4.620
    1C        C  130   4.331   2.934   4.743
    1C        C  131   4.246   2.819   4.742
    1C        C  132   4.360   3.005   4.861
    1C        C  133   4.283   2.969   4.972
    1C        C  134   3.176   2.475   2.080
    1C        C  135   3.042   2.515   2.081
    1C        C  136   3.261   2.483   2.191
    1C        C  137   3.191   2.516   2.309
    1C        C  138   3.404   2.485   2.429
    1C        C  139   3.264   2.506   2.430
    1C        C  140   3.476   2.488   2.550
    1C        C  141   3.407   2.496   2.673
    1C        C  142   3.622   2.498   2.791
    1C        C  143   3.481   2.492   2.793
    1C        C  144   3.693   2.506   2.913
    1C        C  145   3.625   2.496   3.036
    1C        C  146   3.829   2.544   3.158
    1C        C  147   3.693   2.506   3.159
    1C        C  148   3.897   2.570   3.280
    1C        C  149   3.830   2.549   3.403
    1C        C  150   4.025   2.631   3.523
    1C        C  151   3.898   2.569   3.525
    1C        C  152   4.082   2.674   3.645
    1C        C  153   4.021   2.648   3.770
    1C        C  154   4.198   2.768   3.887
    1C        C  155   4.084   2.685   3.890
    1C        C  156   4.249   2.816   4.010
    1C        C  157   4.199   2.767   4.133
    1C        C  158   4.343   2.924   4.252
    1C        C  159   4.253   2.815   4.254
    1C        C  160   4.379   2.984   4.375
    1C        C  161   4.337   2.928   4.498
    1C        C  162   4.441   3.113   4.616
    1C        C  163   4.371   2.990   4.620
    1C        C  164   4.468   3.184   4.735
    1C        C  165   4.438   3.123   4.858
    1C        C  166   4.512   3.321   4.972
    1C        C  167   4.485   3.185   4.975
    1C        C  168   3.477   2.437   2.073
    1C        C  169   3.401   2.464   2.188
    1C        C  170   3.617   2.475   2.308
    1C        C  171   3.475   2.470   2.308
    1C        C  172   3.692   2.492   2.427
    1C        C  173   3.618   2.490   2.547
    1C        C  174   3.828   2.539   2.672
    1C        C  175   3.690   2.509   2.667
    1C        C  176   3.897   2.563   2.793
    1C        C  177   3.830   2.543   2.915
    1C        C  178   4.024   2.630   3.035
    1C        C  179   3.898   2.565   3.037
    1C        C  180   4.085   2.669   3.156
    1C        C  181   4.023   2.633   3.278
    1C        C  182   4.197   2.754   3.399
    1C        C  183   4.084   2.669   3.401
    1C        C  184   4.252   2.804   3.519
    1C        C  185   4.195   2.758   3.640
    1C        C  186   4.344   2.912   3.761
    1C        C  187   4.249   2.807   3.761
    1C        C  188   4.383   2.974   3.882
    1C        C  189   4.341   2.922   4.007
    1C        C  190   4.449   3.105   4.128
    1C        C  191   4.385   2.979   4.129
    1C        C  192   4.473   3.172   4.250
    1C        C  193   4.446   3.109   4.373
    1C        C  194   4.508   3.313   4.494
    1C        C  195   4.474   3.176   4.494
    1C        C  196   4.525   3.388   4.613
    1C        C  197   4.510   3.320   4.736
    1C        C  198   4.555   3.536   4.851
    1C        C  199   4.536   3.395   4.855
    1C        C  200   4.586   3.620   4.963
    1C        C  201   3.617   2.429   2.075
    1C        C  202   3.830   2.511   2.187
    1C        C  203   3.694   2.466   2.189
    1C        C  204   3.899   2.543   2.307
    1C        C  205   3.829   2.525   2.429
    1C        C  206   4.022   2.619   2.547
    1C        C  207   3.896   2.554   2.550
    1C        C  208   4.083   2.662   2.667
    1C        C  209   4.021   2.631   2.790
    1C        C  210   4.198   2.747   2.910
    1C        C  211   4.084   2.665   2.912
    1C        C  212   4.254   2.797   3.030
    1C        C  213   4.200   2.751   3.153
    1C        C  214   4.340   2.908   3.274
    1C        C  215   4.248   2.801   3.276
    1C        C  216   4.378   2.971   3.395
    1C        C  217   4.342   2.913   3.518
    1C        C  218   4.442   3.101   3.638
    1C        C  219   4.383   2.973   3.640
    1C        C  220   4.467   3.166   3.761
    1C        C  221   4.447   3.100   3.884
    1C        C  222   4.509   3.306   4.005
    1C        C  223   4.474   3.169   4.004
    1C        C  224   4.516   3.378   4.126
    1C        C  225   4.505   3.309   4.249
    1C        C  226   4.516   3.522   4.367
    1C        C  227   4.515   3.381   4.370
    1C        C  228   4.520   3.597   4.487
    1C        C  229   4.535   3.528   4.609
    1C        C  230   4.506   3.743   4.728
    1C        C  231   4.541   3.605   4.727
    1C        C  232   4.493   3.818   4.847
    1C        C  233   4.537   3.751   4.963
    1C        C  234   4.023   2.607   2.064
    1C        C  235   3.897   2.548   2.070
    1C        C  236   4.087   2.645   2.183
    1C        C  237   4.024   2.612   2.305
    1C        C  238   4.201   2.737   2.424
    1C        C  239   4.084   2.655   2.425
    1C        C  240   4.257   2.785   2.544
    1C        C  241   4.197   2.745   2.666
    1C        C  242   4.339   2.904   2.788
    1C        C  243   4.251   2.794   2.787
    1C        C  244   4.387   2.960   2.908
    1C        C  245   4.346   2.903   3.031
    1C        C  246   4.448   3.091   3.151
    1C        C  247   4.384   2.965   3.152
    1C        C  248   4.467   3.162   3.272
    1C        C  249   4.439   3.098   3.395
    1C        C  250   4.503   3.303   3.513
    1C        C  251   4.466   3.167   3.515
    1C        C  252   4.511   3.371   3.637
    1C        C  253   4.501   3.304   3.761
    1C        C  254   4.524   3.516   3.880
    1C        C  255   4.519   3.375   3.882
    1C        C  256   4.522   3.587   4.001
    1C        C  257   4.519   3.519   4.125
    1C        C  258   4.487   3.732   4.242
    1C        C  259   4.513   3.593   4.245
    1C        C  260   4.468   3.802   4.363
    1C        C  261   4.484   3.734   4.486
    1C        C  262   4.428   3.940   4.601
    1C        C  263   4.477   3.808   4.606
    1C        C  264   4.405   4.012   4.721
    1C        C  265   4.435   3.947   4.842
    1C        C  266   4.326   4.133   4.959
    1C        C  267   4.397   4.013   4.959
    1C        C  268   4.266   2.773   2.068
    1C        C  269   4.197   2.733   2.183
    1C        C  270   4.352   2.886   2.304
    1C        C  271   4.255   2.782   2.302
    1C        C  272   4.386   2.954   2.423
    1C        C  273   4.344   2.896   2.545
    1C        C  274   4.451   3.083   2.662
    1C        C  275   4.380   2.961   2.665
    1C        C  276   4.478   3.151   2.783
    1C        C  277   4.454   3.084   2.906
    1C        C  278   4.508   3.290   3.024
    1C        C  279   4.478   3.152   3.027
    1C        C  280   4.513   3.365   3.144
    1C        C  281   4.499   3.299   3.268
    1C        C  282   4.520   3.511   3.392
    1C        C  283   4.517   3.370   3.389
    1C        C  284   4.514   3.582   3.514
    1C        C  285   4.514   3.512   3.636
    1C        C  286   4.486   3.724   3.755
    1C        C  287   4.515   3.585   3.757
    1C        C  288   4.470   3.793   3.877
    1C        C  289   4.491   3.725   3.999
    1C        C  290   4.424   3.932   4.118
    1C        C  291   4.468   3.798   4.118
    1C        C  292   4.396   4.001   4.238
    1C        C  293   4.426   3.937   4.360
    1C        C  294   4.321   4.125   4.479
    1C        C  295   4.395   4.005   4.480
    1C        C  296   4.283   4.185   4.601
    1C        C  297   4.330   4.133   4.723
    1C        C  298   4.199   4.312   4.839
    1C        C  299   4.282   4.196   4.841
    1C        C  300   4.174   4.400   4.950
    1C        C  301   4.356   2.880   2.067
    1C        C  302   4.475   3.066   2.176
    1C        C  303   4.400   2.945   2.184
    1C        C  304   4.488   3.140   2.297
    1C        C  305   4.453   3.078   2.419
    1C        C  306   4.514   3.283   2.537
    1C        C  307   4.482   3.146   2.539
    1C        C  308   4.517   3.358   2.657
    1C        C  309   4.501   3.290   2.780
    1C        C  310   4.521   3.502   2.901
    1C        C  311   4.516   3.360   2.902
    1C        C  312   4.512   3.574   3.022
    1C        C  313   4.517   3.506   3.146
    1C        C  314   4.481   3.716   3.267
    1C        C  315   4.512   3.578   3.267
    1C        C  316   4.472   3.788   3.388
    1C        C  317   4.492   3.722   3.511
    1C        C  318   4.426   3.926   3.630
    1C        C  319   4.471   3.792   3.632
    1C        C  320   4.397   3.993   3.751
    1C        C  321   4.424   3.926   3.873
    1C        C  322   4.320   4.114   3.992
    1C        C  323   4.392   3.992   3.994
    1C        C  324   4.284   4.177   4.113
    1C        C  325   4.324   4.122   4.236
    1C        C  326   4.188   4.290   4.355
    1C        C  327   4.283   4.185   4.356
    1C        C  328   4.137   4.340   4.476
    1C        C  329   4.192   4.293   4.598
    1C        C  330   4.023   4.434   4.716
    1C        C  331   4.137   4.349   4.716
    1C        C  332   3.970   4.494   4.833
    1C        C  333   4.056   4.475   4.942
    1C        C  334   4.554   3.270   2.064
    1C        C  335   4.537   3.131   2.064
    1C        C  336   4.546   3.350   2.179
    1C        C  337   4.521   3.278   2.298
    1C        C  338   4.524   3.496   2.411
    1C        C  339   4.531   3.355   2.416
    1C        C  340   4.523   3.569   2.532
    1C        C  341   4.520   3.499   2.655
    1C        C  342   4.487   3.708   2.776
    1C        C  343   4.512   3.569   2.777
    1C        C  344   4.467   3.779   2.897
    1C        C  345   4.487   3.713   3.020
    1C        C  346   4.425   3.916   3.140
    1C        C  347   4.466   3.780   3.142
    1C        C  348   4.394   3.980   3.261
    1C        C  349   4.428   3.923   3.386
    1C        C  350   4.323   4.108   3.505
    1C        C  351   4.399   3.989   3.507
    1C        C  352   4.280   4.169   3.625
    1C        C  353   4.325   4.114   3.747
    1C        C  354   4.178   4.270   3.868
    1C        C  355   4.277   4.169   3.869
    1C        C  356   4.126   4.321   3.989
    1C        C  357   4.184   4.277   4.110
    1C        C  358   4.013   4.406   4.231
    1C        C  359   4.130   4.326   4.231
    1C        C  360   3.957   4.451   4.352
    1C        C  361   4.021   4.420   4.474
    1C        C  362   3.829   4.519   4.594
    1C        C  363   3.959   4.462   4.594
    1C        C  364   3.764   4.553   4.715
    1C        C  365   3.839   4.546   4.834
    1C        C  366   3.628   4.588   4.950
    1C        C  367   3.766   4.570   4.951
    1C        C  368   4.504   3.565   2.052
    1C        C  369   4.525   3.489   2.169
    1C        C  370   4.504   3.705   2.289
    1C        C  371   4.522   3.565   2.288
    1C        C  372   4.482   3.776   2.409
    1C        C  373   4.501   3.708   2.531
    1C        C  374   4.421   3.907   2.649
    1C        C  375   4.476   3.777   2.653
    1C        C  376   4.392   3.973   2.770
    1C        C  377   4.420   3.912   2.895
    1C        C  378   4.317   4.097   3.013
    1C        C  379   4.392   3.977   3.017
    1C        C  380   4.278   4.154   3.136
    1C        C  381   4.317   4.099   3.260
    1C        C  382   4.178   4.259   3.378
    1C        C  383   4.277   4.158   3.382
    1C        C  384   4.127   4.313   3.499
    1C        C  385   4.181   4.271   3.622
    1C        C  386   4.007   4.392   3.743
    1C        C  387   4.125   4.314   3.744
    1C        C  388   3.950   4.435   3.864
    1C        C  389   4.012   4.404   3.987
    1C        C  390   3.820   4.495   4.108
    1C        C  391   3.951   4.442   4.109
    1C        C  392   3.757   4.521   4.232
    1C        C  393   3.826   4.503   4.354
    1C        C  394   3.618   4.559   4.477
    1C        C  395   3.756   4.533   4.473
    1C        C  396   3.548   4.568   4.599
    1C        C  397   3.624   4.564   4.718
    1C        C  398   3.409   4.543   4.842
    1C        C  399   3.548   4.569   4.837
    1C        C  400   3.343   4.506   4.960
    1C        C  401   4.506   3.704   2.054
    1C        C  402   4.453   3.916   2.167
    1C        C  403   4.488   3.779   2.170
    1C        C  404   4.411   3.979   2.287
    1C        C  405   4.435   3.910   2.408
    1C        C  406   4.327   4.096   2.526
    1C        C  407   4.403   3.977   2.528
    1C        C  408   4.276   4.149   2.646
    1C        C  409   4.317   4.093   2.769
    1C        C  410   4.176   4.252   2.889
    1C        C  411   4.278   4.155   2.890
    1C        C  412   4.126   4.299   3.013
    1C        C  413   4.180   4.256   3.136
    1C        C  414   4.008   4.385   3.253
    1C        C  415   4.124   4.306   3.256
    1C        C  416   3.947   4.422   3.375
    1C        C  417   4.009   4.391   3.498
    1C        C  418   3.817   4.483   3.620
    1C        C  419   3.946   4.426   3.620
    1C        C  420   3.750   4.507   3.742
    1C        C  421   3.820   4.491   3.864
    1C        C  422   3.610   4.530   3.989
    1C        C  423   3.750   4.510   3.986
    1C        C  424   3.544   4.535   4.114
    1C        C  425   3.617   4.539   4.235
    1C        C  426   3.404   4.543   4.359
    1C        C  427   3.545   4.552   4.356
    1C        C  428   3.332   4.539   4.481
    1C        C  429   3.407   4.554   4.599
    1C        C  430   3.196   4.517   4.724
    1C        C  431   3.336   4.540   4.721
    1C        C  432   3.127   4.489   4.845
    1C        C  433   3.204   4.494   4.962
    1C        C  434   4.382   4.124   2.049
    1C        C  435   4.446   3.999   2.055
    1C        C  436   4.303   4.163   2.161
    1C        C  437   4.336   4.099   2.284
    1C        C  438   4.185   4.254   2.404
    1C        C  439   4.284   4.153   2.404
    1C        C  440   4.133   4.305   2.525
    1C        C  441   4.185   4.257   2.647
    1C        C  442   4.011   4.384   2.766
    1C        C  443   4.126   4.302   2.767
    1C        C  444   3.950   4.418   2.888
    1C        C  445   4.012   4.382   3.010
    1C        C  446   3.816   4.473   3.130
    1C        C  447   3.946   4.418   3.130
    1C        C  448   3.750   4.496   3.253
    1C        C  449   3.818   4.481   3.376
    1C        C  450   3.611   4.525   3.499
    1C        C  451   3.751   4.505   3.498
    1C        C  452   3.541   4.539   3.621
    1C        C  453   3.612   4.534   3.744
    1C        C  454   3.401   4.539   3.866
    1C        C  455   3.542   4.540   3.866
    1C        C  456   3.333   4.529   3.990
    1C        C  457   3.403   4.533   4.113
    1C        C  458   3.198   4.498   4.238
    1C        C  459   3.334   4.534   4.236
    1C        C  460   3.129   4.481   4.360
    1C        C  461   3.194   4.511   4.482
    1C        C  462   2.997   4.435   4.603
    1C        C  463   3.125   4.495   4.604
    1C        C  464   2.930   4.405   4.723
    1C        C  465   2.992   4.442   4.846
    1C        C  466   2.800   4.339   4.960
    1C        C  467   2.912   4.422   4.963
    1C        C  468   4.119   4.280   2.043
    1C        C  469   4.189   4.249   2.161
    1C        C  470   4.013   4.376   2.280
    1C        C  471   4.132   4.299   2.281
    1C        C  472   3.948   4.410   2.401
    1C        C  473   4.011   4.376   2.523
    1C        C  474   3.816   4.466   2.644
    1C        C  475   3.949   4.418   2.643
    1C        C  476   3.748   4.490   2.766
    1C        C  477   3.819   4.472   2.887
    1C        C  478   3.610   4.521   3.008
    1C        C  479   3.748   4.493   3.007
    1C        C  480   3.540   4.525   3.131
    1C        C  481   3.611   4.516   3.254
    1C        C  482   3.400   4.529   3.377
    1C        C  483   3.541   4.527   3.376
    1C        C  484   3.329   4.525   3.500
    1C        C  485   3.400   4.539   3.621
    1C        C  486   3.196   4.492   3.748
    1C        C  487   3.331   4.534   3.744
    1C        C  488   3.129   4.468   3.871
    1C        C  489   3.196   4.497   3.992
    1C        C  490   3.006   4.408   4.116
    1C        C  491   3.133   4.471   4.116
    1C        C  492   2.941   4.382   4.238
    1C        C  493   2.999   4.425   4.360
    1C        C  494   2.827   4.304   4.483
    1C        C  495   2.935   4.395   4.482
    1C        C  496   2.776   4.256   4.606
    1C        C  497   2.818   4.317   4.726
    1C        C  498   2.659   4.171   4.844
    1C        C  499   2.750   4.279   4.844
    1C        C  500   2.597   4.122   4.960
    1C        C  501   4.002   4.356   2.039
    1C        C  502   3.818   4.463   2.159
    1C        C  503   3.946   4.404   2.159
    1C        C  504   3.747   4.482   2.279
    1C        C  505   3.816   4.460   2.401
    1C        C  506   3.609   4.508   2.519
    1C        C  507   3.749   4.487   2.522
    1C        C  508   3.539   4.518   2.641
    1C        C  509   3.610   4.518   2.764
    1C        C  510   3.398   4.523   2.885
    1C        C  511   3.539   4.525   2.886
    1C        C  512   3.329   4.516   3.008
    1C        C  513   3.399   4.524   3.131
    1C        C  514   3.193   4.486   3.257
    1C        C  515   3.330   4.520   3.255
    1C        C  516   3.127   4.463   3.379
    1C        C  517   3.193   4.487   3.502
    1C        C  518   2.999   4.411   3.628
    1C        C  519   3.130   4.463   3.626
    1C        C  520   2.938   4.374   3.749
    1C        C  521   3.002   4.406   3.871
    1C        C  522   2.831   4.285   3.997
    1C        C  523   2.944   4.371   3.995
    1C        C  524   2.782   4.238   4.120
    1C        C  525   2.829   4.296   4.240
    1C        C  526   2.691   4.138   4.366
    1C        C  527   2.777   4.249   4.363
    1C        C  528   2.656   4.076   4.489
    1C        C  529   2.690   4.144   4.608
    1C        C  530   2.587   3.962   4.732
    1C        C  531   2.633   4.096   4.728
    1C        C  532   2.551   3.904   4.856
    1C        C  533   2.530   3.999   4.961
    1C        C  534   3.620   4.556   2.040
    1C        C  535   3.755   4.521   2.048
    1C        C  536   3.538   4.538   2.156
    1C        C  537   3.610   4.517   2.277
    1C        C  538   3.396   4.510   2.400
    1C        C  539   3.537   4.518   2.398
    1C        C  540   3.327   4.500   2.523
    1C        C  541   3.398   4.509   2.645
    1C        C  542   3.186   4.481   2.765
    1C        C  543   3.325   4.510   2.765
    1C        C  544   3.124   4.461   2.890
    1C        C  545   3.193   4.481   3.012
    1C        C  546   2.998   4.401   3.137
    1C        C  547   3.127   4.458   3.135
    1C        C  548   2.938   4.367   3.260
    1C        C  549   2.997   4.407   3.382
    1C        C  550   2.830   4.284   3.506
    1C        C  551   2.937   4.376   3.506
    1C        C  552   2.777   4.235   3.627
    1C        C  553   2.827   4.287   3.749
    1C        C  554   2.699   4.123   3.876
    1C        C  555   2.781   4.238   3.874
    1C        C  556   2.655   4.069   3.999
    1C        C  557   2.693   4.128   4.121
    1C        C  558   2.595   3.946   4.247
    1C        C  559   2.652   4.075   4.246
    1C        C  560   2.564   3.881   4.369
    1C        C  561   2.589   3.952   4.488
    1C        C  562   2.525   3.754   4.617
    1C        C  563   2.560   3.891   4.612
    1C        C  564   2.519   3.684   4.739
    1C        C  565   2.520   3.764   4.856
    1C        C  566   2.538   3.553   4.979
    1C        C  567   2.527   3.691   4.976
    1C        C  568   3.329   4.478   2.040
    1C        C  569   3.397   4.518   2.156
    1C        C  570   3.186   4.472   2.280
    1C        C  571   3.325   4.503   2.278
    1C        C  572   3.117   4.456   2.402
    1C        C  573   3.189   4.475   2.523
    1C        C  574   2.989   4.399   2.649
    1C        C  575   3.118   4.457   2.644
    1C        C  576   2.933   4.360   2.772
    1C        C  577   3.000   4.394   2.892
    1C        C  578   2.829   4.273   3.018
    1C        C  579   2.937   4.364   3.015
    1C        C  580   2.777   4.223   3.140
    1C        C  581   2.831   4.275   3.260
    1C        C  582   2.694   4.118   3.385
    1C        C  583   2.783   4.228   3.385
    1C        C  584   2.657   4.060   3.508
    1C        C  585   2.694   4.121   3.631
    1C        C  586   2.590   3.939   3.757
    1C        C  587   2.658   4.063   3.755
    1C        C  588   2.564   3.875   3.880
    1C        C  589   2.593   3.942   4.001
    1C        C  590   2.532   3.742   4.129
    1C        C  591   2.572   3.878   4.125
    1C        C  592   2.523   3.675   4.253
    1C        C  593   2.530   3.744   4.376
    1C        C  594   2.512   3.535   4.500
    1C        C  595   2.519   3.676   4.499
    1C        C  596   2.520   3.467   4.623
    1C        C  597   2.521   3.542   4.743
    1C        C  598   2.539   3.330   4.864
    1C        C  599   2.533   3.472   4.865
    1C        C  600   2.543   3.249   4.978
    1C        C  601   3.197   4.437   2.044
    1C        C  602   2.981   4.396   2.158
    1C        C  603   3.118   4.438   2.160
    1C        C  604   2.925   4.360   2.284
    1C        C  605   2.991   4.393   2.404
    1C        C  606   2.818   4.274   2.529
    1C        C  607   2.928   4.362   2.527
    1C        C  608   2.775   4.218   2.651
    1C        C  609   2.824   4.271   2.773
    1C        C  610   2.682   4.116   2.896
    1C        C  611   2.776   4.222   2.897
    1C        C  612   2.645   4.057   3.019
    1C        C  613   2.690   4.112   3.141
    1C        C  614   2.586   3.931   3.268
    1C        C  615   2.652   4.056   3.265
    1C        C  616   2.561   3.867   3.391
    1C        C  617   2.592   3.935   3.511
    1C        C  618   2.529   3.736   3.641
    1C        C  619   2.568   3.871   3.635
    1C        C  620   2.516   3.670   3.765
    1C        C  621   2.530   3.738   3.888
    1C        C  622   2.505   3.528   4.010
    1C        C  623   2.517   3.668   4.010
    1C        C  624   2.510   3.460   4.134
    1C        C  625   2.512   3.534   4.255
    1C        C  626   2.539   3.325   4.381
    1C        C  627   2.511   3.464   4.378
    1C        C  628   2.551   3.256   4.503
    1C        C  629   2.542   3.327   4.625
    1C        C  630   2.597   3.120   4.743
    1C        C  631   2.554   3.255   4.746
    1C        C  632   2.619   3.050   4.865
    1C        C  633   2.563   3.110   4.981
    1C        C  634   2.780   4.303   2.056
    1C        C  635   2.893   4.385   2.046
    1C        C  636   2.748   4.228   2.171
    1C        C  637   2.812   4.274   2.288
    1C        C  638   2.672   4.113   2.413
    1C        C  639   2.763   4.221   2.410
    1C        C  640   2.640   4.048   2.534
    1C        C  641   2.690   4.106   2.653
    1C        C  642   2.585   3.925   2.778
    1C        C  643   2.649   4.050   2.776
    1C        C  644   2.558   3.860   2.901
    1C        C  645   2.583   3.931   3.021
    1C        C  646   2.521   3.730   3.151
    1C        C  647   2.558   3.867   3.145
    1C        C  648   2.506   3.661   3.273
    1C        C  649   2.521   3.732   3.395
    1C        C  650   2.515   3.524   3.520
    1C        C  651   2.518   3.665   3.519
    1C        C  652   2.521   3.456   3.644
    1C        C  653   2.512   3.529   3.765
    1C        C  654   2.538   3.320   3.891
    1C        C  655   2.508   3.458   3.887
    1C        C  656   2.556   3.254   4.014
    1C        C  657   2.538   3.322   4.137
    1C        C  658   2.609   3.123   4.258
    1C        C  659   2.561   3.256   4.260
    1C        C  660   2.637   3.061   4.382
    1C        C  661   2.598   3.123   4.503
    1C        C  662   2.717   2.942   4.623
    1C        C  663   2.632   3.055   4.622
    1C        C  664   2.752   2.879   4.745
    1C        C  665   2.701   2.932   4.866
    1C        C  666   2.742   2.870   4.985
    1C        C  667   2.677   4.022   2.059
    1C        C  668   2.680   4.105   2.172
    1C        C  669   2.583   3.915   2.293
    1C        C  670   2.636   4.047   2.293
    1C        C  671   2.552   3.851   2.414
    1C        C  672   2.579   3.921   2.534
    1C        C  673   2.515   3.721   2.658
    1C        C  674   2.554   3.857   2.658
    1C        C  675   2.504   3.654   2.782
    1C        C  676   2.522   3.724   2.904
    1C        C  677   2.509   3.518   3.034
    1C        C  678   2.511   3.659   3.029
    1C        C  679   2.512   3.445   3.155
    1C        C  680   2.507   3.520   3.274
    1C        C  681   2.533   3.313   3.403
    1C        C  682   2.511   3.452   3.398
    1C        C  683   2.558   3.247   3.526
    1C        C  684   2.540   3.316   3.648
    1C        C  685   2.606   3.116   3.770
    1C        C  686   2.558   3.249   3.770
    1C        C  687   2.641   3.056   3.893
    1C        C  688   2.609   3.123   4.013
    1C        C  689   2.718   2.942   4.139
    1C        C  690   2.642   3.061   4.136
    1C        C  691   2.762   2.885   4.260
    1C        C  692   2.713   2.942   4.380
    1C        C  693   2.758   2.885   4.501
    1C        C  694   2.626   3.892   2.058
    1C        C  695   2.518   3.707   2.174
    1C        C  696   2.571   3.837   2.175
    1C        C  697   2.503   3.640   2.298
    1C        C  698   2.517   3.714   2.417
    1C        C  699   2.492   3.505   2.546
    1C        C  700   2.498   3.646   2.540
    1C        C  701   2.508   3.438   2.669
    1C        C  702   2.507   3.513   2.788
    1C        C  703   2.529   3.305   2.911
    1C        C  704   2.513   3.446   2.912
    1C        C  705   2.547   3.237   3.034
    1C        C  706   2.531   3.305   3.156
    1C        C  707   2.599   3.110   3.281
    1C        C  708   2.549   3.242   3.281
    1C        C  709   2.635   3.049   3.404
    1C        C  710   2.614   3.118   3.526
    1C        C  711   2.719   2.936   3.648
    1C        C  712   2.640   3.053   3.648
    1C        C  713   2.764   2.884   3.772
    1C        C  714   2.726   2.943   3.894
    1C        C  715   2.761   2.884   4.018
    1C        C  716   2.442   3.499   2.063
    1C        C  717   2.494   3.629   2.060
    1C        C  718   2.464   3.424   2.183
    1C        C  719   2.485   3.499   2.302
    1C        C  720   2.521   3.293   2.424
    1C        C  721   2.492   3.431   2.426
    1C        C  722   2.543   3.227   2.547
    1C        C  723   2.527   3.298   2.668
    1C        C  724   2.599   3.103   2.792
    1C        C  725   2.542   3.232   2.792
    1C        C  726   2.626   3.037   2.914
    1C        C  727   2.598   3.105   3.035
    1C        C  728   2.708   2.928   3.159
    1C        C  729   2.628   3.045   3.159
    1C        C  730   2.754   2.875   3.282
    1C        C  731   2.716   2.934   3.405
    1C        C  732   2.764   2.881   3.526
    1C        C  733   2.490   3.198   2.073
    1C        C  734   2.493   3.284   2.183
    1C        C  735   2.584   3.088   2.305
    1C        C  736   2.523   3.217   2.305
    1C        C  737   2.616   3.025   2.427
    1C        C  738   2.588   3.093   2.547
    1C        C  739   2.698   2.914   2.670
    1C        C  740   2.630   3.038   2.670
    1C        C  741   2.742   2.860   2.793
    1C        C  742   2.700   2.917   2.915
    1C        C  743   2.747   2.867   3.038
    1C        C  744   2.546   3.071   2.075
    1C        C  745   2.690   2.901   2.185
    1C        C  746   2.616   3.021   2.186
    1C        C  747   2.730   2.844   2.308
    1C        C  748   2.689   2.903   2.429
    1C        C  749   2.733   2.847   2.550
    1C        C  750   2.736   2.840   2.067
    1C        C  751   3.661   2.317   1.989
    1C        O  752   3.671   2.197   2.027
    1C        O  753   3.699   2.320   1.854
    1C        C  754   4.659   3.070   2.007
    1C        O  755   4.648   3.031   1.888
    1C        O  756   4.770   3.040   2.087
    1C        C  757   4.441   4.211   1.945
    1C        O  758   4.533   4.295   1.966
    1C        O  759   4.405   4.193   1.811
    1C        C  760   3.597   4.662   1.939
    1C        O  761   3.607   4.782   1.976
    1C        O  762   3.630   4.647   1.804
    1C        C  763   2.882   4.489   1.942
    1C        O  764   2.883   4.466   1.818
    1C        O  765   2.816   4.610   1.969
    1C        C  766   2.325   3.483   1.974
    1C        O  767   2.321   3.498   1.849
    1C        O  768   2.195   3.513   2.017
    1C        C  769   4.687   3.595   5.067
    1C        O  770   4.661   3.583   5.190
    1C        O  771   4.813   3.550   5.024
    1C        C  772   4.281   4.439   5.044
    1C        O  773   4.284   4.396   5.162
    1C        O  774   4.353   4.559   5.044
    1C        C  775   4.150   2.514   5.066
    1C        O  776   4.174   2.392   5.046
    1C        O  777   4.142   2.548   5.201
    1C        C  778   2.894   4.529   5.064
    1C        O  779   2.874   4.649   5.032
    1C        O  780   2.905   4.501   5.201
    1C        C  781   2.484   3.032   5.080
    1C        O  782   2.390   2.953   5.051
    1C        O  783   2.470   3.070   5.213
    1C        C  784   2.412   4.000   5.050
    1C        O  785   2.303   4.007   4.986
    1C        O  786   2.400   3.910   5.157
    1C        C  787   2.949   2.433   2.001
    1C        O  788   2.928   2.455   1.879
    1C        O  789   2.882   2.322   2.051
    1C        C  790   3.191   2.388   5.085
    1C        O  791   3.110   2.291   5.093
    1C        O  792   3.209   2.440   5.214
    1C        H  793   4.257   3.038   5.050
    1C        H  794   4.138   2.849   5.050
    1C        H  795   4.543   3.123   5.039
    1C        H  796   4.505   3.380   5.061
    1C        H  797   4.549   3.804   5.055
    1C        H  798   4.432   3.977   5.054
    1C        H  799   4.278   4.171   5.046
    1C        H  800   4.048   4.548   5.020
    1C        H  801   3.817   4.602   5.039
    1C        H  802   3.588   4.643   5.033
    1C        H  803   3.398   4.437   5.020
    1C        H  804   3.164   4.513   5.059
    1C        H  805   3.884   2.496   5.067
    1C        H  806   3.666   2.404   5.045
    1C        H  807   3.003   2.553   5.062
    1C        H  808   3.441   2.476   5.079
    1C        H  809   2.898   2.755   5.068
    1C        H  810   2.666   2.844   5.056
    1C        H  811   2.544   3.291   5.076
    1C        H  812   2.524   3.503   5.073
    1C        H  813   2.483   3.732   5.064
    1C        H  814   2.617   4.164   5.057
    1C        H  815   2.733   4.345   5.044
    1C        H  816   2.740   2.898   1.977
    1C        H  817   2.858   2.694   1.979
    1C        H  818   3.189   2.391   2.016
    1C        H  819   3.427   2.383   1.996
    1C        H  820   3.845   2.535   1.977
    1C        H  821   4.068   2.616   1.968
    1C        H  822   4.277   2.699   1.991
    1C        H  823   4.349   2.940   1.979
    1C        H  824   4.577   3.314   1.970
    1C        H  825   4.491   3.513   1.960
    1C        H  826   4.561   3.752   1.976
    1C        H  827   3.823   4.552   1.971
    1C        H  828   3.938   4.335   1.956
    1C        H  829   4.165   4.253   1.951
    1C        H  830   4.487   3.961   1.964
    1C        H  831   2.664   3.825   1.984
    1C        H  832   2.696   4.068   1.964
    1C        H  833   2.704   4.316   1.982
    1C        H  834   3.383   4.450   1.952
    1C        H  835   3.155   4.395   1.955
    1C        H  836   2.537   3.016   1.983
    1C        H  837   2.419   3.226   1.997
    1C        H  838   2.515   3.670   1.964
    2V3OU   H29  839   2.805   3.553   5.122
    2V3OU   C27  840   2.783   3.500   5.218
    2V3OU   H27  841   2.725   3.568   5.286
    2V3OU   H28  842   2.730   3.404   5.197
    2V3OU   O11  843   2.909   3.475   5.280
    2V3OU   C15  844   2.921   3.398   5.394
    2V3OU   C13  845   3.054   3.381   5.440
    2V3OU   C14  846   3.078   3.269   5.519
    2V3OU   C16  847   2.975   3.188   5.564
    2V3OU    H6  848   2.993   3.099   5.626
    2V3OU   C12  849   3.218   3.233   5.553
    2V3OU    O2  850   3.237   3.135   5.629
    2V3OU   C10  851   3.325   3.305   5.483
    2V3OU    C8  852   3.459   3.269   5.494
    2V3OU   O10  853   3.489   3.151   5.555
    2V3OU   H26  854   3.406   3.125   5.599
    2V3OU    C6  855   3.565   3.350   5.444
    2V3OU    C5  856   3.536   3.474   5.387
    2V3OU    C4  857   3.704   3.297   5.450
    2V3OU    H4  858   3.718   3.227   5.538
    2V3OU    H5  859   3.713   3.222   5.366
    2V3OU    C2  860   3.817   3.400   5.445
    2V3OU    O6  861   3.808   3.485   5.559
    2V3OU   H21  862   3.768   3.566   5.523
    2V3OU    C3  863   3.784   3.495   5.329
    2V3OU    H2  864   3.867   3.571   5.330
    2V3OU    H3  865   3.792   3.438   5.232
    2V3OU   C25  866   3.952   3.332   5.422
    2V3OU    O7  867   3.992   3.299   5.311
    2V3OU   C26  868   4.034   3.292   5.544
    2V3OU   H22  869   4.069   3.382   5.601
    2V3OU   H23  870   4.115   3.221   5.515
    2V3OU    O8  871   3.966   3.207   5.633
    2V3OU   H24  872   3.924   3.263   5.701
    2V3OU    C1  873   3.649   3.562   5.341
    2V3OU    H1  874   3.627   3.615   5.244
    2V3OU    O3  875   3.660   3.659   5.446
    2V3OU   C19  876   3.624   3.796   5.430
    2V3OU    H9  877   3.521   3.801   5.383
    2V3OU    O4  878   3.719   3.848   5.340
    2V3OU   C20  879   3.847   3.869   5.398
    2V3OU   H10  880   3.893   3.768   5.419
    2V3OU   C24  881   3.612   3.857   5.570
    2V3OU   H16  882   3.546   3.791   5.632
    2V3OU   H17  883   3.561   3.956   5.553
    2V3OU   C23  884   3.753   3.875   5.629
    2V3OU   H15  885   3.794   3.773   5.657
    2V3OU    N1  886   3.741   3.953   5.751
    2V3OU   H19  887   3.810   3.921   5.816
    2V3OU   H20  888   3.655   3.928   5.795
    2V3OU   C21  889   3.850   3.947   5.530
    2V3OU   H11  890   3.953   3.928   5.572
    2V3OU    O5  891   3.824   4.086   5.542
    2V3OU   H18  892   3.783   4.101   5.629
    2V3OU   C22  893   3.914   3.950   5.288
    2V3OU   H12  894   3.860   4.047   5.272
    2V3OU   H13  895   3.909   3.893   5.192
    2V3OU   H14  896   4.023   3.962   5.311
    2V3OU   C11  897   3.159   3.480   5.412
    2V3OU    O1  898   3.132   3.593   5.364
    2V3OU    C9  899   3.297   3.427   5.416
    2V3OU    C7  900   3.399   3.508   5.367
    2V3OU    O9  901   3.384   3.623   5.292
    2V3OU   H25  902   3.290   3.631   5.271
    2V3OU   C17  903   2.817   3.314   5.438
    2V3OU    H7  904   2.716   3.347   5.417
    2V3OU   C18  905   2.842   3.213   5.530
    2V3OU    H8  906   2.760   3.148   5.565
    3SOL     OW  907   3.999   3.927   4.031
    3SOL    HW1  908   4.031   3.993   4.099
    3SOL    HW2  909   3.909   3.954   3.998
    4SOL     OW  910   6.716   0.377   0.555
    4SOL    HW1  911   6.722   0.357   0.653
    4SOL    HW2  912   6.626   0.352   0.521
    5SOL     OW  913   4.626   1.692   1.582
    5SOL    HW1  914   4.610   1.626   1.656
    5SOL    HW2  915   4.705   1.662   1.528
    6SOL     OW  916   5.759   0.578   2.735
    6SOL    HW1  917   5.825   0.508   2.763
    6SOL    HW2  918   5.773   0.660   2.790
    7SOL     OW  919   2.337   4.253   4.116
    7SOL    HW1  920   2.323   4.244   4.017
    7SOL    HW2  921   2.434   4.239   4.137
    8SOL     OW  922   2.139   3.480   5.424
    8SOL    HW1  923   2.042   3.455   5.432
    8SOL    HW2  924   2.181   3.481   5.515
    9SOL     OW  925   6.548   1.063   6.521
    9SOL    HW1  926   6.531   1.109   6.434
    9SOL    HW2  927   6.637   1.090   6.557
   10SOL     OW  928   5.070   4.460   2.931
   10SOL    HW1  929   5.025   4.548   2.928
   10SOL    HW2  930   5.085   4.427   2.838
   11SOL     OW  931   2.845   1.427   0.511
   11SOL    HW1  932   2.887   1.384   0.431
   11SOL    HW2  933   2.826   1.358   0.580
   12SOL     OW  934   3.001   4.792   2.909
   12SOL    HW1  935   3.065   4.832   2.975
   12SOL    HW2  936   2.909   4.789   2.948
   13SOL     OW  937   4.932   6.340   1.140
   13SOL    HW1  938   5.027   6.324   1.169
   13SOL    HW2  939   4.932   6.397   1.059
   14SOL     OW  940   4.337   5.182   5.089
   14SOL    HW1  941   4.320   5.274   5.125
   14SOL    HW2  942   4.252   5.130   5.089
   15SOL     OW  943   6.446   6.050   6.015
   15SOL    HW1  944   6.458   5.976   5.949
   15SOL    HW2  945   6.477   6.020   6.106
   16SOL     OW  946   0.902   4.031   5.049
   16SOL    HW1  947   0.948   4.039   5.137
   16SOL    HW2  948   0.971   4.031   4.976
   17SOL     OW  949   6.241   1.718   5.039
   17SOL    HW1  950   6.151   1.699   5.002
   17SOL    HW2  951   6.263   1.652   5.111
   18SOL     OW  952   2.924   1.028   5.749
   18SOL    HW1  953   2.884   0.957   5.808
   18SOL    HW2  954   2.991   1.081   5.800
   19SOL     OW  955   2.059   0.996   2.828
   19SOL    HW1  956   2.145   1.003   2.777
   19SOL    HW2  957   2.019   0.906   2.814
   20SOL     OW  958   6.476   1.839   5.482
   20SOL    HW1  959   6.405   1.836   5.553
   20SOL    HW2  960   6.440   1.797   5.398
   21SOL     OW  961   2.590   4.601   2.814
   21SOL    HW1  962   2.677   4.629   2.773
   21SOL    HW2  963   2.538   4.548   2.747
   22SOL     OW  964   1.741   6.671   6.495
   22SOL    HW1  965   1.765   6.765   6.473
   22SOL    HW2  966   1.803   6.608   6.448
   23SOL     OW  967   5.403   4.546   1.351
   23SOL    HW1  968   5.407   4.488   1.433
   23SOL    HW2  969   5.425   4.640   1.376
   24SOL     OW  970   4.589   1.051   1.092
   24SOL    HW1  971   4.674   1.091   1.127
   24SOL    HW2  972   4.603   0.953   1.075
   25SOL     OW  973   1.718   1.103   4.646
   25SOL    HW1  974   1.771   1.106   4.731
   25SOL    HW2  975   1.716   1.009   4.612
   26SOL     OW  976   1.410   2.913   6.998
   26SOL    HW1  977   1.418   2.814   6.991
   26SOL    HW2  978   1.316   2.938   7.017
   27SOL     OW  979   6.147   0.695   1.245
   27SOL    HW1  980   6.094   0.779   1.245
   27SOL    HW2  981   6.100   0.626   1.190
   28SOL     OW  982   2.730   0.919   5.122
   28SOL    HW1  983   2.671   0.858   5.069
   28SOL    HW2  984   2.826   0.899   5.102
   29SOL     OW  985   0.608   0.696   1.305
   29SOL    HW1  986   0.645   0.778   1.261
   29SOL    HW2  987   0.640   0.615   1.256
   30SOL     OW  988   4.244   0.554   5.031
   30SOL    HW1  989   4.261   0.643   5.074
   30SOL    HW2  990   4.329   0.518   4.993
   31SOL     OW  991   1.063   4.036   5.294
   31SOL    HW1  992   1.095   4.066   5.384
   31SOL    HW2  993   1.063   3.936   5.291
   32SOL     OW  994   3.081   0.788   0.860
   32SOL    HW1  995   3.132   0.702   0.852
   32SOL    HW2  996   2.984   0.770   0.847
   33SOL     OW  997   0.853   5.155   5.739
   33SOL    HW1  998   0.835   5.100   5.820
   33SOL    HW2  999   0.781   5.224   5.730
   34SOL     OW 1000   2.081   5.309   5.369
   34SOL    HW1 1001   2.075   5.406   5.394
   34SOL    HW2 1002   2.176   5.278   5.380
   35SOL     OW 1003   2.845   3.181   6.894
   35SOL    HW1 1004   2.889   3.249   6.835
   35SOL    HW2 1005   2.888   3.092   6.880
   36SOL     OW 1006   4.472   0.969   4.913
   36SOL    HW1 1007   4.466   0.943   4.817
   36SOL    HW2 1008   4.452   1.067   4.922
   37SOL     OW 1009   2.940   0.588   4.252
   37SOL    HW1 1010   2.948   0.529   4.332
   37SOL    HW2 1011   3.026   0.638   4.239
   38SOL     OW 1012   7.014   4.308   2.657
   38SOL    HW1 1013   0.080   4.280   2.629
   38SOL    HW2 1014   6.948   4.284   2.586
   39SOL     OW 1015   6.888   5.678   6.686
   39SOL    HW1 1016   6.974   5.725   6.665
   39SOL    HW2 1017   6.907   5.582   6.707
   40SOL     OW 1018   4.049   0.833   6.282
   40SOL    HW1 1019   3.980   0.761   6.285
   40SOL    HW2 1020   4.051   0.874   6.191
   41SOL     OW 1021   5.656   4.292   1.465
   41SOL    HW1 1022   5.661   4.196   1.435
   41SOL    HW2 1023   5.566   4.310   1.502
   42SOL     OW 1024   2.540   5.527   6.145
   42SOL    HW1 1025   2.469   5.458   6.161
   42SOL    HW2 1026   2.626   5.497   6.186
   43SOL     OW 1027   3.750   6.997   4.420
   43SOL    HW1 1028   3.747   6.967   4.325
   43SOL    HW2 1029   3.813   0.049   4.428
   44SOL     OW 1030   0.012   1.550   6.106
   44SOL    HW1 1031   6.950   1.586   6.075
   44SOL    HW2 1032   0.047   1.607   6.180
   45SOL     OW 1033   2.859   5.382   0.005
   45SOL    HW1 1034   2.903   5.454   6.978
   45SOL    HW2 1035   2.896   5.381   0.098
   46SOL     OW 1036   0.494   2.621   4.172
   46SOL    HW1 1037   0.410   2.611   4.225
   46SOL    HW2 1038   0.478   2.594   4.077
   47SOL     OW 1039   5.644   3.112   1.010
   47SOL    HW1 1040   5.670   3.059   1.091
   47SOL    HW2 1041   5.544   3.111   1.001
   48SOL     OW 1042   6.904   3.661   0.877
   48SOL    HW1 1043   6.975   3.654   0.946
   48SOL    HW2 1044   6.819   3.622   0.912
   49SOL     OW 1045   4.156   3.961   0.087
   49SOL    HW1 1046   4.081   3.950   0.152
   49SOL    HW2 1047   4.227   3.894   0.107
   50SOL     OW 1048   6.148   3.217   6.972
   50SOL    HW1 1049   6.102   3.134   6.942
   50SOL    HW2 1050   6.170   3.274   6.893
   51SOL     OW 1051   2.341   6.052   2.926
   51SOL    HW1 1052   2.384   5.988   2.989
   51SOL    HW2 1053   2.342   6.014   2.833
   52SOL     OW 1054   5.538   2.483   1.126
   52SOL    HW1 1055   5.475   2.429   1.071
   52SOL    HW2 1056   5.631   2.471   1.091
   53SOL     OW 1057   4.221   0.365   2.127
   53SOL    HW1 1058   4.304   0.329   2.084
   53SOL    HW2 1059   4.229   0.355   2.227
   54SOL     OW 1060   5.662   6.607   6.641
   54SOL    HW1 1061   5.688   6.536   6.707
   54SOL    HW2 1062   5.708   6.693   6.665
   55SOL     OW 1063   0.692   3.465   6.771
   55SOL    HW1 1064   0.673   3.466   6.673
   55SOL    HW2 1065   0.686   3.559   6.807
   56SOL     OW 1066   1.073   2.887   6.987
   56SOL    HW1 1067   1.098   2.844   0.048
   56SOL    HW2 1068   1.055   2.985   7.003
   57SOL     OW 1069   4.602   6.956   6.800
   57SOL    HW1 1070   4.607   6.918   6.708
   57SOL    HW2 1071   4.609   6.882   6.867
   58SOL     OW 1072   1.004   0.114   6.411
   58SOL    HW1 1073   1.026   0.017   6.408
   58SOL    HW2 1074   1.074   0.163   6.462
   59SOL     OW 1075   5.021   3.143   5.614
   59SOL    HW1 1076   5.046   3.114   5.522
   59SOL    HW2 1077   5.000   3.062   5.670
   60SOL     OW 1078   5.614   0.895   3.150
   60SOL    HW1 1079   5.697   0.943   3.178
   60SOL    HW2 1080   5.568   0.946   3.077
   61SOL     OW 1081   6.271   5.847   4.984
   61SOL    HW1 1082   6.246   5.766   4.931
   61SOL    HW2 1083   6.367   5.870   4.965
   62SOL     OW 1084   6.211   2.377   1.725
   62SOL    HW1 1085   6.293   2.355   1.778
   62SOL    HW2 1086   6.135   2.320   1.758
   63SOL     OW 1087   4.508   6.152   5.102
   63SOL    HW1 1088   4.485   6.227   5.164
   63SOL    HW2 1089   4.446   6.152   5.024
   64SOL     OW 1090   0.111   4.462   6.465
   64SOL    HW1 1091   0.186   4.480   6.401
   64SOL    HW2 1092   0.136   4.497   6.555
   65SOL     OW 1093   0.737   0.075   5.648
   65SOL    HW1 1094   0.797   0.008   5.692
   65SOL    HW2 1095   0.721   0.151   5.711
   66SOL     OW 1096   4.373   1.039   2.458
   66SOL    HW1 1097   4.450   1.008   2.513
   66SOL    HW2 1098   4.405   1.108   2.392
   67SOL     OW 1099   0.867   2.698   1.263
   67SOL    HW1 1100   0.835   2.647   1.343
   67SOL    HW2 1101   0.967   2.690   1.257
   68SOL     OW 1102   7.017   1.917   5.027
   68SOL    HW1 1103   0.026   1.845   5.087
   68SOL    HW2 1104   6.927   1.947   5.058
   69SOL     OW 1105   1.115   6.187   6.179
   69SOL    HW1 1106   1.070   6.259   6.126
   69SOL    HW2 1107   1.051   6.149   6.245
   70SOL     OW 1108   5.100   3.570   4.210
   70SOL    HW1 1109   5.094   3.478   4.248
   70SOL    HW2 1110   5.047   3.575   4.126
   71SOL     OW 1111   4.504   1.744   5.001
   71SOL    HW1 1112   4.575   1.742   4.930
   71SOL    HW2 1113   4.451   1.659   4.997
   72SOL     OW 1114   0.260   0.996   3.526
   72SOL    HW1 1115   0.177   0.955   3.487
   72SOL    HW2 1116   0.326   1.012   3.452
   73SOL     OW 1117   2.887   1.092   1.014
   73SOL    HW1 1118   2.960   1.025   1.029
   73SOL    HW2 1119   2.798   1.049   1.033
   74SOL     OW 1120   1.741   2.439   0.519
   74SOL    HW1 1121   1.775   2.533   0.513
   74SOL    HW2 1122   1.805   2.377   0.474
   75SOL     OW 1123   3.499   3.690   0.257
   75SOL    HW1 1124   3.554   3.729   0.183
   75SOL    HW2 1125   3.559   3.644   0.322
   76SOL     OW 1126   3.357   4.836   5.149
   76SOL    HW1 1127   3.382   4.895   5.226
   76SOL    HW2 1128   3.259   4.821   5.149
   77SOL     OW 1129   1.104   4.422   4.614
   77SOL    HW1 1130   1.144   4.391   4.528
   77SOL    HW2 1131   1.156   4.499   4.650
   78SOL     OW 1132   4.783   1.652   1.073
   78SOL    HW1 1133   4.736   1.706   1.143
   78SOL    HW2 1134   4.839   1.581   1.116
   79SOL     OW 1135   1.470   4.840   3.038
   79SOL    HW1 1136   1.551   4.783   3.029
   79SOL    HW2 1137   1.486   4.910   3.107
   80SOL     OW 1138   4.380   1.147   5.360
   80SOL    HW1 1139   4.295   1.098   5.378
   80SOL    HW2 1140   4.457   1.094   5.396
   81SOL     OW 1141   4.417   5.951   1.347
   81SOL    HW1 1142   4.353   6.026   1.367
   81SOL    HW2 1143   4.366   5.871   1.315
   82SOL     OW 1144   2.351   6.445   1.785
   82SOL    HW1 1145   2.329   6.378   1.714
   82SOL    HW2 1146   2.267   6.478   1.827
   83SOL     OW 1147   5.233   0.870   5.183
   83SOL    HW1 1148   5.331   0.865   5.199
   83SOL    HW2 1149   5.215   0.863   5.084
   84SOL     OW 1150   5.311   2.192   2.183
   84SOL    HW1 1151   5.256   2.154   2.109
   84SOL    HW2 1152   5.334   2.287   2.162
   85SOL     OW 1153   1.837   0.444   4.023
   85SOL    HW1 1154   1.895   0.411   4.098
   85SOL    HW2 1155   1.815   0.540   4.038
   86SOL     OW 1156   5.831   0.355   6.620
   86SOL    HW1 1157   5.881   0.441   6.623
   86SOL    HW2 1158   5.844   0.305   6.706
   87SOL     OW 1159   2.359   4.684   6.882
   87SOL    HW1 1160   2.398   4.675   6.791
   87SOL    HW2 1161   2.313   4.599   6.907
   88SOL     OW 1162   3.299   3.950   6.986
   88SOL    HW1 1163   3.208   3.948   6.946
   88SOL    HW2 1164   3.306   4.027   0.024
   89SOL     OW 1165   3.038   3.901   3.704
   89SOL    HW1 1166   3.021   3.993   3.669
   89SOL    HW2 1167   2.952   3.862   3.738
   90SOL     OW 1168   5.068   4.018   2.604
   90SOL    HW1 1169   5.055   4.013   2.505
   90SOL    HW2 1170   5.077   4.114   2.632
   91SOL     OW 1171   4.450   5.122   5.757
   91SOL    HW1 1172   4.443   5.206   5.811
   91SOL    HW2 1173   4.528   5.128   5.695
   92SOL     OW 1174   6.063   3.728   6.293
   92SOL    HW1 1175   6.078   3.805   6.355
   92SOL    HW2 1176   5.985   3.747   6.234
   93SOL     OW 1177   2.867   3.647   1.907
   93SOL    HW1 1178   2.807   3.568   1.914
   93SOL    HW2 1179   2.941   3.639   1.974
   94SOL     OW 1180   2.689   1.911   5.385
   94SOL    HW1 1181   2.736   1.884   5.301
   94SOL    HW2 1182   2.619   1.843   5.408
   95SOL     OW 1183   0.682   0.613   3.949
   95SOL    HW1 1184   0.754   0.682   3.953
   95SOL    HW2 1185   0.693   0.557   3.867
   96SOL     OW 1186   6.023   4.922   0.581
   96SOL    HW1 1187   5.988   4.831   0.557
   96SOL    HW2 1188   6.062   4.919   0.673
   97SOL     OW 1189   2.496   5.121   5.970
   97SOL    HW1 1190   2.542   5.149   5.885
   97SOL    HW2 1191   2.441   5.040   5.953
   98SOL     OW 1192   1.636   2.306   3.296
   98SOL    HW1 1193   1.707   2.308   3.226
   98SOL    HW2 1194   1.554   2.352   3.262
   99SOL     OW 1195   4.046   3.382   5.068
   99SOL    HW1 1196   3.966   3.432   5.037
   99SOL    HW2 1197   4.024   3.336   5.154
  100SOL     OW 1198   6.661   0.922   4.278
  100SOL    HW1 1199   6.645   1.000   4.216
  100SOL    HW2 1200   6.684   0.841   4.224
  101SOL     OW 1201   6.455   3.758   2.610
  101SOL    HW1 1202   6.476   3.823   2.684
  101SOL    HW2 1203   6.411   3.677   2.649
  102SOL     OW 1204   3.751   0.309   0.028
  102SOL    HW1 1205   3.828   0.371   0.019
  102SOL    HW2 1206   3.763   0.230   6.995
  103SOL     OW 1207   2.883   0.976   1.970
  103SOL    HW1 1208   2.833   1.001   2.053
  103SOL    HW2 1209   2.879   0.877   1.957
  104SOL     OW 1210   6.911   4.331   1.741
  104SOL    HW1 1211   6.884   4.276   1.820
  104SOL    HW2 1212   6.895   4.278   1.657
  105SOL     OW 1213   6.006   0.989   5.504
  105SOL    HW1 1214   5.930   1.051   5.484
  105SOL    HW2 1215   5.969   0.901   5.535
  106SOL     OW 1216   5.329   4.721   1.856
  106SOL    HW1 1217   5.271   4.801   1.868
  106SOL    HW2 1218   5.382   4.705   1.939
  107SOL     OW 1219   5.650   6.950   1.189
  107SOL    HW1 1220   5.589   6.927   1.265
  107SOL    HW2 1221   5.704   6.869   1.164
  108SOL     OW 1222   2.020   1.149   5.107
  108SOL    HW1 1223   1.974   1.101   5.181
  108SOL    HW2 1224   2.109   1.107   5.091
  109SOL     OW 1225   1.611   0.938   3.949
  109SOL    HW1 1226   1.623   1.031   3.983
  109SOL    HW2 1227   1.535   0.936   3.884
  110SOL     OW 1228   3.357   4.302   5.539
  110SOL    HW1 1229   3.371   4.358   5.457
  110SOL    HW2 1230   3.294   4.349   5.601
  111SOL     OW 1231   6.700   1.803   1.404
  111SOL    HW1 1232   6.642   1.872   1.360
  111SOL    HW2 1233   6.786   1.844   1.432
  112SOL     OW 1234   4.917   6.218   6.873
  112SOL    HW1 1235   4.935   6.302   6.925
  112SOL    HW2 1236   4.993   6.200   6.811
  113SOL     OW 1237   0.052   6.312   2.289
  113SOL    HW1 1238   0.081   6.219   2.267
  113SOL    HW2 1239   6.995   6.309   2.345
  114SOL     OW 1240   0.183   3.677   2.954
  114SOL    HW1 1241   0.142   3.712   2.870
  114SOL    HW2 1242   0.112   3.664   3.023
  115SOL     OW 1243   5.797   0.566   4.043
  115SOL    HW1 1244   5.752   0.577   3.954
  115SOL    HW2 1245   5.779   0.474   4.078
  116SOL     OW 1246   0.340   4.827   0.516
  116SOL    HW1 1247   0.286   4.911   0.510
  116SOL    HW2 1248   0.433   4.849   0.544
  117SOL     OW 1249   2.611   2.362   6.900
  117SOL    HW1 1250   2.661   2.443   6.930
  117SOL    HW2 1251   2.647   2.332   6.812
  118SOL     OW 1252   1.347   1.982   3.835
  118SOL    HW1 1253   1.300   2.061   3.796
  118SOL    HW2 1254   1.443   1.984   3.807
  119SOL     OW 1255   6.598   6.417   6.657
  119SOL    HW1 1256   6.615   6.319   6.646
  119SOL    HW2 1257   6.670   6.468   6.611
  120SOL     OW 1258   4.868   2.084   4.969
  120SOL    HW1 1259   4.828   2.076   4.878
  120SOL    HW2 1260   4.799   2.118   5.033
  121SOL     OW 1261   1.660   4.841   6.664
  121SOL    HW1 1262   1.615   4.751   6.662
  121SOL    HW2 1263   1.629   4.891   6.746
  122SOL     OW 1264   0.345   4.020   6.473
  122SOL    HW1 1265   0.411   4.058   6.539
  122SOL    HW2 1266   0.286   3.955   6.520
  123SOL     OW 1267   1.368   1.600   1.533
  123SOL    HW1 1268   1.401   1.568   1.444
  123SOL    HW2 1269   1.405   1.543   1.605
  124SOL     OW 1270   1.996   2.701   0.725
  124SOL    HW1 1271   1.978   2.658   0.814
  124SOL    HW2 1272   2.006   2.800   0.738
  125SOL     OW 1273   4.000   3.802   0.312
  125SOL    HW1 1274   3.977   3.785   0.408
  125SOL    HW2 1275   4.075   3.741   0.285
  126SOL     OW 1276   4.136   3.675   4.456
  126SOL    HW1 1277   4.134   3.710   4.362
  126SOL    HW2 1278   4.124   3.576   4.455
  127SOL     OW 1279   0.498   5.620   5.706
  127SOL    HW1 1280   0.411   5.604   5.752
  127SOL    HW2 1281   0.541   5.703   5.742
  128SOL     OW 1282   4.280   3.274   0.231
  128SOL    HW1 1283   4.323   3.338   0.295
  128SOL    HW2 1284   4.304   3.181   0.258
  129SOL     OW 1285   1.110   5.434   1.218
  129SOL    HW1 1286   1.131   5.390   1.305
  129SOL    HW2 1287   1.191   5.431   1.159
  130SOL     OW 1288   5.746   2.798   4.863
  130SOL    HW1 1289   5.730   2.883   4.914
  130SOL    HW2 1290   5.678   2.730   4.889
  131SOL     OW 1291   0.290   2.257   3.930
  131SOL    HW1 1292   0.213   2.293   3.877
  131SOL    HW2 1293   0.372   2.311   3.910
  132SOL     OW 1294   4.122   3.731   2.166
  132SOL    HW1 1295   4.072   3.814   2.187
  132SOL    HW2 1296   4.206   3.727   2.221
  133SOL     OW 1297   5.518   5.997   6.050
  133SOL    HW1 1298   5.554   5.964   6.137
  133SOL    HW2 1299   5.575   5.963   5.975
  134SOL     OW 1300   5.106   1.404   1.564
  134SOL    HW1 1301   5.066   1.338   1.628
  134SOL    HW2 1302   5.109   1.494   1.607
  135SOL     OW 1303   4.953   3.345   3.224
  135SOL    HW1 1304   4.900   3.261   3.234
  135SOL    HW2 1305   5.048   3.328   3.249
  136SOL     OW 1306   3.679   7.020   5.879
  136SOL    HW1 1307   3.690   7.004   5.977
  136SOL    HW2 1308   3.593   0.043   5.863
  137SOL     OW 1309   3.444   2.674   5.710
  137SOL    HW1 1310   3.438   2.736   5.788
  137SOL    HW2 1311   3.388   2.710   5.635
  138SOL     OW 1312   0.845   5.608   6.329
  138SOL    HW1 1313   0.791   5.665   6.267
  138SOL    HW2 1314   0.922   5.568   6.278
  139SOL     OW 1315   2.264   6.092   0.711
  139SOL    HW1 1316   2.325   6.113   0.788
  139SOL    HW2 1317   2.317   6.049   0.638
  140SOL     OW 1318   2.857   0.338   1.309
  140SOL    HW1 1319   2.773   0.285   1.296
  140SOL    HW2 1320   2.864   0.366   1.404
  141SOL     OW 1321   6.572   3.154   0.540
  141SOL    HW1 1322   6.585   3.063   0.579
  141SOL    HW2 1323   6.652   3.211   0.559
  142SOL     OW 1324   1.373   4.136   2.540
  142SOL    HW1 1325   1.443   4.201   2.511
  142SOL    HW2 1326   1.411   4.077   2.611
  143SOL     OW 1327   4.836   6.449   2.138
  143SOL    HW1 1328   4.866   6.441   2.233
  143SOL    HW2 1329   4.899   6.399   2.079
  144SOL     OW 1330   3.514   5.462   3.716
  144SOL    HW1 1331   3.596   5.428   3.761
  144SOL    HW2 1332   3.480   5.394   3.652
  145SOL     OW 1333   6.764   4.736   3.157
  145SOL    HW1 1334   6.848   4.730   3.210
  145SOL    HW2 1335   6.775   4.804   3.084
  146SOL     OW 1336   5.862   1.367   6.385
  146SOL    HW1 1337   5.903   1.457   6.371
  146SOL    HW2 1338   5.929   1.296   6.361
  147SOL     OW 1339   4.973   0.869   5.278
  147SOL    HW1 1340   5.067   0.869   5.244
  147SOL    HW2 1341   4.941   0.775   5.291
  148SOL     OW 1342   1.118   5.433   0.530
  148SOL    HW1 1343   1.148   5.406   0.438
  148SOL    HW2 1344   1.175   5.389   0.598
  149SOL     OW 1345   2.230   2.682   5.535
  149SOL    HW1 1346   2.155   2.657   5.474
  149SOL    HW2 1347   2.257   2.777   5.518
  150SOL     OW 1348   4.207   1.801   4.932
  150SOL    HW1 1349   4.254   1.828   4.848
  150SOL    HW2 1350   4.242   1.712   4.963
  151SOL     OW 1351   3.711   2.718   0.859
  151SOL    HW1 1352   3.730   2.814   0.838
  151SOL    HW2 1353   3.699   2.707   0.958
  152SOL     OW 1354   1.001   2.026   0.628
  152SOL    HW1 1355   1.070   2.098   0.620
  152SOL    HW2 1356   1.046   1.936   0.620
  153SOL     OW 1357   3.321   1.232   3.484
  153SOL    HW1 1358   3.318   1.154   3.421
  153SOL    HW2 1359   3.292   1.202   3.575
  154SOL     OW 1360   6.288   1.745   2.029
  154SOL    HW1 1361   6.282   1.666   2.090
  154SOL    HW2 1362   6.302   1.828   2.082
  155SOL     OW 1363   1.385   6.632   2.147
  155SOL    HW1 1364   1.335   6.703   2.099
  155SOL    HW2 1365   1.335   6.605   2.229
  156SOL     OW 1366   4.968   2.325   0.256
  156SOL    HW1 1367   4.968   2.420   0.289
  156SOL    HW2 1368   4.994   2.323   0.160
  157SOL     OW 1369   4.022   5.234   0.074
  157SOL    HW1 1370   3.944   5.279   0.030
  157SOL    HW2 1371   4.035   5.144   0.034
  158SOL     OW 1372   6.824   2.825   2.924
  158SOL    HW1 1373   6.848   2.831   2.827
  158SOL    HW2 1374   6.863   2.742   2.963
  159SOL     OW 1375   5.989   5.238   0.765
  159SOL    HW1 1376   6.032   5.324   0.794
  159SOL    HW2 1377   6.059   5.175   0.732
  160SOL     OW 1378   6.505   0.054   1.774
  160SOL    HW1 1379   6.478   6.987   1.749
  160SOL    HW2 1380   6.583   0.082   1.718
  161SOL     OW 1381   6.809   6.577   0.417
  161SOL    HW1 1382   6.804   6.630   0.502
  161SOL    HW2 1383   6.867   6.625   0.352
  162SOL     OW 1384   4.607   0.138   0.154
  162SOL    HW1 1385   4.540   0.109   0.223
  162SOL    HW2 1386   4.561   0.150   0.067
  163SOL     OW 1387   6.825   3.771   2.901
  163SOL    HW1 1388   6.914   3.749   2.861
  163SOL    HW2 1389   6.819   3.870   2.918
  164SOL     OW 1390   2.260   2.338   3.967
  164SOL    HW1 1391   2.351   2.350   3.928
  164SOL    HW2 1392   2.205   2.280   3.907
  165SOL     OW 1393   0.198   6.301   3.469
  165SOL    HW1 1394   0.256   6.240   3.524
  165SOL    HW2 1395   0.228   6.298   3.374
  166SOL     OW 1396   6.908   3.898   3.172
  166SOL    HW1 1397   7.000   3.888   3.211
  166SOL    HW2 1398   6.843   3.918   3.245
  167SOL     OW 1399   3.941   2.037   0.008
  167SOL    HW1 1400   3.844   2.053   0.021
  167SOL    HW2 1401   3.954   1.970   6.961
  168SOL     OW 1402   5.184   4.215   1.984
  168SOL    HW1 1403   5.197   4.121   1.953
  168SOL    HW2 1404   5.230   4.278   1.922
  169SOL     OW 1405   5.111   2.448   0.989
  169SOL    HW1 1406   5.205   2.439   0.956
  169SOL    HW2 1407   5.111   2.497   1.076
  170SOL     OW 1408   0.515   6.081   2.702
  170SOL    HW1 1409   0.508   6.180   2.717
  170SOL    HW2 1410   0.478   6.033   2.782
  171SOL     OW 1411   3.045   4.005   0.758
  171SOL    HW1 1412   3.077   4.100   0.761
  171SOL    HW2 1413   2.948   4.002   0.782
  172SOL     OW 1414   6.907   2.266   6.755
  172SOL    HW1 1415   6.837   2.322   6.710
  172SOL    HW2 1416   6.922   2.302   6.848
  173SOL     OW 1417   0.118   1.648   4.274
  173SOL    HW1 1418   0.059   1.728   4.277
  173SOL    HW2 1419   0.097   1.588   4.352
  174SOL     OW 1420   5.692   5.209   5.115
  174SOL    HW1 1421   5.718   5.304   5.098
  174SOL    HW2 1422   5.604   5.206   5.162
  175SOL     OW 1423   0.771   0.486   0.928
  175SOL    HW1 1424   0.744   0.499   0.832
  175SOL    HW2 1425   0.866   0.515   0.940
  176SOL     OW 1426   5.461   4.331   1.914
  176SOL    HW1 1427   5.508   4.390   1.979
  176SOL    HW2 1428   5.381   4.379   1.877
  177SOL     OW 1429   5.758   2.804   4.428
  177SOL    HW1 1430   5.709   2.783   4.512
  177SOL    HW2 1431   5.795   2.720   4.389
  178SOL     OW 1432   1.976   6.007   4.893
  178SOL    HW1 1433   2.053   5.943   4.899
  178SOL    HW2 1434   2.009   6.100   4.912
  179SOL     OW 1435   3.593   4.769   1.459
  179SOL    HW1 1436   3.546   4.696   1.508
  179SOL    HW2 1437   3.547   4.857   1.477
  180SOL     OW 1438   3.837   1.352   0.631
  180SOL    HW1 1439   3.860   1.360   0.534
  180SOL    HW2 1440   3.918   1.376   0.686
  181SOL     OW 1441   3.117   2.377   5.759
  181SOL    HW1 1442   3.112   2.359   5.661
  181SOL    HW2 1443   3.196   2.436   5.778
  182SOL     OW 1444   4.393   2.191   0.437
  182SOL    HW1 1445   4.366   2.260   0.370
  182SOL    HW2 1446   4.371   2.223   0.529
  183SOL     OW 1447   3.649   1.574   3.450
  183SOL    HW1 1448   3.562   1.621   3.463
  183SOL    HW2 1449   3.641   1.480   3.483
  184SOL     OW 1450   5.566   6.114   3.610
  184SOL    HW1 1451   5.542   6.211   3.611
  184SOL    HW2 1452   5.528   6.072   3.528
  185SOL     OW 1453   6.587   1.118   4.108
  185SOL    HW1 1454   6.620   1.196   4.055
  185SOL    HW2 1455   6.488   1.124   4.119
  186SOL     OW 1456   4.810   6.054   4.017
  186SOL    HW1 1457   4.849   6.136   3.976
  186SOL    HW2 1458   4.799   5.984   3.947
  187SOL     OW 1459   4.613   6.470   1.854
  187SOL    HW1 1460   4.614   6.546   1.919
  187SOL    HW2 1461   4.552   6.492   1.777
  188SOL     OW 1462   1.339   3.555   3.706
  188SOL    HW1 1463   1.392   3.639   3.696
  188SOL    HW2 1464   1.378   3.484   3.646
  189SOL     OW 1465   6.214   4.942   6.486
  189SOL    HW1 1466   6.173   4.884   6.556
  189SOL    HW2 1467   6.310   4.919   6.476
  190SOL     OW 1468   6.079   0.187   0.230
  190SOL    HW1 1469   6.134   0.195   0.147
  190SOL    HW2 1470   6.097   0.265   0.290
  191SOL     OW 1471   6.955   1.314   5.451
  191SOL    HW1 1472   6.909   1.401   5.432
  191SOL    HW2 1473   0.024   1.320   5.419
  192SOL     OW 1474   0.650   5.636   0.994
  192SOL    HW1 1475   0.704   5.719   0.978
  192SOL    HW2 1476   0.700   5.576   1.057
  193SOL     OW 1477   2.175   6.120   6.909
  193SOL    HW1 1478   2.112   6.100   6.984
  193SOL    HW2 1479   2.223   6.037   6.882
  194SOL     OW 1480   4.168   6.802   2.503
  194SOL    HW1 1481   4.075   6.837   2.516
  194SOL    HW2 1482   4.231   6.852   2.563
  195SOL     OW 1483   3.826   0.756   1.239
  195SOL    HW1 1484   3.756   0.713   1.297
  195SOL    HW2 1485   3.846   0.697   1.161
  196SOL     OW 1486   2.451   1.459   0.592
  196SOL    HW1 1487   2.482   1.541   0.640
  196SOL    HW2 1488   2.358   1.473   0.557
  197SOL     OW 1489   1.899   6.687   0.614
  197SOL    HW1 1490   1.955   6.609   0.641
  197SOL    HW2 1491   1.932   6.769   0.661
  198SOL     OW 1492   4.455   0.200   6.498
  198SOL    HW1 1493   4.401   0.155   6.569
  198SOL    HW2 1494   4.547   0.161   6.496
  199SOL     OW 1495   6.957   6.970   3.407
  199SOL    HW1 1496   6.929   6.886   3.361
  199SOL    HW2 1497   0.030   6.972   3.417
  200SOL     OW 1498   0.303   4.056   3.552
  200SOL    HW1 1499   0.226   4.041   3.490
  200SOL    HW2 1500   0.355   3.971   3.562
  201SOL     OW 1501   3.661   0.946   5.974
  201SOL    HW1 1502   3.725   0.942   6.050
  201SOL    HW2 1503   3.711   0.949   5.887
  202SOL     OW 1504   3.102   0.289   2.916
  202SOL    HW1 1505   3.106   0.334   3.005
  202SOL    HW2 1506   3.142   0.349   2.846
  203SOL     OW 1507   5.737   3.491   6.271
  203SOL    HW1 1508   5.703   3.512   6.363
  203SOL    HW2 1509   5.782   3.401   6.273
  204SOL     OW 1510   2.197   6.922   1.330
  204SOL    HW1 1511   2.125   6.945   1.395
  204SOL    HW2 1512   2.184   6.828   1.299
  205SOL     OW 1513   6.422   1.744   0.454
  205SOL    HW1 1514   6.459   1.774   0.366
  205SOL    HW2 1515   6.323   1.733   0.446
  206SOL     OW 1516   0.993   4.246   2.070
  206SOL    HW1 1517   0.936   4.291   2.000
  206SOL    HW2 1518   1.031   4.162   2.032
  207SOL     OW 1519   4.655   0.620   5.495
  207SOL    HW1 1520   4.701   0.566   5.425
  207SOL    HW2 1521   4.723   0.674   5.545
  208SOL     OW 1522   4.103   5.202   6.576
  208SOL    HW1 1523   4.109   5.156   6.488
  208SOL    HW2 1524   4.094   5.300   6.563
  209SOL     OW 1525   6.884   5.610   5.594
  209SOL    HW1 1526   6.975   5.581   5.564
  209SOL    HW2 1527   6.814   5.554   5.551
  210SOL     OW 1528   3.880   3.489   0.767
  210SOL    HW1 1529   3.971   3.497   0.808
  210SOL    HW2 1530   3.887   3.456   0.673
  211SOL     OW 1531   1.575   1.744   0.859
  211SOL    HW1 1532   1.493   1.783   0.902
  211SOL    HW2 1533   1.548   1.685   0.783
  212SOL     OW 1534   0.225   5.167   3.849
  212SOL    HW1 1535   0.149   5.205   3.903
  212SOL    HW2 1536   0.225   5.067   3.859
  213SOL     OW 1537   4.889   2.048   0.198
  213SOL    HW1 1538   4.790   2.044   0.193
  213SOL    HW2 1539   4.917   2.132   0.243
  214SOL     OW 1540   1.245   0.537   2.907
  214SOL    HW1 1541   1.163   0.485   2.883
  214SOL    HW2 1542   1.273   0.593   2.829
  215SOL     OW 1543   3.827   3.641   2.753
  215SOL    HW1 1544   3.905   3.602   2.704
  215SOL    HW2 1545   3.765   3.568   2.780
  216SOL     OW 1546   0.910   6.911   5.747
  216SOL    HW1 1547   0.927   6.899   5.845
  216SOL    HW2 1548   0.995   6.897   5.696
  217SOL     OW 1549   0.904   2.733   2.949
  217SOL    HW1 1550   0.870   2.737   3.042
  217SOL    HW2 1551   0.858   2.801   2.893
  218SOL     OW 1552   1.304   4.022   5.607
  218SOL    HW1 1553   1.223   4.077   5.589
  218SOL    HW2 1554   1.384   4.068   5.568
  219SOL     OW 1555   4.309   5.202   0.054
  219SOL    HW1 1556   4.211   5.223   0.048
  219SOL    HW2 1557   4.331   5.129   7.015
  220SOL     OW 1558   3.068   5.049   0.539
  220SOL    HW1 1559   3.031   4.991   0.467
  220SOL    HW2 1560   2.999   5.114   0.570
  221SOL     OW 1561   5.600   2.208   4.647
  221SOL    HW1 1562   5.635   2.302   4.646
  221SOL    HW2 1563   5.510   2.207   4.691
  222SOL     OW 1564   1.125   6.278   5.262
  222SOL    HW1 1565   1.060   6.228   5.320
  222SOL    HW2 1566   1.093   6.372   5.249
  223SOL     OW 1567   6.902   3.613   1.766
  223SOL    HW1 1568   6.894   3.666   1.682
  223SOL    HW2 1569   6.873   3.668   1.844
  224SOL     OW 1570   3.126   2.294   1.665
  224SOL    HW1 1571   3.106   2.277   1.762
  224SOL    HW2 1572   3.041   2.319   1.618
  225SOL     OW 1573   6.182   0.101   6.589
  225SOL    HW1 1574   6.255   0.034   6.576
  225SOL    HW2 1575   6.214   0.175   6.648
  226SOL     OW 1576   0.040   6.038   0.847
  226SOL    HW1 1577   0.053   6.132   0.815
  226SOL    HW2 1578   6.979   6.002   0.811
  227SOL     OW 1579   1.262   3.217   4.038
  227SOL    HW1 1580   1.197   3.277   4.085
  227SOL    HW2 1581   1.349   3.219   4.086
  228SOL     OW 1582   4.375   6.633   3.988
  228SOL    HW1 1583   4.420   6.586   4.063
  228SOL    HW2 1584   4.442   6.657   3.918
  229SOL     OW 1585   5.860   5.589   2.479
  229SOL    HW1 1586   5.836   5.605   2.575
  229SOL    HW2 1587   5.777   5.584   2.425
  230SOL     OW 1588   2.235   4.096   4.754
  230SOL    HW1 1589   2.194   4.022   4.700
  230SOL    HW2 1590   2.282   4.057   4.833
  231SOL     OW 1591   0.304   2.196   6.107
  231SOL    HW1 1592   0.277   2.111   6.152
  231SOL    HW2 1593   0.264   2.274   6.156
  232SOL     OW 1594   1.970   4.796   6.369
  232SOL    HW1 1595   1.912   4.863   6.322
  232SOL    HW2 1596   1.914   4.719   6.401
  233SOL     OW 1597   2.038   0.778   6.285
  233SOL    HW1 1598   2.031   0.693   6.233
  233SOL    HW2 1599   2.094   0.843   6.234
  234SOL     OW 1600   2.391   5.666   0.282
  234SOL    HW1 1601   2.428   5.707   0.366
  234SOL    HW2 1602   2.403   5.730   0.206
  235SOL     OW 1603   3.084   3.290   4.990
  235SOL    HW1 1604   3.073   3.385   5.017
  235SOL    HW2 1605   3.022   3.232   5.043
  236SOL     OW 1606   6.809   2.305   5.288
  236SOL    HW1 1607   6.842   2.213   5.268
  236SOL    HW2 1608   6.874   2.352   5.349
  237SOL     OW 1609   0.629   0.381   1.525
  237SOL    HW1 1610   0.664   0.376   1.432
  237SOL    HW2 1611   0.624   0.477   1.553
  238SOL     OW 1612   6.072   2.490   2.556
  238SOL    HW1 1613   6.046   2.539   2.639
  238SOL    HW2 1614   6.000   2.502   2.487
  239SOL     OW 1615   0.039   5.993   0.507
  239SOL    HW1 1616   0.092   6.075   0.484
  239SOL    HW2 1617   0.033   5.984   0.606
  240SOL     OW 1618   0.358   3.498   5.848
  240SOL    HW1 1619   0.307   3.415   5.869
  240SOL    HW2 1620   0.300   3.561   5.796
  241SOL     OW 1621   0.702   0.557   3.155
  241SOL    HW1 1622   0.789   0.514   3.178
  241SOL    HW2 1623   0.645   0.563   3.237
  242SOL     OW 1624   1.655   3.864   4.331
  242SOL    HW1 1625   1.570   3.891   4.286
  242SOL    HW2 1626   1.684   3.936   4.393
  243SOL     OW 1627   4.985   6.933   5.287
  243SOL    HW1 1628   5.017   6.923   5.193
  243SOL    HW2 1629   4.894   6.892   5.296
  244SOL     OW 1630   6.232   1.990   5.706
  244SOL    HW1 1631   6.195   1.898   5.702
  244SOL    HW2 1632   6.169   2.053   5.660
  245SOL     OW 1633   5.998   1.613   3.929
  245SOL    HW1 1634   6.081   1.559   3.919
  245SOL    HW2 1635   6.009   1.700   3.880
  246SOL     OW 1636   5.258   3.039   3.364
  246SOL    HW1 1637   5.260   3.139   3.372
  246SOL    HW2 1638   5.196   3.001   3.433
  247SOL     OW 1639   2.334   1.711   3.419
  247SOL    HW1 1640   2.344   1.713   3.320
  247SOL    HW2 1641   2.382   1.789   3.459
  248SOL     OW 1642   6.425   1.296   3.116
  248SOL    HW1 1643   6.444   1.255   3.027
  248SOL    HW2 1644   6.421   1.396   3.107
  249SOL     OW 1645   3.065   7.004   4.150
  249SOL    HW1 1646   3.025   0.051   4.207
  249SOL    HW2 1647   3.032   7.014   4.056
  250SOL     OW 1648   5.126   2.673   5.978
  250SOL    HW1 1649   5.155   2.678   5.882
  250SOL    HW2 1650   5.156   2.587   6.018
  251SOL     OW 1651   3.190   2.383   0.937
  251SOL    HW1 1652   3.162   2.366   0.843
  251SOL    HW2 1653   3.111   2.368   0.998
  252SOL     OW 1654   0.234   1.034   5.773
  252SOL    HW1 1655   0.252   1.074   5.863
  252SOL    HW2 1656   0.203   0.940   5.784
  253SOL     OW 1657   2.930   3.573   6.295
  253SOL    HW1 1658   2.850   3.537   6.249
  253SOL    HW2 1659   3.003   3.590   6.228
  254SOL     OW 1660   5.743   3.324   5.164
  254SOL    HW1 1661   5.764   3.236   5.207
  254SOL    HW2 1662   5.658   3.316   5.111
  255SOL     OW 1663   2.845   1.884   4.057
  255SOL    HW1 1664   2.858   1.956   4.125
  255SOL    HW2 1665   2.893   1.801   4.087
  256SOL     OW 1666   6.266   4.883   6.876
  256SOL    HW1 1667   6.211   4.853   6.798
  256SOL    HW2 1668   6.238   4.975   6.903
  257SOL     OW 1669   3.303   6.436   6.053
  257SOL    HW1 1670   3.362   6.358   6.077
  257SOL    HW2 1671   3.228   6.404   5.995
  258SOL     OW 1672   5.343   4.449   4.142
  258SOL    HW1 1673   5.441   4.468   4.154
  258SOL    HW2 1674   5.317   4.370   4.198
  259SOL     OW 1675   1.388   2.459   2.556
  259SOL    HW1 1676   1.399   2.395   2.631
  259SOL    HW2 1677   1.477   2.495   2.529
  260SOL     OW 1678   5.725   0.345   5.976
  260SOL    HW1 1679   5.654   0.355   5.905
  260SOL    HW2 1680   5.683   0.315   6.061
  261SOL     OW 1681   0.768   3.404   2.216
  261SOL    HW1 1682   0.698   3.475   2.221
  261SOL    HW2 1683   0.810   3.392   2.306
  262SOL     OW 1684   0.352   5.026   2.061
  262SOL    HW1 1685   0.348   5.126   2.051
  262SOL    HW2 1686   0.436   5.000   2.108
  263SOL     OW 1687   1.228   2.303   4.050
  263SOL    HW1 1688   1.131   2.317   4.072
  263SOL    HW2 1689   1.236   2.268   3.957
  264SOL     OW 1690   2.793   4.731   6.378
  264SOL    HW1 1691   2.726   4.731   6.452
  264SOL    HW2 1692   2.873   4.677   6.406
  265SOL     OW 1693   5.695   3.999   4.943
  265SOL    HW1 1694   5.605   4.011   4.984
  265SOL    HW2 1695   5.685   3.962   4.850
  266SOL     OW 1696   3.702   1.798   0.367
  266SOL    HW1 1697   3.688   1.889   0.405
  266SOL    HW2 1698   3.756   1.743   0.430
  267SOL     OW 1699   0.966   2.744   5.731
  267SOL    HW1 1700   1.041   2.805   5.705
  267SOL    HW2 1701   0.960   2.739   5.830
  268SOL     OW 1702   3.580   5.061   4.409
  268SOL    HW1 1703   3.504   5.088   4.349
  268SOL    HW2 1704   3.544   5.011   4.487
  269SOL     OW 1705   1.007   1.607   5.181
  269SOL    HW1 1706   1.040   1.516   5.156
  269SOL    HW2 1707   0.960   1.648   5.102
  270SOL     OW 1708   5.077   0.969   4.036
  270SOL    HW1 1709   5.176   0.983   4.043
  270SOL    HW2 1710   5.041   1.026   3.962
  271SOL     OW 1711   1.816   1.091   0.324
  271SOL    HW1 1712   1.912   1.110   0.345
  271SOL    HW2 1713   1.759   1.118   0.402
  272SOL     OW 1714   3.575   5.128   3.372
  272SOL    HW1 1715   3.506   5.190   3.409
  272SOL    HW2 1716   3.562   5.117   3.274
  273SOL     OW 1717   2.743   6.276   5.497
  273SOL    HW1 1718   2.734   6.335   5.417
  273SOL    HW2 1719   2.683   6.309   5.569
  274SOL     OW 1720   6.307   2.036   1.428
  274SOL    HW1 1721   6.286   2.117   1.373
  274SOL    HW2 1722   6.231   1.971   1.422
  275SOL     OW 1723   5.927   6.105   5.329
  275SOL    HW1 1724   5.921   6.014   5.368
  275SOL    HW2 1725   6.023   6.135   5.327
  276SOL     OW 1726   6.662   6.078   3.601
  276SOL    HW1 1727   6.628   6.026   3.680
  276SOL    HW2 1728   6.665   6.019   3.521
  277SOL     OW 1729   4.822   1.020   5.474
  277SOL    HW1 1730   4.818   1.120   5.463
  277SOL    HW2 1731   4.871   0.981   5.395
  278SOL     OW 1732   5.952   3.033   2.815
  278SOL    HW1 1733   5.981   3.079   2.898
  278SOL    HW2 1734   5.886   2.961   2.838
  279SOL     OW 1735   0.053   2.962   4.169
  279SOL    HW1 1736   7.023   3.034   4.128
  279SOL    HW2 1737   0.073   2.986   4.264
  280SOL     OW 1738   3.507   0.816   3.956
  280SOL    HW1 1739   3.461   0.740   3.911
  280SOL    HW2 1740   3.570   0.860   3.892
  281SOL     OW 1741   5.204   6.186   3.989
  281SOL    HW1 1742   5.283   6.230   3.946
  281SOL    HW2 1743   5.234   6.132   4.067
  282SOL     OW 1744   3.221   1.772   0.592
  282SOL    HW1 1745   3.285   1.758   0.517
  282SOL    HW2 1746   3.271   1.791   0.676
  283SOL     OW 1747   6.642   1.608   4.855
  283SOL    HW1 1748   6.665   1.526   4.907
  283SOL    HW2 1749   6.560   1.591   4.801
  284SOL     OW 1750   5.547   5.843   3.469
  284SOL    HW1 1751   5.580   5.867   3.377
  284SOL    HW2 1752   5.622   5.805   3.523
  285SOL     OW 1753   4.641   0.264   6.159
  285SOL    HW1 1754   4.696   0.344   6.138
  285SOL    HW2 1755   4.559   0.292   6.210
  286SOL     OW 1756   2.252   5.155   4.792
  286SOL    HW1 1757   2.258   5.057   4.807
  286SOL    HW2 1758   2.294   5.203   4.869
  287SOL     OW 1759   3.127   0.179   6.039
  287SOL    HW1 1760   3.045   0.138   5.999
  287SOL    HW2 1761   3.106   0.270   6.075
  288SOL     OW 1762   4.057   1.098   0.987
  288SOL    HW1 1763   3.972   1.125   1.031
  288SOL    HW2 1764   4.119   1.059   1.055
  289SOL     OW 1765   5.916   5.951   3.967
  289SOL    HW1 1766   5.836   6.010   3.980
  289SOL    HW2 1767   5.976   5.958   4.048
  290SOL     OW 1768   3.812   0.904   5.415
  290SOL    HW1 1769   3.809   0.811   5.451
  290SOL    HW2 1770   3.891   0.952   5.454
  291SOL     OW 1771   3.528   6.793   5.035
  291SOL    HW1 1772   3.456   6.727   5.013
  291SOL    HW2 1773   3.575   6.763   5.119
  292SOL     OW 1774   4.651   6.695   3.528
  292SOL    HW1 1775   4.642   6.761   3.453
  292SOL    HW2 1776   4.742   6.654   3.526
  293SOL     OW 1777   5.810   6.682   2.644
  293SOL    HW1 1778   5.878   6.629   2.593
  293SOL    HW2 1779   5.856   6.732   2.717
  294SOL     OW 1780   6.178   0.669   5.594
  294SOL    HW1 1781   6.102   0.727   5.621
  294SOL    HW2 1782   6.245   0.723   5.543
  295SOL     OW 1783   1.778   1.582   4.964
  295SOL    HW1 1784   1.823   1.522   5.031
  295SOL    HW2 1785   1.737   1.527   4.892
  296SOL     OW 1786   6.822   2.273   1.344
  296SOL    HW1 1787   6.869   2.196   1.302
  296SOL    HW2 1788   6.724   2.255   1.346
  297SOL     OW 1789   5.079   2.926   4.130
  297SOL    HW1 1790   4.995   2.977   4.150
  297SOL    HW2 1791   5.140   2.982   4.075
  298SOL     OW 1792   3.905   0.717   6.702
  298SOL    HW1 1793   3.818   0.667   6.704
  298SOL    HW2 1794   3.937   0.729   6.796
  299SOL     OW 1795   1.737   0.872   0.010
  299SOL    HW1 1796   1.776   0.836   0.094
  299SOL    HW2 1797   1.645   0.906   0.028
  300SOL     OW 1798   4.050   6.902   3.723
  300SOL    HW1 1799   4.093   6.967   3.787
  300SOL    HW2 1800   3.952   6.899   3.740
  301SOL     OW 1801   6.579   5.396   0.945
  301SOL    HW1 1802   6.608   5.487   0.973
  301SOL    HW2 1803   6.486   5.379   0.978
  302SOL     OW 1804   6.903   5.624   1.550
  302SOL    HW1 1805   6.859   5.585   1.631
  302SOL    HW2 1806   6.955   5.553   1.503
  303SOL     OW 1807   5.341   5.490   2.517
  303SOL    HW1 1808   5.362   5.416   2.453
  303SOL    HW2 1809   5.399   5.481   2.598
  304SOL     OW 1810   2.693   5.872   4.724
  304SOL    HW1 1811   2.776   5.900   4.676
  304SOL    HW2 1812   2.613   5.892   4.667
  305SOL     OW 1813   1.096   3.205   1.936
  305SOL    HW1 1814   1.156   3.126   1.925
  305SOL    HW2 1815   1.027   3.204   1.863
  306SOL     OW 1816   6.788   6.899   2.664
  306SOL    HW1 1817   6.692   6.926   2.652
  306SOL    HW2 1818   6.845   6.947   2.598
  307SOL     OW 1819   3.313   2.862   3.204
  307SOL    HW1 1820   3.312   2.858   3.104
  307SOL    HW2 1821   3.407   2.849   3.237
  308SOL     OW 1822   5.435   2.107   3.853
  308SOL    HW1 1823   5.526   2.135   3.883
  308SOL    HW2 1824   5.375   2.186   3.849
  309SOL     OW 1825   1.345   6.069   6.039
  309SOL    HW1 1826   1.266   6.084   6.099
  309SOL    HW2 1827   1.341   6.134   5.963
  310SOL     OW 1828   5.173   6.272   4.902
  310SOL    HW1 1829   5.246   6.330   4.935
  310SOL    HW2 1830   5.187   6.252   4.805
  311SOL     OW 1831   1.907   5.367   2.535
  311SOL    HW1 1832   1.901   5.269   2.519
  311SOL    HW2 1833   1.998   5.391   2.568
  312SOL     OW 1834   4.436   2.046   2.942
  312SOL    HW1 1835   4.468   2.057   3.036
  312SOL    HW2 1836   4.391   1.958   2.932
  313SOL     OW 1837   4.069   3.627   3.112
  313SOL    HW1 1838   4.095   3.682   3.191
  313SOL    HW2 1839   4.015   3.682   3.048
  314SOL     OW 1840   2.599   6.268   5.993
  314SOL    HW1 1841   2.588   6.172   6.018
  314SOL    HW2 1842   2.694   6.296   6.008
  315SOL     OW 1843   6.404   1.853   3.281
  315SOL    HW1 1844   6.475   1.817   3.341
  315SOL    HW2 1845   6.375   1.781   3.218
  316SOL     OW 1846   3.729   1.255   5.325
  316SOL    HW1 1847   3.660   1.323   5.352
  316SOL    HW2 1848   3.723   1.237   5.227
  317SOL     OW 1849   1.549   1.633   1.810
  317SOL    HW1 1850   1.488   1.711   1.826
  317SOL    HW2 1851   1.514   1.553   1.859
  318SOL     OW 1852   0.722   0.775   5.360
  318SOL    HW1 1853   0.776   0.701   5.321
  318SOL    HW2 1854   0.635   0.740   5.394
  319SOL     OW 1855   1.615   1.649   2.353
  319SOL    HW1 1856   1.613   1.549   2.359
  319SOL    HW2 1857   1.600   1.676   2.258
  320SOL     OW 1858   5.748   2.190   6.217
  320SOL    HW1 1859   5.737   2.173   6.315
  320SOL    HW2 1860   5.794   2.278   6.203
  321SOL     OW 1861   4.608   3.067   0.679
  321SOL    HW1 1862   4.614   2.967   0.687
  321SOL    HW2 1863   4.511   3.094   0.682
  322SOL     OW 1864   3.617   3.232   5.919
  322SOL    HW1 1865   3.649   3.305   5.979
  322SOL    HW2 1866   3.518   3.226   5.924
  323SOL     OW 1867   0.160   3.479   2.605
  323SOL    HW1 1868   0.236   3.489   2.541
  323SOL    HW2 1869   0.176   3.536   2.685
  324SOL     OW 1870   0.115   6.599   3.894
  324SOL    HW1 1871   0.161   6.554   3.970
  324SOL    HW2 1872   0.140   6.554   3.808
  325SOL     OW 1873   0.277   3.929   2.649
  325SOL    HW1 1874   0.340   3.853   2.632
  325SOL    HW2 1875   0.270   3.945   2.748
  326SOL     OW 1876   0.808   6.372   6.316
  326SOL    HW1 1877   0.819   6.310   6.394
  326SOL    HW2 1878   0.716   6.411   6.318
  327SOL     OW 1879   4.432   5.035   3.962
  327SOL    HW1 1880   4.400   4.975   4.035
  327SOL    HW2 1881   4.530   5.021   3.947
  328SOL     OW 1882   1.935   3.678   2.917
  328SOL    HW1 1883   1.999   3.602   2.907
  328SOL    HW2 1884   1.898   3.703   2.828
  329SOL     OW 1885   3.313   4.113   2.150
  329SOL    HW1 1886   3.409   4.086   2.144
  329SOL    HW2 1887   3.282   4.146   2.061
  330SOL     OW 1888   3.593   5.367   0.846
  330SOL    HW1 1889   3.596   5.268   0.864
  330SOL    HW2 1890   3.552   5.383   0.757
  331SOL     OW 1891   5.377   5.058   0.002
  331SOL    HW1 1892   5.334   4.968   0.013
  331SOL    HW2 1893   5.325   5.126   0.052
  332SOL     OW 1894   5.436   2.117   2.803
  332SOL    HW1 1895   5.395   2.196   2.757
  332SOL    HW2 1896   5.506   2.148   2.867
  333SOL     OW 1897   3.229   0.923   5.733
  333SOL    HW1 1898   3.219   0.873   5.647
  333SOL    HW2 1899   3.233   1.021   5.713
  334SOL     OW 1900   3.659   3.398   3.039
  334SOL    HW1 1901   3.561   3.396   3.057
  334SOL    HW2 1902   3.706   3.446   3.113
  335SOL     OW 1903   3.502   0.318   6.224
  335SOL    HW1 1904   3.440   0.244   6.250
  335SOL    HW2 1905   3.451   0.402   6.211
  336SOL     OW 1906   2.689   2.106   3.621
  336SOL    HW1 1907   2.642   2.055   3.693
  336SOL    HW2 1908   2.726   2.191   3.660
  337SOL     OW 1909   2.345   6.924   5.771
  337SOL    HW1 1910   2.301   6.927   5.682
  337SOL    HW2 1911   2.407   7.002   5.780
  338SOL     OW 1912   4.467   2.044   1.297
  338SOL    HW1 1913   4.506   2.084   1.379
  338SOL    HW2 1914   4.486   2.103   1.218
  339SOL     OW 1915   4.112   5.041   5.122
  339SOL    HW1 1916   4.082   4.946   5.124
  339SOL    HW2 1917   4.048   5.095   5.067
  340SOL     OW 1918   4.760   2.210   3.638
  340SOL    HW1 1919   4.757   2.121   3.593
  340SOL    HW2 1920   4.851   2.226   3.676
  341SOL     OW 1921   5.485   0.062   3.620
  341SOL    HW1 1922   5.388   0.046   3.601
  341SOL    HW2 1923   5.506   0.159   3.604
  342SOL     OW 1924   4.541   2.417   1.843
  342SOL    HW1 1925   4.524   2.516   1.841
  342SOL    HW2 1926   4.547   2.383   1.749
  343SOL     OW 1927   0.307   5.717   3.082
  343SOL    HW1 1928   0.320   5.790   3.016
  343SOL    HW2 1929   0.332   5.750   3.173
  344SOL     OW 1930   2.532   1.362   1.494
  344SOL    HW1 1931   2.524   1.451   1.451
  344SOL    HW2 1932   2.488   1.364   1.584
  345SOL     OW 1933   6.130   3.721   4.242
  345SOL    HW1 1934   6.184   3.746   4.322
  345SOL    HW2 1935   6.102   3.625   4.249
  346SOL     OW 1936   1.915   6.951   3.237
  346SOL    HW1 1937   1.992   6.891   3.214
  346SOL    HW2 1938   1.841   6.937   3.171
  347SOL     OW 1939   2.896   5.254   0.589
  347SOL    HW1 1940   2.879   5.303   0.674
  347SOL    HW2 1941   2.900   5.319   0.513
  348SOL     OW 1942   4.627   5.466   2.107
  348SOL    HW1 1943   4.543   5.513   2.136
  348SOL    HW2 1944   4.706   5.516   2.143
  349SOL     OW 1945   6.064   4.443   1.029
  349SOL    HW1 1946   6.032   4.396   1.111
  349SOL    HW2 1947   6.158   4.415   1.008
  350SOL     OW 1948   3.156   3.142   0.060
  350SOL    HW1 1949   3.247   3.134   0.101
  350SOL    HW2 1950   3.100   3.203   0.116
  351SOL     OW 1951   3.065   4.344   1.003
  351SOL    HW1 1952   3.098   4.411   1.070
  351SOL    HW2 1953   3.066   4.253   1.045
  352SOL     OW 1954   3.548   6.725   3.351
  352SOL    HW1 1955   3.624   6.760   3.296
  352SOL    HW2 1956   3.572   6.634   3.385
  353SOL     OW 1957   1.903   6.105   0.003
  353SOL    HW1 1958   1.934   6.109   0.097
  353SOL    HW2 1959   1.850   6.187   7.007
  354SOL     OW 1960   6.936   2.546   0.425
  354SOL    HW1 1961   7.012   2.561   0.488
  354SOL    HW2 1962   6.880   2.470   0.458
  355SOL     OW 1963   2.142   1.948   2.349
  355SOL    HW1 1964   2.111   1.890   2.425
  355SOL    HW2 1965   2.124   2.043   2.371
  356SOL     OW 1966   1.077   6.741   5.909
  356SOL    HW1 1967   1.061   6.702   5.818
  356SOL    HW2 1968   1.008   6.708   5.972
  357SOL     OW 1969   5.889   6.552   4.542
  357SOL    HW1 1970   5.901   6.523   4.637
  357SOL    HW2 1971   5.791   6.562   4.523
  358SOL     OW 1972   4.597   5.746   0.451
  358SOL    HW1 1973   4.546   5.798   0.383
  358SOL    HW2 1974   4.600   5.650   0.424
  359SOL     OW 1975   2.877   2.204   2.307
  359SOL    HW1 1976   2.960   2.154   2.279
  359SOL    HW2 1977   2.854   2.272   2.237
  360SOL     OW 1978   1.489   4.519   4.110
  360SOL    HW1 1979   1.563   4.560   4.057
  360SOL    HW2 1980   1.470   4.575   4.191
  361SOL     OW 1981   6.427   6.735   2.906
  361SOL    HW1 1982   6.520   6.772   2.917
  361SOL    HW2 1983   6.428   6.637   2.923
  362SOL     OW 1984   3.920   4.527   1.313
  362SOL    HW1 1985   3.957   4.515   1.221
  362SOL    HW2 1986   3.841   4.468   1.326
  363SOL     OW 1987   5.427   5.499   2.153
  363SOL    HW1 1988   5.395   5.405   2.168
  363SOL    HW2 1989   5.451   5.510   2.056
  364SOL     OW 1990   0.416   5.975   6.437
  364SOL    HW1 1991   0.414   5.969   6.537
  364SOL    HW2 1992   0.378   5.891   6.398
  365SOL     OW 1993   4.205   1.843   2.775
  365SOL    HW1 1994   4.131   1.910   2.787
  365SOL    HW2 1995   4.212   1.818   2.678
  366SOL     OW 1996   5.873   2.298   0.572
  366SOL    HW1 1997   5.889   2.204   0.544
  366SOL    HW2 1998   5.934   2.359   0.521
  367SOL     OW 1999   4.201   1.804   5.486
  367SOL    HW1 2000   4.207   1.903   5.498
  367SOL    HW2 2001   4.213   1.781   5.390
  368SOL     OW 2002   6.381   2.368   6.028
  368SOL    HW1 2003   6.323   2.381   5.947
  368SOL    HW2 2004   6.408   2.457   6.064
  369SOL     OW 2005   5.478   3.187   2.269
  369SOL    HW1 2006   5.543   3.241   2.323
  369SOL    HW2 2007   5.451   3.239   2.188
  370SOL     OW 2008   2.175   3.255   4.268
  370SOL    HW1 2009   2.149   3.307   4.186
  370SOL    HW2 2010   2.159   3.312   4.349
  371SOL     OW 2011   1.550   4.377   6.486
  371SOL    HW1 2012   1.593   4.452   6.536
  371SOL    HW2 2013   1.570   4.386   6.389
  372SOL     OW 2014   2.902   6.531   6.796
  372SOL    HW1 2015   2.878   6.454   6.856
  372SOL    HW2 2016   2.824   6.552   6.737
  373SOL     OW 2017   6.060   6.198   4.255
  373SOL    HW1 2018   6.054   6.102   4.282
  373SOL    HW2 2019   6.148   6.236   4.285
  374SOL     OW 2020   2.516   1.734   2.893
  374SOL    HW1 2021   2.591   1.787   2.933
  374SOL    HW2 2022   2.554   1.667   2.829
  375SOL     OW 2023   1.188   4.521   5.017
  375SOL    HW1 2024   1.255   4.485   5.081
  375SOL    HW2 2025   1.161   4.450   4.953
  376SOL     OW 2026   2.223   0.710   4.561
  376SOL    HW1 2027   2.145   0.752   4.513
  376SOL    HW2 2028   2.242   0.761   4.645
  377SOL     OW 2029   1.164   2.770   6.587
  377SOL    HW1 2030   1.224   2.775   6.507
  377SOL    HW2 2031   1.191   2.693   6.644
  378SOL     OW 2032   3.355   1.732   1.822
  378SOL    HW1 2033   3.379   1.654   1.764
  378SOL    HW2 2034   3.280   1.783   1.780
  379SOL     OW 2035   5.888   1.971   5.604
  379SOL    HW1 2036   5.970   1.993   5.552
  379SOL    HW2 2037   5.877   2.035   5.680
  380SOL     OW 2038   3.896   1.673   1.030
  380SOL    HW1 2039   3.995   1.659   1.033
  380SOL    HW2 2040   3.862   1.653   0.939
  381SOL     OW 2041   1.365   4.526   3.476
  381SOL    HW1 2042   1.422   4.444   3.479
  381SOL    HW2 2043   1.421   4.604   3.447
  382SOL     OW 2044   5.807   0.515   0.505
  382SOL    HW1 2045   5.797   0.603   0.459
  382SOL    HW2 2046   5.862   0.528   0.588
  383SOL     OW 2047   4.178   2.959   0.894
  383SOL    HW1 2048   4.085   2.945   0.859
  383SOL    HW2 2049   4.240   2.894   0.850
  384SOL     OW 2050   6.335   4.094   4.508
  384SOL    HW1 2051   6.426   4.052   4.509
  384SOL    HW2 2052   6.325   4.148   4.424
  385SOL     OW 2053   4.836   4.654   6.933
  385SOL    HW1 2054   4.818   4.699   7.020
  385SOL    HW2 2055   4.768   4.583   6.917
  386SOL     OW 2056   3.166   6.995   3.835
  386SOL    HW1 2057   3.146   0.057   3.878
  386SOL    HW2 2058   3.241   7.005   3.770
  387SOL     OW 2059   2.237   6.057   3.886
  387SOL    HW1 2060   2.220   5.967   3.848
  387SOL    HW2 2061   2.277   6.048   3.977
  388SOL     OW 2062   2.430   2.644   6.478
  388SOL    HW1 2063   2.512   2.693   6.507
  388SOL    HW2 2064   2.394   2.686   6.394
  389SOL     OW 2065   2.965   3.457   3.495
  389SOL    HW1 2066   2.919   3.482   3.411
  389SOL    HW2 2067   2.973   3.357   3.501
  390SOL     OW 2068   1.936   1.706   4.212
  390SOL    HW1 2069   1.946   1.772   4.287
  390SOL    HW2 2070   2.023   1.701   4.162
  391SOL     OW 2071   0.820   2.716   7.002
  391SOL    HW1 2072   0.906   2.768   7.000
  391SOL    HW2 2073   0.817   2.661   0.059
  392SOL     OW 2074   2.542   5.463   2.164
  392SOL    HW1 2075   2.554   5.513   2.079
  392SOL    HW2 2076   2.475   5.390   2.151
  393SOL     OW 2077   6.078   4.317   5.411
  393SOL    HW1 2078   6.138   4.270   5.348
  393SOL    HW2 2079   5.992   4.266   5.420
  394SOL     OW 2080   0.445   6.500   0.314
  394SOL    HW1 2081   0.414   6.527   0.223
  394SOL    HW2 2082   0.444   6.401   0.321
  395SOL     OW 2083   5.338   3.992   1.799
  395SOL    HW1 2084   5.334   3.933   1.880
  395SOL    HW2 2085   5.352   3.935   1.717
  396SOL     OW 2086   3.328   3.894   3.764
  396SOL    HW1 2087   3.355   3.811   3.714
  396SOL    HW2 2088   3.229   3.896   3.775
  397SOL     OW 2089   4.146   2.077   5.452
  397SOL    HW1 2090   4.073   2.145   5.446
  397SOL    HW2 2091   4.224   2.106   5.397
  398SOL     OW 2092   0.843   4.792   2.217
  398SOL    HW1 2093   0.885   4.726   2.280
  398SOL    HW2 2094   0.833   4.750   2.127
  399SOL     OW 2095   5.205   5.801   1.265
  399SOL    HW1 2096   5.220   5.897   1.242
  399SOL    HW2 2097   5.210   5.789   1.365
  400SOL     OW 2098   0.202   6.441   5.289
  400SOL    HW1 2099   0.289   6.454   5.241
  400SOL    HW2 2100   0.220   6.404   5.381
  401SOL     OW 2101   4.937   1.632   6.473
  401SOL    HW1 2102   4.998   1.707   6.498
  401SOL    HW2 2103   4.849   1.668   6.443
  402SOL     OW 2104   6.422   5.881   2.346
  402SOL    HW1 2105   6.474   5.892   2.261
  402SOL    HW2 2106   6.413   5.784   2.368
  403SOL     OW 2107   4.887   2.133   5.842
  403SOL    HW1 2108   4.920   2.227   5.846
  403SOL    HW2 2109   4.822   2.117   5.916
  404SOL     OW 2110   0.891   0.017   4.324
  404SOL    HW1 2111   0.838   6.959   4.321
  404SOL    HW2 2112   0.863   0.071   4.404
  405SOL     OW 2113   1.684   2.059   0.436
  405SOL    HW1 2114   1.734   1.998   0.497
  405SOL    HW2 2115   1.592   2.023   0.421
  406SOL     OW 2116   1.532   2.177   4.393
  406SOL    HW1 2117   1.571   2.221   4.312
  406SOL    HW2 2118   1.517   2.080   4.373
  407SOL     OW 2119   3.224   0.642   5.164
  407SOL    HW1 2120   3.166   0.655   5.083
  407SOL    HW2 2121   3.168   0.605   5.239
  408SOL     OW 2122   1.723   7.016   4.013
  408SOL    HW1 2123   1.699   7.019   3.916
  408SOL    HW2 2124   1.643   6.991   4.067
  409SOL     OW 2125   6.160   2.547   3.114
  409SOL    HW1 2126   6.194   2.455   3.131
  409SOL    HW2 2127   6.080   2.542   3.055
  410SOL     OW 2128   2.001   0.204   0.061
  410SOL    HW1 2129   2.097   0.188   0.038
  410SOL    HW2 2130   1.958   0.117   0.085
  411SOL     OW 2131   5.731   4.727   5.857
  411SOL    HW1 2132   5.772   4.725   5.766
  411SOL    HW2 2133   5.801   4.703   5.925
  412SOL     OW 2134   3.492   6.456   2.589
  412SOL    HW1 2135   3.565   6.516   2.622
  412SOL    HW2 2136   3.468   6.482   2.495
  413SOL     OW 2137   3.349   5.666   0.983
  413SOL    HW1 2138   3.335   5.738   1.051
  413SOL    HW2 2139   3.312   5.580   1.017
  414SOL     OW 2140   4.592   5.009   1.583
  414SOL    HW1 2141   4.678   4.958   1.587
  414SOL    HW2 2142   4.517   4.947   1.561
  415SOL     OW 2143   1.399   5.947   1.099
  415SOL    HW1 2144   1.356   5.991   1.020
  415SOL    HW2 2145   1.346   5.968   1.182
  416SOL     OW 2146   3.593   6.129   4.756
  416SOL    HW1 2147   3.616   6.033   4.736
  416SOL    HW2 2148   3.528   6.162   4.687
  417SOL     OW 2149   3.284   6.340   2.784
  417SOL    HW1 2150   3.212   6.389   2.833
  417SOL    HW2 2151   3.330   6.402   2.721
  418SOL     OW 2152   5.119   6.097   0.388
  418SOL    HW1 2153   5.184   6.078   0.462
  418SOL    HW2 2154   5.098   6.195   0.387
  419SOL     OW 2155   0.439   0.430   1.168
  419SOL    HW1 2156   0.405   0.359   1.106
  419SOL    HW2 2157   0.450   0.515   1.118
  420SOL     OW 2158   5.379   3.720   0.693
  420SOL    HW1 2159   5.457   3.661   0.713
  420SOL    HW2 2160   5.304   3.664   0.657
  421SOL     OW 2161   2.358   5.596   6.489
  421SOL    HW1 2162   2.429   5.646   6.440
  421SOL    HW2 2163   2.271   5.607   6.442
  422SOL     OW 2164   6.355   4.634   6.959
  422SOL    HW1 2165   6.336   4.726   6.925
  422SOL    HW2 2166   6.279   4.602   7.015
  423SOL     OW 2167   6.014   3.011   6.845
  423SOL    HW1 2168   5.933   3.006   6.785
  423SOL    HW2 2169   6.096   3.020   6.789
  424SOL     OW 2170   2.904   4.507   0.165
  424SOL    HW1 2171   2.860   4.505   0.254
  424SOL    HW2 2172   2.990   4.457   0.169
  425SOL     OW 2173   5.013   1.815   0.977
  425SOL    HW1 2174   4.924   1.775   0.999
  425SOL    HW2 2175   5.001   1.911   0.953
  426SOL     OW 2176   4.986   2.430   5.787
  426SOL    HW1 2177   5.083   2.450   5.804
  426SOL    HW2 2178   4.948   2.500   5.727
  427SOL     OW 2179   5.381   4.123   1.306
  427SOL    HW1 2180   5.318   4.187   1.350
  427SOL    HW2 2181   5.328   4.054   1.256
  428SOL     OW 2182   4.056   0.634   5.338
  428SOL    HW1 2183   3.988   0.631   5.264
  428SOL    HW2 2184   4.014   0.602   5.423
  429SOL     OW 2185   1.706   5.278   0.740
  429SOL    HW1 2186   1.744   5.227   0.663
  429SOL    HW2 2187   1.662   5.361   0.706
  430SOL     OW 2188   1.506   6.947   4.532
  430SOL    HW1 2189   1.447   6.899   4.597
  430SOL    HW2 2190   1.551   6.880   4.473
  431SOL     OW 2191   3.647   1.343   6.982
  431SOL    HW1 2192   3.574   1.398   6.942
  431SOL    HW2 2193   3.608   1.258   7.018
  432SOL     OW 2194   6.525   1.807   0.211
  432SOL    HW1 2195   6.546   1.734   0.146
  432SOL    HW2 2196   6.608   1.860   0.229
  433SOL     OW 2197   2.690   6.761   4.818
  433SOL    HW1 2198   2.627   6.828   4.858
  433SOL    HW2 2199   2.765   6.809   4.772
  434SOL     OW 2200   5.958   3.888   0.880
  434SOL    HW1 2201   6.039   3.834   0.859
  434SOL    HW2 2202   5.951   3.964   0.816
  435SOL     OW 2203   3.208   3.446   5.829
  435SOL    HW1 2204   3.109   3.453   5.826
  435SOL    HW2 2205   3.234   3.353   5.856
  436SOL     OW 2206   1.432   0.200   1.620
  436SOL    HW1 2207   1.503   0.143   1.579
  436SOL    HW2 2208   1.475   0.277   1.668
  437SOL     OW 2209   0.006   0.014   6.322
  437SOL    HW1 2210   0.030   0.003   6.418
  437SOL    HW2 2211   0.012   0.110   6.296
  438SOL     OW 2212   1.837   2.723   1.742
  438SOL    HW1 2213   1.800   2.755   1.829
  438SOL    HW2 2214   1.794   2.636   1.718
  439SOL     OW 2215   6.430   4.742   2.548
  439SOL    HW1 2216   6.368   4.680   2.594
  439SOL    HW2 2217   6.379   4.800   2.484
  440SOL     OW 2218   0.954   2.390   4.414
  440SOL    HW1 2219   0.907   2.444   4.484
  440SOL    HW2 2220   0.899   2.309   4.392
  441SOL     OW 2221   1.823   1.576   3.278
  441SOL    HW1 2222   1.915   1.569   3.240
  441SOL    HW2 2223   1.758   1.593   3.205
  442SOL     OW 2224   0.389   4.167   6.943
  442SOL    HW1 2225   0.480   4.126   6.938
  442SOL    HW2 2226   0.321   4.095   6.954
  443SOL     OW 2227   1.518   4.393   4.937
  443SOL    HW1 2228   1.419   4.404   4.937
  443SOL    HW2 2229   1.548   4.358   4.848
  444SOL     OW 2230   4.300   2.663   6.163
  444SOL    HW1 2231   4.296   2.711   6.076
  444SOL    HW2 2232   4.209   2.628   6.186
  445SOL     OW 2233   1.902   5.538   3.302
  445SOL    HW1 2234   1.940   5.623   3.339
  445SOL    HW2 2235   1.969   5.494   3.243
  446SOL     OW 2236   3.723   4.929   4.029
  446SOL    HW1 2237   3.631   4.890   4.036
  446SOL    HW2 2238   3.764   4.903   3.942
  447SOL     OW 2239   7.024   4.218   6.869
  447SOL    HW1 2240   6.926   4.236   6.869
  447SOL    HW2 2241   0.028   4.197   6.776
  448SOL     OW 2242   3.865   0.695   5.097
  448SOL    HW1 2243   3.839   0.789   5.118
  448SOL    HW2 2244   3.879   0.685   4.998
  449SOL     OW 2245   5.662   1.146   4.947
  449SOL    HW1 2246   5.612   1.068   4.910
  449SOL    HW2 2247   5.758   1.121   4.958
  450SOL     OW 2248   6.996   5.987   3.663
  450SOL    HW1 2249   6.929   6.058   3.641
  450SOL    HW2 2250   0.030   6.020   3.737
  451SOL     OW 2251   0.405   2.511   2.204
  451SOL    HW1 2252   0.425   2.552   2.293
  451SOL    HW2 2253   0.363   2.579   2.144
  452SOL     OW 2254   6.770   5.371   0.317
  452SOL    HW1 2255   6.808   5.452   0.361
  452SOL    HW2 2256   6.841   5.324   0.264
  453SOL     OW 2257   3.333   1.097   6.897
  453SOL    HW1 2258   3.358   1.138   6.809
  453SOL    HW2 2259   3.261   1.151   6.940
  454SOL     OW 2260   0.300   6.364   5.973
  454SOL    HW1 2261   0.368   6.328   5.909
  454SOL    HW2 2262   0.344   6.422   6.041
  455SOL     OW 2263   5.556   6.813   4.295
  455SOL    HW1 2264   5.556   6.903   4.338
  455SOL    HW2 2265   5.466   6.772   4.303
  456SOL     OW 2266   3.607   5.829   6.161
  456SOL    HW1 2267   3.660   5.858   6.241
  456SOL    HW2 2268   3.641   5.741   6.129
  457SOL     OW 2269   1.991   4.330   3.164
  457SOL    HW1 2270   2.041   4.417   3.160
  457SOL    HW2 2271   2.054   4.255   3.146
  458SOL     OW 2272   5.255   5.359   5.615
  458SOL    HW1 2273   5.251   5.268   5.575
  458SOL    HW2 2274   5.169   5.407   5.599
  459SOL     OW 2275   1.298   0.165   3.095
  459SOL    HW1 2276   1.255   0.255   3.090
  459SOL    HW2 2277   1.314   0.141   3.191
  460SOL     OW 2278   0.495   1.537   2.004
  460SOL    HW1 2279   0.448   1.559   1.918
  460SOL    HW2 2280   0.590   1.568   1.999
  461SOL     OW 2281   4.495   7.009   4.656
  461SOL    HW1 2282   4.565   6.950   4.695
  461SOL    HW2 2283   4.439   6.956   4.592
  462SOL     OW 2284   3.768   2.554   5.917
  462SOL    HW1 2285   3.784   2.609   5.999
  462SOL    HW2 2286   3.746   2.614   5.840
  463SOL     OW 2287   6.464   5.439   2.823
  463SOL    HW1 2288   6.540   5.499   2.798
  463SOL    HW2 2289   6.382   5.468   2.774
  464SOL     OW 2290   2.444   1.321   6.614
  464SOL    HW1 2291   2.369   1.370   6.570
  464SOL    HW2 2292   2.479   1.375   6.691
  465SOL     OW 2293   1.143   1.859   4.746
  465SOL    HW1 2294   1.165   1.819   4.835
  465SOL    HW2 2295   1.223   1.907   4.710
  466SOL     OW 2296   6.890   6.607   3.612
  466SOL    HW1 2297   6.935   6.594   3.524
  466SOL    HW2 2298   6.868   6.519   3.652
  467SOL     OW 2299   1.131   6.800   6.370
  467SOL    HW1 2300   1.103   6.706   6.390
  467SOL    HW2 2301   1.169   6.805   6.278
  468SOL     OW 2302   3.884   5.940   0.648
  468SOL    HW1 2303   3.977   5.963   0.619
  468SOL    HW2 2304   3.838   5.889   0.575
  469SOL     OW 2305   2.309   5.223   0.065
  469SOL    HW1 2306   2.337   5.180   0.151
  469SOL    HW2 2307   2.374   5.199   7.019
  470SOL     OW 2308   4.244   0.657   2.096
  470SOL    HW1 2309   4.234   0.559   2.079
  470SOL    HW2 2310   4.323   0.673   2.155
  471SOL     OW 2311   1.565   2.749   3.994
  471SOL    HW1 2312   1.646   2.799   4.024
  471SOL    HW2 2313   1.557   2.663   4.044
  472SOL     OW 2314   4.496   4.065   6.178
  472SOL    HW1 2315   4.540   3.978   6.158
  472SOL    HW2 2316   4.507   4.127   6.100
  473SOL     OW 2317   0.441   2.716   1.487
  473SOL    HW1 2318   0.454   2.805   1.530
  473SOL    HW2 2319   0.393   2.728   1.400
  474SOL     OW 2320   4.450   4.859   4.189
  474SOL    HW1 2321   4.435   4.760   4.185
  474SOL    HW2 2322   4.383   4.899   4.253
  475SOL     OW 2323   6.901   0.104   6.628
  475SOL    HW1 2324   6.967   0.031   6.609
  475SOL    HW2 2325   6.834   0.109   6.553
  476SOL     OW 2326   6.594   4.006   2.512
  476SOL    HW1 2327   6.551   3.924   2.474
  476SOL    HW2 2328   6.536   4.086   2.493
  477SOL     OW 2329   2.045   5.020   4.317
  477SOL    HW1 2330   2.063   4.988   4.409
  477SOL    HW2 2331   2.103   5.099   4.297
  478SOL     OW 2332   3.070   6.311   2.427
  478SOL    HW1 2333   3.094   6.397   2.473
  478SOL    HW2 2334   3.103   6.314   2.332
  479SOL     OW 2335   3.281   1.966   0.286
  479SOL    HW1 2336   3.319   2.034   0.348
  479SOL    HW2 2337   3.353   1.928   0.229
  480SOL     OW 2338   1.543   6.871   1.219
  480SOL    HW1 2339   1.489   6.861   1.303
  480SOL    HW2 2340   1.494   6.929   1.154
  481SOL     OW 2341   2.347   0.832   1.008
  481SOL    HW1 2342   2.311   0.884   1.085
  481SOL    HW2 2343   2.303   0.742   1.004
  482SOL     OW 2344   4.688   4.765   2.500
  482SOL    HW1 2345   4.657   4.849   2.455
  482SOL    HW2 2346   4.685   4.690   2.433
  483SOL     OW 2347   5.451   2.152   1.395
  483SOL    HW1 2348   5.420   2.211   1.469
  483SOL    HW2 2349   5.429   2.057   1.416
  484SOL     OW 2350   1.051   3.057   5.129
  484SOL    HW1 2351   1.110   3.015   5.197
  484SOL    HW2 2352   1.089   3.042   5.037
  485SOL     OW 2353   3.763   5.212   2.241
  485SOL    HW1 2354   3.787   5.139   2.306
  485SOL    HW2 2355   3.768   5.300   2.288
  486SOL     OW 2356   0.823   1.642   1.119
  486SOL    HW1 2357   0.770   1.576   1.173
  486SOL    HW2 2358   0.893   1.683   1.176
  487SOL     OW 2359   0.788   1.798   6.807
  487SOL    HW1 2360   0.871   1.763   6.850
  487SOL    HW2 2361   0.760   1.737   6.733
  488SOL     OW 2362   1.023   1.137   1.246
  488SOL    HW1 2363   1.018   1.237   1.254
  488SOL    HW2 2364   1.110   1.105   1.282
  489SOL     OW 2365   3.492   5.920   0.378
  489SOL    HW1 2366   3.461   5.852   0.313
  489SOL    HW2 2367   3.446   6.007   0.361
  490SOL     OW 2368   6.313   6.035   4.259
  490SOL    HW1 2369   6.390   6.036   4.195
  490SOL    HW2 2370   6.345   6.065   4.349
  491SOL     OW 2371   6.946   2.488   2.701
  491SOL    HW1 2372   6.896   2.504   2.615
  491SOL    HW2 2373   0.013   2.525   2.693
  492SOL     OW 2374   3.094   0.521   5.376
  492SOL    HW1 2375   2.999   0.497   5.398
  492SOL    HW2 2376   3.153   0.442   5.389
  493SOL     OW 2377   6.051   4.798   6.644
  493SOL    HW1 2378   6.009   4.707   6.647
  493SOL    HW2 2379   5.982   4.867   6.659
  494SOL     OW 2380   0.204   6.075   6.842
  494SOL    HW1 2381   0.198   6.013   6.920
  494SOL    HW2 2382   0.247   6.160   6.871
  495SOL     OW 2383   4.869   5.319   2.799
  495SOL    HW1 2384   4.889   5.395   2.736
  495SOL    HW2 2385   4.832   5.355   2.884
  496SOL     OW 2386   5.289   2.574   2.941
  496SOL    HW1 2387   5.289   2.502   2.871
  496SOL    HW2 2388   5.195   2.599   2.963
  497SOL     OW 2389   3.372   1.604   5.139
  497SOL    HW1 2390   3.397   1.508   5.122
  497SOL    HW2 2391   3.436   1.644   5.204
  498SOL     OW 2392   1.462   3.799   1.876
  498SOL    HW1 2393   1.425   3.746   1.952
  498SOL    HW2 2394   1.440   3.754   1.789
  499SOL     OW 2395   3.045   0.880   4.149
  499SOL    HW1 2396   3.053   0.977   4.173
  499SOL    HW2 2397   3.016   0.872   4.054
  500SOL     OW 2398   0.925   4.327   3.840
  500SOL    HW1 2399   0.832   4.311   3.806
  500SOL    HW2 2400   0.974   4.385   3.774
  501SOL     OW 2401   3.072   1.703   0.339
  501SOL    HW1 2402   2.994   1.645   0.315
  501SOL    HW2 2403   3.038   1.790   0.376
  502SOL     OW 2404   5.463   4.037   5.970
  502SOL    HW1 2405   5.448   4.000   6.062
  502SOL    HW2 2406   5.540   3.989   5.927
  503SOL     OW 2407   6.335   4.503   5.747
  503SOL    HW1 2408   6.268   4.436   5.714
  503SOL    HW2 2409   6.351   4.489   5.844
  504SOL     OW 2410   2.602   6.303   3.952
  504SOL    HW1 2411   2.554   6.338   4.033
  504SOL    HW2 2412   2.694   6.341   3.948
  505SOL     OW 2413   3.610   0.338   5.432
  505SOL    HW1 2414   3.652   0.267   5.376
  505SOL    HW2 2415   3.571   0.409   5.373
  506SOL     OW 2416   1.731   5.276   4.544
  506SOL    HW1 2417   1.802   5.243   4.606
  506SOL    HW2 2418   1.749   5.240   4.452
  507SOL     OW 2419   2.992   0.218   4.267
  507SOL    HW1 2420   2.948   0.193   4.354
  507SOL    HW2 2421   3.059   0.290   4.284
  508SOL     OW 2422   5.968   3.505   2.572
  508SOL    HW1 2423   6.051   3.451   2.559
  508SOL    HW2 2424   5.945   3.507   2.670
  509SOL     OW 2425   3.869   0.876   1.639
  509SOL    HW1 2426   3.862   0.966   1.595
  509SOL    HW2 2427   3.931   0.818   1.587
  510SOL     OW 2428   6.784   4.647   5.879
  510SOL    HW1 2429   6.712   4.667   5.812
  510SOL    HW2 2430   6.840   4.728   5.894
  511SOL     OW 2431   0.051   6.742   6.700
  511SOL    HW1 2432   0.009   6.830   6.679
  511SOL    HW2 2433   7.008   6.682   6.741
  512SOL     OW 2434   6.700   3.157   6.933
  512SOL    HW1 2435   6.603   3.148   6.955
  512SOL    HW2 2436   6.755   3.122   7.009
  513SOL     OW 2437   5.884   6.410   2.847
  513SOL    HW1 2438   5.912   6.380   2.939
  513SOL    HW2 2439   5.786   6.393   2.835
  514SOL     OW 2440   6.614   2.068   4.254
  514SOL    HW1 2441   6.685   2.129   4.288
  514SOL    HW2 2442   6.550   2.121   4.198
  515SOL     OW 2443   2.425   6.499   6.024
  515SOL    HW1 2444   2.497   6.429   6.023
  515SOL    HW2 2445   2.450   6.571   6.089
  516SOL     OW 2446   2.725   4.547   1.631
  516SOL    HW1 2447   2.776   4.548   1.717
  516SOL    HW2 2448   2.699   4.453   1.608
  517SOL     OW 2449   4.928   5.816   2.416
  517SOL    HW1 2450   4.975   5.802   2.503
  517SOL    HW2 2451   4.881   5.904   2.417
  518SOL     OW 2452   2.903   2.195   1.417
  518SOL    HW1 2453   2.945   2.286   1.409
  518SOL    HW2 2454   2.886   2.175   1.514
  519SOL     OW 2455   0.050   0.653   4.736
  519SOL    HW1 2456   0.064   0.722   4.806
  519SOL    HW2 2457   0.087   0.686   4.649
  520SOL     OW 2458   5.616   4.557   6.549
  520SOL    HW1 2459   5.624   4.496   6.628
  520SOL    HW2 2460   5.701   4.608   6.537
  521SOL     OW 2461   6.279   1.922   6.376
  521SOL    HW1 2462   6.198   1.908   6.319
  521SOL    HW2 2463   6.301   1.836   6.424
  522SOL     OW 2464   4.108   2.996   5.348
  522SOL    HW1 2465   4.102   3.080   5.294
  522SOL    HW2 2466   4.169   3.011   5.426
  523SOL     OW 2467   6.602   5.446   3.584
  523SOL    HW1 2468   6.642   5.523   3.633
  523SOL    HW2 2469   6.510   5.428   3.619
  524SOL     OW 2470   2.653   0.999   0.021
  524SOL    HW1 2471   2.720   0.965   6.980
  524SOL    HW2 2472   2.571   1.029   6.999
  525SOL     OW 2473   2.608   3.764   6.031
  525SOL    HW1 2474   2.590   3.859   6.058
  525SOL    HW2 2475   2.653   3.716   6.106
  526SOL     OW 2476   2.224   5.885   4.903
  526SOL    HW1 2477   2.231   5.856   4.807
  526SOL    HW2 2478   2.316   5.907   4.937
  527SOL     OW 2479   6.158   2.249   6.140
  527SOL    HW1 2480   6.192   2.237   6.234
  527SOL    HW2 2481   6.230   2.290   6.084
  528SOL     OW 2482   1.429   1.413   3.999
  528SOL    HW1 2483   1.392   1.392   3.909
  528SOL    HW2 2484   1.439   1.513   4.008
  529SOL     OW 2485   1.113   5.020   4.629
  529SOL    HW1 2486   1.029   5.003   4.576
  529SOL    HW2 2487   1.126   5.118   4.639
  530SOL     OW 2488   2.668   2.941   5.325
  530SOL    HW1 2489   2.647   2.844   5.331
  530SOL    HW2 2490   2.591   2.988   5.281
  531SOL     OW 2491   0.408   1.197   1.286
  531SOL    HW1 2492   0.489   1.139   1.281
  531SOL    HW2 2493   0.394   1.228   1.380
  532SOL     OW 2494   0.832   2.380   6.364
  532SOL    HW1 2495   0.816   2.385   6.462
  532SOL    HW2 2496   0.745   2.364   6.316
  533SOL     OW 2497   4.670   6.118   4.239
  533SOL    HW1 2498   4.729   6.106   4.159
  533SOL    HW2 2499   4.669   6.215   4.265
  534SOL     OW 2500   4.836   5.521   3.848
  534SOL    HW1 2501   4.789   5.578   3.916
  534SOL    HW2 2502   4.930   5.505   3.879
  535SOL     OW 2503   0.794   4.406   4.496
  535SOL    HW1 2504   0.876   4.458   4.517
  535SOL    HW2 2505   0.816   4.332   4.431
  536SOL     OW 2506   0.033   5.796   1.397
  536SOL    HW1 2507   6.967   5.756   1.386
  536SOL    HW2 2508   0.081   5.794   1.309
  537SOL     OW 2509   2.270   6.441   3.480
  537SOL    HW1 2510   2.249   6.466   3.575
  537SOL    HW2 2511   2.359   6.480   3.454
  538SOL     OW 2512   1.226   5.788   3.095
  538SOL    HW1 2513   1.302   5.740   3.051
  538SOL    HW2 2514   1.236   5.887   3.081
  539SOL     OW 2515   0.824   5.220   1.205
  539SOL    HW1 2516   0.845   5.300   1.261
  539SOL    HW2 2517   0.756   5.246   1.136
  540SOL     OW 2518   0.418   2.202   2.282
  540SOL    HW1 2519   0.343   2.170   2.340
  540SOL    HW2 2520   0.405   2.299   2.260
  541SOL     OW 2521   3.191   6.757   4.773
  541SOL    HW1 2522   3.171   6.831   4.837
  541SOL    HW2 2523   3.105   6.719   4.738
  542SOL     OW 2524   6.579   6.656   0.237
  542SOL    HW1 2525   6.620   6.747   0.240
  542SOL    HW2 2526   6.623   6.598   0.306
  543SOL     OW 2527   0.840   4.981   6.428
  543SOL    HW1 2528   0.786   4.956   6.348
  543SOL    HW2 2529   0.778   5.004   6.504
  544SOL     OW 2530   0.949   4.341   1.231
  544SOL    HW1 2531   0.965   4.420   1.171
  544SOL    HW2 2532   0.986   4.259   1.188
  545SOL     OW 2533   3.585   1.777   3.714
  545SOL    HW1 2534   3.524   1.792   3.792
  545SOL    HW2 2535   3.540   1.717   3.648
  546SOL     OW 2536   1.652   3.455   1.725
  546SOL    HW1 2537   1.561   3.445   1.765
  546SOL    HW2 2538   1.715   3.490   1.795
  547SOL     OW 2539   2.413   2.032   0.101
  547SOL    HW1 2540   2.497   2.049   0.049
  547SOL    HW2 2541   2.401   1.933   0.114
  548SOL     OW 2542   4.092   3.359   3.152
  548SOL    HW1 2543   4.109   3.455   3.128
  548SOL    HW2 2544   4.029   3.319   3.086
  549SOL     OW 2545   4.673   3.631   1.412
  549SOL    HW1 2546   4.716   3.541   1.424
  549SOL    HW2 2547   4.585   3.620   1.366
  550SOL     OW 2548   6.608   3.167   2.778
  550SOL    HW1 2549   6.667   3.183   2.698
  550SOL    HW2 2550   6.561   3.079   2.767
  551SOL     OW 2551   6.783   1.693   0.575
  551SOL    HW1 2552   6.775   1.789   0.546
  551SOL    HW2 2553   6.700   1.667   0.625
  552SOL     OW 2554   4.193   5.347   1.121
  552SOL    HW1 2555   4.214   5.435   1.077
  552SOL    HW2 2556   4.236   5.273   1.069
  553SOL     OW 2557   1.781   0.106   2.570
  553SOL    HW1 2558   1.768   0.010   2.594
  553SOL    HW2 2559   1.766   0.118   2.472
  554SOL     OW 2560   5.270   6.191   6.435
  554SOL    HW1 2561   5.358   6.237   6.423
  554SOL    HW2 2562   5.285   6.098   6.468
  555SOL     OW 2563   2.083   5.280   4.087
  555SOL    HW1 2564   2.162   5.280   4.025
  555SOL    HW2 2565   2.114   5.271   4.181
  556SOL     OW 2566   6.147   2.054   4.314
  556SOL    HW1 2567   6.234   2.006   4.325
  556SOL    HW2 2568   6.110   2.077   4.404
  557SOL     OW 2569   6.380   5.920   6.550
  557SOL    HW1 2570   6.412   5.999   6.602
  557SOL    HW2 2571   6.388   5.838   6.607
  558SOL     OW 2572   4.233   3.584   5.150
  558SOL    HW1 2573   4.177   3.516   5.102
  558SOL    HW2 2574   4.293   3.630   5.085
  559SOL     OW 2575   6.793   6.086   7.012
  559SOL    HW1 2576   6.845   6.095   6.927
  559SOL    HW2 2577   6.853   6.052   0.059
  560SOL     OW 2578   4.142   6.309   0.386
  560SOL    HW1 2579   4.072   6.333   0.320
  560SOL    HW2 2580   4.230   6.349   0.358
  561SOL     OW 2581   5.891   6.859   0.667
  561SOL    HW1 2582   5.911   6.937   0.608
  561SOL    HW2 2583   5.955   6.785   0.648
  562SOL     OW 2584   5.149   1.061   5.907
  562SOL    HW1 2585   5.204   1.012   5.974
  562SOL    HW2 2586   5.059   1.018   5.900
  563SOL     OW 2587   2.724   6.433   3.472
  563SOL    HW1 2588   2.756   6.461   3.563
  563SOL    HW2 2589   2.802   6.421   3.412
  564SOL     OW 2590   2.397   2.233   5.922
  564SOL    HW1 2591   2.453   2.252   6.002
  564SOL    HW2 2592   2.300   2.244   5.945
  565SOL     OW 2593   4.250   3.492   5.784
  565SOL    HW1 2594   4.203   3.557   5.723
  565SOL    HW2 2595   4.342   3.526   5.803
  566SOL     OW 2596   4.495   4.670   3.311
  566SOL    HW1 2597   4.446   4.740   3.363
  566SOL    HW2 2598   4.473   4.680   3.214
  567SOL     OW 2599   3.566   3.634   4.273
  567SOL    HW1 2600   3.487   3.670   4.321
  567SOL    HW2 2601   3.644   3.630   4.335
  568SOL     OW 2602   3.075   2.450   0.293
  568SOL    HW1 2603   3.066   2.538   0.246
  568SOL    HW2 2604   3.005   2.443   0.364
  569SOL     OW 2605   1.538   3.075   0.388
  569SOL    HW1 2606   1.583   3.032   0.465
  569SOL    HW2 2607   1.576   3.040   0.302
  570SOL     OW 2608   1.237   6.596   0.534
  570SOL    HW1 2609   1.317   6.622   0.588
  570SOL    HW2 2610   1.243   6.500   0.508
  571SOL     OW 2611   3.645   5.271   2.934
  571SOL    HW1 2612   3.661   5.370   2.927
  571SOL    HW2 2613   3.732   5.224   2.952
  572SOL     OW 2614   2.491   4.349   5.703
  572SOL    HW1 2615   2.468   4.395   5.618
  572SOL    HW2 2616   2.564   4.282   5.687
  573SOL     OW 2617   4.119   1.237   6.020
  573SOL    HW1 2618   4.176   1.243   5.938
  573SOL    HW2 2619   4.026   1.269   5.998
  574SOL     OW 2620   2.230   1.719   4.378
  574SOL    HW1 2621   2.179   1.739   4.461
  574SOL    HW2 2622   2.251   1.621   4.375
  575SOL     OW 2623   6.224   3.551   0.618
  575SOL    HW1 2624   6.291   3.484   0.650
  575SOL    HW2 2625   6.204   3.535   0.521
  576SOL     OW 2626   1.376   2.604   1.841
  576SOL    HW1 2627   1.364   2.673   1.912
  576SOL    HW2 2628   1.350   2.514   1.877
  577SOL     OW 2629   2.302   1.780   4.040
  577SOL    HW1 2630   2.234   1.853   4.039
  577SOL    HW2 2631   2.257   1.693   4.061
  578SOL     OW 2632   0.553   3.348   2.932
  578SOL    HW1 2633   0.499   3.360   2.848
  578SOL    HW2 2634   0.506   3.393   3.008
  579SOL     OW 2635   4.006   1.905   1.168
  579SOL    HW1 2636   3.965   1.829   1.119
  579SOL    HW2 2637   3.942   1.940   1.236
  580SOL     OW 2638   1.158   5.026   6.668
  580SOL    HW1 2639   1.173   4.978   6.581
  580SOL    HW2 2640   1.128   5.119   6.650
  581SOL     OW 2641   3.943   2.979   3.026
  581SOL    HW1 2642   3.867   2.915   3.023
  581SOL    HW2 2643   3.977   2.986   3.120
  582SOL     OW 2644   5.645   4.105   2.517
  582SOL    HW1 2645   5.564   4.120   2.573
  582SOL    HW2 2646   5.673   4.010   2.523
  583SOL     OW 2647   2.537   4.794   0.211
  583SOL    HW1 2648   2.505   4.840   0.294
  583SOL    HW2 2649   2.636   4.804   0.203
  584SOL     OW 2650   0.518   4.899   5.162
  584SOL    HW1 2651   0.475   4.898   5.253
  584SOL    HW2 2652   0.566   4.813   5.148
  585SOL     OW 2653   0.369   2.478   5.708
  585SOL    HW1 2654   0.397   2.431   5.792
  585SOL    HW2 2655   0.449   2.495   5.651
  586SOL     OW 2656   2.540   6.829   0.914
  586SOL    HW1 2657   2.505   6.824   1.008
  586SOL    HW2 2658   2.464   6.845   0.851
  587SOL     OW 2659   1.487   2.925   5.614
  587SOL    HW1 2660   1.503   3.023   5.600
  587SOL    HW2 2661   1.510   2.900   5.708
  588SOL     OW 2662   3.813   0.165   1.551
  588SOL    HW1 2663   3.825   0.120   1.640
  588SOL    HW2 2664   3.792   0.261   1.565
  589SOL     OW 2665   3.467   5.297   2.256
  589SOL    HW1 2666   3.551   5.246   2.239
  589SOL    HW2 2667   3.403   5.283   2.180
  590SOL     OW 2668   6.915   2.402   2.181
  590SOL    HW1 2669   6.822   2.436   2.192
  590SOL    HW2 2670   6.977   2.456   2.238
  591SOL     OW 2671   3.881   0.314   3.830
  591SOL    HW1 2672   3.859   0.311   3.733
  591SOL    HW2 2673   3.899   0.221   3.863
  592SOL     OW 2674   4.902   0.579   0.475
  592SOL    HW1 2675   4.954   0.563   0.392
  592SOL    HW2 2676   4.957   0.554   0.555
  593SOL     OW 2677   4.619   2.376   4.182
  593SOL    HW1 2678   4.605   2.426   4.096
  593SOL    HW2 2679   4.708   2.332   4.180
  594SOL     OW 2680   4.026   3.784   0.609
  594SOL    HW1 2681   4.011   3.685   0.606
  594SOL    HW2 2682   4.124   3.802   0.609
  595SOL     OW 2683   3.871   6.214   4.074
  595SOL    HW1 2684   3.834   6.203   4.166
  595SOL    HW2 2685   3.803   6.256   4.014
  596SOL     OW 2686   0.829   4.306   2.727
  596SOL    HW1 2687   0.752   4.321   2.790
  596SOL    HW2 2688   0.911   4.285   2.779
  597SOL     OW 2689   4.032   0.145   6.795
  597SOL    HW1 2690   3.959   0.077   6.792
  597SOL    HW2 2691   3.994   0.236   6.781
  598SOL     OW 2692   4.042   4.849   0.572
  598SOL    HW1 2693   4.036   4.897   0.659
  598SOL    HW2 2694   4.114   4.779   0.578
  599SOL     OW 2695   6.654   0.388   3.060
  599SOL    HW1 2696   6.632   0.404   2.963
  599SOL    HW2 2697   6.740   0.433   3.082
  600SOL     OW 2698   1.262   0.012   0.731
  600SOL    HW1 2699   1.252   0.099   0.780
  600SOL    HW2 2700   1.179   6.984   0.741
  601SOL     OW 2701   2.543   5.538   3.115
  601SOL    HW1 2702   2.600   5.597   3.172
  601SOL    HW2 2703   2.446   5.555   3.135
  602SOL     OW 2704   1.438   0.094   1.059
  602SOL    HW1 2705   1.404   0.109   0.966
  602SOL    HW2 2706   1.362   0.094   1.123
  603SOL     OW 2707   4.414   1.817   3.615
  603SOL    HW1 2708   4.411   1.874   3.697
  603SOL    HW2 2709   4.366   1.731   3.633
  604SOL     OW 2710   1.292   3.094   6.162
  604SOL    HW1 2711   1.325   3.177   6.117
  604SOL    HW2 2712   1.203   3.111   6.203
  605SOL     OW 2713   6.789   6.120   3.153
  605SOL    HW1 2714   6.810   6.120   3.055
  605SOL    HW2 2715   6.832   6.199   3.196
  606SOL     OW 2716   4.190   0.347   4.538
  606SOL    HW1 2717   4.198   0.380   4.632
  606SOL    HW2 2718   4.195   0.425   4.475
  607SOL     OW 2719   5.115   1.268   4.562
  607SOL    HW1 2720   5.141   1.172   4.576
  607SOL    HW2 2721   5.176   1.310   4.495
  608SOL     OW 2722   3.502   0.774   0.319
  608SOL    HW1 2723   3.504   0.870   0.347
  608SOL    HW2 2724   3.595   0.745   0.293
  609SOL     OW 2725   3.542   2.891   3.650
  609SOL    HW1 2726   3.518   2.988   3.646
  609SOL    HW2 2727   3.480   2.844   3.713
  610SOL     OW 2728   5.331   1.945   4.056
  610SOL    HW1 2729   5.386   1.996   3.989
  610SOL    HW2 2730   5.347   1.847   4.044
  611SOL     OW 2731   0.508   0.514   0.071
  611SOL    HW1 2732   0.564   0.527   0.153
  611SOL    HW2 2733   0.458   0.598   0.051
  612SOL     OW 2734   3.485   5.632   6.353
  612SOL    HW1 2735   3.405   5.648   6.295
  612SOL    HW2 2736   3.567   5.666   6.307
  613SOL     OW 2737   4.411   1.500   6.244
  613SOL    HW1 2738   4.353   1.433   6.291
  613SOL    HW2 2739   4.389   1.592   6.276
  614SOL     OW 2740   6.433   4.726   0.328
  614SOL    HW1 2741   6.474   4.676   0.252
  614SOL    HW2 2742   6.393   4.812   0.293
  615SOL     OW 2743   0.751   0.226   0.537
  615SOL    HW1 2744   0.816   0.151   0.535
  615SOL    HW2 2745   0.771   0.291   0.464
  616SOL     OW 2746   5.648   1.725   4.533
  616SOL    HW1 2747   5.561   1.760   4.568
  616SOL    HW2 2748   5.718   1.795   4.543
  617SOL     OW 2749   0.020   4.845   5.268
  617SOL    HW1 2750   6.951   4.812   5.278
  617SOL    HW2 2751   0.044   4.902   5.347
  618SOL     OW 2752   5.681   3.933   0.758
  618SOL    HW1 2753   5.746   3.864   0.728
  618SOL    HW2 2754   5.639   3.905   0.845
  619SOL     OW 2755   3.478   0.518   0.573
  619SOL    HW1 2756   3.538   0.498   0.495
  619SOL    HW2 2757   3.412   0.589   0.547
  620SOL     OW 2758   5.332   3.248   2.023
  620SOL    HW1 2759   5.351   3.160   1.980
  620SOL    HW2 2760   5.363   3.322   1.964
  621SOL     OW 2761   2.442   0.667   6.905
  621SOL    HW1 2762   2.433   0.765   6.922
  621SOL    HW2 2763   2.513   0.652   6.835
  622SOL     OW 2764   1.143   2.327   5.561
  622SOL    HW1 2765   1.096   2.239   5.562
  622SOL    HW2 2766   1.153   2.358   5.466
  623SOL     OW 2767   6.166   6.826   4.139
  623SOL    HW1 2768   6.073   6.791   4.149
  623SOL    HW2 2769   6.171   6.885   4.058
  624SOL     OW 2770   6.455   1.293   6.836
  624SOL    HW1 2771   6.443   1.207   6.788
  624SOL    HW2 2772   6.551   1.321   6.833
  625SOL     OW 2773   2.621   1.113   0.394
  625SOL    HW1 2774   2.661   1.201   0.365
  625SOL    HW2 2775   2.674   1.038   0.353
  626SOL     OW 2776   0.696   5.227   3.788
  626SOL    HW1 2777   0.598   5.247   3.779
  626SOL    HW2 2778   0.714   5.135   3.755
  627SOL     OW 2779   6.086   0.313   6.955
  627SOL    HW1 2780   6.119   0.369   6.879
  627SOL    HW2 2781   6.156   0.245   6.978
  628SOL     OW 2782   5.127   4.291   5.685
  628SOL    HW1 2783   5.224   4.287   5.662
  628SOL    HW2 2784   5.105   4.381   5.722
  629SOL     OW 2785   6.811   0.774   6.808
  629SOL    HW1 2786   6.883   0.824   6.760
  629SOL    HW2 2787   6.850   0.690   6.847
  630SOL     OW 2788   6.936   1.680   1.293
  630SOL    HW1 2789   6.867   1.741   1.331
  630SOL    HW2 2790   7.017   1.679   1.352
  631SOL     OW 2791   2.318   2.724   4.944
  631SOL    HW1 2792   2.311   2.733   4.845
  631SOL    HW2 2793   2.338   2.813   4.985
  632SOL     OW 2794   3.961   3.162   0.400
  632SOL    HW1 2795   3.954   3.245   0.345
  632SOL    HW2 2796   4.041   3.168   0.459
  633SOL     OW 2797   1.396   5.443   1.393
  633SOL    HW1 2798   1.476   5.417   1.338
  633SOL    HW2 2799   1.383   5.542   1.388
  634SOL     OW 2800   2.942   3.340   4.017
  634SOL    HW1 2801   2.894   3.415   4.062
  634SOL    HW2 2802   3.025   3.375   3.973
  635SOL     OW 2803   5.667   1.214   6.642
  635SOL    HW1 2804   5.653   1.284   6.571
  635SOL    HW2 2805   5.760   1.178   6.635
  636SOL     OW 2806   3.291   0.093   6.228
  636SOL    HW1 2807   3.227   0.127   6.296
  636SOL    HW2 2808   3.257   0.114   6.136
  637SOL     OW 2809   6.605   1.343   1.739
  637SOL    HW1 2810   6.637   1.317   1.648
  637SOL    HW2 2811   6.651   1.427   1.767
  638SOL     OW 2812   6.026   3.477   4.285
  638SOL    HW1 2813   5.936   3.484   4.329
  638SOL    HW2 2814   6.090   3.432   4.347
  639SOL     OW 2815   5.085   5.269   3.454
  639SOL    HW1 2816   5.006   5.252   3.512
  639SOL    HW2 2817   5.136   5.184   3.440
  640SOL     OW 2818   0.215   2.899   2.627
  640SOL    HW1 2819   0.160   2.946   2.558
  640SOL    HW2 2820   0.297   2.954   2.646
  641SOL     OW 2821   2.225   4.624   5.064
  641SOL    HW1 2822   2.275   4.568   4.998
  641SOL    HW2 2823   2.286   4.653   5.138
  642SOL     OW 2824   0.813   3.561   4.914
  642SOL    HW1 2825   0.805   3.473   4.867
  642SOL    HW2 2826   0.839   3.546   5.010
  643SOL     OW 2827   4.575   5.721   6.587
  643SOL    HW1 2828   4.657   5.688   6.541
  643SOL    HW2 2829   4.499   5.724   6.522
  644SOL     OW 2830   7.001   6.966   5.000
  644SOL    HW1 2831   6.961   7.015   5.077
  644SOL    HW2 2832   0.066   7.003   4.981
  645SOL     OW 2833   3.631   4.892   2.487
  645SOL    HW1 2834   3.664   4.922   2.398
  645SOL    HW2 2835   3.531   4.887   2.486
  646SOL     OW 2836   4.100   0.881   5.122
  646SOL    HW1 2837   4.143   0.970   5.141
  646SOL    HW2 2838   4.058   0.846   5.205
  647SOL     OW 2839   5.085   1.885   4.915
  647SOL    HW1 2840   5.057   1.797   4.877
  647SOL    HW2 2841   5.006   1.945   4.923
  648SOL     OW 2842   6.091   1.998   2.907
  648SOL    HW1 2843   6.017   2.050   2.865
  648SOL    HW2 2844   6.067   1.979   3.003
  649SOL     OW 2845   2.697   5.016   0.585
  649SOL    HW1 2846   2.719   5.050   0.493
  649SOL    HW2 2847   2.671   5.093   0.644
  650SOL     OW 2848   6.744   5.693   0.675
  650SOL    HW1 2849   6.802   5.653   0.604
  650SOL    HW2 2850   6.653   5.653   0.669
  651SOL     OW 2851   1.426   0.406   5.501
  651SOL    HW1 2852   1.366   0.334   5.534
  651SOL    HW2 2853   1.379   0.461   5.432
  652SOL     OW 2854   4.404   0.600   1.738
  652SOL    HW1 2855   4.434   0.518   1.787
  652SOL    HW2 2856   4.386   0.674   1.803
  653SOL     OW 2857   0.143   6.706   1.330
  653SOL    HW1 2858   0.204   6.729   1.406
  653SOL    HW2 2859   0.066   6.769   1.328
  654SOL     OW 2860   6.808   0.080   5.742
  654SOL    HW1 2861   6.807   0.086   5.842
  654SOL    HW2 2862   6.901   0.062   5.711
  655SOL     OW 2863   0.100   4.910   1.520
  655SOL    HW1 2864   0.070   4.949   1.607
  655SOL    HW2 2865   0.193   4.874   1.529
  656SOL     OW 2866   3.348   6.419   0.888
  656SOL    HW1 2867   3.260   6.458   0.861
  656SOL    HW2 2868   3.351   6.323   0.862
  657SOL     OW 2869   3.521   2.811   1.842
  657SOL    HW1 2870   3.455   2.885   1.825
  657SOL    HW2 2871   3.486   2.726   1.803
  658SOL     OW 2872   1.874   4.547   4.352
  658SOL    HW1 2873   1.832   4.636   4.338
  658SOL    HW2 2874   1.974   4.557   4.356
  659SOL     OW 2875   3.151   6.312   5.857
  659SOL    HW1 2876   3.068   6.269   5.822
  659SOL    HW2 2877   3.201   6.354   5.782
  660SOL     OW 2878   4.829   4.625   2.261
  660SOL    HW1 2879   4.806   4.531   2.290
  660SOL    HW2 2880   4.766   4.654   2.189
  661SOL     OW 2881   4.796   4.552   4.165
  661SOL    HW1 2882   4.843   4.619   4.106
  661SOL    HW2 2883   4.862   4.512   4.228
  662SOL     OW 2884   4.891   3.113   0.202
  662SOL    HW1 2885   4.951   3.033   0.195
  662SOL    HW2 2886   4.835   3.106   0.284
  663SOL     OW 2887   0.036   4.355   0.087
  663SOL    HW1 2888   7.024   4.443   0.057
  663SOL    HW2 2889   0.048   4.296   0.008
  664SOL     OW 2890   1.719   6.264   6.229
  664SOL    HW1 2891   1.739   6.289   6.134
  664SOL    HW2 2892   1.800   6.224   6.271
  665SOL     OW 2893   3.945   5.686   1.085
  665SOL    HW1 2894   3.896   5.747   1.023
  665SOL    HW2 2895   3.966   5.600   1.038
  666SOL     OW 2896   3.859   1.597   0.242
  666SOL    HW1 2897   3.903   1.611   0.153
  666SOL    HW2 2898   3.828   1.684   0.279
  667SOL     OW 2899   0.461   3.688   2.872
  667SOL    HW1 2900   0.369   3.697   2.908
  667SOL    HW2 2901   0.527   3.692   2.946
  668SOL     OW 2902   5.195   6.765   0.085
  668SOL    HW1 2903   5.173   6.768   0.182
  668SOL    HW2 2904   5.280   6.714   0.072
  669SOL     OW 2905   0.726   6.676   3.976
  669SOL    HW1 2906   0.782   6.677   4.059
  669SOL    HW2 2907   0.700   6.769   3.953
  670SOL     OW 2908   3.208   3.513   3.253
  670SOL    HW1 2909   3.245   3.494   3.344
  670SOL    HW2 2910   3.122   3.463   3.241
  671SOL     OW 2911   2.184   6.815   6.275
  671SOL    HW1 2912   2.135   6.735   6.310
  671SOL    HW2 2913   2.179   6.888   6.342
  672SOL     OW 2914   1.711   3.239   4.237
  672SOL    HW1 2915   1.664   3.168   4.186
  672SOL    HW2 2916   1.762   3.298   4.174
  673SOL     OW 2917   5.049   0.711   0.251
  673SOL    HW1 2918   4.960   0.698   0.207
  673SOL    HW2 2919   5.120   0.661   0.201
  674SOL     OW 2920   0.692   2.156   3.178
  674SOL    HW1 2921   0.741   2.149   3.265
  674SOL    HW2 2922   0.596   2.128   3.191
  675SOL     OW 2923   0.493   2.150   4.595
  675SOL    HW1 2924   0.456   2.078   4.654
  675SOL    HW2 2925   0.592   2.146   4.595
  676SOL     OW 2926   2.509   4.593   4.351
  676SOL    HW1 2927   2.474   4.666   4.410
  676SOL    HW2 2928   2.499   4.505   4.398
  677SOL     OW 2929   6.355   0.597   0.964
  677SOL    HW1 2930   6.374   0.605   0.866
  677SOL    HW2 2931   6.260   0.568   0.977
  678SOL     OW 2932   2.316   0.535   6.275
  678SOL    HW1 2933   2.376   0.596   6.326
  678SOL    HW2 2934   2.280   0.583   6.195
  679SOL     OW 2935   4.166   0.407   2.775
  679SOL    HW1 2936   4.068   0.401   2.757
  679SOL    HW2 2937   4.211   0.460   2.703
  680SOL     OW 2938   4.950   3.891   5.861
  680SOL    HW1 2939   4.980   3.987   5.866
  680SOL    HW2 2940   5.029   3.833   5.844
  681SOL     OW 2941   0.367   6.429   1.459
  681SOL    HW1 2942   0.287   6.480   1.487
  681SOL    HW2 2943   0.440   6.442   1.526
  682SOL     OW 2944   1.508   5.773   0.223
  682SOL    HW1 2945   1.473   5.685   0.189
  682SOL    HW2 2946   1.555   5.821   0.150
  683SOL     OW 2947   3.922   1.241   6.438
  683SOL    HW1 2948   3.936   1.142   6.435
  683SOL    HW2 2949   3.946   1.275   6.530
  684SOL     OW 2950   0.619   6.298   5.744
  684SOL    HW1 2951   0.564   6.376   5.714
  684SOL    HW2 2952   0.680   6.270   5.669
  685SOL     OW 2953   5.089   0.242   6.024
  685SOL    HW1 2954   5.134   0.268   5.938
  685SOL    HW2 2955   5.013   0.180   6.004
  686SOL     OW 2956   5.377   3.451   3.082
  686SOL    HW1 2957   5.300   3.504   3.120
  686SOL    HW2 2958   5.404   3.381   3.147
  687SOL     OW 2959   6.807   3.161   5.737
  687SOL    HW1 2960   6.833   3.240   5.793
  687SOL    HW2 2961   6.887   3.102   5.724
  688SOL     OW 2962   1.403   4.170   6.576
  688SOL    HW1 2963   1.335   4.168   6.502
  688SOL    HW2 2964   1.469   4.243   6.558
  689SOL     OW 2965   6.878   3.934   6.307
  689SOL    HW1 2966   6.967   3.950   6.350
  689SOL    HW2 2967   6.891   3.914   6.210
  690SOL     OW 2968   1.789   2.311   3.671
  690SOL    HW1 2969   1.811   2.213   3.666
  690SOL    HW2 2970   1.832   2.350   3.752
  691SOL     OW 2971   0.832   2.360   6.649
  691SOL    HW1 2972   0.807   2.425   6.720
  691SOL    HW2 2973   0.917   2.314   6.673
  692SOL     OW 2974   2.456   0.318   2.619
  692SOL    HW1 2975   2.549   0.300   2.588
  692SOL    HW2 2976   2.458   0.368   2.705
  693SOL     OW 2977   6.675   2.590   2.275
  693SOL    HW1 2978   6.656   2.498   2.310
  693SOL    HW2 2979   6.589   2.641   2.269
  694SOL     OW 2980   2.371   5.872   1.189
  694SOL    HW1 2981   2.358   5.970   1.172
  694SOL    HW2 2982   2.286   5.833   1.225
  695SOL     OW 2983   4.872   5.307   5.343
  695SOL    HW1 2984   4.863   5.211   5.314
  695SOL    HW2 2985   4.818   5.365   5.283
  696SOL     OW 2986   4.197   5.078   2.575
  696SOL    HW1 2987   4.128   5.010   2.599
  696SOL    HW2 2988   4.153   5.166   2.558
  697SOL     OW 2989   0.880   3.697   4.604
  697SOL    HW1 2990   0.860   3.693   4.506
  697SOL    HW2 2991   0.812   3.754   4.649
  698SOL     OW 2992   4.299   0.515   3.780
  698SOL    HW1 2993   4.201   0.529   3.763
  698SOL    HW2 2994   4.328   0.431   3.735
  699SOL     OW 2995   1.172   4.117   1.124
  699SOL    HW1 2996   1.113   4.041   1.095
  699SOL    HW2 2997   1.174   4.187   1.052
  700SOL     OW 2998   2.565   2.511   4.315
  700SOL    HW1 2999   2.542   2.426   4.270
  700SOL    HW2 3000   2.569   2.585   4.248
  701SOL     OW 3001   0.413   4.362   6.723
  701SOL    HW1 3002   0.332   4.415   6.699
  701SOL    HW2 3003   0.389   4.293   6.791
  702SOL     OW 3004   5.264   6.858   4.638
  702SOL    HW1 3005   5.343   6.844   4.698
  702SOL    HW2 3006   5.180   6.848   4.691
  703SOL     OW 3007   4.332   3.649   6.140
  703SOL    HW1 3008   4.399   3.580   6.168
  703SOL    HW2 3009   4.258   3.605   6.089
  704SOL     OW 3010   1.607   0.467   6.707
  704SOL    HW1 3011   1.557   0.388   6.744
  704SOL    HW2 3012   1.543   0.541   6.687
  705SOL     OW 3013   5.292   1.298   3.563
  705SOL    HW1 3014   5.376   1.245   3.572
  705SOL    HW2 3015   5.232   1.255   3.496
  706SOL     OW 3016   3.657   2.021   4.054
  706SOL    HW1 3017   3.593   2.052   3.985
  706SOL    HW2 3018   3.748   2.008   4.013
  707SOL     OW 3019   5.216   0.962   1.707
  707SOL    HW1 3020   5.229   1.059   1.683
  707SOL    HW2 3021   5.304   0.915   1.700
  708SOL     OW 3022   4.407   0.539   1.054
  708SOL    HW1 3023   4.330   0.487   1.091
  708SOL    HW2 3024   4.374   0.604   0.986
  709SOL     OW 3025   1.322   4.770   0.814
  709SOL    HW1 3026   1.252   4.829   0.853
  709SOL    HW2 3027   1.412   4.802   0.843
  710SOL     OW 3028   3.045   3.835   2.580
  710SOL    HW1 3029   3.076   3.926   2.605
  710SOL    HW2 3030   2.948   3.838   2.557
  711SOL     OW 3031   6.408   1.599   4.723
  711SOL    HW1 3032   6.358   1.517   4.751
  711SOL    HW2 3033   6.344   1.665   4.684
  712SOL     OW 3034   1.101   3.899   1.852
  712SOL    HW1 3035   1.156   3.957   1.912
  712SOL    HW2 3036   1.119   3.802   1.873
  713SOL     OW 3037   3.818   2.982   2.263
  713SOL    HW1 3038   3.817   2.898   2.209
  713SOL    HW2 3039   3.760   3.050   2.219
  714SOL     OW 3040   5.785   4.676   5.294
  714SOL    HW1 3041   5.884   4.661   5.292
  714SOL    HW2 3042   5.741   4.616   5.227
  715SOL     OW 3043   3.972   6.014   6.157
  715SOL    HW1 3044   3.905   6.083   6.129
  715SOL    HW2 3045   3.932   5.957   6.230
  716SOL     OW 3046   0.423   5.336   1.572
  716SOL    HW1 3047   0.465   5.398   1.506
  716SOL    HW2 3048   0.490   5.313   1.643
  717SOL     OW 3049   6.036   3.950   6.919
  717SOL    HW1 3050   6.103   3.890   6.961
  717SOL    HW2 3051   5.944   3.921   6.944
  718SOL     OW 3052   3.327   3.224   5.962
  718SOL    HW1 3053   3.297   3.255   6.052
  718SOL    HW2 3054   3.282   3.138   5.939
  719SOL     OW 3055   6.862   3.508   1.430
  719SOL    HW1 3056   6.809   3.588   1.457
  719SOL    HW2 3057   6.953   3.537   1.398
  720SOL     OW 3058   2.523   2.267   5.692
  720SOL    HW1 3059   2.471   2.252   5.776
  720SOL    HW2 3060   2.617   2.293   5.716
  721SOL     OW 3061   1.785   6.991   5.717
  721SOL    HW1 3062   1.749   6.941   5.637
  721SOL    HW2 3063   1.826   6.925   5.780
  722SOL     OW 3064   3.960   0.164   4.510
  722SOL    HW1 3065   4.025   0.233   4.479
  722SOL    HW2 3066   4.004   0.105   4.578
  723SOL     OW 3067   1.806   2.505   2.270
  723SOL    HW1 3068   1.853   2.502   2.182
  723SOL    HW2 3069   1.752   2.588   2.277
  724SOL     OW 3070   0.805   1.361   4.776
  724SOL    HW1 3071   0.751   1.278   4.760
  724SOL    HW2 3072   0.876   1.341   4.844
  725SOL     OW 3073   2.551   5.057   2.471
  725SOL    HW1 3074   2.639   5.098   2.446
  725SOL    HW2 3075   2.510   5.015   2.390
  726SOL     OW 3076   3.100   5.944   0.053
  726SOL    HW1 3077   3.140   5.943   0.145
  726SOL    HW2 3078   3.161   5.896   7.016
  727SOL     OW 3079   3.162   5.224   4.232
  727SOL    HW1 3080   3.141   5.224   4.134
  727SOL    HW2 3081   3.125   5.141   4.273
  728SOL     OW 3082   0.104   3.600   5.152
  728SOL    HW1 3083   0.185   3.653   5.181
  728SOL    HW2 3084   0.023   3.636   5.197
  729SOL     OW 3085   2.400   0.619   0.578
  729SOL    HW1 3086   2.392   0.604   0.479
  729SOL    HW2 3087   2.340   0.694   0.605
  730SOL     OW 3088   6.305   0.639   3.929
  730SOL    HW1 3089   6.352   0.701   3.992
  730SOL    HW2 3090   6.341   0.546   3.940
  731SOL     OW 3091   4.927   2.808   4.542
  731SOL    HW1 3092   4.851   2.807   4.607
  731SOL    HW2 3093   5.007   2.767   4.585
  732SOL     OW 3094   0.811   2.449   1.123
  732SOL    HW1 3095   0.733   2.484   1.175
  732SOL    HW2 3096   0.778   2.379   1.059
  733SOL     OW 3097   4.937   4.214   3.855
  733SOL    HW1 3098   4.924   4.240   3.951
  733SOL    HW2 3099   4.849   4.220   3.807
  734SOL     OW 3100   6.611   4.233   1.213
  734SOL    HW1 3101   6.632   4.331   1.220
  734SOL    HW2 3102   6.679   4.188   1.156
  735SOL     OW 3103   1.362   3.502   0.038
  735SOL    HW1 3104   1.363   3.602   0.038
  735SOL    HW2 3105   1.370   3.468   0.132
  736SOL     OW 3106   6.690   0.492   3.380
  736SOL    HW1 3107   6.651   0.431   3.449
  736SOL    HW2 3108   6.767   0.447   3.335
  737SOL     OW 3109   4.989   3.526   1.256
  737SOL    HW1 3110   5.062   3.479   1.304
  737SOL    HW2 3111   4.901   3.486   1.282
  738SOL     OW 3112   0.007   4.267   4.180
  738SOL    HW1 3113   6.953   4.322   4.207
  738SOL    HW2 3114   0.028   4.202   4.253
  739SOL     OW 3115   4.565   6.576   5.800
  739SOL    HW1 3116   4.597   6.637   5.872
  739SOL    HW2 3117   4.512   6.501   5.840
  740SOL     OW 3118   5.574   0.191   1.148
  740SOL    HW1 3119   5.474   0.192   1.142
  740SOL    HW2 3120   5.605   0.097   1.161
  741SOL     OW 3121   1.483   6.700   3.104
  741SOL    HW1 3122   1.391   6.677   3.136
  741SOL    HW2 3123   1.548   6.630   3.136
  742SOL     OW 3124   1.442   6.540   3.638
  742SOL    HW1 3125   1.492   6.567   3.556
  742SOL    HW2 3126   1.446   6.614   3.706
  743SOL     OW 3127   1.457   4.277   4.217
  743SOL    HW1 3128   1.441   4.354   4.156
  743SOL    HW2 3129   1.555   4.273   4.240
  744SOL     OW 3130   6.862   6.335   0.096
  744SOL    HW1 3131   6.781   6.383   0.065
  744SOL    HW2 3132   6.851   6.237   0.081
  745SOL     OW 3133   1.008   5.384   2.790
  745SOL    HW1 3134   1.062   5.427   2.863
  745SOL    HW2 3135   0.913   5.416   2.797
  746SOL     OW 3136   0.787   6.982   4.999
  746SOL    HW1 3137   0.853   6.959   4.928
  746SOL    HW2 3138   0.707   6.923   4.990
  747SOL     OW 3139   4.575   5.024   3.429
  747SOL    HW1 3140   4.670   4.994   3.428
  747SOL    HW2 3141   4.568   5.114   3.473
  748SOL     OW 3142   4.553   3.967   0.688
  748SOL    HW1 3143   4.626   3.984   0.755
  748SOL    HW2 3144   4.583   3.996   0.597
  749SOL     OW 3145   0.207   2.341   4.930
  749SOL    HW1 3146   0.158   2.259   4.900
  749SOL    HW2 3147   0.232   2.396   4.851
  750SOL     OW 3148   2.448   3.194   0.429
  750SOL    HW1 3149   2.402   3.279   0.404
  750SOL    HW2 3150   2.502   3.208   0.512
  751SOL     OW 3151   4.490   1.112   0.424
  751SOL    HW1 3152   4.514   1.201   0.386
  751SOL    HW2 3153   4.411   1.074   0.375
  752SOL     OW 3154   4.206   2.500   1.620
  752SOL    HW1 3155   4.135   2.476   1.686
  752SOL    HW2 3156   4.261   2.576   1.656
  753SOL     OW 3157   1.832   3.207   4.995
  753SOL    HW1 3158   1.768   3.284   4.997
  753SOL    HW2 3159   1.896   3.214   5.071
  754SOL     OW 3160   4.758   4.102   6.635
  754SOL    HW1 3161   4.841   4.056   6.668
  754SOL    HW2 3162   4.763   4.199   6.656
  755SOL     OW 3163   0.605   5.847   6.935
  755SOL    HW1 3164   0.610   5.779   6.862
  755SOL    HW2 3165   0.525   5.829   6.991
  756SOL     OW 3166   5.336   0.451   1.959
  756SOL    HW1 3167   5.325   0.542   1.918
  756SOL    HW2 3168   5.370   0.459   2.052
  757SOL     OW 3169   0.494   6.555   3.944
  757SOL    HW1 3170   0.586   6.588   3.965
  757SOL    HW2 3171   0.499   6.487   3.871
  758SOL     OW 3172   3.592   2.426   1.438
  758SOL    HW1 3173   3.534   2.448   1.516
  758SOL    HW2 3174   3.646   2.344   1.459
  759SOL     OW 3175   1.224   1.752   0.100
  759SOL    HW1 3176   1.243   1.675   0.039
  759SOL    HW2 3177   1.217   1.836   0.045
  760SOL     OW 3178   4.958   1.490   6.886
  760SOL    HW1 3179   4.906   1.470   6.804
  760SOL    HW2 3180   5.020   1.567   6.870
  761SOL     OW 3181   6.162   2.898   0.418
  761SOL    HW1 3182   6.247   2.912   0.367
  761SOL    HW2 3183   6.169   2.814   0.471
  762SOL     OW 3184   2.538   6.001   3.561
  762SOL    HW1 3185   2.455   5.945   3.562
  762SOL    HW2 3186   2.513   6.097   3.548
  763SOL     OW 3187   4.268   5.842   0.126
  763SOL    HW1 3188   4.356   5.884   0.146
  763SOL    HW2 3189   4.248   5.772   0.195
  764SOL     OW 3190   3.166   1.468   2.868
  764SOL    HW1 3191   3.092   1.532   2.848
  764SOL    HW2 3192   3.190   1.474   2.965
  765SOL     OW 3193   0.885   6.549   2.034
  765SOL    HW1 3194   0.947   6.552   1.955
  765SOL    HW2 3195   0.796   6.513   2.004
  766SOL     OW 3196   7.006   0.388   6.632
  766SOL    HW1 3197   6.957   0.302   6.618
  766SOL    HW2 3198   0.076   0.377   6.608
  767SOL     OW 3199   0.371   6.619   2.248
  767SOL    HW1 3200   0.273   6.598   2.255
  767SOL    HW2 3201   0.420   6.537   2.218
  768SOL     OW 3202   2.741   0.299   2.678
  768SOL    HW1 3203   2.823   0.278   2.626
  768SOL    HW2 3204   2.738   0.396   2.700
  769SOL     OW 3205   4.358   0.154   5.140
  769SOL    HW1 3206   4.319   0.063   5.136
  769SOL    HW2 3207   4.285   0.222   5.150
  770SOL     OW 3208   3.140   5.286   3.417
  770SOL    HW1 3209   3.052   5.247   3.442
  770SOL    HW2 3210   3.125   5.367   3.359
  771SOL     OW 3211   2.101   5.417   3.143
  771SOL    HW1 3212   2.140   5.420   3.051
  771SOL    HW2 3213   2.173   5.395   3.209
  772SOL     OW 3214   0.090   3.990   0.367
  772SOL    HW1 3215   0.052   3.919   0.427
  772SOL    HW2 3216   0.028   4.069   0.365
  773SOL     OW 3217   6.886   3.111   3.228
  773SOL    HW1 3218   6.961   3.089   3.165
  773SOL    HW2 3219   6.801   3.121   3.176
  774SOL     OW 3220   1.690   1.957   1.754
  774SOL    HW1 3221   1.739   1.963   1.668
  774SOL    HW2 3222   1.673   1.861   1.776
  775SOL     OW 3223   1.176   2.176   3.803
  775SOL    HW1 3224   1.089   2.125   3.801
  775SOL    HW2 3225   1.178   2.240   3.726
  776SOL     OW 3226   1.881   6.698   6.212
  776SOL    HW1 3227   1.933   6.781   6.195
  776SOL    HW2 3228   1.891   6.636   6.134
  777SOL     OW 3229   4.271   0.999   1.156
  777SOL    HW1 3230   4.369   1.016   1.154
  777SOL    HW2 3231   4.254   0.900   1.157
  778SOL     OW 3232   3.978   0.842   3.782
  778SOL    HW1 3233   4.017   0.892   3.860
  778SOL    HW2 3234   3.967   0.904   3.705
  779SOL     OW 3235   0.990   2.207   2.045
  779SOL    HW1 3236   0.955   2.217   2.138
  779SOL    HW2 3237   0.913   2.188   1.983
  780SOL     OW 3238   6.290   2.539   4.250
  780SOL    HW1 3239   6.320   2.625   4.290
  780SOL    HW2 3240   6.272   2.473   4.324
  781SOL     OW 3241   6.373   1.468   6.221
  781SOL    HW1 3242   6.357   1.484   6.124
  781SOL    HW2 3243   6.453   1.521   6.251
  782SOL     OW 3244   0.812   3.284   0.791
  782SOL    HW1 3245   0.758   3.349   0.738
  782SOL    HW2 3246   0.844   3.210   0.732
  783SOL     OW 3247   2.621   5.369   0.578
  783SOL    HW1 3248   2.636   5.327   0.488
  783SOL    HW2 3249   2.698   5.429   0.600
  784SOL     OW 3250   4.313   0.526   5.280
  784SOL    HW1 3251   4.234   0.566   5.327
  784SOL    HW2 3252   4.292   0.516   5.183
  785SOL     OW 3253   6.185   1.904   2.446
  785SOL    HW1 3254   6.169   2.002   2.449
  785SOL    HW2 3255   6.151   1.861   2.530
  786SOL     OW 3256   0.217   0.429   0.383
  786SOL    HW1 3257   0.253   0.452   0.473
  786SOL    HW2 3258   0.117   0.438   0.383
  787SOL     OW 3259   2.538   1.387   6.250
  787SOL    HW1 3260   2.626   1.371   6.294
  787SOL    HW2 3261   2.468   1.399   6.319
  788SOL     OW 3262   2.151   3.378   4.509
  788SOL    HW1 3263   2.172   3.392   4.606
  788SOL    HW2 3264   2.139   3.466   4.465
  789SOL     OW 3265   5.660   3.925   1.643
  789SOL    HW1 3266   5.724   3.861   1.686
  789SOL    HW2 3267   5.646   4.003   1.704
  790SOL     OW 3268   2.101   1.295   4.300
  790SOL    HW1 3269   2.032   1.259   4.363
  790SOL    HW2 3270   2.097   1.245   4.214
  791SOL     OW 3271   3.799   0.456   4.179
  791SOL    HW1 3272   3.749   0.530   4.134
  791SOL    HW2 3273   3.895   0.461   4.153
  792SOL     OW 3274   6.273   0.537   2.303
  792SOL    HW1 3275   6.321   0.449   2.303
  792SOL    HW2 3276   6.216   0.544   2.385
  793SOL     OW 3277   5.136   6.602   1.062
  793SOL    HW1 3278   5.127   6.682   1.121
  793SOL    HW2 3279   5.221   6.554   1.084
  794SOL     OW 3280   2.680   4.947   5.322
  794SOL    HW1 3281   2.598   4.957   5.378
  794SOL    HW2 3282   2.681   4.856   5.279
  795SOL     OW 3283   3.869   5.115   5.897
  795SOL    HW1 3284   3.776   5.081   5.884
  795SOL    HW2 3285   3.930   5.038   5.916
  796SOL     OW 3286   0.226   2.083   5.460
  796SOL    HW1 3287   0.215   2.121   5.552
  796SOL    HW2 3288   0.318   2.102   5.426
  797SOL     OW 3289   5.536   1.983   3.309
  797SOL    HW1 3290   5.499   1.924   3.237
  797SOL    HW2 3291   5.489   2.071   3.306
  798SOL     OW 3292   4.967   0.277   0.528
  798SOL    HW1 3293   4.873   0.304   0.549
  798SOL    HW2 3294   5.001   0.215   0.599
  799SOL     OW 3295   6.607   1.992   3.110
  799SOL    HW1 3296   6.598   2.089   3.088
  799SOL    HW2 3297   6.518   1.955   3.136
  800SOL     OW 3298   5.308   0.734   2.173
  800SOL    HW1 3299   5.326   0.822   2.127
  800SOL    HW2 3300   5.358   0.731   2.259
  801SOL     OW 3301   1.302   2.651   3.236
  801SOL    HW1 3302   1.321   2.556   3.261
  801SOL    HW2 3303   1.212   2.657   3.192
  802SOL     OW 3304   5.186   1.791   0.039
  802SOL    HW1 3305   5.109   1.810   0.100
  802SOL    HW2 3306   5.260   1.856   0.057
  803SOL     OW 3307   6.055   5.611   4.129
  803SOL    HW1 3308   5.958   5.618   4.107
  803SOL    HW2 3309   6.105   5.576   4.049
  804SOL     OW 3310   7.013   6.684   0.277
  804SOL    HW1 3311   0.011   6.640   0.190
  804SOL    HW2 3312   0.017   6.780   0.275
  805SOL     OW 3313   4.081   2.669   5.817
  805SOL    HW1 3314   4.047   2.592   5.762
  805SOL    HW2 3315   4.012   2.696   5.884
  806SOL     OW 3316   4.671   1.664   6.345
  806SOL    HW1 3317   4.734   1.667   6.267
  806SOL    HW2 3318   4.632   1.572   6.352
  807SOL     OW 3319   0.865   0.595   3.499
  807SOL    HW1 3320   0.771   0.622   3.478
  807SOL    HW2 3321   0.901   0.539   3.425
  808SOL     OW 3322   5.447   2.578   5.980
  808SOL    HW1 3323   5.447   2.678   5.977
  808SOL    HW2 3324   5.448   2.547   6.075
  809SOL     OW 3325   1.283   4.723   1.524
  809SOL    HW1 3326   1.250   4.629   1.518
  809SOL    HW2 3327   1.287   4.751   1.620
  810SOL     OW 3328   4.799   3.772   1.074
  810SOL    HW1 3329   4.833   3.694   1.127
  810SOL    HW2 3330   4.869   3.800   1.009
  811SOL     OW 3331   5.181   5.703   3.361
  811SOL    HW1 3332   5.172   5.750   3.449
  811SOL    HW2 3333   5.091   5.697   3.318
  812SOL     OW 3334   0.232   0.647   1.409
  812SOL    HW1 3335   0.269   0.700   1.333
  812SOL    HW2 3336   0.218   0.552   1.380
  813SOL     OW 3337   4.312   6.032   3.429
  813SOL    HW1 3338   4.386   5.965   3.434
  813SOL    HW2 3339   4.243   6.000   3.364
  814SOL     OW 3340   5.246   6.497   2.527
  814SOL    HW1 3341   5.248   6.549   2.612
  814SOL    HW2 3342   5.321   6.431   2.526
  815SOL     OW 3343   6.144   2.658   1.420
  815SOL    HW1 3344   6.101   2.603   1.491
  815SOL    HW2 3345   6.176   2.744   1.460
  816SOL     OW 3346   6.876   6.744   0.676
  816SOL    HW1 3347   6.893   6.808   0.751
  816SOL    HW2 3348   6.923   6.658   0.695
  817SOL     OW 3349   1.678   3.891   2.023
  817SOL    HW1 3350   1.593   3.862   1.979
  817SOL    HW2 3351   1.749   3.822   2.008
  818SOL     OW 3352   5.985   2.134   0.872
  818SOL    HW1 3353   6.047   2.155   0.948
  818SOL    HW2 3354   5.892   2.159   0.896
  819SOL     OW 3355   6.818   2.537   4.248
  819SOL    HW1 3356   6.841   2.443   4.273
  819SOL    HW2 3357   6.900   2.582   4.213
  820SOL     OW 3358   1.143   2.719   4.839
  820SOL    HW1 3359   1.068   2.680   4.786
  820SOL    HW2 3360   1.218   2.743   4.778
  821SOL     OW 3361   1.617   4.165   0.717
  821SOL    HW1 3362   1.709   4.152   0.681
  821SOL    HW2 3363   1.600   4.262   0.730
  822SOL     OW 3364   0.502   3.931   4.810
  822SOL    HW1 3365   0.444   3.849   4.811
  822SOL    HW2 3366   0.597   3.903   4.818
  823SOL     OW 3367   5.297   4.060   5.779
  823SOL    HW1 3368   5.221   4.118   5.809
  823SOL    HW2 3369   5.368   4.059   5.850
  824SOL     OW 3370   4.565   1.867   5.231
  824SOL    HW1 3371   4.531   1.801   5.163
  824SOL    HW2 3372   4.497   1.881   5.302
  825SOL     OW 3373   2.117   3.290   2.140
  825SOL    HW1 3374   2.159   3.374   2.108
  825SOL    HW2 3375   2.156   3.212   2.091
  826SOL     OW 3376   5.920   3.350   0.271
  826SOL    HW1 3377   5.998   3.374   0.213
  826SOL    HW2 3378   5.940   3.266   0.321
  827SOL     OW 3379   3.033   5.245   6.805
  827SOL    HW1 3380   3.012   5.150   6.785
  827SOL    HW2 3381   2.976   5.277   6.881
  828SOL     OW 3382   6.242   0.785   5.153
  828SOL    HW1 3383   6.142   0.778   5.151
  828SOL    HW2 3384   6.271   0.814   5.244
  829SOL     OW 3385   3.104   3.047   4.016
  829SOL    HW1 3386   3.137   3.055   4.110
  829SOL    HW2 3387   3.031   3.113   4.001
  830SOL     OW 3388   4.769   4.458   5.761
  830SOL    HW1 3389   4.708   4.403   5.704
  830SOL    HW2 3390   4.726   4.545   5.782
  831SOL     OW 3391   6.245   0.100   4.819
  831SOL    HW1 3392   6.331   0.051   4.837
  831SOL    HW2 3393   6.265   0.197   4.806
  832SOL     OW 3394   2.399   1.679   0.246
  832SOL    HW1 3395   2.419   1.581   0.245
  832SOL    HW2 3396   2.482   1.730   0.224
  833SOL     OW 3397   6.350   6.675   6.143
  833SOL    HW1 3398   6.396   6.605   6.198
  833SOL    HW2 3399   6.419   6.731   6.096
  834SOL     OW 3400   3.331   3.177   3.836
  834SOL    HW1 3401   3.255   3.241   3.822
  834SOL    HW2 3402   3.295   3.085   3.848
  835SOL     OW 3403   3.818   6.755   3.949
  835SOL    HW1 3404   3.911   6.788   3.966
  835SOL    HW2 3405   3.823   6.663   3.908
  836SOL     OW 3406   3.199   6.966   6.861
  836SOL    HW1 3407   3.167   6.972   6.956
  836SOL    HW2 3408   3.278   6.906   6.856
  837SOL     OW 3409   5.456   0.096   6.806
  837SOL    HW1 3410   5.379   0.139   6.758
  837SOL    HW2 3411   5.425   0.065   6.896
  838SOL     OW 3412   1.456   6.248   4.612
  838SOL    HW1 3413   1.404   6.173   4.653
  838SOL    HW2 3414   1.393   6.319   4.581
  839SOL     OW 3415   2.878   1.194   3.949
  839SOL    HW1 3416   2.799   1.216   3.893
  839SOL    HW2 3417   2.881   1.255   4.028
  840SOL     OW 3418   1.241   1.109   6.728
  840SOL    HW1 3419   1.272   1.160   6.648
  840SOL    HW2 3420   1.183   1.033   6.699
  841SOL     OW 3421   6.695   3.640   0.185
  841SOL    HW1 3422   6.753   3.563   0.210
  841SOL    HW2 3423   6.753   3.719   0.163
  842SOL     OW 3424   3.505   5.473   3.288
  842SOL    HW1 3425   3.458   5.558   3.265
  842SOL    HW2 3426   3.600   5.493   3.313
  843SOL     OW 3427   6.098   2.255   1.462
  843SOL    HW1 3428   6.087   2.199   1.544
  843SOL    HW2 3429   6.029   2.229   1.394
  844SOL     OW 3430   5.179   6.359   0.477
  844SOL    HW1 3431   5.188   6.446   0.428
  844SOL    HW2 3432   5.269   6.318   0.488
  845SOL     OW 3433   6.638   3.450   4.730
  845SOL    HW1 3434   6.596   3.540   4.720
  845SOL    HW2 3435   6.724   3.459   4.779
  846SOL     OW 3436   5.797   1.166   0.075
  846SOL    HW1 3437   5.802   1.188   0.172
  846SOL    HW2 3438   5.732   1.228   0.030
  847SOL     OW 3439   6.223   3.550   0.986
  847SOL    HW1 3440   6.129   3.520   0.967
  847SOL    HW2 3441   6.230   3.648   0.968
  848SOL     OW 3442   6.633   0.370   5.772
  848SOL    HW1 3443   6.694   0.343   5.698
  848SOL    HW2 3444   6.555   0.420   5.735
  849SOL     OW 3445   0.180   5.541   4.986
  849SOL    HW1 3446   0.228   5.625   4.960
  849SOL    HW2 3447   0.150   5.493   4.904
  850SOL     OW 3448   4.693   1.205   3.592
  850SOL    HW1 3449   4.651   1.236   3.677
  850SOL    HW2 3450   4.624   1.201   3.520
  851SOL     OW 3451   0.391   1.117   0.160
  851SOL    HW1 3452   0.462   1.175   0.120
  851SOL    HW2 3453   0.345   1.167   0.233
  852SOL     OW 3454   2.344   3.215   6.873
  852SOL    HW1 3455   2.443   3.229   6.877
  852SOL    HW2 3456   2.298   3.303   6.889
  853SOL     OW 3457   1.158   2.834   2.041
  853SOL    HW1 3458   1.232   2.890   2.003
  853SOL    HW2 3459   1.194   2.745   2.068
  854SOL     OW 3460   5.472   5.850   2.812
  854SOL    HW1 3461   5.447   5.834   2.907
  854SOL    HW2 3462   5.528   5.932   2.805
  855SOL     OW 3463   5.964   6.913   1.680
  855SOL    HW1 3464   6.056   6.880   1.661
  855SOL    HW2 3465   5.966   6.980   1.754
  856SOL     OW 3466   2.122   6.225   4.962
  856SOL    HW1 3467   2.218   6.251   4.963
  856SOL    HW2 3468   2.066   6.300   4.997
  857SOL     OW 3469   6.378   3.800   0.968
  857SOL    HW1 3470   6.403   3.807   1.065
  857SOL    HW2 3471   6.437   3.860   0.914
  858SOL     OW 3472   3.193   4.851   1.974
  858SOL    HW1 3473   3.268   4.863   2.039
  858SOL    HW2 3474   3.220   4.785   1.904
  859SOL     OW 3475   7.009   4.927   6.665
  859SOL    HW1 3476   0.009   4.956   6.757
  859SOL    HW2 3477   6.983   4.830   6.666
  860SOL     OW 3478   3.171   4.556   0.535
  860SOL    HW1 3479   3.268   4.540   0.550
  860SOL    HW2 3480   3.125   4.568   0.624
  861SOL     OW 3481   3.019   6.190   5.293
  861SOL    HW1 3482   2.956   6.113   5.297
  861SOL    HW2 3483   2.971   6.270   5.257
  862SOL     OW 3484   5.249   4.771   4.961
  862SOL    HW1 3485   5.161   4.762   4.914
  862SOL    HW2 3486   5.277   4.681   4.995
  863SOL     OW 3487   0.302   1.056   0.901
  863SOL    HW1 3488   0.400   1.073   0.891
  863SOL    HW2 3489   0.256   1.068   0.813
  864SOL     OW 3490   5.440   4.720   2.619
  864SOL    HW1 3491   5.498   4.755   2.545
  864SOL    HW2 3492   5.388   4.795   2.660
  865SOL     OW 3493   1.477   6.832   3.880
  865SOL    HW1 3494   1.473   6.809   3.977
  865SOL    HW2 3495   1.569   6.814   3.845
  866SOL     OW 3496   3.270   2.067   1.858
  866SOL    HW1 3497   3.326   2.141   1.820
  866SOL    HW2 3498   3.174   2.096   1.861
  867SOL     OW 3499   2.840   3.106   6.456
  867SOL    HW1 3500   2.776   3.064   6.391
  867SOL    HW2 3501   2.932   3.071   6.439
  868SOL     OW 3502   5.968   0.480   3.055
  868SOL    HW1 3503   6.052   0.430   3.076
  868SOL    HW2 3504   5.974   0.572   3.092
  869SOL     OW 3505   6.072   5.972   2.091
  869SOL    HW1 3506   6.011   5.980   2.169
  869SOL    HW2 3507   6.118   5.884   2.093
  870SOL     OW 3508   0.031   2.609   1.506
  870SOL    HW1 3509   7.013   2.571   1.425
  870SOL    HW2 3510   0.098   2.545   1.541
  871SOL     OW 3511   5.844   2.652   1.922
  871SOL    HW1 3512   5.888   2.720   1.863
  871SOL    HW2 3513   5.816   2.696   2.008
  872SOL     OW 3514   6.589   2.576   4.750
  872SOL    HW1 3515   6.525   2.501   4.733
  872SOL    HW2 3516   6.561   2.657   4.698
  873SOL     OW 3517   3.430   0.053   3.707
  873SOL    HW1 3518   3.471   0.124   3.650
  873SOL    HW2 3519   3.433   0.082   3.803
  874SOL     OW 3520   1.593   4.336   5.183
  874SOL    HW1 3521   1.635   4.245   5.184
  874SOL    HW2 3522   1.571   4.361   5.088
  875SOL     OW 3523   5.337   3.783   0.098
  875SOL    HW1 3524   5.406   3.853   0.080
  875SOL    HW2 3525   5.274   3.815   0.170
  876SOL     OW 3526   6.723   3.314   2.535
  876SOL    HW1 3527   6.816   3.286   2.509
  876SOL    HW2 3528   6.726   3.403   2.579
  877SOL     OW 3529   4.832   5.263   7.018
  877SOL    HW1 3530   4.908   5.255   0.057
  877SOL    HW2 3531   4.849   5.204   6.939
  878SOL     OW 3532   2.838   5.005   0.917
  878SOL    HW1 3533   2.753   5.055   0.908
  878SOL    HW2 3534   2.906   5.043   0.855
  879SOL     OW 3535   4.142   2.215   2.627
  879SOL    HW1 3536   4.074   2.170   2.569
  879SOL    HW2 3537   4.224   2.236   2.574
  880SOL     OW 3538   3.590   5.090   0.908
  880SOL    HW1 3539   3.597   5.032   0.826
  880SOL    HW2 3540   3.670   5.075   0.966
  881SOL     OW 3541   4.175   4.699   4.567
  881SOL    HW1 3542   4.269   4.677   4.542
  881SOL    HW2 3543   4.172   4.730   4.662
  882SOL     OW 3544   1.145   0.746   4.604
  882SOL    HW1 3545   1.094   0.686   4.543
  882SOL    HW2 3546   1.131   0.717   4.699
  883SOL     OW 3547   3.114   5.483   6.658
  883SOL    HW1 3548   3.138   5.460   6.564
  883SOL    HW2 3549   3.083   5.401   6.706
  884SOL     OW 3550   5.884   3.325   1.485
  884SOL    HW1 3551   5.823   3.264   1.536
  884SOL    HW2 3552   5.829   3.383   1.425
  885SOL     OW 3553   5.838   5.952   0.437
  885SOL    HW1 3554   5.843   6.052   0.440
  885SOL    HW2 3555   5.770   5.924   0.369
  886SOL     OW 3556   4.168   1.357   6.915
  886SOL    HW1 3557   4.214   1.285   6.862
  886SOL    HW2 3558   4.076   1.326   6.940
  887SOL     OW 3559   4.109   0.041   6.056
  887SOL    HW1 3560   4.180   0.040   5.986
  887SOL    HW2 3561   4.134   7.003   6.129
  888SOL     OW 3562   6.553   6.255   3.077
  888SOL    HW1 3563   6.504   6.230   2.993
  888SOL    HW2 3564   6.622   6.186   3.097
  889SOL     OW 3565   0.451   6.579   5.192
  889SOL    HW1 3566   0.433   6.659   5.134
  889SOL    HW2 3567   0.524   6.601   5.256
  890SOL     OW 3568   2.731   4.828   2.079
  890SOL    HW1 3569   2.747   4.807   2.176
  890SOL    HW2 3570   2.753   4.748   2.024
  891SOL     OW 3571   5.359   2.756   0.413
  891SOL    HW1 3572   5.296   2.684   0.440
  891SOL    HW2 3573   5.425   2.772   0.486
  892SOL     OW 3574   2.806   3.796   1.186
  892SOL    HW1 3575   2.843   3.881   1.223
  892SOL    HW2 3576   2.799   3.728   1.260
  893SOL     OW 3577   1.493   0.807   0.342
  893SOL    HW1 3578   1.556   0.808   0.419
  893SOL    HW2 3579   1.432   0.728   0.351
  894SOL     OW 3580   1.213   5.678   4.323
  894SOL    HW1 3581   1.157   5.666   4.242
  894SOL    HW2 3582   1.180   5.758   4.374
  895SOL     OW 3583   2.084   0.186   4.232
  895SOL    HW1 3584   2.085   0.119   4.307
  895SOL    HW2 3585   1.990   0.201   4.202
  896SOL     OW 3586   5.858   6.681   3.147
  896SOL    HW1 3587   5.885   6.586   3.137
  896SOL    HW2 3588   5.872   6.730   3.061
  897SOL     OW 3589   4.664   2.979   6.825
  897SOL    HW1 3590   4.624   2.916   6.759
  897SOL    HW2 3591   4.620   2.967   6.914
  898SOL     OW 3592   5.605   6.744   3.209
  898SOL    HW1 3593   5.699   6.715   3.188
  898SOL    HW2 3594   5.543   6.667   3.194
  899SOL     OW 3595   0.317   4.450   6.297
  899SOL    HW1 3596   0.352   4.513   6.229
  899SOL    HW2 3597   0.393   4.406   6.345
  900SOL     OW 3598   0.131   6.085   3.844
  900SOL    HW1 3599   0.116   6.141   3.925
  900SOL    HW2 3600   0.226   6.053   3.842
  901SOL     OW 3601   6.047   1.310   4.075
  901SOL    HW1 3602   6.118   1.284   4.140
  901SOL    HW2 3603   5.968   1.348   4.124
  902SOL     OW 3604   0.042   6.699   7.021
  902SOL    HW1 3605   7.002   6.754   6.969
  902SOL    HW2 3606   0.133   6.710   6.981
  903SOL     OW 3607   0.813   5.186   0.605
  903SOL    HW1 3608   0.820   5.251   0.681
  903SOL    HW2 3609   0.861   5.222   0.525
  904SOL     OW 3610   2.138   1.783   3.745
  904SOL    HW1 3611   2.217   1.823   3.699
  904SOL    HW2 3612   2.158   1.687   3.767
  905SOL     OW 3613   5.441   1.508   5.596
  905SOL    HW1 3614   5.491   1.579   5.646
  905SOL    HW2 3615   5.362   1.479   5.650
  906SOL     OW 3616   0.201   3.708   5.715
  906SOL    HW1 3617   0.276   3.730   5.652
  906SOL    HW2 3618   0.114   3.723   5.670
  907SOL     OW 3619   5.929   2.178   2.140
  907SOL    HW1 3620   6.017   2.152   2.101
  907SOL    HW2 3621   5.858   2.117   2.107
  908SOL     OW 3622   1.868   0.417   3.719
  908SOL    HW1 3623   1.872   0.421   3.819
  908SOL    HW2 3624   1.949   0.370   3.685
  909SOL     OW 3625   3.901   1.359   1.324
  909SOL    HW1 3626   3.984   1.304   1.317
  909SOL    HW2 3627   3.857   1.343   1.412
  910SOL     OW 3628   2.236   1.195   0.861
  910SOL    HW1 3629   2.329   1.223   0.840
  910SOL    HW2 3630   2.184   1.185   0.776
  911SOL     OW 3631   0.350   4.693   1.551
  911SOL    HW1 3632   0.372   4.714   1.456
  911SOL    HW2 3633   0.368   4.597   1.569
  912SOL     OW 3634   0.404   0.462   5.860
  912SOL    HW1 3635   0.449   0.534   5.809
  912SOL    HW2 3636   0.443   0.457   5.952
  913SOL     OW 3637   2.842   0.969   2.541
  913SOL    HW1 3638   2.869   1.042   2.477
  913SOL    HW2 3639   2.761   0.923   2.506
  914SOL     OW 3640   2.762   5.756   3.166
  914SOL    HW1 3641   2.747   5.855   3.159
  914SOL    HW2 3642   2.823   5.727   3.092
  915SOL     OW 3643   0.653   2.626   0.631
  915SOL    HW1 3644   0.663   2.690   0.707
  915SOL    HW2 3645   0.632   2.677   0.547
  916SOL     OW 3646   2.392   2.615   2.780
  916SOL    HW1 3647   2.447   2.584   2.703
  916SOL    HW2 3648   2.380   2.714   2.774
  917SOL     OW 3649   4.150   1.588   1.322
  917SOL    HW1 3650   4.218   1.658   1.342
  917SOL    HW2 3651   4.180   1.534   1.244
  918SOL     OW 3652   2.374   6.466   6.595
  918SOL    HW1 3653   2.457   6.478   6.650
  918SOL    HW2 3654   2.385   6.512   6.507
  919SOL     OW 3655   1.543   6.100   1.865
  919SOL    HW1 3656   1.466   6.156   1.835
  919SOL    HW2 3657   1.620   6.112   1.802
  920SOL     OW 3658   2.685   0.864   4.086
  920SOL    HW1 3659   2.682   0.765   4.100
  920SOL    HW2 3660   2.762   0.888   4.028
  921SOL     OW 3661   5.739   5.257   4.285
  921SOL    HW1 3662   5.830   5.235   4.321
  921SOL    HW2 3663   5.670   5.236   4.354
  922SOL     OW 3664   2.995   3.541   6.929
  922SOL    HW1 3665   3.077   3.592   6.902
  922SOL    HW2 3666   2.978   3.468   6.863
  923SOL     OW 3667   2.890   7.022   6.455
  923SOL    HW1 3668   2.874   6.971   6.371
  923SOL    HW2 3669   2.978   0.042   6.450
  924SOL     OW 3670   5.796   3.623   2.757
  924SOL    HW1 3671   5.785   3.595   2.662
  924SOL    HW2 3672   5.714   3.669   2.789
  925SOL     OW 3673   0.563   1.514   4.305
  925SOL    HW1 3674   0.507   1.554   4.233
  925SOL    HW2 3675   0.644   1.571   4.320
  926SOL     OW 3676   5.578   5.863   0.344
  926SOL    HW1 3677   5.529   5.939   0.301
  926SOL    HW2 3678   5.517   5.784   0.350
  927SOL     OW 3679   4.445   4.584   4.197
  927SOL    HW1 3680   4.371   4.517   4.201
  927SOL    HW2 3681   4.515   4.553   4.132
  928SOL     OW 3682   2.516   1.131   1.183
  928SOL    HW1 3683   2.420   1.160   1.184
  928SOL    HW2 3684   2.547   1.115   1.276
  929SOL     OW 3685   6.539   2.883   2.947
  929SOL    HW1 3686   6.506   2.884   2.853
  929SOL    HW2 3687   6.636   2.908   2.949
  930SOL     OW 3688   4.884   5.196   4.255
  930SOL    HW1 3689   4.806   5.173   4.198
  930SOL    HW2 3690   4.969   5.182   4.204
  931SOL     OW 3691   1.597   2.189   2.601
  931SOL    HW1 3692   1.572   2.168   2.696
  931SOL    HW2 3693   1.691   2.223   2.597
  932SOL     OW 3694   4.570   6.419   0.882
  932SOL    HW1 3695   4.666   6.402   0.901
  932SOL    HW2 3696   4.526   6.457   0.964
  933SOL     OW 3697   1.960   5.566   2.928
  933SOL    HW1 3698   1.922   5.477   2.905
  933SOL    HW2 3699   2.024   5.594   2.856
  934SOL     OW 3700   3.115   1.453   5.432
  934SOL    HW1 3701   3.141   1.488   5.522
  934SOL    HW2 3702   3.140   1.356   5.425
  935SOL     OW 3703   3.821   3.445   6.085
  935SOL    HW1 3704   3.748   3.406   6.141
  935SOL    HW2 3705   3.864   3.522   6.134
  936SOL     OW 3706   0.470   0.665   0.962
  936SOL    HW1 3707   0.444   0.671   0.866
  936SOL    HW2 3708   0.561   0.703   0.975
  937SOL     OW 3709   4.079   1.705   4.577
  937SOL    HW1 3710   4.017   1.688   4.500
  937SOL    HW2 3711   4.052   1.649   4.655
  938SOL     OW 3712   0.655   2.996   6.525
  938SOL    HW1 3713   0.623   2.953   6.440
  938SOL    HW2 3714   0.753   2.982   6.534
  939SOL     OW 3715   5.809   1.369   5.773
  939SOL    HW1 3716   5.738   1.338   5.710
  939SOL    HW2 3717   5.898   1.368   5.727
  940SOL     OW 3718   6.972   1.396   3.744
  940SOL    HW1 3719   0.020   1.407   3.677
  940SOL    HW2 3720   6.923   1.483   3.754
  941SOL     OW 3721   5.445   1.976   4.323
  941SOL    HW1 3722   5.501   2.059   4.323
  941SOL    HW2 3723   5.416   1.955   4.230
  942SOL     OW 3724   5.049   6.447   5.231
  942SOL    HW1 3725   5.006   6.496   5.307
  942SOL    HW2 3726   4.993   6.369   5.205
  943SOL     OW 3727   5.875   1.917   1.417
  943SOL    HW1 3728   5.831   1.902   1.506
  943SOL    HW2 3729   5.966   1.877   1.418
  944SOL     OW 3730   5.548   4.124   4.355
  944SOL    HW1 3731   5.593   4.080   4.277
  944SOL    HW2 3732   5.452   4.143   4.332
  945SOL     OW 3733   5.076   4.564   4.608
  945SOL    HW1 3734   5.128   4.648   4.594
  945SOL    HW2 3735   4.991   4.584   4.656
  946SOL     OW 3736   6.072   2.191   5.623
  946SOL    HW1 3737   6.133   2.257   5.578
  946SOL    HW2 3738   5.984   2.235   5.641
  947SOL     OW 3739   2.768   2.643   6.121
  947SOL    HW1 3740   2.809   2.663   6.032
  947SOL    HW2 3741   2.671   2.622   6.109
  948SOL     OW 3742   4.265   1.963   0.413
  948SOL    HW1 3743   4.293   2.059   0.426
  948SOL    HW2 3744   4.294   1.910   0.492
  949SOL     OW 3745   6.080   5.665   6.241
  949SOL    HW1 3746   6.130   5.580   6.231
  949SOL    HW2 3747   6.071   5.710   6.152
  950SOL     OW 3748   4.857   5.624   1.008
  950SOL    HW1 3749   4.764   5.588   1.006
  950SOL    HW2 3750   4.919   5.560   0.962
  951SOL     OW 3751   1.344   1.205   2.190
  951SOL    HW1 3752   1.256   1.247   2.167
  951SOL    HW2 3753   1.417   1.273   2.181
  952SOL     OW 3754   5.406   0.684   3.140
  952SOL    HW1 3755   5.446   0.604   3.184
  952SOL    HW2 3756   5.458   0.765   3.165
  953SOL     OW 3757   4.165   6.252   6.197
  953SOL    HW1 3758   4.153   6.255   6.296
  953SOL    HW2 3759   4.131   6.165   6.162
  954SOL     OW 3760   6.186   0.455   1.385
  954SOL    HW1 3761   6.149   0.506   1.462
  954SOL    HW2 3762   6.195   0.516   1.306
  955SOL     OW 3763   0.908   6.009   2.795
  955SOL    HW1 3764   0.842   5.946   2.837
  955SOL    HW2 3765   0.930   6.082   2.860
  956SOL     OW 3766   2.075   2.292   0.961
  956SOL    HW1 3767   2.126   2.206   0.963
  956SOL    HW2 3768   1.997   2.283   0.899
  957SOL     OW 3769   1.589   5.051   4.467
  957SOL    HW1 3770   1.530   4.989   4.519
  957SOL    HW2 3771   1.564   5.145   4.488
  958SOL     OW 3772   4.931   2.251   1.748
  958SOL    HW1 3773   4.934   2.199   1.834
  958SOL    HW2 3774   4.968   2.343   1.764
  959SOL     OW 3775   2.570   4.677   3.090
  959SOL    HW1 3776   2.536   4.603   3.148
  959SOL    HW2 3777   2.564   4.649   2.994
  960SOL     OW 3778   1.680   5.804   4.635
  960SOL    HW1 3779   1.729   5.891   4.641
  960SOL    HW2 3780   1.584   5.818   4.656
  961SOL     OW 3781   4.357   6.581   1.991
  961SOL    HW1 3782   4.271   6.627   2.011
  961SOL    HW2 3783   4.359   6.554   1.894
  962SOL     OW 3784   1.571   0.893   3.468
  962SOL    HW1 3785   1.545   0.805   3.508
  962SOL    HW2 3786   1.654   0.927   3.514
  963SOL     OW 3787   6.599   0.586   1.350
  963SOL    HW1 3788   6.550   0.594   1.437
  963SOL    HW2 3789   6.686   0.539   1.365
  964SOL     OW 3790   5.227   3.715   1.194
  964SOL    HW1 3791   5.158   3.662   1.243
  964SOL    HW2 3792   5.185   3.797   1.155
  965SOL     OW 3793   0.257   2.220   0.236
  965SOL    HW1 3794   0.337   2.275   0.210
  965SOL    HW2 3795   0.280   2.165   0.317
  966SOL     OW 3796   6.666   1.984   2.396
  966SOL    HW1 3797   6.632   1.962   2.304
  966SOL    HW2 3798   6.750   1.932   2.413
  967SOL     OW 3799   1.034   5.433   0.970
  967SOL    HW1 3800   1.048   5.464   1.064
  967SOL    HW2 3801   0.941   5.396   0.960
  968SOL     OW 3802   4.783   2.666   2.417
  968SOL    HW1 3803   4.863   2.712   2.457
  968SOL    HW2 3804   4.776   2.692   2.320
  969SOL     OW 3805   4.688   6.138   6.047
  969SOL    HW1 3806   4.743   6.161   6.127
  969SOL    HW2 3807   4.735   6.069   5.992
  970SOL     OW 3808   4.357   2.204   5.333
  970SOL    HW1 3809   4.404   2.203   5.245
  970SOL    HW2 3810   4.348   2.299   5.365
  971SOL     OW 3811   6.957   1.682   1.894
  971SOL    HW1 3812   6.905   1.768   1.897
  971SOL    HW2 3813   0.026   1.701   1.870
  972SOL     OW 3814   6.492   5.522   0.528
  972SOL    HW1 3815   6.416   5.457   0.527
  972SOL    HW2 3816   6.496   5.570   0.440
  973SOL     OW 3817   6.483   4.903   5.544
  973SOL    HW1 3818   6.542   4.856   5.478
  973SOL    HW2 3819   6.409   4.843   5.572
  974SOL     OW 3820   2.835   0.906   3.566
  974SOL    HW1 3821   2.843   0.846   3.487
  974SOL    HW2 3822   2.926   0.925   3.603
  975SOL     OW 3823   2.990   6.086   6.027
  975SOL    HW1 3824   3.014   6.049   6.117
  975SOL    HW2 3825   3.017   6.182   6.022
  976SOL     OW 3826   6.431   3.010   3.212
  976SOL    HW1 3827   6.361   3.022   3.282
  976SOL    HW2 3828   6.483   2.926   3.230
  977SOL     OW 3829   1.647   1.129   3.714
  977SOL    HW1 3830   1.559   1.105   3.756
  977SOL    HW2 3831   1.646   1.225   3.686
  978SOL     OW 3832   5.600   4.064   4.618
  978SOL    HW1 3833   5.574   4.057   4.522
  978SOL    HW2 3834   5.635   4.156   4.637
  979SOL     OW 3835   6.023   0.746   3.114
  979SOL    HW1 3836   6.027   0.842   3.087
  979SOL    HW2 3837   6.110   0.719   3.155
  980SOL     OW 3838   5.415   1.841   4.566
  980SOL    HW1 3839   5.406   1.882   4.475
  980SOL    HW2 3840   5.346   1.880   4.628
  981SOL     OW 3841   1.630   1.649   4.285
  981SOL    HW1 3842   1.730   1.653   4.280
  981SOL    HW2 3843   1.602   1.555   4.306
  982SOL     OW 3844   0.854   2.589   1.953
  982SOL    HW1 3845   0.831   2.531   1.875
  982SOL    HW2 3846   0.931   2.548   2.003
  983SOL     OW 3847   6.035   2.005   3.192
  983SOL    HW1 3848   6.123   2.039   3.226
  983SOL    HW2 3849   6.012   1.919   3.237
  984SOL     OW 3850   4.956   1.361   5.181
  984SOL    HW1 3851   5.039   1.320   5.218
  984SOL    HW2 3852   4.907   1.293   5.126
  985SOL     OW 3853   3.177   5.392   0.950
  985SOL    HW1 3854   3.217   5.406   0.859
  985SOL    HW2 3855   3.216   5.310   0.992
  986SOL     OW 3856   4.723   5.032   6.644
  986SOL    HW1 3857   4.652   5.098   6.670
  986SOL    HW2 3858   4.760   5.056   6.554
  987SOL     OW 3859   3.409   6.500   1.978
  987SOL    HW1 3860   3.390   6.577   2.038
  987SOL    HW2 3861   3.342   6.427   1.995
  988SOL     OW 3862   4.186   3.023   0.575
  988SOL    HW1 3863   4.130   2.949   0.537
  988SOL    HW2 3864   4.264   2.984   0.623
  989SOL     OW 3865   0.631   0.298   5.305
  989SOL    HW1 3866   0.549   0.326   5.355
  989SOL    HW2 3867   0.708   0.355   5.332
  990SOL     OW 3868   4.109   7.006   4.199
  990SOL    HW1 3869   4.032   6.999   4.262
  990SOL    HW2 3870   4.179   0.040   4.239
  991SOL     OW 3871   0.769   2.118   4.622
  991SOL    HW1 3872   0.826   2.152   4.697
  991SOL    HW2 3873   0.799   2.026   4.596
  992SOL     OW 3874   0.592   3.447   0.172
  992SOL    HW1 3875   0.673   3.503   0.189
  992SOL    HW2 3876   0.618   3.367   0.119
  993SOL     OW 3877   2.928   4.887   2.505
  993SOL    HW1 3878   2.979   4.883   2.591
  993SOL    HW2 3879   2.985   4.929   2.434
  994SOL     OW 3880   3.662   3.196   2.163
  994SOL    HW1 3881   3.623   3.241   2.244
  994SOL    HW2 3882   3.625   3.238   2.080
  995SOL     OW 3883   1.838   2.402   6.130
  995SOL    HW1 3884   1.898   2.338   6.179
  995SOL    HW2 3885   1.744   2.390   6.162
  996SOL     OW 3886   2.147   3.480   2.964
  996SOL    HW1 3887   2.159   3.419   2.885
  996SOL    HW2 3888   2.195   3.441   3.043
  997SOL     OW 3889   0.587   0.646   1.574
  997SOL    HW1 3890   0.489   0.662   1.580
  997SOL    HW2 3891   0.619   0.667   1.482
  998SOL     OW 3892   4.267   0.023   2.137
  998SOL    HW1 3893   4.308   6.976   2.083
  998SOL    HW2 3894   4.330   0.050   2.210
  999SOL     OW 3895   6.486   5.313   1.322
  999SOL    HW1 3896   6.485   5.266   1.410
  999SOL    HW2 3897   6.518   5.250   1.251
 1000SOL     OW 3898   2.442   2.316   3.776
 1000SOL    HW1 3899   2.500   2.235   3.783
 1000SOL    HW2 3900   2.494   2.390   3.731
 1001SOL     OW 3901   4.888   6.338   6.517
 1001SOL    HW1 3902   4.944   6.411   6.478
 1001SOL    HW2 3903   4.859   6.276   6.443
 1002SOL     OW 3904   5.766   1.573   0.249
 1002SOL    HW1 3905   5.686   1.514   0.264
 1002SOL    HW2 3906   5.794   1.614   0.336
 1003SOL     OW 3907   2.654   6.373   2.516
 1003SOL    HW1 3908   2.583   6.319   2.559
 1003SOL    HW2 3909   2.728   6.313   2.486
 1004SOL     OW 3910   0.305   0.159   6.758
 1004SOL    HW1 3911   0.350   0.200   6.837
 1004SOL    HW2 3912   0.289   0.229   6.688
 1005SOL     OW 3913   0.797   6.964   2.924
 1005SOL    HW1 3914   0.793   6.883   2.982
 1005SOL    HW2 3915   0.858   0.006   2.966
 1006SOL     OW 3916   2.505   5.005   1.183
 1006SOL    HW1 3917   2.458   4.937   1.240
 1006SOL    HW2 3918   2.503   4.976   1.087
 1007SOL     OW 3919   6.894   1.460   3.177
 1007SOL    HW1 3920   6.807   1.447   3.224
 1007SOL    HW2 3921   6.921   1.556   3.184
 1008SOL     OW 3922   0.942   3.068   4.165
 1008SOL    HW1 3923   1.036   3.103   4.171
 1008SOL    HW2 3924   0.927   3.002   4.239
 1009SOL     OW 3925   0.141   5.966   4.326
 1009SOL    HW1 3926   0.049   5.970   4.287
 1009SOL    HW2 3927   0.136   5.973   4.426
 1010SOL     OW 3928   4.130   1.580   0.442
 1010SOL    HW1 3929   4.192   1.555   0.516
 1010SOL    HW2 3930   4.183   1.617   0.365
 1011SOL     OW 3931   2.531   5.147   3.512
 1011SOL    HW1 3932   2.626   5.153   3.545
 1011SOL    HW2 3933   2.528   5.168   3.415
 1012SOL     OW 3934   6.154   5.150   0.520
 1012SOL    HW1 3935   6.102   5.065   0.530
 1012SOL    HW2 3936   6.220   5.140   0.445
 1013SOL     OW 3937   1.024   0.716   0.315
 1013SOL    HW1 3938   0.982   0.626   0.326
 1013SOL    HW2 3939   0.988   0.761   0.234
 1014SOL     OW 3940   4.154   5.949   5.969
 1014SOL    HW1 3941   4.092   5.948   6.047
 1014SOL    HW2 3942   4.155   6.040   5.929
 1015SOL     OW 3943   3.564   6.436   4.839
 1015SOL    HW1 3944   3.581   6.350   4.791
 1015SOL    HW2 3945   3.638   6.454   4.903
 1016SOL     OW 3946   3.703   2.837   1.120
 1016SOL    HW1 3947   3.737   2.916   1.170
 1016SOL    HW2 3948   3.769   2.763   1.124
 1017SOL     OW 3949   4.301   2.579   0.554
 1017SOL    HW1 3950   4.215   2.534   0.530
 1017SOL    HW2 3951   4.362   2.513   0.597
 1018SOL     OW 3952   1.294   3.179   3.760
 1018SOL    HW1 3953   1.238   3.101   3.731
 1018SOL    HW2 3954   1.277   3.198   3.856
 1019SOL     OW 3955   0.195   1.204   0.336
 1019SOL    HW1 3956   0.133   1.131   0.306
 1019SOL    HW2 3957   0.146   1.266   0.397
 1020SOL     OW 3958   2.994   1.014   0.386
 1020SOL    HW1 3959   2.899   0.982   0.385
 1020SOL    HW2 3960   3.046   0.962   0.455
 1021SOL     OW 3961   0.089   1.382   1.010
 1021SOL    HW1 3962   0.045   1.327   0.938
 1021SOL    HW2 3963   0.050   1.358   1.098
 1022SOL     OW 3964   4.612   3.138   5.989
 1022SOL    HW1 3965   4.650   3.094   5.907
 1022SOL    HW2 3966   4.520   3.102   6.006
 1023SOL     OW 3967   5.713   0.546   2.454
 1023SOL    HW1 3968   5.736   0.582   2.544
 1023SOL    HW2 3969   5.794   0.505   2.413
 1024SOL     OW 3970   6.528   1.686   3.965
 1024SOL    HW1 3971   6.574   1.699   4.053
 1024SOL    HW2 3972   6.457   1.756   3.955
 1025SOL     OW 3973   3.205   4.677   0.872
 1025SOL    HW1 3974   3.113   4.649   0.846
 1025SOL    HW2 3975   3.240   4.743   0.806
 1026SOL     OW 3976   2.436   1.951   6.687
 1026SOL    HW1 3977   2.419   1.896   6.769
 1026SOL    HW2 3978   2.502   2.023   6.708
 1027SOL     OW 3979   2.867   5.034   1.725
 1027SOL    HW1 3980   2.769   5.030   1.703
 1027SOL    HW2 3981   2.892   4.952   1.777
 1028SOL     OW 3982   1.753   6.242   0.947
 1028SOL    HW1 3983   1.671   6.289   0.915
 1028SOL    HW2 3984   1.727   6.159   0.997
 1029SOL     OW 3985   1.855   0.422   0.061
 1029SOL    HW1 3986   1.903   0.334   0.072
 1029SOL    HW2 3987   1.757   0.407   0.070
 1030SOL     OW 3988   3.966   3.663   4.755
 1030SOL    HW1 3989   4.046   3.602   4.753
 1030SOL    HW2 3990   3.990   3.751   4.713
 1031SOL     OW 3991   2.965   5.280   1.691
 1031SOL    HW1 3992   2.938   5.184   1.687
 1031SOL    HW2 3993   3.039   5.297   1.626
 1032SOL     OW 3994   2.009   1.735   4.939
 1032SOL    HW1 3995   2.074   1.731   5.015
 1032SOL    HW2 3996   1.918   1.706   4.970
 1033SOL     OW 3997   2.270   5.531   1.793
 1033SOL    HW1 3998   2.187   5.583   1.812
 1033SOL    HW2 3999   2.257   5.475   1.712
 1034SOL     OW 4000   2.468   5.530   3.840
 1034SOL    HW1 4001   2.562   5.547   3.870
 1034SOL    HW2 4002   2.467   5.521   3.740
 1035SOL     OW 4003   2.849   1.208   4.368
 1035SOL    HW1 4004   2.789   1.129   4.363
 1035SOL    HW2 4005   2.905   1.202   4.451
 1036SOL     OW 4006   4.045   2.158   1.030
 1036SOL    HW1 4007   4.111   2.131   0.960
 1036SOL    HW2 4008   4.028   2.081   1.091
 1037SOL     OW 4009   2.078   1.140   0.658
 1037SOL    HW1 4010   2.012   1.202   0.615
 1037SOL    HW2 4011   2.034   1.052   0.677
 1038SOL     OW 4012   1.305   1.136   5.423
 1038SOL    HW1 4013   1.265   1.214   5.472
 1038SOL    HW2 4014   1.270   1.135   5.330
 1039SOL     OW 4015   3.831   1.595   4.495
 1039SOL    HW1 4016   3.784   1.664   4.439
 1039SOL    HW2 4017   3.784   1.584   4.582
 1040SOL     OW 4018   6.012   3.670   2.345
 1040SOL    HW1 4019   5.970   3.600   2.402
 1040SOL    HW2 4020   6.069   3.730   2.402
 1041SOL     OW 4021   6.649   0.685   4.170
 1041SOL    HW1 4022   6.669   0.699   4.074
 1041SOL    HW2 4023   6.554   0.712   4.189
 1042SOL     OW 4024   5.388   5.322   0.530
 1042SOL    HW1 4025   5.321   5.258   0.493
 1042SOL    HW2 4026   5.465   5.271   0.569
 1043SOL     OW 4027   3.395   1.716   6.454
 1043SOL    HW1 4028   3.475   1.762   6.493
 1043SOL    HW2 4029   3.362   1.767   6.375
 1044SOL     OW 4030   3.641   2.945   1.532
 1044SOL    HW1 4031   3.554   2.895   1.535
 1044SOL    HW2 4032   3.688   2.935   1.620
 1045SOL     OW 4033   3.023   1.163   2.886
 1045SOL    HW1 4034   3.027   1.176   2.787
 1045SOL    HW2 4035   3.052   1.247   2.932
 1046SOL     OW 4036   3.075   6.953   0.647
 1046SOL    HW1 4037   3.165   6.910   0.646
 1046SOL    HW2 4038   3.084   0.023   0.676
 1047SOL     OW 4039   0.617   5.297   2.666
 1047SOL    HW1 4040   0.694   5.341   2.712
 1047SOL    HW2 4041   0.540   5.361   2.660
 1048SOL     OW 4042   5.187   5.208   4.891
 1048SOL    HW1 4043   5.281   5.238   4.905
 1048SOL    HW2 4044   5.175   5.180   4.795
 1049SOL     OW 4045   0.053   3.685   4.742
 1049SOL    HW1 4046   0.056   3.774   4.787
 1049SOL    HW2 4047   7.004   3.683   4.676
 1050SOL     OW 4048   3.929   0.437   6.525
 1050SOL    HW1 4049   3.969   0.434   6.616
 1050SOL    HW2 4050   3.939   0.348   6.480
 1051SOL     OW 4051   4.996   4.493   0.716
 1051SOL    HW1 4052   4.966   4.571   0.661
 1051SOL    HW2 4053   4.931   4.477   0.790
 1052SOL     OW 4054   4.115   0.296   5.155
 1052SOL    HW1 4055   4.121   0.363   5.080
 1052SOL    HW2 4056   4.058   0.219   5.127
 1053SOL     OW 4057   4.721   5.046   3.874
 1053SOL    HW1 4058   4.793   5.029   3.806
 1053SOL    HW2 4059   4.716   5.144   3.894
 1054SOL     OW 4060   3.416   5.110   5.319
 1054SOL    HW1 4061   3.465   5.192   5.349
 1054SOL    HW2 4062   3.319   5.132   5.307
 1055SOL     OW 4063   4.694   5.948   5.043
 1055SOL    HW1 4064   4.629   6.022   5.059
 1055SOL    HW2 4065   4.749   5.933   5.125
 1056SOL     OW 4066   1.929   6.118   5.215
 1056SOL    HW1 4067   1.933   6.033   5.267
 1056SOL    HW2 4068   1.909   6.099   5.120
 1057SOL     OW 4069   3.205   3.406   2.879
 1057SOL    HW1 4070   3.162   3.468   2.813
 1057SOL    HW2 4071   3.270   3.347   2.833
 1058SOL     OW 4072   3.299   1.143   2.517
 1058SOL    HW1 4073   3.379   1.096   2.482
 1058SOL    HW2 4074   3.321   1.186   2.605
 1059SOL     OW 4075   4.330   0.929   1.915
 1059SOL    HW1 4076   4.277   0.939   1.999
 1059SOL    HW2 4077   4.268   0.927   1.836
 1060SOL     OW 4078   0.995   3.049   5.685
 1060SOL    HW1 4079   0.991   3.141   5.647
 1060SOL    HW2 4080   0.904   3.023   5.720
 1061SOL     OW 4081   3.325   5.252   1.697
 1061SOL    HW1 4082   3.317   5.169   1.753
 1061SOL    HW2 4083   3.273   5.241   1.613
 1062SOL     OW 4084   6.619   5.605   5.748
 1062SOL    HW1 4085   6.600   5.515   5.710
 1062SOL    HW2 4086   6.717   5.612   5.770
 1063SOL     OW 4087   1.553   3.562   0.824
 1063SOL    HW1 4088   1.639   3.592   0.785
 1063SOL    HW2 4089   1.544   3.463   0.814
 1064SOL     OW 4090   1.013   3.447   2.087
 1064SOL    HW1 4091   0.913   3.444   2.096
 1064SOL    HW2 4092   1.047   3.354   2.076
 1065SOL     OW 4093   5.674   0.064   3.940
 1065SOL    HW1 4094   5.577   0.085   3.952
 1065SOL    HW2 4095   5.684   7.019   3.870
 1066SOL     OW 4096   4.768   0.239   3.552
 1066SOL    HW1 4097   4.768   0.172   3.625
 1066SOL    HW2 4098   4.852   0.293   3.557
 1067SOL     OW 4099   2.071   2.749   1.965
 1067SOL    HW1 4100   2.157   2.794   1.990
 1067SOL    HW2 4101   2.062   2.748   1.866
 1068SOL     OW 4102   0.356   3.493   2.270
 1068SOL    HW1 4103   0.339   3.493   2.172
 1068SOL    HW2 4104   0.322   3.579   2.310
 1069SOL     OW 4105   4.259   4.744   0.757
 1069SOL    HW1 4106   4.291   4.653   0.782
 1069SOL    HW2 4107   4.329   4.789   0.700
 1070SOL     OW 4108   2.201   0.778   0.313
 1070SOL    HW1 4109   2.153   0.690   0.309
 1070SOL    HW2 4110   2.226   0.797   0.408
 1071SOL     OW 4111   3.833   6.655   2.908
 1071SOL    HW1 4112   3.888   6.623   2.831
 1071SOL    HW2 4113   3.814   6.753   2.898
 1072SOL     OW 4114   3.085   6.539   2.614
 1072SOL    HW1 4115   3.012   6.603   2.590
 1072SOL    HW2 4116   3.064   6.494   2.700
 1073SOL     OW 4117   2.498   4.830   2.607
 1073SOL    HW1 4118   2.544   4.915   2.581
 1073SOL    HW2 4119   2.528   4.756   2.548
 1074SOL     OW 4120   0.769   4.914   1.884
 1074SOL    HW1 4121   0.684   4.890   1.931
 1074SOL    HW2 4122   0.784   4.850   1.808
 1075SOL     OW 4123   5.128   4.009   3.817
 1075SOL    HW1 4124   5.200   4.074   3.790
 1075SOL    HW2 4125   5.040   4.057   3.818
 1076SOL     OW 4126   0.260   4.130   4.339
 1076SOL    HW1 4127   0.352   4.155   4.311
 1076SOL    HW2 4128   0.236   4.180   4.423
 1077SOL     OW 4129   4.932   6.931   1.057
 1077SOL    HW1 4130   5.023   6.974   1.060
 1077SOL    HW2 4131   4.878   6.962   1.135
 1078SOL     OW 4132   1.710   2.067   1.088
 1078SOL    HW1 4133   1.672   2.025   1.170
 1078SOL    HW2 4134   1.638   2.119   1.041
 1079SOL     OW 4135   2.535   5.593   3.581
 1079SOL    HW1 4136   2.604   5.663   3.604
 1079SOL    HW2 4137   2.486   5.621   3.499
 1080SOL     OW 4138   2.250   5.786   3.813
 1080SOL    HW1 4139   2.328   5.735   3.849
 1080SOL    HW2 4140   2.168   5.730   3.819
 1081SOL     OW 4141   2.006   0.621   6.948
 1081SOL    HW1 4142   1.953   0.631   6.864
 1081SOL    HW2 4143   1.956   0.566   7.013
 1082SOL     OW 4144   1.720   0.220   5.823
 1082SOL    HW1 4145   1.743   0.140   5.767
 1082SOL    HW2 4146   1.620   0.231   5.825
 1083SOL     OW 4147   3.651   3.646   1.862
 1083SOL    HW1 4148   3.667   3.695   1.776
 1083SOL    HW2 4149   3.677   3.550   1.851
 1084SOL     OW 4150   5.910   4.557   0.785
 1084SOL    HW1 4151   5.824   4.605   0.797
 1084SOL    HW2 4152   5.941   4.521   0.873
 1085SOL     OW 4153   1.833   4.891   3.839
 1085SOL    HW1 4154   1.781   4.974   3.818
 1085SOL    HW2 4155   1.929   4.905   3.816
 1086SOL     OW 4156   4.687   5.377   2.436
 1086SOL    HW1 4157   4.714   5.326   2.354
 1086SOL    HW2 4158   4.625   5.321   2.491
 1087SOL     OW 4159   4.497   3.001   5.397
 1087SOL    HW1 4160   4.421   3.011   5.461
 1087SOL    HW2 4161   4.528   3.092   5.368
 1088SOL     OW 4162   4.946   4.730   3.983
 1088SOL    HW1 4163   4.858   4.730   3.935
 1088SOL    HW2 4164   5.018   4.760   3.920
 1089SOL     OW 4165   0.193   0.176   4.957
 1089SOL    HW1 4166   0.104   0.215   4.935
 1089SOL    HW2 4167   0.241   0.238   5.020
 1090SOL     OW 4168   2.030   1.472   6.121
 1090SOL    HW1 4169   2.112   1.481   6.065
 1090SOL    HW2 4170   2.043   1.397   6.187
 1091SOL     OW 4171   1.565   1.766   5.104
 1091SOL    HW1 4172   1.620   1.815   5.172
 1091SOL    HW2 4173   1.625   1.708   5.049
 1092SOL     OW 4174   2.180   4.038   1.616
 1092SOL    HW1 4175   2.166   3.945   1.582
 1092SOL    HW2 4176   2.102   4.095   1.589
 1093SOL     OW 4177   1.208   2.548   2.375
 1093SOL    HW1 4178   1.130   2.485   2.366
 1093SOL    HW2 4179   1.273   2.511   2.441
 1094SOL     OW 4180   0.578   6.780   1.861
 1094SOL    HW1 4181   0.541   6.804   1.951
 1094SOL    HW2 4182   0.676   6.800   1.858
 1095SOL     OW 4183   6.169   2.931   6.427
 1095SOL    HW1 4184   6.084   2.880   6.436
 1095SOL    HW2 4185   6.195   2.969   6.516
 1096SOL     OW 4186   3.231   4.707   1.752
 1096SOL    HW1 4187   3.156   4.652   1.716
 1096SOL    HW2 4188   3.317   4.657   1.742
 1097SOL     OW 4189   1.308   4.762   5.016
 1097SOL    HW1 4190   1.265   4.844   5.054
 1097SOL    HW2 4191   1.246   4.684   5.027
 1098SOL     OW 4192   4.646   2.391   2.221
 1098SOL    HW1 4193   4.687   2.445   2.148
 1098SOL    HW2 4194   4.717   2.366   2.287
 1099SOL     OW 4195   4.258   2.155   4.260
 1099SOL    HW1 4196   4.247   2.211   4.343
 1099SOL    HW2 4197   4.240   2.060   4.282
 1100SOL     OW 4198   1.209   0.742   6.572
 1100SOL    HW1 4199   1.201   0.643   6.584
 1100SOL    HW2 4200   1.162   0.769   6.488
 1101SOL     OW 4201   4.902   3.358   0.392
 1101SOL    HW1 4202   4.854   3.271   0.405
 1101SOL    HW2 4203   4.849   3.431   0.435
 1102SOL     OW 4204   0.214   4.266   4.559
 1102SOL    HW1 4205   0.270   4.341   4.595
 1102SOL    HW2 4206   0.125   4.302   4.530
 1103SOL     OW 4207   1.853   1.966   1.537
 1103SOL    HW1 4208   1.840   2.051   1.487
 1103SOL    HW2 4209   1.871   1.892   1.472
 1104SOL     OW 4210   3.261   4.940   6.386
 1104SOL    HW1 4211   3.164   4.949   6.362
 1104SOL    HW2 4212   3.290   5.021   6.437
 1105SOL     OW 4213   5.022   4.348   6.478
 1105SOL    HW1 4214   5.082   4.427   6.477
 1105SOL    HW2 4215   5.038   4.293   6.396
 1106SOL     OW 4216   6.961   2.469   5.448
 1106SOL    HW1 4217   6.996   2.421   5.529
 1106SOL    HW2 4218   0.011   2.513   5.400
 1107SOL     OW 4219   1.039   0.397   0.714
 1107SOL    HW1 4220   1.016   0.475   0.772
 1107SOL    HW2 4221   0.962   0.377   0.653
 1108SOL     OW 4222   1.661   0.620   5.990
 1108SOL    HW1 4223   1.572   0.573   5.986
 1108SOL    HW2 4224   1.702   0.606   6.080
 1109SOL     OW 4225   4.489   6.044   4.014
 1109SOL    HW1 4226   4.562   6.077   4.074
 1109SOL    HW2 4227   4.400   6.072   4.050
 1110SOL     OW 4228   3.187   3.205   1.999
 1110SOL    HW1 4229   3.264   3.141   1.996
 1110SOL    HW2 4230   3.205   3.282   1.937
 1111SOL     OW 4231   5.499   0.629   0.263
 1111SOL    HW1 4232   5.506   0.716   0.215
 1111SOL    HW2 4233   5.590   0.593   0.283
 1112SOL     OW 4234   6.622   1.055   2.140
 1112SOL    HW1 4235   6.524   1.062   2.118
 1112SOL    HW2 4236   6.676   1.067   2.057
 1113SOL     OW 4237   6.360   3.278   2.842
 1113SOL    HW1 4238   6.283   3.226   2.805
 1113SOL    HW2 4239   6.443   3.255   2.791
 1114SOL     OW 4240   4.934   0.894   5.959
 1114SOL    HW1 4241   4.891   0.887   6.049
 1114SOL    HW2 4242   4.881   0.957   5.902
 1115SOL     OW 4243   3.037   3.478   0.922
 1115SOL    HW1 4244   3.092   3.491   1.004
 1115SOL    HW2 4245   2.951   3.528   0.932
 1116SOL     OW 4246   4.277   6.147   4.172
 1116SOL    HW1 4247   4.314   6.115   4.260
 1116SOL    HW2 4248   4.181   6.121   4.165
 1117SOL     OW 4249   2.794   2.991   1.327
 1117SOL    HW1 4250   2.865   2.955   1.267
 1117SOL    HW2 4251   2.827   2.991   1.421
 1118SOL     OW 4252   2.224   4.484   2.868
 1118SOL    HW1 4253   2.256   4.390   2.856
 1118SOL    HW2 4254   2.203   4.524   2.778
 1119SOL     OW 4255   4.172   4.267   1.690
 1119SOL    HW1 4256   4.255   4.233   1.735
 1119SOL    HW2 4257   4.172   4.367   1.689
 1120SOL     OW 4258   4.686   6.689   6.333
 1120SOL    HW1 4259   4.692   6.631   6.414
 1120SOL    HW2 4260   4.664   6.782   6.361
 1121SOL     OW 4261   4.963   3.135   1.479
 1121SOL    HW1 4262   4.907   3.110   1.558
 1121SOL    HW2 4263   4.955   3.065   1.409
 1122SOL     OW 4264   5.367   3.053   6.331
 1122SOL    HW1 4265   5.299   3.010   6.272
 1122SOL    HW2 4266   5.329   3.065   6.422
 1123SOL     OW 4267   4.825   1.020   2.506
 1123SOL    HW1 4268   4.832   1.004   2.408
 1123SOL    HW2 4269   4.916   1.033   2.545
 1124SOL     OW 4270   6.816   3.920   4.964
 1124SOL    HW1 4271   6.826   3.934   5.063
 1124SOL    HW2 4272   6.759   3.992   4.926
 1125SOL     OW 4273   3.281   3.156   5.132
 1125SOL    HW1 4274   3.381   3.151   5.123
 1125SOL    HW2 4275   3.245   3.225   5.070
 1126SOL     OW 4276   4.743   6.638   1.301
 1126SOL    HW1 4277   4.745   6.648   1.201
 1126SOL    HW2 4278   4.718   6.544   1.325
 1127SOL     OW 4279   2.320   4.881   0.687
 1127SOL    HW1 4280   2.223   4.906   0.691
 1127SOL    HW2 4281   2.328   4.781   0.683
 1128SOL     OW 4282   3.399   1.706   4.257
 1128SOL    HW1 4283   3.426   1.650   4.178
 1128SOL    HW2 4284   3.369   1.646   4.331
 1129SOL     OW 4285   5.172   0.385   6.908
 1129SOL    HW1 4286   5.171   0.323   6.986
 1129SOL    HW2 4287   5.214   0.472   6.934
 1130SOL     OW 4288   0.630   4.020   6.950
 1130SOL    HW1 4289   0.609   3.923   6.966
 1130SOL    HW2 4290   0.723   4.028   6.913
 1131SOL     OW 4291   0.424   5.872   5.256
 1131SOL    HW1 4292   0.414   5.782   5.213
 1131SOL    HW2 4293   0.336   5.901   5.294
 1132SOL     OW 4294   4.714   6.778   5.335
 1132SOL    HW1 4295   4.670   6.703   5.286
 1132SOL    HW2 4296   4.649   6.855   5.343
 1133SOL     OW 4297   0.874   3.424   1.558
 1133SOL    HW1 4298   0.804   3.470   1.505
 1133SOL    HW2 4299   0.891   3.334   1.520
 1134SOL     OW 4300   5.041   2.549   6.894
 1134SOL    HW1 4301   4.999   2.558   6.804
 1134SOL    HW2 4302   5.125   2.603   6.897
 1135SOL     OW 4303   2.770   2.359   3.696
 1135SOL    HW1 4304   2.736   2.360   3.790
 1135SOL    HW2 4305   2.710   2.416   3.639
 1136SOL     OW 4306   2.778   5.339   3.474
 1136SOL    HW1 4307   2.688   5.372   3.445
 1136SOL    HW2 4308   2.831   5.415   3.512
 1137SOL     OW 4309   1.395   1.663   6.319
 1137SOL    HW1 4310   1.431   1.709   6.237
 1137SOL    HW2 4311   1.333   1.725   6.367
 1138SOL     OW 4312   2.226   3.483   5.701
 1138SOL    HW1 4313   2.190   3.437   5.782
 1138SOL    HW2 4314   2.279   3.563   5.728
 1139SOL     OW 4315   1.540   6.936   2.715
 1139SOL    HW1 4316   1.632   6.896   2.711
 1139SOL    HW2 4317   1.519   6.980   2.628
 1140SOL     OW 4318   3.179   1.839   3.464
 1140SOL    HW1 4319   3.081   1.857   3.470
 1140SOL    HW2 4320   3.227   1.924   3.443
 1141SOL     OW 4321   5.982   5.728   4.954
 1141SOL    HW1 4322   5.982   5.759   5.049
 1141SOL    HW2 4323   6.075   5.704   4.927
 1142SOL     OW 4324   5.110   6.976   4.171
 1142SOL    HW1 4325   5.156   0.039   4.174
 1142SOL    HW2 4326   5.130   6.925   4.255
 1143SOL     OW 4327   3.900   2.111   3.193
 1143SOL    HW1 4328   3.983   2.157   3.162
 1143SOL    HW2 4329   3.824   2.136   3.133
 1144SOL     OW 4330   0.517   4.505   4.286
 1144SOL    HW1 4331   0.517   4.408   4.264
 1144SOL    HW2 4332   0.607   4.544   4.265
 1145SOL     OW 4333   6.713   5.665   4.331
 1145SOL    HW1 4334   6.724   5.569   4.357
 1145SOL    HW2 4335   6.773   5.685   4.253
 1146SOL     OW 4336   5.919   2.160   1.271
 1146SOL    HW1 4337   5.894   2.063   1.277
 1146SOL    HW2 4338   5.844   2.216   1.306
 1147SOL     OW 4339   6.959   4.002   2.162
 1147SOL    HW1 4340   0.008   4.064   2.183
 1147SOL    HW2 4341   6.991   3.931   2.099
 1148SOL     OW 4342   3.839   6.734   6.787
 1148SOL    HW1 4343   3.912   6.763   6.725
 1148SOL    HW2 4344   3.865   6.754   6.881
 1149SOL     OW 4345   6.367   3.540   2.800
 1149SOL    HW1 4346   6.360   3.445   2.831
 1149SOL    HW2 4347   6.442   3.585   2.849
 1150SOL     OW 4348   1.803   5.139   0.970
 1150SOL    HW1 4349   1.758   5.177   0.890
 1150SOL    HW2 4350   1.849   5.212   1.020
 1151SOL     OW 4351   5.995   5.135   6.579
 1151SOL    HW1 4352   6.053   5.071   6.529
 1151SOL    HW2 4353   5.952   5.087   6.656
 1152SOL     OW 4354   1.849   0.296   5.123
 1152SOL    HW1 4355   1.798   0.332   5.045
 1152SOL    HW2 4356   1.787   0.245   5.182
 1153SOL     OW 4357   2.135   5.417   2.680
 1153SOL    HW1 4358   2.208   5.395   2.615
 1153SOL    HW2 4359   2.171   5.412   2.774
 1154SOL     OW 4360   0.483   3.906   2.128
 1154SOL    HW1 4361   0.547   3.981   2.110
 1154SOL    HW2 4362   0.424   3.932   2.204
 1155SOL     OW 4363   3.966   6.115   1.467
 1155SOL    HW1 4364   3.984   6.118   1.565
 1155SOL    HW2 4365   4.052   6.117   1.416
 1156SOL     OW 4366   2.024   0.428   4.412
 1156SOL    HW1 4367   2.035   0.333   4.381
 1156SOL    HW2 4368   2.072   0.489   4.349
 1157SOL     OW 4369   0.187   2.604   3.912
 1157SOL    HW1 4370   0.135   2.541   3.854
 1157SOL    HW2 4371   0.211   2.686   3.859
 1158SOL     OW 4372   5.723   5.037   5.759
 1158SOL    HW1 4373   5.683   4.947   5.774
 1158SOL    HW2 4374   5.812   5.027   5.713
 1159SOL     OW 4375   3.916   5.073   3.048
 1159SOL    HW1 4376   3.941   5.170   3.038
 1159SOL    HW2 4377   3.980   5.028   3.110
 1160SOL     OW 4378   4.097   3.415   2.266
 1160SOL    HW1 4379   4.127   3.387   2.358
 1160SOL    HW2 4380   4.134   3.351   2.199
 1161SOL     OW 4381   5.687   0.601   3.796
 1161SOL    HW1 4382   5.677   0.502   3.785
 1161SOL    HW2 4383   5.597   0.644   3.792
 1162SOL     OW 4384   3.595   4.065   2.148
 1162SOL    HW1 4385   3.600   4.040   2.052
 1162SOL    HW2 4386   3.664   4.014   2.199
 1163SOL     OW 4387   4.958   2.573   2.133
 1163SOL    HW1 4388   4.923   2.522   2.054
 1163SOL    HW2 4389   4.914   2.663   2.135
 1164SOL     OW 4390   5.866   2.873   3.374
 1164SOL    HW1 4391   5.810   2.794   3.397
 1164SOL    HW2 4392   5.956   2.842   3.343
 1165SOL     OW 4393   0.405   3.805   3.584
 1165SOL    HW1 4394   0.485   3.794   3.643
 1165SOL    HW2 4395   0.346   3.725   3.593
 1166SOL     OW 4396   4.213   2.338   6.339
 1166SOL    HW1 4397   4.300   2.307   6.376
 1166SOL    HW2 4398   4.221   2.351   6.240
 1167SOL     OW 4399   4.741   1.200   5.068
 1167SOL    HW1 4400   4.763   1.113   5.111
 1167SOL    HW2 4401   4.649   1.228   5.094
 1168SOL     OW 4402   6.778   6.960   3.842
 1168SOL    HW1 4403   6.695   7.011   3.866
 1168SOL    HW2 4404   6.787   6.955   3.743
 1169SOL     OW 4405   1.041   3.728   1.455
 1169SOL    HW1 4406   1.032   3.757   1.360
 1169SOL    HW2 4407   1.088   3.640   1.459
 1170SOL     OW 4408   3.246   1.401   2.070
 1170SOL    HW1 4409   3.310   1.328   2.047
 1170SOL    HW2 4410   3.289   1.463   2.136
 1171SOL     OW 4411   2.798   5.570   1.310
 1171SOL    HW1 4412   2.836   5.496   1.256
 1171SOL    HW2 4413   2.698   5.559   1.316
 1172SOL     OW 4414   2.898   3.572   4.298
 1172SOL    HW1 4415   2.944   3.487   4.272
 1172SOL    HW2 4416   2.858   3.614   4.216
 1173SOL     OW 4417   2.692   0.911   6.000
 1173SOL    HW1 4418   2.707   1.004   6.035
 1173SOL    HW2 4419   2.781   0.870   5.977
 1174SOL     OW 4420   3.059   5.824   0.682
 1174SOL    HW1 4421   2.982   5.865   0.731
 1174SOL    HW2 4422   3.142   5.875   0.703
 1175SOL     OW 4423   6.417   4.918   6.172
 1175SOL    HW1 4424   6.435   4.875   6.083
 1175SOL    HW2 4425   6.482   4.992   6.188
 1176SOL     OW 4426   5.447   4.666   0.889
 1176SOL    HW1 4427   5.435   4.603   0.965
 1176SOL    HW2 4428   5.461   4.615   0.804
 1177SOL     OW 4429   6.855   3.359   5.902
 1177SOL    HW1 4430   6.800   3.328   5.980
 1177SOL    HW2 4431   6.817   3.444   5.866
 1178SOL     OW 4432   5.366   3.833   1.586
 1178SOL    HW1 4433   5.402   3.845   1.493
 1178SOL    HW2 4434   5.284   3.776   1.583
 1179SOL     OW 4435   1.626   5.226   6.766
 1179SOL    HW1 4436   1.569   5.245   6.687
 1179SOL    HW2 4437   1.722   5.219   6.738
 1180SOL     OW 4438   1.472   1.910   4.378
 1180SOL    HW1 4439   1.538   1.837   4.360
 1180SOL    HW2 4440   1.401   1.910   4.307
 1181SOL     OW 4441   1.810   4.171   3.798
 1181SOL    HW1 4442   1.875   4.224   3.744
 1181SOL    HW2 4443   1.720   4.215   3.794
 1182SOL     OW 4444   2.196   4.245   3.476
 1182SOL    HW1 4445   2.226   4.151   3.491
 1182SOL    HW2 4446   2.101   4.254   3.504
 1183SOL     OW 4447   4.244   6.183   1.372
 1183SOL    HW1 4448   4.217   6.222   1.284
 1183SOL    HW2 4449   4.310   6.244   1.417
 1184SOL     OW 4450   3.153   2.934   5.190
 1184SOL    HW1 4451   3.072   2.950   5.247
 1184SOL    HW2 4452   3.208   3.017   5.186
 1185SOL     OW 4453   1.891   0.295   6.803
 1185SOL    HW1 4454   1.843   0.378   6.834
 1185SOL    HW2 4455   1.825   0.220   6.795
 1186SOL     OW 4456   5.868   0.311   4.704
 1186SOL    HW1 4457   5.921   0.230   4.678
 1186SOL    HW2 4458   5.828   0.297   4.795
 1187SOL     OW 4459   5.628   0.019   5.127
 1187SOL    HW1 4460   5.544   0.069   5.145
 1187SOL    HW2 4461   5.697   0.044   5.195
 1188SOL     OW 4462   2.129   6.820   5.909
 1188SOL    HW1 4463   2.205   6.850   5.851
 1188SOL    HW2 4464   2.144   6.851   6.003
 1189SOL     OW 4465   5.782   0.959   1.443
 1189SOL    HW1 4466   5.769   0.863   1.418
 1189SOL    HW2 4467   5.807   1.012   1.361
 1190SOL     OW 4468   4.504   5.175   2.504
 1190SOL    HW1 4469   4.444   5.156   2.582
 1190SOL    HW2 4470   4.448   5.196   2.424
 1191SOL     OW 4471   3.222   5.690   6.198
 1191SOL    HW1 4472   3.234   5.653   6.106
 1191SOL    HW2 4473   3.125   5.708   6.215
 1192SOL     OW 4474   5.914   5.454   3.017
 1192SOL    HW1 4475   5.875   5.367   3.047
 1192SOL    HW2 4476   6.001   5.438   2.970
 1193SOL     OW 4477   4.864   0.533   4.141
 1193SOL    HW1 4478   4.766   0.549   4.148
 1193SOL    HW2 4479   4.898   0.570   4.054
 1194SOL     OW 4480   6.394   0.727   0.702
 1194SOL    HW1 4481   6.480   0.778   0.700
 1194SOL    HW2 4482   6.386   0.673   0.618
 1195SOL     OW 4483   5.581   0.518   6.285
 1195SOL    HW1 4484   5.587   0.515   6.384
 1195SOL    HW2 4485   5.628   0.440   6.245
 1196SOL     OW 4486   0.225   5.373   2.535
 1196SOL    HW1 4487   0.220   5.282   2.493
 1196SOL    HW2 4488   0.276   5.435   2.475
 1197SOL     OW 4489   3.694   5.917   5.636
 1197SOL    HW1 4490   3.648   6.004   5.653
 1197SOL    HW2 4491   3.673   5.886   5.543
 1198SOL     OW 4492   3.307   2.080   3.412
 1198SOL    HW1 4493   3.377   2.064   3.481
 1198SOL    HW2 4494   3.240   2.146   3.448
 1199SOL     OW 4495   3.293   4.263   1.702
 1199SOL    HW1 4496   3.391   4.282   1.708
 1199SOL    HW2 4497   3.265   4.265   1.607
 1200SOL     OW 4498   4.079   4.488   6.634
 1200SOL    HW1 4499   4.045   4.405   6.677
 1200SOL    HW2 4500   4.175   4.477   6.611
 1201SOL     OW 4501   1.337   1.730   4.922
 1201SOL    HW1 4502   1.395   1.714   5.001
 1201SOL    HW2 4503   1.354   1.660   4.852
 1202SOL     OW 4504   5.460   0.191   4.888
 1202SOL    HW1 4505   5.467   0.095   4.915
 1202SOL    HW2 4506   5.550   0.235   4.899
 1203SOL     OW 4507   5.210   6.992   1.044
 1203SOL    HW1 4508   5.230   6.908   1.095
 1203SOL    HW2 4509   5.244   0.045   1.095
 1204SOL     OW 4510   3.794   0.658   0.285
 1204SOL    HW1 4511   3.873   0.628   0.338
 1204SOL    HW2 4512   3.789   0.758   0.285
 1205SOL     OW 4513   5.896   1.794   5.175
 1205SOL    HW1 4514   5.913   1.790   5.273
 1205SOL    HW2 4515   5.905   1.702   5.135
 1206SOL     OW 4516   2.316   1.531   5.244
 1206SOL    HW1 4517   2.367   1.475   5.178
 1206SOL    HW2 4518   2.301   1.478   5.328
 1207SOL     OW 4519   5.638   0.148   7.020
 1207SOL    HW1 4520   5.574   0.186   6.953
 1207SOL    HW2 4521   5.587   0.103   0.067
 1208SOL     OW 4522   3.595   4.124   2.606
 1208SOL    HW1 4523   3.526   4.197   2.603
 1208SOL    HW2 4524   3.583   4.071   2.690
 1209SOL     OW 4525   5.714   5.516   4.361
 1209SOL    HW1 4526   5.752   5.487   4.449
 1209SOL    HW2 4527   5.731   5.446   4.292
 1210SOL     OW 4528   4.325   6.954   2.704
 1210SOL    HW1 4529   4.315   0.027   2.704
 1210SOL    HW2 4530   4.418   6.929   2.677
 1211SOL     OW 4531   1.027   4.143   4.590
 1211SOL    HW1 4532   1.109   4.107   4.633
 1211SOL    HW2 4533   1.024   4.243   4.602
 1212SOL     OW 4534   1.123   4.283   4.881
 1212SOL    HW1 4535   1.159   4.230   4.804
 1212SOL    HW2 4536   1.024   4.291   4.873
 1213SOL     OW 4537   6.377   2.591   5.340
 1213SOL    HW1 4538   6.429   2.561   5.260
 1213SOL    HW2 4539   6.280   2.594   5.317
 1214SOL     OW 4540   1.817   3.390   4.051
 1214SOL    HW1 4541   1.850   3.308   4.004
 1214SOL    HW2 4542   1.737   3.426   4.004
 1215SOL     OW 4543   1.167   4.237   3.179
 1215SOL    HW1 4544   1.181   4.316   3.239
 1215SOL    HW2 4545   1.247   4.226   3.119
 1216SOL     OW 4546   1.095   0.339   1.922
 1216SOL    HW1 4547   1.192   0.348   1.902
 1216SOL    HW2 4548   1.044   0.330   1.836
 1217SOL     OW 4549   1.416   6.569   1.295
 1217SOL    HW1 4550   1.405   6.563   1.196
 1217SOL    HW2 4551   1.468   6.652   1.317
 1218SOL     OW 4552   0.191   3.547   4.324
 1218SOL    HW1 4553   0.127   3.620   4.344
 1218SOL    HW2 4554   0.148   3.459   4.341
 1219SOL     OW 4555   3.597   6.397   1.461
 1219SOL    HW1 4556   3.655   6.347   1.397
 1219SOL    HW2 4557   3.601   6.352   1.551
 1220SOL     OW 4558   5.810   2.796   2.935
 1220SOL    HW1 4559   5.713   2.772   2.929
 1220SOL    HW2 4560   5.826   2.850   3.017
 1221SOL     OW 4561   4.731   3.541   0.463
 1221SOL    HW1 4562   4.726   3.634   0.500
 1221SOL    HW2 4563   4.648   3.521   0.410
 1222SOL     OW 4564   0.245   6.963   1.136
 1222SOL    HW1 4565   0.255   6.865   1.117
 1222SOL    HW2 4566   0.319   6.992   1.197
 1223SOL     OW 4567   6.299   0.072   6.211
 1223SOL    HW1 4568   6.361   0.116   6.146
 1223SOL    HW2 4569   6.229   0.138   6.239
 1224SOL     OW 4570   4.853   5.721   1.322
 1224SOL    HW1 4571   4.856   5.820   1.322
 1224SOL    HW2 4572   4.758   5.690   1.326
 1225SOL     OW 4573   4.965   1.962   0.624
 1225SOL    HW1 4574   4.954   2.058   0.597
 1225SOL    HW2 4575   4.882   1.911   0.601
 1226SOL     OW 4576   6.473   6.229   1.207
 1226SOL    HW1 4577   6.480   6.297   1.134
 1226SOL    HW2 4578   6.527   6.258   1.286
 1227SOL     OW 4579   5.721   3.635   5.547
 1227SOL    HW1 4580   5.649   3.570   5.567
 1227SOL    HW2 4581   5.692   3.727   5.574
 1228SOL     OW 4582   4.026   3.097   2.419
 1228SOL    HW1 4583   3.961   3.057   2.354
 1228SOL    HW2 4584   4.111   3.045   2.417
 1229SOL     OW 4585   1.901   6.122   2.563
 1229SOL    HW1 4586   1.827   6.116   2.630
 1229SOL    HW2 4587   1.897   6.210   2.517
 1230SOL     OW 4588   5.044   5.336   1.505
 1230SOL    HW1 4589   5.083   5.313   1.416
 1230SOL    HW2 4590   5.008   5.429   1.502
 1231SOL     OW 4591   1.849   2.011   6.698
 1231SOL    HW1 4592   1.893   1.963   6.622
 1231SOL    HW2 4593   1.750   1.994   6.695
 1232SOL     OW 4594   3.221   0.770   5.483
 1232SOL    HW1 4595   3.198   0.673   5.484
 1232SOL    HW2 4596   3.137   0.823   5.467
 1233SOL     OW 4597   0.352   5.700   3.991
 1233SOL    HW1 4598   0.316   5.661   4.075
 1233SOL    HW2 4599   0.436   5.652   3.965
 1234SOL     OW 4600   6.471   2.946   6.753
 1234SOL    HW1 4601   6.570   2.949   6.770
 1234SOL    HW2 4602   6.426   2.904   6.832
 1235SOL     OW 4603   6.272   5.213   0.297
 1235SOL    HW1 4604   6.356   5.267   0.298
 1235SOL    HW2 4605   6.201   5.262   0.246
 1236SOL     OW 4606   2.240   1.172   1.484
 1236SOL    HW1 4607   2.298   1.212   1.413
 1236SOL    HW2 4608   2.298   1.130   1.554
 1237SOL     OW 4609   1.135   0.326   4.849
 1237SOL    HW1 4610   1.100   0.388   4.919
 1237SOL    HW2 4611   1.167   0.380   4.770
 1238SOL     OW 4612   6.733   0.239   3.776
 1238SOL    HW1 4613   6.783   0.194   3.703
 1238SOL    HW2 4614   6.639   0.204   3.780
 1239SOL     OW 4615   5.757   4.864   4.297
 1239SOL    HW1 4616   5.734   4.798   4.368
 1239SOL    HW2 4617   5.838   4.916   4.324
 1240SOL     OW 4618   5.648   5.001   3.075
 1240SOL    HW1 4619   5.604   4.912   3.059
 1240SOL    HW2 4620   5.651   5.019   3.173
 1241SOL     OW 4621   5.583   5.131   4.506
 1241SOL    HW1 4622   5.549   5.120   4.600
 1241SOL    HW2 4623   5.524   5.079   4.443
 1242SOL     OW 4624   1.789   4.682   6.947
 1242SOL    HW1 4625   1.705   4.661   6.998
 1242SOL    HW2 4626   1.810   4.779   6.955
 1243SOL     OW 4627   0.943   4.661   4.962
 1243SOL    HW1 4628   1.019   4.606   4.998
 1243SOL    HW2 4629   0.978   4.729   4.898
 1244SOL     OW 4630   5.555   6.359   4.726
 1244SOL    HW1 4631   5.530   6.365   4.823
 1244SOL    HW2 4632   5.649   6.324   4.718
 1245SOL     OW 4633   5.455   6.334   2.480
 1245SOL    HW1 4634   5.478   6.366   2.388
 1245SOL    HW2 4635   5.480   6.237   2.489
 1246SOL     OW 4636   4.627   1.419   0.609
 1246SOL    HW1 4637   4.697   1.350   0.588
 1246SOL    HW2 4638   4.648   1.461   0.697
 1247SOL     OW 4639   6.565   6.718   3.343
 1247SOL    HW1 4640   6.596   6.627   3.315
 1247SOL    HW2 4641   6.515   6.712   3.429
 1248SOL     OW 4642   0.878   6.882   4.751
 1248SOL    HW1 4643   0.812   6.847   4.684
 1248SOL    HW2 4644   0.941   6.946   4.705
 1249SOL     OW 4645   6.848   4.578   0.102
 1249SOL    HW1 4646   6.754   4.611   0.097
 1249SOL    HW2 4647   6.896   4.626   0.175
 1250SOL     OW 4648   6.158   2.936   5.150
 1250SOL    HW1 4649   6.093   2.875   5.196
 1250SOL    HW2 4650   6.248   2.925   5.191
 1251SOL     OW 4651   2.705   0.540   2.801
 1251SOL    HW1 4652   2.616   0.538   2.846
 1251SOL    HW2 4653   2.719   0.629   2.757
 1252SOL     OW 4654   1.831   5.466   0.434
 1252SOL    HW1 4655   1.898   5.454   0.360
 1252SOL    HW2 4656   1.867   5.531   0.501
 1253SOL     OW 4657   3.468   0.715   1.179
 1253SOL    HW1 4658   3.478   0.799   1.231
 1253SOL    HW2 4659   3.392   0.661   1.216
 1254SOL     OW 4660   6.714   1.493   2.335
 1254SOL    HW1 4661   6.691   1.439   2.416
 1254SOL    HW2 4662   6.754   1.433   2.265
 1255SOL     OW 4663   5.478   1.334   4.972
 1255SOL    HW1 4664   5.389   1.288   4.975
 1255SOL    HW2 4665   5.550   1.266   4.959
 1256SOL     OW 4666   0.481   6.200   4.479
 1256SOL    HW1 4667   0.527   6.188   4.566
 1256SOL    HW2 4668   0.482   6.114   4.428
 1257SOL     OW 4669   0.636   5.312   4.063
 1257SOL    HW1 4670   0.728   5.302   4.027
 1257SOL    HW2 4671   0.574   5.250   4.014
 1258SOL     OW 4672   3.197   6.076   4.494
 1258SOL    HW1 4673   3.179   6.004   4.561
 1258SOL    HW2 4674   3.133   6.152   4.509
 1259SOL     OW 4675   5.311   6.717   4.324
 1259SOL    HW1 4676   5.254   6.635   4.324
 1259SOL    HW2 4677   5.270   6.787   4.382
 1260SOL     OW 4678   1.455   0.771   1.692
 1260SOL    HW1 4679   1.501   0.724   1.767
 1260SOL    HW2 4680   1.362   0.796   1.720
 1261SOL     OW 4681   6.862   4.515   6.448
 1261SOL    HW1 4682   6.796   4.444   6.474
 1261SOL    HW2 4683   6.949   4.472   6.426
 1262SOL     OW 4684   5.796   5.333   0.576
 1262SOL    HW1 4685   5.862   5.317   0.649
 1262SOL    HW2 4686   5.719   5.270   0.586
 1263SOL     OW 4687   0.569   2.594   1.267
 1263SOL    HW1 4688   0.565   2.670   1.201
 1263SOL    HW2 4689   0.511   2.615   1.346
 1264SOL     OW 4690   0.581   3.631   3.771
 1264SOL    HW1 4691   0.553   3.545   3.814
 1264SOL    HW2 4692   0.680   3.644   3.785
 1265SOL     OW 4693   6.985   4.613   5.046
 1265SOL    HW1 4694   6.952   4.653   5.132
 1265SOL    HW2 4695   6.971   4.514   5.048
 1266SOL     OW 4696   2.930   1.748   5.592
 1266SOL    HW1 4697   2.954   1.812   5.519
 1266SOL    HW2 4698   2.886   1.799   5.666
 1267SOL     OW 4699   6.919   5.362   3.292
 1267SOL    HW1 4700   6.896   5.447   3.244
 1267SOL    HW2 4701   6.958   5.297   3.226
 1268SOL     OW 4702   5.492   2.840   6.482
 1268SOL    HW1 4703   5.534   2.931   6.475
 1268SOL    HW2 4704   5.393   2.848   6.469
 1269SOL     OW 4705   6.680   5.436   5.533
 1269SOL    HW1 4706   6.621   5.488   5.470
 1269SOL    HW2 4707   6.628   5.358   5.569
 1270SOL     OW 4708   2.093   3.920   4.359
 1270SOL    HW1 4709   2.173   3.923   4.299
 1270SOL    HW2 4710   2.010   3.919   4.303
 1271SOL     OW 4711   3.265   1.816   2.658
 1271SOL    HW1 4712   3.307   1.888   2.602
 1271SOL    HW2 4713   3.177   1.848   2.692
 1272SOL     OW 4714   6.792   5.217   1.099
 1272SOL    HW1 4715   6.773   5.143   1.035
 1272SOL    HW2 4716   6.750   5.301   1.066
 1273SOL     OW 4717   2.625   4.764   6.575
 1273SOL    HW1 4718   2.651   4.859   6.556
 1273SOL    HW2 4719   2.527   4.760   6.593
 1274SOL     OW 4720   6.937   2.803   2.098
 1274SOL    HW1 4721   6.870   2.774   2.029
 1274SOL    HW2 4722   7.023   2.754   2.083
 1275SOL     OW 4723   4.455   1.252   4.881
 1275SOL    HW1 4724   4.529   1.294   4.828
 1275SOL    HW2 4725   4.468   1.271   4.978
 1276SOL     OW 4726   0.494   0.781   2.682
 1276SOL    HW1 4727   0.417   0.803   2.742
 1276SOL    HW2 4728   0.462   0.771   2.588
 1277SOL     OW 4729   6.797   0.815   4.477
 1277SOL    HW1 4730   6.883   0.771   4.450
 1277SOL    HW2 4731   6.761   0.867   4.400
 1278SOL     OW 4732   2.169   1.745   5.153
 1278SOL    HW1 4733   2.211   1.820   5.205
 1278SOL    HW2 4734   2.219   1.660   5.173
 1279SOL     OW 4735   2.939   6.047   0.347
 1279SOL    HW1 4736   2.856   6.039   0.403
 1279SOL    HW2 4737   2.962   6.144   0.336
 1280SOL     OW 4738   2.115   0.298   3.134
 1280SOL    HW1 4739   2.211   0.277   3.154
 1280SOL    HW2 4740   2.059   0.277   3.215
 1281SOL     OW 4741   1.317   6.327   3.471
 1281SOL    HW1 4742   1.328   6.408   3.528
 1281SOL    HW2 4743   1.220   6.314   3.449
 1282SOL     OW 4744   0.800   1.229   1.071
 1282SOL    HW1 4745   0.759   1.302   1.126
 1282SOL    HW2 4746   0.860   1.175   1.130
 1283SOL     OW 4747   5.433   4.602   5.168
 1283SOL    HW1 4748   5.510   4.655   5.134
 1283SOL    HW2 4749   5.379   4.659   5.231
 1284SOL     OW 4750   3.068   2.627   1.730
 1284SOL    HW1 4751   3.026   2.644   1.641
 1284SOL    HW2 4752   3.024   2.548   1.772
 1285SOL     OW 4753   4.792   2.391   6.009
 1285SOL    HW1 4754   4.726   2.428   6.074
 1285SOL    HW2 4755   4.786   2.441   5.923
 1286SOL     OW 4756   5.596   4.106   1.834
 1286SOL    HW1 4757   5.505   4.067   1.847
 1286SOL    HW2 4758   5.592   4.205   1.843
 1287SOL     OW 4759   6.425   5.537   6.916
 1287SOL    HW1 4760   6.405   5.516   7.011
 1287SOL    HW2 4761   6.523   5.521   6.898
 1288SOL     OW 4762   0.046   3.272   6.877
 1288SOL    HW1 4763   7.008   3.223   6.817
 1288SOL    HW2 4764   0.016   3.367   6.887
 1289SOL     OW 4765   6.876   5.929   2.412
 1289SOL    HW1 4766   6.960   5.928   2.467
 1289SOL    HW2 4767   6.889   5.871   2.331
 1290SOL     OW 4768   0.909   6.509   6.886
 1290SOL    HW1 4769   0.999   6.536   6.853
 1290SOL    HW2 4770   0.910   6.412   6.911
 1291SOL     OW 4771   0.909   6.017   6.286
 1291SOL    HW1 4772   0.976   5.948   6.315
 1291SOL    HW2 4773   0.826   5.971   6.254
 1292SOL     OW 4774   0.323   4.797   0.982
 1292SOL    HW1 4775   0.273   4.850   0.913
 1292SOL    HW2 4776   0.285   4.704   0.987
 1293SOL     OW 4777   1.331   2.026   0.001
 1293SOL    HW1 4778   1.426   2.046   0.023
 1293SOL    HW2 4779   1.272   2.093   0.047
 1294SOL     OW 4780   0.853   3.408   2.479
 1294SOL    HW1 4781   0.947   3.435   2.503
 1294SOL    HW2 4782   0.827   3.329   2.535
 1295SOL     OW 4783   5.701   3.192   1.647
 1295SOL    HW1 4784   5.608   3.191   1.611
 1295SOL    HW2 4785   5.724   3.100   1.680
 1296SOL     OW 4786   3.521   2.208   6.540
 1296SOL    HW1 4787   3.609   2.202   6.587
 1296SOL    HW2 4788   3.448   2.182   6.604
 1297SOL     OW 4789   6.589   1.348   5.465
 1297SOL    HW1 4790   6.611   1.388   5.376
 1297SOL    HW2 4791   6.541   1.415   5.522
 1298SOL     OW 4792   5.634   2.762   2.389
 1298SOL    HW1 4793   5.578   2.690   2.430
 1298SOL    HW2 4794   5.585   2.802   2.311
 1299SOL     OW 4795   1.437   4.463   4.603
 1299SOL    HW1 4796   1.531   4.460   4.569
 1299SOL    HW2 4797   1.418   4.554   4.641
 1300SOL     OW 4798   2.777   3.375   1.909
 1300SOL    HW1 4799   2.701   3.357   1.847
 1300SOL    HW2 4800   2.774   3.310   1.985
 1301SOL     OW 4801   0.710   6.296   3.986
 1301SOL    HW1 4802   0.642   6.344   4.041
 1301SOL    HW2 4803   0.802   6.326   4.013
 1302SOL     OW 4804   3.010   6.995   5.337
 1302SOL    HW1 4805   2.961   0.018   5.264
 1302SOL    HW2 4806   2.959   7.003   5.422
 1303SOL     OW 4807   3.513   1.560   0.833
 1303SOL    HW1 4808   3.535   1.523   0.743
 1303SOL    HW2 4809   3.487   1.485   0.894
 1304SOL     OW 4810   2.068   0.303   6.155
 1304SOL    HW1 4811   2.103   0.315   6.248
 1304SOL    HW2 4812   2.110   0.223   6.113
 1305SOL     OW 4813   4.596   6.693   4.402
 1305SOL    HW1 4814   4.581   6.596   4.383
 1305SOL    HW2 4815   4.559   6.748   4.328
 1306SOL     OW 4816   0.494   4.074   4.561
 1306SOL    HW1 4817   0.429   4.150   4.566
 1306SOL    HW2 4818   0.482   4.015   4.640
 1307SOL     OW 4819   1.163   3.760   5.239
 1307SOL    HW1 4820   1.240   3.780   5.179
 1307SOL    HW2 4821   1.096   3.705   5.190
 1308SOL     OW 4822   3.914   5.466   4.344
 1308SOL    HW1 4823   3.908   5.538   4.276
 1308SOL    HW2 4824   3.937   5.379   4.299
 1309SOL     OW 4825   5.301   2.817   5.009
 1309SOL    HW1 4826   5.351   2.799   5.094
 1309SOL    HW2 4827   5.273   2.731   4.967
 1310SOL     OW 4828   5.804   4.242   4.025
 1310SOL    HW1 4829   5.773   4.180   4.097
 1310SOL    HW2 4830   5.895   4.277   4.048
 1311SOL     OW 4831   6.224   6.882   4.657
 1311SOL    HW1 4832   6.149   6.848   4.713
 1311SOL    HW2 4833   6.212   6.980   4.641
 1312SOL     OW 4834   0.651   6.908   6.770
 1312SOL    HW1 4835   0.707   6.830   6.798
 1312SOL    HW2 4836   0.659   6.921   6.671
 1313SOL     OW 4837   3.303   5.519   5.396
 1313SOL    HW1 4838   3.373   5.520   5.468
 1313SOL    HW2 4839   3.240   5.443   5.412
 1314SOL     OW 4840   1.449   1.407   5.639
 1314SOL    HW1 4841   1.501   1.409   5.724
 1314SOL    HW2 4842   1.441   1.500   5.603
 1315SOL     OW 4843   2.358   1.573   1.105
 1315SOL    HW1 4844   2.301   1.512   1.161
 1315SOL    HW2 4845   2.447   1.531   1.090
 1316SOL     OW 4846   2.540   0.274   3.532
 1316SOL    HW1 4847   2.447   0.265   3.497
 1316SOL    HW2 4848   2.602   0.219   3.476
 1317SOL     OW 4849   0.287   4.623   4.403
 1317SOL    HW1 4850   0.295   4.601   4.500
 1317SOL    HW2 4851   0.366   4.585   4.354
 1318SOL     OW 4852   6.951   0.765   0.615
 1318SOL    HW1 4853   6.895   0.823   0.674
 1318SOL    HW2 4854   7.000   0.698   0.671
 1319SOL     OW 4855   6.633   0.878   0.705
 1319SOL    HW1 4856   6.674   0.915   0.622
 1319SOL    HW2 4857   6.655   0.938   0.783
 1320SOL     OW 4858   5.769   4.429   6.304
 1320SOL    HW1 4859   5.758   4.377   6.389
 1320SOL    HW2 4860   5.803   4.520   6.324
 1321SOL     OW 4861   4.014   3.515   6.620
 1321SOL    HW1 4862   4.073   3.465   6.555
 1321SOL    HW2 4863   3.934   3.459   6.643
 1322SOL     OW 4864   6.157   1.053   3.306
 1322SOL    HW1 4865   6.202   0.977   3.258
 1322SOL    HW2 4866   6.195   1.063   3.397
 1323SOL     OW 4867   0.291   1.249   5.590
 1323SOL    HW1 4868   0.246   1.325   5.636
 1323SOL    HW2 4869   0.276   1.165   5.642
 1324SOL     OW 4870   1.576   2.927   1.276
 1324SOL    HW1 4871   1.579   2.933   1.177
 1324SOL    HW2 4872   1.627   3.003   1.316
 1325SOL     OW 4873   1.507   6.224   3.281
 1325SOL    HW1 4874   1.501   6.124   3.281
 1325SOL    HW2 4875   1.438   6.261   3.344
 1326SOL     OW 4876   5.312   2.458   4.423
 1326SOL    HW1 4877   5.341   2.536   4.367
 1326SOL    HW2 4878   5.229   2.483   4.474
 1327SOL     OW 4879   2.835   4.705   2.728
 1327SOL    HW1 4880   2.911   4.724   2.791
 1327SOL    HW2 4881   2.864   4.637   2.661
 1328SOL     OW 4882   2.026   1.966   6.308
 1328SOL    HW1 4883   2.012   1.875   6.268
 1328SOL    HW2 4884   2.066   1.956   6.399
 1329SOL     OW 4885   0.612   1.356   0.680
 1329SOL    HW1 4886   0.653   1.385   0.767
 1329SOL    HW2 4887   0.514   1.376   0.682
 1330SOL     OW 4888   6.833   0.861   1.186
 1330SOL    HW1 4889   6.828   0.762   1.203
 1330SOL    HW2 4890   6.741   0.900   1.191
 1331SOL     OW 4891   6.017   0.921   1.922
 1331SOL    HW1 4892   6.055   0.999   1.871
 1331SOL    HW2 4893   6.033   0.933   2.020
 1332SOL     OW 4894   4.252   1.941   1.546
 1332SOL    HW1 4895   4.157   1.974   1.554
 1332SOL    HW2 4896   4.314   2.019   1.552
 1333SOL     OW 4897   3.915   4.108   4.724
 1333SOL    HW1 4898   3.971   4.029   4.703
 1333SOL    HW2 4899   3.971   4.179   4.769
 1334SOL     OW 4900   1.683   4.114   4.966
 1334SOL    HW1 4901   1.731   4.038   4.924
 1334SOL    HW2 4902   1.684   4.193   4.905
 1335SOL     OW 4903   1.769   6.133   3.239
 1335SOL    HW1 4904   1.710   6.210   3.261
 1335SOL    HW2 4905   1.863   6.165   3.230
 1336SOL     OW 4906   1.235   1.417   6.197
 1336SOL    HW1 4907   1.305   1.464   6.142
 1336SOL    HW2 4908   1.205   1.477   6.271
 1337SOL     OW 4909   2.026   2.240   6.254
 1337SOL    HW1 4910   2.096   2.252   6.324
 1337SOL    HW2 4911   1.988   2.148   6.260
 1338SOL     OW 4912   3.992   4.736   6.668
 1338SOL    HW1 4913   4.080   4.784   6.669
 1338SOL    HW2 4914   4.006   4.641   6.639
 1339SOL     OW 4915   0.089   4.402   6.127
 1339SOL    HW1 4916   0.144   4.426   6.207
 1339SOL    HW2 4917   0.125   4.448   6.046
 1340SOL     OW 4918   1.262   2.357   6.982
 1340SOL    HW1 4919   1.165   2.357   7.005
 1340SOL    HW2 4920   1.283   2.278   6.924
 1341SOL     OW 4921   3.537   1.184   3.860
 1341SOL    HW1 4922   3.459   1.220   3.911
 1341SOL    HW2 4923   3.606   1.149   3.924
 1342SOL     OW 4924   0.773   5.884   5.868
 1342SOL    HW1 4925   0.853   5.924   5.912
 1342SOL    HW2 4926   0.693   5.943   5.884
 1343SOL     OW 4927   3.843   6.102   2.594
 1343SOL    HW1 4928   3.786   6.082   2.514
 1343SOL    HW2 4929   3.934   6.128   2.564
 1344SOL     OW 4930   6.327   1.697   3.032
 1344SOL    HW1 4931   6.374   1.621   3.077
 1344SOL    HW2 4932   6.373   1.718   2.946
 1345SOL     OW 4933   0.718   0.813   3.067
 1345SOL    HW1 4934   0.730   0.716   3.091
 1345SOL    HW2 4935   0.801   0.864   3.092
 1346SOL     OW 4936   0.052   0.045   3.793
 1346SOL    HW1 4937   0.034   6.975   3.769
 1346SOL    HW2 4938   7.026   0.069   3.875
 1347SOL     OW 4939   6.627   6.454   3.269
 1347SOL    HW1 4940   6.580   6.379   3.222
 1347SOL    HW2 4941   6.723   6.430   3.283
 1348SOL     OW 4942   5.233   4.535   3.898
 1348SOL    HW1 4943   5.317   4.514   3.848
 1348SOL    HW2 4944   5.245   4.513   3.995
 1349SOL     OW 4945   3.973   2.342   0.048
 1349SOL    HW1 4946   3.984   2.245   0.029
 1349SOL    HW2 4947   4.058   2.390   0.027
 1350SOL     OW 4948   2.637   6.204   0.398
 1350SOL    HW1 4949   2.639   6.209   0.298
 1350SOL    HW2 4950   2.677   6.287   0.436
 1351SOL     OW 4951   0.172   0.867   4.025
 1351SOL    HW1 4952   0.271   0.854   4.024
 1351SOL    HW2 4953   0.149   0.950   3.975
 1352SOL     OW 4954   6.605   0.937   2.768
 1352SOL    HW1 4955   6.655   1.022   2.784
 1352SOL    HW2 4956   6.622   0.874   2.843
 1353SOL     OW 4957   0.563   4.418   4.958
 1353SOL    HW1 4958   0.582   4.494   4.897
 1353SOL    HW2 4959   0.635   4.349   4.949
 1354SOL     OW 4960   0.326   0.627   1.689
 1354SOL    HW1 4961   0.336   0.532   1.719
 1354SOL    HW2 4962   0.294   0.629   1.594
 1355SOL     OW 4963   4.754   3.682   6.725
 1355SOL    HW1 4964   4.849   3.705   6.744
 1355SOL    HW2 4965   4.713   3.755   6.669
 1356SOL     OW 4966   3.445   3.649   2.579
 1356SOL    HW1 4967   3.386   3.627   2.501
 1356SOL    HW2 4968   3.430   3.745   2.605
 1357SOL     OW 4969   2.486   3.169   6.191
 1357SOL    HW1 4970   2.506   3.086   6.140
 1357SOL    HW2 4971   2.557   3.238   6.174
 1358SOL     OW 4972   2.249   2.954   6.379
 1358SOL    HW1 4973   2.168   2.993   6.423
 1358SOL    HW2 4974   2.327   3.015   6.393
 1359SOL     OW 4975   6.031   3.505   1.846
 1359SOL    HW1 4976   6.034   3.559   1.930
 1359SOL    HW2 4977   6.004   3.564   1.770
 1360SOL     OW 4978   3.596   3.858   3.017
 1360SOL    HW1 4979   3.542   3.819   3.092
 1360SOL    HW2 4980   3.693   3.857   3.042
 1361SOL     OW 4981   0.892   6.358   6.040
 1361SOL    HW1 4982   0.855   6.356   6.133
 1361SOL    HW2 4983   0.825   6.401   5.979
 1362SOL     OW 4984   3.047   3.625   6.008
 1362SOL    HW1 4985   3.055   3.529   5.980
 1362SOL    HW2 4986   2.985   3.672   5.945
 1363SOL     OW 4987   6.663   5.639   2.694
 1363SOL    HW1 4988   6.643   5.722   2.746
 1363SOL    HW2 4989   6.762   5.631   2.682
 1364SOL     OW 4990   6.489   3.409   1.065
 1364SOL    HW1 4991   6.509   3.361   1.151
 1364SOL    HW2 4992   6.406   3.463   1.076
 1365SOL     OW 4993   0.895   3.213   6.050
 1365SOL    HW1 4994   0.868   3.165   6.134
 1365SOL    HW2 4995   0.921   3.307   6.073
 1366SOL     OW 4996   6.824   2.866   0.859
 1366SOL    HW1 4997   6.840   2.814   0.943
 1366SOL    HW2 4998   6.816   2.802   0.782
 1367SOL     OW 4999   0.272   4.889   3.870
 1367SOL    HW1 5000   0.319   4.869   3.956
 1367SOL    HW2 5001   0.299   4.822   3.801
 1368SOL     OW 5002   6.863   0.492   4.178
 1368SOL    HW1 5003   6.797   0.426   4.143
 1368SOL    HW2 5004   6.818   0.579   4.194
 1369SOL     OW 5005   2.194   5.636   2.083
 1369SOL    HW1 5006   2.182   5.548   2.129
 1369SOL    HW2 5007   2.274   5.631   2.022
 1370SOL     OW 5008   6.889   2.087   4.032
 1370SOL    HW1 5009   6.906   2.117   4.126
 1370SOL    HW2 5010   6.803   2.035   4.029
 1371SOL     OW 5011   5.650   1.221   4.381
 1371SOL    HW1 5012   5.579   1.196   4.447
 1371SOL    HW2 5013   5.608   1.251   4.296
 1372SOL     OW 5014   6.721   2.766   0.293
 1372SOL    HW1 5015   6.801   2.720   0.333
 1372SOL    HW2 5016   6.638   2.727   0.332
 1373SOL     OW 5017   4.676   2.770   1.876
 1373SOL    HW1 5018   4.669   2.868   1.891
 1373SOL    HW2 5019   4.742   2.752   1.803
 1374SOL     OW 5020   4.903   3.614   0.067
 1374SOL    HW1 5021   4.965   3.544   0.033
 1374SOL    HW2 5022   4.920   3.629   0.165
 1375SOL     OW 5023   6.055   6.172   4.956
 1375SOL    HW1 5024   6.119   6.127   5.019
 1375SOL    HW2 5025   5.978   6.209   5.007
 1376SOL     OW 5026   2.674   4.954   6.207
 1376SOL    HW1 5027   2.722   4.868   6.225
 1376SOL    HW2 5028   2.628   4.985   6.290
 1377SOL     OW 5029   1.486   2.699   3.045
 1377SOL    HW1 5030   1.399   2.687   3.091
 1377SOL    HW2 5031   1.542   2.764   3.095
 1378SOL     OW 5032   3.834   2.141   4.536
 1378SOL    HW1 5033   3.817   2.137   4.438
 1378SOL    HW2 5034   3.918   2.091   4.557
 1379SOL     OW 5035   5.309   5.553   1.568
 1379SOL    HW1 5036   5.337   5.549   1.663
 1379SOL    HW2 5037   5.209   5.557   1.562
 1380SOL     OW 5038   6.998   5.894   1.679
 1380SOL    HW1 5039   6.982   5.819   1.615
 1380SOL    HW2 5040   0.046   5.953   1.645
 1381SOL     OW 5041   6.469   2.134   5.593
 1381SOL    HW1 5042   6.459   2.105   5.497
 1381SOL    HW2 5043   6.394   2.097   5.647
 1382SOL     OW 5044   4.380   2.420   1.429
 1382SOL    HW1 5045   4.312   2.390   1.363
 1382SOL    HW2 5046   4.335   2.457   1.510
 1383SOL     OW 5047   1.216   0.805   1.792
 1383SOL    HW1 5048   1.204   0.706   1.800
 1383SOL    HW2 5049   1.155   0.841   1.720
 1384SOL     OW 5050   5.324   0.292   0.362
 1384SOL    HW1 5051   5.228   0.271   0.345
 1384SOL    HW2 5052   5.336   0.314   0.459
 1385SOL     OW 5053   1.645   4.954   3.556
 1385SOL    HW1 5054   1.578   5.028   3.568
 1385SOL    HW2 5055   1.727   4.990   3.511
 1386SOL     OW 5056   2.547   6.098   4.375
 1386SOL    HW1 5057   2.621   6.045   4.333
 1386SOL    HW2 5058   2.581   6.189   4.400
 1387SOL     OW 5059   3.569   5.758   1.343
 1387SOL    HW1 5060   3.492   5.792   1.289
 1387SOL    HW2 5061   3.630   5.835   1.365
 1388SOL     OW 5062   6.110   0.636   1.602
 1388SOL    HW1 5063   6.146   0.729   1.604
 1388SOL    HW2 5064   6.058   0.618   1.685
 1389SOL     OW 5065   6.757   1.106   2.944
 1389SOL    HW1 5066   6.760   1.124   3.042
 1389SOL    HW2 5067   6.850   1.090   2.910
 1390SOL     OW 5068   1.030   3.092   6.329
 1390SOL    HW1 5069   1.014   2.995   6.345
 1390SOL    HW2 5070   0.942   3.139   6.322
 1391SOL     OW 5071   6.872   1.644   3.710
 1391SOL    HW1 5072   6.806   1.705   3.667
 1391SOL    HW2 5073   6.960   1.691   3.718
 1392SOL     OW 5074   5.274   4.657   5.674
 1392SOL    HW1 5075   5.186   4.611   5.685
 1392SOL    HW2 5076   5.346   4.589   5.656
 1393SOL     OW 5077   5.497   5.701   5.319
 1393SOL    HW1 5078   5.558   5.679   5.243
 1393SOL    HW2 5079   5.486   5.800   5.325
 1394SOL     OW 5080   3.215   6.007   5.400
 1394SOL    HW1 5081   3.126   6.023   5.443
 1394SOL    HW2 5082   3.204   5.942   5.325
 1395SOL     OW 5083   3.177   4.597   5.875
 1395SOL    HW1 5084   3.077   4.603   5.872
 1395SOL    HW2 5085   3.205   4.561   5.964
 1396SOL     OW 5086   0.338   0.408   3.808
 1396SOL    HW1 5087   0.321   0.452   3.897
 1396SOL    HW2 5088   0.401   0.464   3.755
 1397SOL     OW 5089   6.038   0.078   4.991
 1397SOL    HW1 5090   6.114   0.085   4.926
 1397SOL    HW2 5091   6.030   0.164   5.041
 1398SOL     OW 5092   1.377   0.927   4.944
 1398SOL    HW1 5093   1.438   1.002   4.971
 1398SOL    HW2 5094   1.328   0.951   4.861
 1399SOL     OW 5095   3.610   6.665   1.537
 1399SOL    HW1 5096   3.622   6.741   1.473
 1399SOL    HW2 5097   3.623   6.578   1.489
 1400SOL     OW 5098   6.715   1.751   2.724
 1400SOL    HW1 5099   6.703   1.843   2.687
 1400SOL    HW2 5100   6.812   1.728   2.723
 1401SOL     OW 5101   0.550   1.870   5.316
 1401SOL    HW1 5102   0.491   1.809   5.367
 1401SOL    HW2 5103   0.640   1.828   5.304
 1402SOL     OW 5104   6.638   3.596   6.565
 1402SOL    HW1 5105   6.595   3.530   6.504
 1402SOL    HW2 5106   6.672   3.550   6.647
 1403SOL     OW 5107   3.281   0.772   2.135
 1403SOL    HW1 5108   3.318   0.859   2.104
 1403SOL    HW2 5109   3.211   0.788   2.205
 1404SOL     OW 5110   5.403   0.259   0.632
 1404SOL    HW1 5111   5.396   0.172   0.681
 1404SOL    HW2 5112   5.484   0.308   0.665
 1405SOL     OW 5113   1.868   3.867   1.105
 1405SOL    HW1 5114   1.785   3.920   1.089
 1405SOL    HW2 5115   1.931   3.881   1.029
 1406SOL     OW 5116   1.301   4.797   1.788
 1406SOL    HW1 5117   1.211   4.790   1.831
 1406SOL    HW2 5118   1.352   4.712   1.804
 1407SOL     OW 5119   0.510   1.247   1.979
 1407SOL    HW1 5120   0.581   1.295   2.031
 1407SOL    HW2 5121   0.426   1.301   1.979
 1408SOL     OW 5122   5.343   0.609   6.150
 1408SOL    HW1 5123   5.355   0.705   6.177
 1408SOL    HW2 5124   5.425   0.557   6.174
 1409SOL     OW 5125   0.383   0.082   5.255
 1409SOL    HW1 5126   0.482   0.078   5.268
 1409SOL    HW2 5127   0.362   0.068   5.158
 1410SOL     OW 5128   2.032   3.422   6.316
 1410SOL    HW1 5129   2.056   3.484   6.391
 1410SOL    HW2 5130   2.110   3.415   6.253
 1411SOL     OW 5131   2.535   6.404   2.881
 1411SOL    HW1 5132   2.471   6.368   2.948
 1411SOL    HW2 5133   2.611   6.450   2.928
 1412SOL     OW 5134   1.041   3.157   0.244
 1412SOL    HW1 5135   1.117   3.220   0.229
 1412SOL    HW2 5136   0.984   3.153   0.163
 1413SOL     OW 5137   2.102   0.655   4.969
 1413SOL    HW1 5138   2.090   0.556   4.975
 1413SOL    HW2 5139   2.027   0.700   5.019
 1414SOL     OW 5140   2.832   1.388   1.861
 1414SOL    HW1 5141   2.807   1.458   1.794
 1414SOL    HW2 5142   2.828   1.298   1.819
 1415SOL     OW 5143   2.247   6.833   4.334
 1415SOL    HW1 5144   2.269   6.738   4.312
 1415SOL    HW2 5145   2.149   6.840   4.356
 1416SOL     OW 5146   4.916   4.680   2.954
 1416SOL    HW1 5147   4.856   4.723   2.886
 1416SOL    HW2 5148   4.871   4.681   3.043
 1417SOL     OW 5149   2.606   2.298   6.568
 1417SOL    HW1 5150   2.676   2.369   6.558
 1417SOL    HW2 5151   2.517   2.341   6.580
 1418SOL     OW 5152   3.002   3.300   3.081
 1418SOL    HW1 5153   3.059   3.351   3.016
 1418SOL    HW2 5154   3.029   3.204   3.080
 1419SOL     OW 5155   3.180   6.555   4.453
 1419SOL    HW1 5156   3.226   6.622   4.395
 1419SOL    HW2 5157   3.239   6.532   4.531
 1420SOL     OW 5158   1.479   6.388   1.726
 1420SOL    HW1 5159   1.511   6.420   1.815
 1420SOL    HW2 5160   1.420   6.458   1.684
 1421SOL     OW 5161   1.858   3.026   2.833
 1421SOL    HW1 5162   1.858   3.100   2.900
 1421SOL    HW2 5163   1.767   3.016   2.794
 1422SOL     OW 5164   2.529   4.560   1.978
 1422SOL    HW1 5165   2.515   4.505   1.895
 1422SOL    HW2 5166   2.626   4.565   1.999
 1423SOL     OW 5167   5.509   6.408   2.217
 1423SOL    HW1 5168   5.487   6.316   2.182
 1423SOL    HW2 5169   5.426   6.464   2.217
 1424SOL     OW 5170   5.690   4.690   4.505
 1424SOL    HW1 5171   5.711   4.714   4.600
 1424SOL    HW2 5172   5.592   4.695   4.490
 1425SOL     OW 5173   1.302   6.087   3.937
 1425SOL    HW1 5174   1.369   6.016   3.958
 1425SOL    HW2 5175   1.236   6.050   3.871
 1426SOL     OW 5176   1.235   2.944   5.773
 1426SOL    HW1 5177   1.298   2.943   5.695
 1426SOL    HW2 5178   1.165   3.014   5.758
 1427SOL     OW 5179   6.913   6.650   3.022
 1427SOL    HW1 5180   6.970   6.571   3.046
 1427SOL    HW2 5181   6.965   6.734   3.038
 1428SOL     OW 5182   5.399   2.422   0.890
 1428SOL    HW1 5183   5.417   2.424   0.792
 1428SOL    HW2 5184   5.382   2.328   0.919
 1429SOL     OW 5185   6.144   2.183   0.267
 1429SOL    HW1 5186   6.242   2.160   0.269
 1429SOL    HW2 5187   6.131   2.267   0.215
 1430SOL     OW 5188   1.298   3.877   4.409
 1430SOL    HW1 5189   1.285   3.966   4.365
 1430SOL    HW2 5190   1.338   3.813   4.344
 1431SOL     OW 5191   2.373   1.982   1.623
 1431SOL    HW1 5192   2.470   1.958   1.613
 1431SOL    HW2 5193   2.318   1.898   1.620
 1432SOL     OW 5194   2.713   1.492   3.848
 1432SOL    HW1 5195   2.729   1.580   3.893
 1432SOL    HW2 5196   2.614   1.473   3.847
 1433SOL     OW 5197   4.458   1.488   4.503
 1433SOL    HW1 5198   4.378   1.439   4.466
 1433SOL    HW2 5199   4.436   1.585   4.513
 1434SOL     OW 5200   6.935   0.871   5.219
 1434SOL    HW1 5201   6.837   0.865   5.200
 1434SOL    HW2 5202   6.966   0.965   5.203
 1435SOL     OW 5203   5.862   1.321   2.376
 1435SOL    HW1 5204   5.942   1.267   2.353
 1435SOL    HW2 5205   5.783   1.261   2.390
 1436SOL     OW 5206   4.998   4.020   6.731
 1436SOL    HW1 5207   5.084   4.031   6.682
 1436SOL    HW2 5208   4.998   3.932   6.780
 1437SOL     OW 5209   2.494   2.250   4.147
 1437SOL    HW1 5210   2.395   2.242   4.136
 1437SOL    HW2 5211   2.536   2.160   4.137
 1438SOL     OW 5212   3.410   6.359   1.283
 1438SOL    HW1 5213   3.407   6.445   1.231
 1438SOL    HW2 5214   3.470   6.369   1.362
 1439SOL     OW 5215   6.899   6.086   2.133
 1439SOL    HW1 5216   6.913   6.052   2.226
 1439SOL    HW2 5217   6.940   6.021   2.068
 1440SOL     OW 5218   3.189   3.785   1.597
 1440SOL    HW1 5219   3.092   3.785   1.622
 1440SOL    HW2 5220   3.225   3.692   1.604
 1441SOL     OW 5221   6.360   1.052   2.078
 1441SOL    HW1 5222   6.357   0.983   2.006
 1441SOL    HW2 5223   6.295   1.027   2.150
 1442SOL     OW 5224   6.453   6.167   6.996
 1442SOL    HW1 5225   6.419   6.099   6.932
 1442SOL    HW2 5226   6.454   6.257   6.952
 1443SOL     OW 5227   0.598   2.765   2.288
 1443SOL    HW1 5228   0.622   2.755   2.192
 1443SOL    HW2 5229   0.523   2.831   2.297
 1444SOL     OW 5230   5.010   6.901   0.795
 1444SOL    HW1 5231   5.100   6.856   0.793
 1444SOL    HW2 5232   4.981   6.915   0.889
 1445SOL     OW 5233   0.789   3.216   2.913
 1445SOL    HW1 5234   0.826   3.231   2.821
 1445SOL    HW2 5235   0.722   3.287   2.934
 1446SOL     OW 5236   6.834   0.400   0.121
 1446SOL    HW1 5237   6.841   0.444   0.031
 1446SOL    HW2 5238   6.738   0.379   0.140
 1447SOL     OW 5239   5.795   5.248   3.165
 1447SOL    HW1 5240   5.749   5.320   3.217
 1447SOL    HW2 5241   5.726   5.191   3.119
 1448SOL     OW 5242   6.909   2.923   4.661
 1448SOL    HW1 5243   6.961   2.849   4.703
 1448SOL    HW2 5244   6.820   2.932   4.707
 1449SOL     OW 5245   1.656   3.924   5.455
 1449SOL    HW1 5246   1.619   4.016   5.471
 1449SOL    HW2 5247   1.648   3.902   5.357
 1450SOL     OW 5248   0.821   2.640   6.178
 1450SOL    HW1 5249   0.745   2.700   6.205
 1450SOL    HW2 5250   0.794   2.545   6.192
 1451SOL     OW 5251   1.276   6.099   2.093
 1451SOL    HW1 5252   1.360   6.126   2.141
 1451SOL    HW2 5253   1.197   6.118   2.150
 1452SOL     OW 5254   4.588   2.448   5.490
 1452SOL    HW1 5255   4.501   2.484   5.455
 1452SOL    HW2 5256   4.569   2.387   5.567
 1453SOL     OW 5257   0.675   4.593   5.390
 1453SOL    HW1 5258   0.698   4.602   5.487
 1453SOL    HW2 5259   0.740   4.533   5.345
 1454SOL     OW 5260   2.276   2.081   2.976
 1454SOL    HW1 5261   2.364   2.109   3.014
 1454SOL    HW2 5262   2.277   2.092   2.877
 1455SOL     OW 5263   1.700   6.125   2.761
 1455SOL    HW1 5264   1.697   6.062   2.838
 1455SOL    HW2 5265   1.627   6.102   2.696
 1456SOL     OW 5266   6.698   6.168   6.600
 1456SOL    HW1 5267   6.768   6.112   6.644
 1456SOL    HW2 5268   6.716   6.173   6.502
 1457SOL     OW 5269   0.321   4.203   0.719
 1457SOL    HW1 5270   0.223   4.187   0.717
 1457SOL    HW2 5271   0.369   4.115   0.719
 1458SOL     OW 5272   5.508   4.857   5.577
 1458SOL    HW1 5273   5.432   4.882   5.636
 1458SOL    HW2 5274   5.482   4.870   5.481
 1459SOL     OW 5275   4.355   6.669   6.023
 1459SOL    HW1 5276   4.307   6.672   5.935
 1459SOL    HW2 5277   4.335   6.583   6.069
 1460SOL     OW 5278   1.513   6.761   4.900
 1460SOL    HW1 5279   1.509   6.674   4.948
 1460SOL    HW2 5280   1.597   6.765   4.845
 1461SOL     OW 5281   0.426   3.504   3.150
 1461SOL    HW1 5282   0.336   3.547   3.138
 1461SOL    HW2 5283   0.497   3.574   3.154
 1462SOL     OW 5284   0.859   0.943   6.685
 1462SOL    HW1 5285   0.936   0.904   6.736
 1462SOL    HW2 5286   0.782   0.957   6.747
 1463SOL     OW 5287   1.376   4.991   5.973
 1463SOL    HW1 5288   1.456   5.033   5.930
 1463SOL    HW2 5289   1.386   4.892   5.973
 1464SOL     OW 5290   6.695   3.926   3.354
 1464SOL    HW1 5291   6.697   3.942   3.453
 1464SOL    HW2 5292   6.675   4.012   3.307
 1465SOL     OW 5293   1.611   1.963   3.772
 1465SOL    HW1 5294   1.668   1.940   3.694
 1465SOL    HW2 5295   1.635   1.905   3.850
 1466SOL     OW 5296   4.000   2.377   1.795
 1466SOL    HW1 5297   3.953   2.364   1.707
 1466SOL    HW2 5298   3.932   2.385   1.868
 1467SOL     OW 5299   1.660   1.240   4.052
 1467SOL    HW1 5300   1.570   1.272   4.023
 1467SOL    HW2 5301   1.727   1.314   4.039
 1468SOL     OW 5302   2.003   5.208   1.584
 1468SOL    HW1 5303   1.912   5.210   1.543
 1468SOL    HW2 5304   2.072   5.210   1.512
 1469SOL     OW 5305   0.081   6.136   3.219
 1469SOL    HW1 5306   0.012   6.209   3.219
 1469SOL    HW2 5307   0.065   6.076   3.141
 1470SOL     OW 5308   6.732   3.147   1.240
 1470SOL    HW1 5309   6.688   3.234   1.264
 1470SOL    HW2 5310   6.823   3.166   1.202
 1471SOL     OW 5311   0.547   0.149   0.691
 1471SOL    HW1 5312   0.618   0.201   0.643
 1471SOL    HW2 5313   0.468   0.136   0.630
 1472SOL     OW 5314   2.134   6.489   6.725
 1472SOL    HW1 5315   2.229   6.476   6.696
 1472SOL    HW2 5316   2.131   6.557   6.798
 1473SOL     OW 5317   3.143   5.285   4.607
 1473SOL    HW1 5318   3.161   5.246   4.697
 1473SOL    HW2 5319   3.225   5.333   4.574
 1474SOL     OW 5320   3.975   5.086   1.557
 1474SOL    HW1 5321   3.999   5.160   1.495
 1474SOL    HW2 5322   3.945   5.124   1.645
 1475SOL     OW 5323   5.147   1.465   0.307
 1475SOL    HW1 5324   5.104   1.554   0.295
 1475SOL    HW2 5325   5.147   1.416   0.220
 1476SOL     OW 5326   2.955   1.084   1.562
 1476SOL    HW1 5327   3.039   1.130   1.590
 1476SOL    HW2 5328   2.941   1.096   1.464
 1477SOL     OW 5329   4.425   0.087   0.355
 1477SOL    HW1 5330   4.441   7.017   0.382
 1477SOL    HW2 5331   4.369   0.132   0.425
 1478SOL     OW 5332   5.586   6.438   5.623
 1478SOL    HW1 5333   5.536   6.356   5.597
 1478SOL    HW2 5334   5.682   6.428   5.597
 1479SOL     OW 5335   3.462   3.768   2.131
 1479SOL    HW1 5336   3.506   3.853   2.158
 1479SOL    HW2 5337   3.403   3.785   2.052
 1480SOL     OW 5338   2.291   0.101   6.654
 1480SOL    HW1 5339   2.382   0.102   6.614
 1480SOL    HW2 5340   2.222   0.105   6.581
 1481SOL     OW 5341   5.819   2.329   5.568
 1481SOL    HW1 5342   5.760   2.299   5.643
 1481SOL    HW2 5343   5.773   2.309   5.481
 1482SOL     OW 5344   4.168   0.333   0.884
 1482SOL    HW1 5345   4.259   0.318   0.847
 1482SOL    HW2 5346   4.108   0.258   0.854
 1483SOL     OW 5347   4.840   1.714   5.509
 1483SOL    HW1 5348   4.936   1.691   5.523
 1483SOL    HW2 5349   4.827   1.747   5.415
 1484SOL     OW 5350   3.427   5.178   4.214
 1484SOL    HW1 5351   3.486   5.227   4.150
 1484SOL    HW2 5352   3.339   5.226   4.222
 1485SOL     OW 5353   5.139   0.943   3.618
 1485SOL    HW1 5354   5.066   0.925   3.684
 1485SOL    HW2 5355   5.122   1.031   3.572
 1486SOL     OW 5356   4.719   6.413   3.728
 1486SOL    HW1 5357   4.809   6.378   3.701
 1486SOL    HW2 5358   4.649   6.373   3.668
 1487SOL     OW 5359   0.297   0.703   0.011
 1487SOL    HW1 5360   0.293   0.693   0.111
 1487SOL    HW2 5361   0.327   0.795   7.014
 1488SOL     OW 5362   5.941   0.924   2.596
 1488SOL    HW1 5363   5.949   0.857   2.670
 1488SOL    HW2 5364   5.877   0.890   2.527
 1489SOL     OW 5365   3.660   4.740   6.856
 1489SOL    HW1 5366   3.563   4.763   6.852
 1489SOL    HW2 5367   3.713   4.810   6.808
 1490SOL     OW 5368   0.149   2.811   1.362
 1490SOL    HW1 5369   0.064   2.862   1.349
 1490SOL    HW2 5370   0.131   2.729   1.416
 1491SOL     OW 5371   6.398   3.707   2.335
 1491SOL    HW1 5372   6.446   3.621   2.316
 1491SOL    HW2 5373   6.417   3.735   2.429
 1492SOL     OW 5374   6.435   0.582   2.567
 1492SOL    HW1 5375   6.347   0.628   2.575
 1492SOL    HW2 5376   6.508   0.650   2.570
 1493SOL     OW 5377   4.210   1.270   6.290
 1493SOL    HW1 5378   4.175   1.266   6.196
 1493SOL    HW2 5379   4.139   1.237   6.353
 1494SOL     OW 5380   5.595   2.477   6.670
 1494SOL    HW1 5381   5.618   2.422   6.750
 1494SOL    HW2 5382   5.664   2.463   6.599
 1495SOL     OW 5383   6.176   3.481   3.634
 1495SOL    HW1 5384   6.209   3.575   3.635
 1495SOL    HW2 5385   6.158   3.453   3.540
 1496SOL     OW 5386   0.203   0.139   0.062
 1496SOL    HW1 5387   0.272   0.198   0.104
 1496SOL    HW2 5388   0.248   0.066   0.011
 1497SOL     OW 5389   5.122   2.669   2.680
 1497SOL    HW1 5390   5.107   2.605   2.755
 1497SOL    HW2 5391   5.153   2.757   2.717
 1498SOL     OW 5392   2.612   4.534   1.127
 1498SOL    HW1 5393   2.654   4.606   1.182
 1498SOL    HW2 5394   2.578   4.461   1.187
 1499SOL     OW 5395   0.603   3.581   5.657
 1499SOL    HW1 5396   0.642   3.640   5.727
 1499SOL    HW2 5397   0.535   3.521   5.698
 1500SOL     OW 5398   1.023   5.901   7.020
 1500SOL    HW1 5399   0.986   5.961   0.066
 1500SOL    HW2 5400   1.111   5.863   0.024
 1501SOL     OW 5401   6.437   1.568   6.756
 1501SOL    HW1 5402   6.422   1.472   6.782
 1501SOL    HW2 5403   6.484   1.616   6.831
 1502SOL     OW 5404   6.360   1.466   5.951
 1502SOL    HW1 5405   6.284   1.528   5.933
 1502SOL    HW2 5406   6.347   1.382   5.899
 1503SOL     OW 5407   0.797   3.185   2.636
 1503SOL    HW1 5408   0.733   3.109   2.627
 1503SOL    HW2 5409   0.882   3.163   2.588
 1504SOL     OW 5410   0.497   0.132   3.614
 1504SOL    HW1 5411   0.431   0.178   3.555
 1504SOL    HW2 5412   0.451   0.101   3.697
 1505SOL     OW 5413   5.857   6.375   5.495
 1505SOL    HW1 5414   5.905   6.333   5.418
 1505SOL    HW2 5415   5.922   6.429   5.549
 1506SOL     OW 5416   1.020   0.572   0.928
 1506SOL    HW1 5417   1.112   0.552   0.961
 1506SOL    HW2 5418   1.021   0.658   0.876
 1507SOL     OW 5419   1.119   1.814   4.386
 1507SOL    HW1 5420   1.171   1.869   4.452
 1507SOL    HW2 5421   1.168   1.729   4.367
 1508SOL     OW 5422   0.810   1.610   0.674
 1508SOL    HW1 5423   0.831   1.513   0.690
 1508SOL    HW2 5424   0.806   1.658   0.762
 1509SOL     OW 5425   5.263   1.280   5.198
 1509SOL    HW1 5426   5.261   1.252   5.102
 1509SOL    HW2 5427   5.311   1.210   5.251
 1510SOL     OW 5428   4.168   6.516   3.866
 1510SOL    HW1 5429   4.243   6.564   3.910
 1510SOL    HW2 5430   4.114   6.467   3.935
 1511SOL     OW 5431   3.063   3.832   4.061
 1511SOL    HW1 5432   3.162   3.836   4.047
 1511SOL    HW2 5433   3.036   3.898   4.131
 1512SOL     OW 5434   6.061   5.796   0.997
 1512SOL    HW1 5435   6.136   5.731   1.006
 1512SOL    HW2 5436   5.986   5.753   0.946
 1513SOL     OW 5437   3.501   6.830   5.540
 1513SOL    HW1 5438   3.410   6.867   5.560
 1513SOL    HW2 5439   3.553   6.824   5.625
 1514SOL     OW 5440   3.544   2.474   5.568
 1514SOL    HW1 5441   3.629   2.467   5.517
 1514SOL    HW2 5442   3.532   2.568   5.602
 1515SOL     OW 5443   6.461   1.971   2.569
 1515SOL    HW1 5444   6.543   1.983   2.513
 1515SOL    HW2 5445   6.387   1.935   2.512
 1516SOL     OW 5446   5.729   5.462   5.064
 1516SOL    HW1 5447   5.793   5.464   4.988
 1516SOL    HW2 5448   5.723   5.553   5.106
 1517SOL     OW 5449   3.821   6.494   3.600
 1517SOL    HW1 5450   3.909   6.541   3.599
 1517SOL    HW2 5451   3.834   6.396   3.589
 1518SOL     OW 5452   6.351   2.995   0.238
 1518SOL    HW1 5453   6.440   2.972   0.198
 1518SOL    HW2 5454   6.343   3.094   0.246
 1519SOL     OW 5455   6.950   5.183   0.791
 1519SOL    HW1 5456   6.933   5.176   0.693
 1519SOL    HW2 5457   6.935   5.094   0.834
 1520SOL     OW 5458   0.810   4.837   1.573
 1520SOL    HW1 5459   0.851   4.856   1.484
 1520SOL    HW2 5460   0.716   4.871   1.575
 1521SOL     OW 5461   2.544   4.467   0.501
 1521SOL    HW1 5462   2.504   4.483   0.591
 1521SOL    HW2 5463   2.537   4.370   0.478
 1522SOL     OW 5464   5.082   5.758   4.581
 1522SOL    HW1 5465   5.109   5.743   4.676
 1522SOL    HW2 5466   5.164   5.771   4.525
 1523SOL     OW 5467   3.829   0.118   6.508
 1523SOL    HW1 5468   3.777   0.032   6.508
 1523SOL    HW2 5469   3.919   0.102   6.465
 1524SOL     OW 5470   2.750   2.287   2.552
 1524SOL    HW1 5471   2.689   2.366   2.548
 1524SOL    HW2 5472   2.793   2.273   2.463
 1525SOL     OW 5473   5.891   2.863   1.084
 1525SOL    HW1 5474   5.915   2.783   1.140
 1525SOL    HW2 5475   5.808   2.906   1.121
 1526SOL     OW 5476   0.598   1.266   0.098
 1526SOL    HW1 5477   0.694   1.256   0.073
 1526SOL    HW2 5478   0.561   1.349   0.055
 1527SOL     OW 5479   3.831   1.069   4.778
 1527SOL    HW1 5480   3.788   0.980   4.762
 1527SOL    HW2 5481   3.918   1.055   4.827
 1528SOL     OW 5482   4.492   5.015   1.170
 1528SOL    HW1 5483   4.545   4.951   1.114
 1528SOL    HW2 5484   4.554   5.073   1.223
 1529SOL     OW 5485   5.400   1.360   0.007
 1529SOL    HW1 5486   5.301   1.370   0.010
 1529SOL    HW2 5487   5.430   1.296   0.078
 1530SOL     OW 5488   3.422   0.459   1.732
 1530SOL    HW1 5489   3.467   0.415   1.810
 1530SOL    HW2 5490   3.446   0.556   1.730
 1531SOL     OW 5491   4.276   0.130   4.355
 1531SOL    HW1 5492   4.231   0.207   4.399
 1531SOL    HW2 5493   4.372   0.129   4.380
 1532SOL     OW 5494   3.456   4.630   6.105
 1532SOL    HW1 5495   3.549   4.606   6.134
 1532SOL    HW2 5496   3.459   4.664   6.011
 1533SOL     OW 5497   5.854   5.874   0.715
 1533SOL    HW1 5498   5.811   5.897   0.628
 1533SOL    HW2 5499   5.785   5.839   0.778
 1534SOL     OW 5500   3.700   5.841   0.106
 1534SOL    HW1 5501   3.734   5.898   0.181
 1534SOL    HW2 5502   3.632   5.777   0.141
 1535SOL     OW 5503   5.829   6.227   4.430
 1535SOL    HW1 5504   5.904   6.230   4.365
 1535SOL    HW2 5505   5.742   6.218   4.381
 1536SOL     OW 5506   4.272   4.571   0.383
 1536SOL    HW1 5507   4.326   4.542   0.462
 1536SOL    HW2 5508   4.174   4.568   0.406
 1537SOL     OW 5509   3.788   5.637   3.773
 1537SOL    HW1 5510   3.844   5.690   3.709
 1537SOL    HW2 5511   3.710   5.693   3.802
 1538SOL     OW 5512   3.136   1.249   0.026
 1538SOL    HW1 5513   3.209   1.265   0.092
 1538SOL    HW2 5514   3.073   1.180   0.062
 1539SOL     OW 5515   4.950   3.204   2.004
 1539SOL    HW1 5516   4.879   3.145   2.041
 1539SOL    HW2 5517   5.032   3.198   2.061
 1540SOL     OW 5518   1.355   6.929   5.107
 1540SOL    HW1 5519   1.270   6.980   5.095
 1540SOL    HW2 5520   1.432   6.984   5.073
 1541SOL     OW 5521   3.800   3.456   4.667
 1541SOL    HW1 5522   3.790   3.373   4.721
 1541SOL    HW2 5523   3.867   3.516   4.709
 1542SOL     OW 5524   6.559   6.997   2.037
 1542SOL    HW1 5525   6.538   0.028   1.957
 1542SOL    HW2 5526   6.491   7.015   2.108
 1543SOL     OW 5527   3.432   5.736   6.608
 1543SOL    HW1 5528   3.446   5.835   6.604
 1543SOL    HW2 5529   3.421   5.701   6.515
 1544SOL     OW 5530   3.564   3.723   4.002
 1544SOL    HW1 5531   3.573   3.674   4.088
 1544SOL    HW2 5532   3.651   3.721   3.952
 1545SOL     OW 5533   6.314   0.763   2.172
 1545SOL    HW1 5534   6.343   0.740   2.079
 1545SOL    HW2 5535   6.306   0.679   2.226
 1546SOL     OW 5536   5.090   6.204   6.211
 1546SOL    HW1 5537   5.110   6.300   6.192
 1546SOL    HW2 5538   5.142   6.175   6.292
 1547SOL     OW 5539   1.674   3.972   0.933
 1547SOL    HW1 5540   1.690   4.017   0.846
 1547SOL    HW2 5541   1.578   3.946   0.940
 1548SOL     OW 5542   6.523   3.677   0.436
 1548SOL    HW1 5543   6.576   3.645   0.358
 1548SOL    HW2 5544   6.437   3.717   0.404
 1549SOL     OW 5545   4.094   1.403   3.961
 1549SOL    HW1 5546   4.081   1.423   3.864
 1549SOL    HW2 5547   4.165   1.464   3.999
 1550SOL     OW 5548   3.255   3.016   1.738
 1550SOL    HW1 5549   3.321   3.070   1.790
 1550SOL    HW2 5550   3.224   2.939   1.794
 1551SOL     OW 5551   1.221   5.095   6.918
 1551SOL    HW1 5552   1.249   5.191   6.921
 1551SOL    HW2 5553   1.224   5.061   6.824
 1552SOL     OW 5554   2.532   4.639   0.901
 1552SOL    HW1 5555   2.600   4.704   0.867
 1552SOL    HW2 5556   2.565   4.596   0.985
 1553SOL     OW 5557   0.218   1.063   6.065
 1553SOL    HW1 5558   0.241   1.067   6.162
 1553SOL    HW2 5559   0.118   1.062   6.055
 1554SOL     OW 5560   3.049   2.122   3.783
 1554SOL    HW1 5561   3.013   2.030   3.794
 1554SOL    HW2 5562   3.125   2.136   3.847
 1555SOL     OW 5563   5.867   2.844   6.406
 1555SOL    HW1 5564   5.821   2.876   6.489
 1555SOL    HW2 5565   5.835   2.898   6.328
 1556SOL     OW 5566   1.572   0.899   5.937
 1556SOL    HW1 5567   1.615   0.813   5.966
 1556SOL    HW2 5568   1.485   0.879   5.892
 1557SOL     OW 5569   1.909   4.014   6.039
 1557SOL    HW1 5570   1.867   4.039   5.952
 1557SOL    HW2 5571   1.948   3.922   6.032
 1558SOL     OW 5572   5.990   0.492   4.528
 1558SOL    HW1 5573   6.017   0.410   4.479
 1558SOL    HW2 5574   5.905   0.475   4.578
 1559SOL     OW 5575   1.266   3.255   6.648
 1559SOL    HW1 5576   1.298   3.320   6.579
 1559SOL    HW2 5577   1.262   3.163   6.608
 1560SOL     OW 5578   0.182   1.202   6.848
 1560SOL    HW1 5579   0.112   1.141   6.810
 1560SOL    HW2 5580   0.143   1.292   6.864
 1561SOL     OW 5581   4.492   6.194   3.156
 1561SOL    HW1 5582   4.493   6.142   3.242
 1561SOL    HW2 5583   4.543   6.144   3.086
 1562SOL     OW 5584   4.580   6.250   2.202
 1562SOL    HW1 5585   4.492   6.283   2.167
 1562SOL    HW2 5586   4.645   6.326   2.203
 1563SOL     OW 5587   3.402   0.587   5.972
 1563SOL    HW1 5588   3.456   0.655   5.923
 1563SOL    HW2 5589   3.407   0.605   6.070
 1564SOL     OW 5590   1.677   0.405   2.898
 1564SOL    HW1 5591   1.604   0.408   2.830
 1564SOL    HW2 5592   1.663   0.326   2.959
 1565SOL     OW 5593   4.808   4.378   2.494
 1565SOL    HW1 5594   4.901   4.371   2.457
 1565SOL    HW2 5595   4.751   4.306   2.455
 1566SOL     OW 5596   5.432   3.496   3.458
 1566SOL    HW1 5597   5.396   3.545   3.537
 1566SOL    HW2 5598   5.489   3.557   3.403
 1567SOL     OW 5599   5.937   6.189   0.074
 1567SOL    HW1 5600   5.887   6.274   0.093
 1567SOL    HW2 5601   6.035   6.205   0.087
 1568SOL     OW 5602   1.954   0.466   0.406
 1568SOL    HW1 5603   1.876   0.404   0.392
 1568SOL    HW2 5604   1.997   0.486   0.318
 1569SOL     OW 5605   4.740   5.923   3.767
 1569SOL    HW1 5606   4.655   5.972   3.751
 1569SOL    HW2 5607   4.720   5.835   3.810
 1570SOL     OW 5608   2.620   1.101   1.443
 1570SOL    HW1 5609   2.590   1.188   1.482
 1570SOL    HW2 5610   2.709   1.113   1.400
 1571SOL     OW 5611   6.368   3.393   0.770
 1571SOL    HW1 5612   6.327   3.442   0.847
 1571SOL    HW2 5613   6.329   3.302   0.763
 1572SOL     OW 5614   0.038   0.485   2.973
 1572SOL    HW1 5615   6.976   0.507   3.017
 1572SOL    HW2 5616   0.035   0.391   2.939
 1573SOL     OW 5617   5.296   7.020   1.799
 1573SOL    HW1 5618   5.393   0.016   1.811
 1573SOL    HW2 5619   5.256   6.992   1.886
 1574SOL     OW 5620   0.676   2.089   1.167
 1574SOL    HW1 5621   0.614   2.011   1.171
 1574SOL    HW2 5622   0.758   2.070   1.221
 1575SOL     OW 5623   2.873   2.358   0.475
 1575SOL    HW1 5624   2.822   2.288   0.424
 1575SOL    HW2 5625   2.809   2.413   0.528
 1576SOL     OW 5626   5.627   5.727   3.878
 1576SOL    HW1 5627   5.541   5.675   3.877
 1576SOL    HW2 5628   5.657   5.745   3.785
 1577SOL     OW 5629   2.518   1.674   5.338
 1577SOL    HW1 5630   2.552   1.620   5.416
 1577SOL    HW2 5631   2.442   1.626   5.295
 1578SOL     OW 5632   5.837   3.027   5.358
 1578SOL    HW1 5633   5.908   3.093   5.380
 1578SOL    HW2 5634   5.757   3.042   5.417
 1579SOL     OW 5635   0.142   1.447   3.494
 1579SOL    HW1 5636   0.137   1.433   3.395
 1579SOL    HW2 5637   0.237   1.466   3.519
 1580SOL     OW 5638   2.715   4.150   5.349
 1580SOL    HW1 5639   2.672   4.069   5.309
 1580SOL    HW2 5640   2.814   4.137   5.354
 1581SOL     OW 5641   6.137   4.698   4.214
 1581SOL    HW1 5642   6.116   4.772   4.150
 1581SOL    HW2 5643   6.055   4.643   4.230
 1582SOL     OW 5644   0.788   4.982   4.648
 1582SOL    HW1 5645   0.748   4.961   4.559
 1582SOL    HW2 5646   0.790   4.900   4.705
 1583SOL     OW 5647   2.318   2.831   3.720
 1583SOL    HW1 5648   2.318   2.734   3.699
 1583SOL    HW2 5649   2.290   2.844   3.815
 1584SOL     OW 5650   2.380   6.435   5.245
 1584SOL    HW1 5651   2.392   6.509   5.311
 1584SOL    HW2 5652   2.334   6.358   5.289
 1585SOL     OW 5653   5.356   2.273   3.303
 1585SOL    HW1 5654   5.262   2.289   3.333
 1585SOL    HW2 5655   5.390   2.353   3.253
 1586SOL     OW 5656   4.059   3.905   1.867
 1586SOL    HW1 5657   4.149   3.889   1.826
 1586SOL    HW2 5658   4.061   3.879   1.964
 1587SOL     OW 5659   2.466   5.908   6.596
 1587SOL    HW1 5660   2.497   5.926   6.503
 1587SOL    HW2 5661   2.511   5.970   6.660
 1588SOL     OW 5662   5.058   1.354   3.059
 1588SOL    HW1 5663   5.143   1.303   3.050
 1588SOL    HW2 5664   5.031   1.357   3.156
 1589SOL     OW 5665   5.529   3.860   3.514
 1589SOL    HW1 5666   5.614   3.818   3.481
 1589SOL    HW2 5667   5.538   3.960   3.512
 1590SOL     OW 5668   1.742   6.571   6.987
 1590SOL    HW1 5669   1.816   6.635   6.964
 1590SOL    HW2 5670   1.750   6.490   6.929
 1591SOL     OW 5671   1.003   4.644   2.387
 1591SOL    HW1 5672   0.957   4.564   2.424
 1591SOL    HW2 5673   0.995   4.720   2.452
 1592SOL     OW 5674   3.115   2.955   1.503
 1592SOL    HW1 5675   3.196   2.965   1.561
 1592SOL    HW2 5676   3.140   2.975   1.408
 1593SOL     OW 5677   0.992   6.120   5.082
 1593SOL    HW1 5678   0.970   6.032   5.124
 1593SOL    HW2 5679   1.062   6.167   5.137
 1594SOL     OW 5680   7.022   5.136   3.136
 1594SOL    HW1 5681   0.052   5.100   3.061
 1594SOL    HW2 5682   0.055   5.151   3.216
 1595SOL     OW 5683   0.347   4.761   6.874
 1595SOL    HW1 5684   0.253   4.779   6.902
 1595SOL    HW2 5685   0.404   4.841   6.893
 1596SOL     OW 5686   1.832   4.197   5.417
 1596SOL    HW1 5687   1.852   4.157   5.328
 1596SOL    HW2 5688   1.917   4.210   5.468
 1597SOL     OW 5689   2.179   6.270   1.271
 1597SOL    HW1 5690   2.127   6.356   1.278
 1597SOL    HW2 5691   2.234   6.258   1.354
 1598SOL     OW 5692   1.157   4.190   0.341
 1598SOL    HW1 5693   1.077   4.167   0.397
 1598SOL    HW2 5694   1.130   4.194   0.245
 1599SOL     OW 5695   4.027   4.252   6.770
 1599SOL    HW1 5696   3.958   4.218   6.706
 1599SOL    HW2 5697   3.986   4.263   6.860
 1600SOL     OW 5698   5.464   1.661   5.084
 1600SOL    HW1 5699   5.420   1.749   5.069
 1600SOL    HW2 5700   5.402   1.602   5.137
 1601SOL     OW 5701   2.126   4.614   4.442
 1601SOL    HW1 5702   2.106   4.539   4.505
 1601SOL    HW2 5703   2.212   4.594   4.393
 1602SOL     OW 5704   1.485   5.915   3.286
 1602SOL    HW1 5705   1.481   5.821   3.318
 1602SOL    HW2 5706   1.555   5.924   3.215
 1603SOL     OW 5707   1.233   6.656   1.817
 1603SOL    HW1 5708   1.158   6.590   1.812
 1603SOL    HW2 5709   1.224   6.710   1.900
 1604SOL     OW 5710   6.007   5.386   6.677
 1604SOL    HW1 5711   6.101   5.378   6.646
 1604SOL    HW2 5712   5.962   5.297   6.673
 1605SOL     OW 5713   6.499   0.419   2.818
 1605SOL    HW1 5714   6.445   0.345   2.858
 1605SOL    HW2 5715   6.475   0.429   2.722
 1606SOL     OW 5716   4.560   0.041   5.886
 1606SOL    HW1 5717   4.593   0.136   5.893
 1606SOL    HW2 5718   4.461   0.041   5.879
 1607SOL     OW 5719   4.042   2.468   0.547
 1607SOL    HW1 5720   3.983   2.469   0.628
 1607SOL    HW2 5721   4.020   2.389   0.490
 1608SOL     OW 5722   1.859   0.013   6.831
 1608SOL    HW1 5723   1.951   0.052   6.819
 1608SOL    HW2 5724   1.866   6.950   6.877
 1609SOL     OW 5725   6.499   2.432   6.332
 1609SOL    HW1 5726   6.529   2.443   6.237
 1609SOL    HW2 5727   6.464   2.339   6.345
 1610SOL     OW 5728   5.472   4.886   4.866
 1610SOL    HW1 5729   5.462   4.966   4.806
 1610SOL    HW2 5730   5.382   4.855   4.897
 1611SOL     OW 5731   3.728   2.846   2.048
 1611SOL    HW1 5732   3.808   2.828   1.991
 1611SOL    HW2 5733   3.646   2.846   1.991
 1612SOL     OW 5734   2.292   1.964   5.233
 1612SOL    HW1 5735   2.252   1.994   5.147
 1612SOL    HW2 5736   2.372   2.020   5.254
 1613SOL     OW 5737   2.023   6.446   0.631
 1613SOL    HW1 5738   2.115   6.405   0.630
 1613SOL    HW2 5739   1.955   6.374   0.642
 1614SOL     OW 5740   6.610   2.782   6.975
 1614SOL    HW1 5741   6.606   2.733   6.888
 1614SOL    HW2 5742   6.672   2.734   0.012
 1615SOL     OW 5743   7.017   4.618   6.875
 1615SOL    HW1 5744   6.961   4.634   6.794
 1615SOL    HW2 5745   6.959   4.584   6.949
 1616SOL     OW 5746   4.592   2.283   6.351
 1616SOL    HW1 5747   4.531   2.225   6.406
 1616SOL    HW2 5748   4.544   2.313   6.269
 1617SOL     OW 5749   6.336   0.956   2.647
 1617SOL    HW1 5750   6.333   0.970   2.548
 1617SOL    HW2 5751   6.431   0.945   2.676
 1618SOL     OW 5752   6.857   3.349   1.668
 1618SOL    HW1 5753   6.836   3.369   1.572
 1618SOL    HW2 5754   6.889   3.433   1.713
 1619SOL     OW 5755   0.543   3.718   4.108
 1619SOL    HW1 5756   0.557   3.810   4.145
 1619SOL    HW2 5757   0.591   3.711   4.020
 1620SOL     OW 5758   1.656   6.038   1.148
 1620SOL    HW1 5759   1.564   6.052   1.114
 1620SOL    HW2 5760   1.652   5.991   1.237
 1621SOL     OW 5761   0.751   0.579   6.938
 1621SOL    HW1 5762   0.660   0.566   6.975
 1621SOL    HW2 5763   0.756   0.541   6.846
 1622SOL     OW 5764   1.708   2.349   4.253
 1622SOL    HW1 5765   1.682   2.444   4.237
 1622SOL    HW2 5766   1.782   2.324   4.190
 1623SOL     OW 5767   2.483   3.129   6.456
 1623SOL    HW1 5768   2.465   3.156   6.362
 1623SOL    HW2 5769   2.512   3.208   6.510
 1624SOL     OW 5770   2.920   0.891   6.205
 1624SOL    HW1 5771   2.865   0.807   6.211
 1624SOL    HW2 5772   3.007   0.870   6.160
 1625SOL     OW 5773   0.380   4.603   1.931
 1625SOL    HW1 5774   0.307   4.536   1.925
 1625SOL    HW2 5775   0.400   4.622   2.027
 1626SOL     OW 5776   2.530   2.778   6.801
 1626SOL    HW1 5777   2.440   2.815   6.777
 1626SOL    HW2 5778   2.569   2.830   6.877
 1627SOL     OW 5779   6.273   2.187   3.585
 1627SOL    HW1 5780   6.211   2.118   3.622
 1627SOL    HW2 5781   6.259   2.273   3.633
 1628SOL     OW 5782   3.287   4.974   1.197
 1628SOL    HW1 5783   3.188   4.987   1.188
 1628SOL    HW2 5784   3.306   4.878   1.217
 1629SOL     OW 5785   3.267   2.114   4.686
 1629SOL    HW1 5786   3.247   2.093   4.590
 1629SOL    HW2 5787   3.365   2.133   4.696
 1630SOL     OW 5788   0.551   5.265   5.403
 1630SOL    HW1 5789   0.489   5.255   5.325
 1630SOL    HW2 5790   0.541   5.356   5.442
 1631SOL     OW 5791   6.987   0.223   5.965
 1631SOL    HW1 5792   6.986   0.293   5.892
 1631SOL    HW2 5793   6.910   0.239   6.027
 1632SOL     OW 5794   0.663   1.040   6.895
 1632SOL    HW1 5795   0.700   0.978   6.964
 1632SOL    HW2 5796   0.707   1.129   6.903
 1633SOL     OW 5797   5.542   2.391   2.726
 1633SOL    HW1 5798   5.582   2.301   2.706
 1633SOL    HW2 5799   5.506   2.431   2.642
 1634SOL     OW 5800   3.361   5.518   6.786
 1634SOL    HW1 5801   3.271   5.485   6.814
 1634SOL    HW2 5802   3.349   5.587   6.714
 1635SOL     OW 5803   6.889   5.440   4.527
 1635SOL    HW1 5804   6.838   5.355   4.536
 1635SOL    HW2 5805   6.976   5.432   4.576
 1636SOL     OW 5806   2.655   5.201   1.302
 1636SOL    HW1 5807   2.660   5.188   1.401
 1636SOL    HW2 5808   2.627   5.116   1.258
 1637SOL     OW 5809   7.005   2.914   2.420
 1637SOL    HW1 5810   6.946   2.972   2.363
 1637SOL    HW2 5811   0.071   2.910   2.380
 1638SOL     OW 5812   0.141   3.319   3.583
 1638SOL    HW1 5813   0.174   3.252   3.650
 1638SOL    HW2 5814   0.053   3.290   3.547
 1639SOL     OW 5815   5.205   5.582   2.776
 1639SOL    HW1 5816   5.283   5.520   2.780
 1639SOL    HW2 5817   5.205   5.639   2.858
 1640SOL     OW 5818   6.023   1.988   0.637
 1640SOL    HW1 5819   6.021   2.048   0.717
 1640SOL    HW2 5820   5.950   2.014   0.574
 1641SOL     OW 5821   5.601   2.693   3.647
 1641SOL    HW1 5822   5.656   2.658   3.723
 1641SOL    HW2 5823   5.504   2.693   3.673
 1642SOL     OW 5824   6.608   2.964   0.162
 1642SOL    HW1 5825   6.664   2.913   0.228
 1642SOL    HW2 5826   6.612   2.918   0.074
 1643SOL     OW 5827   3.806   6.487   5.074
 1643SOL    HW1 5828   3.838   6.563   5.017
 1643SOL    HW2 5829   3.845   6.401   5.041
 1644SOL     OW 5830   3.550   1.564   1.391
 1644SOL    HW1 5831   3.485   1.626   1.434
 1644SOL    HW2 5832   3.613   1.616   1.333
 1645SOL     OW 5833   2.844   5.992   5.818
 1645SOL    HW1 5834   2.917   6.013   5.883
 1645SOL    HW2 5835   2.813   5.898   5.833
 1646SOL     OW 5836   2.267   5.143   1.152
 1646SOL    HW1 5837   2.258   5.224   1.094
 1646SOL    HW2 5838   2.348   5.091   1.125
 1647SOL     OW 5839   5.925   2.421   3.253
 1647SOL    HW1 5840   6.024   2.428   3.269
 1647SOL    HW2 5841   5.905   2.439   3.157
 1648SOL     OW 5842   5.487   6.931   2.114
 1648SOL    HW1 5843   5.586   6.945   2.111
 1648SOL    HW2 5844   5.462   6.854   2.055
 1649SOL     OW 5845   3.022   0.639   2.881
 1649SOL    HW1 5846   3.038   0.623   2.783
 1649SOL    HW2 5847   2.935   0.598   2.908
 1650SOL     OW 5848   2.965   0.426   4.039
 1650SOL    HW1 5849   2.928   0.337   4.067
 1650SOL    HW2 5850   2.954   0.492   4.113
 1651SOL     OW 5851   0.363   0.307   0.191
 1651SOL    HW1 5852   0.304   0.338   0.265
 1651SOL    HW2 5853   0.412   0.385   0.151
 1652SOL     OW 5854   2.758   2.222   0.796
 1652SOL    HW1 5855   2.702   2.156   0.746
 1652SOL    HW2 5856   2.852   2.187   0.804
 1653SOL     OW 5857   6.855   5.527   0.858
 1653SOL    HW1 5858   6.847   5.439   0.810
 1653SOL    HW2 5859   6.806   5.597   0.807
 1654SOL     OW 5860   6.641   3.165   3.064
 1654SOL    HW1 5861   6.629   3.151   2.966
 1654SOL    HW2 5862   6.582   3.102   3.115
 1655SOL     OW 5863   5.576   4.480   6.069
 1655SOL    HW1 5864   5.585   4.579   6.070
 1655SOL    HW2 5865   5.661   4.438   6.102
 1656SOL     OW 5866   1.136   4.682   3.529
 1656SOL    HW1 5867   1.222   4.633   3.519
 1656SOL    HW2 5868   1.143   4.772   3.487
 1657SOL     OW 5869   1.364   0.890   5.449
 1657SOL    HW1 5870   1.345   0.986   5.468
 1657SOL    HW2 5871   1.460   0.870   5.466
 1658SOL     OW 5872   5.963   6.412   3.130
 1658SOL    HW1 5873   6.037   6.445   3.188
 1658SOL    HW2 5874   5.927   6.326   3.167
 1659SOL     OW 5875   3.721   2.122   6.733
 1659SOL    HW1 5876   3.683   2.045   6.785
 1659SOL    HW2 5877   3.807   2.094   6.692
 1660SOL     OW 5878   0.675   5.569   3.531
 1660SOL    HW1 5879   0.679   5.523   3.442
 1660SOL    HW2 5880   0.746   5.533   3.591
 1661SOL     OW 5881   3.467   1.723   2.817
 1661SOL    HW1 5882   3.392   1.743   2.754
 1661SOL    HW2 5883   3.521   1.806   2.831
 1662SOL     OW 5884   6.661   2.317   3.330
 1662SOL    HW1 5885   6.736   2.290   3.390
 1662SOL    HW2 5886   6.668   2.268   3.243
 1663SOL     OW 5887   3.040   6.639   3.183
 1663SOL    HW1 5888   2.959   6.651   3.241
 1663SOL    HW2 5889   3.122   6.639   3.240
 1664SOL     OW 5890   1.760   0.452   4.409
 1664SOL    HW1 5891   1.860   0.451   4.409
 1664SOL    HW2 5892   1.727   0.427   4.501
 1665SOL     OW 5893   1.152   1.625   2.466
 1665SOL    HW1 5894   1.245   1.656   2.485
 1665SOL    HW2 5895   1.139   1.534   2.506
 1666SOL     OW 5896   5.922   2.401   6.277
 1666SOL    HW1 5897   5.950   2.495   6.259
 1666SOL    HW2 5898   5.979   2.338   6.224
 1667SOL     OW 5899   6.176   6.572   6.722
 1667SOL    HW1 5900   6.133   6.653   6.764
 1667SOL    HW2 5901   6.175   6.582   6.623
 1668SOL     OW 5902   4.560   0.145   4.414
 1668SOL    HW1 5903   4.654   0.156   4.382
 1668SOL    HW2 5904   4.561   0.098   4.502
 1669SOL     OW 5905   5.781   6.407   6.777
 1669SOL    HW1 5906   5.862   6.403   6.836
 1669SOL    HW2 5907   5.777   6.324   6.721
 1670SOL     OW 5908   6.144   5.089   5.789
 1670SOL    HW1 5909   6.102   5.000   5.806
 1670SOL    HW2 5910   6.185   5.090   5.698
 1671SOL     OW 5911   4.478   3.399   0.820
 1671SOL    HW1 5912   4.577   3.389   0.813
 1671SOL    HW2 5913   4.436   3.310   0.836
 1672SOL     OW 5914   2.189   4.027   2.696
 1672SOL    HW1 5915   2.182   3.935   2.732
 1672SOL    HW2 5916   2.253   4.029   2.620
 1673SOL     OW 5917   6.390   3.333   4.726
 1673SOL    HW1 5918   6.372   3.240   4.759
 1673SOL    HW2 5919   6.485   3.357   4.746
 1674SOL     OW 5920   1.118   4.050   0.715
 1674SOL    HW1 5921   1.109   3.987   0.638
 1674SOL    HW2 5922   1.107   4.144   0.682
 1675SOL     OW 5923   4.885   1.021   6.789
 1675SOL    HW1 5924   4.938   0.954   6.736
 1675SOL    HW2 5925   4.805   0.975   6.829
 1676SOL     OW 5926   2.583   1.352   2.539
 1676SOL    HW1 5927   2.566   1.426   2.475
 1676SOL    HW2 5928   2.582   1.387   2.633
 1677SOL     OW 5929   5.972   1.605   5.568
 1677SOL    HW1 5930   5.905   1.574   5.501
 1677SOL    HW2 5931   5.925   1.624   5.654
 1678SOL     OW 5932   5.420   5.786   2.558
 1678SOL    HW1 5933   5.342   5.724   2.567
 1678SOL    HW2 5934   5.459   5.804   2.648
 1679SOL     OW 5935   1.035   3.295   5.591
 1679SOL    HW1 5936   1.109   3.342   5.543
 1679SOL    HW2 5937   0.968   3.362   5.623
 1680SOL     OW 5938   0.695   1.422   3.942
 1680SOL    HW1 5939   0.782   1.373   3.944
 1680SOL    HW2 5940   0.693   1.490   4.015
 1681SOL     OW 5941   6.307   5.324   1.006
 1681SOL    HW1 5942   6.261   5.361   1.087
 1681SOL    HW2 5943   6.247   5.333   0.927
 1682SOL     OW 5944   0.223   2.999   4.877
 1682SOL    HW1 5945   0.298   2.976   4.815
 1682SOL    HW2 5946   0.161   3.063   4.832
 1683SOL     OW 5947   4.663   5.202   1.320
 1683SOL    HW1 5948   4.728   5.275   1.340
 1683SOL    HW2 5949   4.636   5.157   1.405
 1684SOL     OW 5950   0.570   6.827   4.894
 1684SOL    HW1 5951   0.609   6.882   4.820
 1684SOL    HW2 5952   0.489   6.872   4.931
 1685SOL     OW 5953   1.874   1.456   6.683
 1685SOL    HW1 5954   1.892   1.504   6.597
 1685SOL    HW2 5955   1.956   1.460   6.740
 1686SOL     OW 5956   1.339   5.565   5.094
 1686SOL    HW1 5957   1.393   5.567   5.010
 1686SOL    HW2 5958   1.393   5.528   5.169
 1687SOL     OW 5959   1.819   4.423   2.579
 1687SOL    HW1 5960   1.794   4.518   2.598
 1687SOL    HW2 5961   1.862   4.383   2.660
 1688SOL     OW 5962   1.424   1.468   3.139
 1688SOL    HW1 5963   1.358   1.505   3.074
 1688SOL    HW2 5964   1.503   1.529   3.145
 1689SOL     OW 5965   3.091   2.055   2.197
 1689SOL    HW1 5966   3.148   2.001   2.259
 1689SOL    HW2 5967   3.141   2.074   2.113
 1690SOL     OW 5968   1.910   1.702   2.051
 1690SOL    HW1 5969   1.884   1.657   1.966
 1690SOL    HW2 5970   1.837   1.764   2.080
 1691SOL     OW 5971   5.196   3.686   3.164
 1691SOL    HW1 5972   5.122   3.738   3.120
 1691SOL    HW2 5973   5.235   3.739   3.238
 1692SOL     OW 5974   0.424   0.183   1.619
 1692SOL    HW1 5975   0.475   0.129   1.686
 1692SOL    HW2 5976   0.427   0.279   1.645
 1693SOL     OW 5977   2.202   2.908   3.332
 1693SOL    HW1 5978   2.131   2.846   3.365
 1693SOL    HW2 5979   2.263   2.858   3.270
 1694SOL     OW 5980   4.178   5.467   4.921
 1694SOL    HW1 5981   4.191   5.394   4.854
 1694SOL    HW2 5982   4.243   5.455   4.996
 1695SOL     OW 5983   2.133   2.320   5.620
 1695SOL    HW1 5984   2.076   2.250   5.663
 1695SOL    HW2 5985   2.206   2.276   5.567
 1696SOL     OW 5986   5.020   5.657   0.503
 1696SOL    HW1 5987   5.034   5.649   0.404
 1696SOL    HW2 5988   5.105   5.685   0.547
 1697SOL     OW 5989   1.098   0.044   1.344
 1697SOL    HW1 5990   1.070   6.986   1.296
 1697SOL    HW2 5991   1.185   0.076   1.308
 1698SOL     OW 5992   4.952   2.075   1.971
 1698SOL    HW1 5993   5.013   2.050   2.045
 1698SOL    HW2 5994   4.857   2.064   2.000
 1699SOL     OW 5995   2.459   3.062   1.080
 1699SOL    HW1 5996   2.520   2.998   1.032
 1699SOL    HW2 5997   2.473   3.054   1.179
 1700SOL     OW 5998   6.511   2.297   2.813
 1700SOL    HW1 5999   6.527   2.198   2.812
 1700SOL    HW2 6000   6.481   2.326   2.723
 1701SOL     OW 6001   5.369   2.467   4.890
 1701SOL    HW1 6002   5.275   2.501   4.888
 1701SOL    HW2 6003   5.369   2.372   4.922
 1702SOL     OW 6004   6.028   3.665   1.363
 1702SOL    HW1 6005   5.954   3.598   1.362
 1702SOL    HW2 6006   6.092   3.645   1.437
 1703SOL     OW 6007   2.804   3.958   1.665
 1703SOL    HW1 6008   2.833   4.045   1.705
 1703SOL    HW2 6009   2.877   3.891   1.676
 1704SOL     OW 6010   0.429   1.401   0.871
 1704SOL    HW1 6011   0.409   1.394   0.969
 1704SOL    HW2 6012   0.351   1.368   0.819
 1705SOL     OW 6013   3.772   2.256   1.208
 1705SOL    HW1 6014   3.742   2.350   1.228
 1705SOL    HW2 6015   3.704   2.212   1.150
 1706SOL     OW 6016   4.092   0.581   0.708
 1706SOL    HW1 6017   4.123   0.672   0.733
 1706SOL    HW2 6018   4.138   0.513   0.766
 1707SOL     OW 6019   4.641   1.923   2.448
 1707SOL    HW1 6020   4.709   1.864   2.492
 1707SOL    HW2 6021   4.601   1.984   2.517
 1708SOL     OW 6022   6.712   6.146   2.846
 1708SOL    HW1 6023   6.753   6.115   2.761
 1708SOL    HW2 6024   6.720   6.245   2.853
 1709SOL     OW 6025   2.404   6.996   2.133
 1709SOL    HW1 6026   2.345   6.915   2.130
 1709SOL    HW2 6027   2.415   7.024   2.229
 1710SOL     OW 6028   0.347   4.316   3.617
 1710SOL    HW1 6029   0.442   4.309   3.650
 1710SOL    HW2 6030   0.320   4.229   3.577
 1711SOL     OW 6031   1.398   4.542   5.225
 1711SOL    HW1 6032   1.434   4.596   5.148
 1711SOL    HW2 6033   1.461   4.467   5.245
 1712SOL     OW 6034   0.913   4.070   0.456
 1712SOL    HW1 6035   0.958   3.984   0.478
 1712SOL    HW2 6036   0.860   4.101   0.535
 1713SOL     OW 6037   1.847   2.459   1.481
 1713SOL    HW1 6038   1.869   2.547   1.438
 1713SOL    HW2 6039   1.926   2.425   1.530
 1714SOL     OW 6040   4.080   1.723   6.541
 1714SOL    HW1 6041   4.094   1.732   6.443
 1714SOL    HW2 6042   4.151   1.664   6.579
 1715SOL     OW 6043   0.519   3.087   2.958
 1715SOL    HW1 6044   0.575   3.164   2.929
 1715SOL    HW2 6045   0.431   3.089   2.910
 1716SOL     OW 6046   6.058   0.212   1.310
 1716SOL    HW1 6047   6.093   0.304   1.297
 1716SOL    HW2 6048   5.981   0.196   1.248
 1717SOL     OW 6049   2.351   6.182   0.360
 1717SOL    HW1 6050   2.357   6.097   0.308
 1717SOL    HW2 6051   2.443   6.209   0.390
 1718SOL     OW 6052   2.265   3.771   6.921
 1718SOL    HW1 6053   2.169   3.793   6.904
 1718SOL    HW2 6054   2.309   3.849   6.966
 1719SOL     OW 6055   2.304   3.188   1.379
 1719SOL    HW1 6056   2.388   3.135   1.395
 1719SOL    HW2 6057   2.327   3.271   1.328
 1720SOL     OW 6058   6.827   1.569   0.888
 1720SOL    HW1 6059   6.772   1.541   0.810
 1720SOL    HW2 6060   6.822   1.669   0.899
 1721SOL     OW 6061   1.631   6.484   3.216
 1721SOL    HW1 6062   1.727   6.475   3.242
 1721SOL    HW2 6063   1.584   6.398   3.233
 1722SOL     OW 6064   5.762   0.477   2.146
 1722SOL    HW1 6065   5.769   0.568   2.106
 1722SOL    HW2 6066   5.667   0.460   2.172
 1723SOL     OW 6067   6.385   2.013   2.919
 1723SOL    HW1 6068   6.442   1.945   2.873
 1723SOL    HW2 6069   6.289   1.993   2.904
 1724SOL     OW 6070   5.804   0.788   0.391
 1724SOL    HW1 6071   5.770   0.840   0.469
 1724SOL    HW2 6072   5.785   0.837   0.306
 1725SOL     OW 6073   3.638   4.557   0.714
 1725SOL    HW1 6074   3.540   4.535   0.709
 1725SOL    HW2 6075   3.650   4.642   0.765
 1726SOL     OW 6076   6.467   4.450   4.437
 1726SOL    HW1 6077   6.495   4.432   4.531
 1726SOL    HW2 6078   6.419   4.538   4.432
 1727SOL     OW 6079   3.855   3.590   4.998
 1727SOL    HW1 6080   3.914   3.611   4.920
 1727SOL    HW2 6081   3.839   3.674   5.050
 1728SOL     OW 6082   4.965   4.456   4.365
 1728SOL    HW1 6083   5.004   4.474   4.455
 1728SOL    HW2 6084   4.972   4.359   4.344
 1729SOL     OW 6085   1.294   3.800   3.386
 1729SOL    HW1 6086   1.355   3.757   3.452
 1729SOL    HW2 6087   1.307   3.899   3.386
 1730SOL     OW 6088   6.531   1.234   4.647
 1730SOL    HW1 6089   6.511   1.147   4.693
 1730SOL    HW2 6090   6.610   1.277   4.690
 1731SOL     OW 6091   2.330   5.033   1.573
 1731SOL    HW1 6092   2.259   4.986   1.520
 1731SOL    HW2 6093   2.332   4.996   1.666
 1732SOL     OW 6094   1.913   4.937   7.019
 1732SOL    HW1 6095   1.934   4.926   0.090
 1732SOL    HW2 6096   1.976   5.004   6.979
 1733SOL     OW 6097   1.207   4.069   2.052
 1733SOL    HW1 6098   1.233   4.073   2.149
 1733SOL    HW2 6099   1.270   4.125   1.999
 1734SOL     OW 6100   4.403   3.132   0.857
 1734SOL    HW1 6101   4.459   3.117   0.938
 1734SOL    HW2 6102   4.324   3.070   0.859
 1735SOL     OW 6103   6.156   5.519   1.762
 1735SOL    HW1 6104   6.078   5.456   1.763
 1735SOL    HW2 6105   6.123   5.612   1.775
 1736SOL     OW 6106   4.076   3.135   0.103
 1736SOL    HW1 6107   4.019   3.217   0.104
 1736SOL    HW2 6108   4.166   3.156   0.140
 1737SOL     OW 6109   2.288   0.510   3.979
 1737SOL    HW1 6110   2.303   0.416   3.948
 1737SOL    HW2 6111   2.369   0.565   3.957
 1738SOL     OW 6112   2.011   2.839   2.429
 1738SOL    HW1 6113   1.940   2.819   2.362
 1738SOL    HW2 6114   2.088   2.884   2.383
 1739SOL     OW 6115   4.399   2.262   4.836
 1739SOL    HW1 6116   4.472   2.315   4.791
 1739SOL    HW2 6117   4.336   2.325   4.882
 1740SOL     OW 6118   0.436   1.218   6.785
 1740SOL    HW1 6119   0.493   1.171   6.852
 1740SOL    HW2 6120   0.342   1.225   6.819
 1741SOL     OW 6121   2.362   0.948   2.485
 1741SOL    HW1 6122   2.332   1.006   2.409
 1741SOL    HW2 6123   2.285   0.930   2.546
 1742SOL     OW 6124   5.243   6.727   5.245
 1742SOL    HW1 6125   5.211   6.632   5.242
 1742SOL    HW2 6126   5.167   6.788   5.266
 1743SOL     OW 6127   2.290   0.896   1.889
 1743SOL    HW1 6128   2.323   0.912   1.796
 1743SOL    HW2 6129   2.193   0.920   1.894
 1744SOL     OW 6130   2.075   0.628   1.376
 1744SOL    HW1 6131   2.156   0.630   1.435
 1744SOL    HW2 6132   2.000   0.677   1.421
 1745SOL     OW 6133   0.192   2.026   3.693
 1745SOL    HW1 6134   0.283   2.055   3.722
 1745SOL    HW2 6135   0.164   1.946   3.746
 1746SOL     OW 6136   3.032   6.324   6.595
 1746SOL    HW1 6137   2.938   6.313   6.628
 1746SOL    HW2 6138   3.079   6.236   6.598
 1747SOL     OW 6139   4.537   0.083   1.906
 1747SOL    HW1 6140   4.498   7.016   1.906
 1747SOL    HW2 6141   4.570   0.105   1.998
 1748SOL     OW 6142   6.185   1.669   3.636
 1748SOL    HW1 6143   6.170   1.585   3.584
 1748SOL    HW2 6144   6.152   1.748   3.584
 1749SOL     OW 6145   4.021   6.633   6.461
 1749SOL    HW1 6146   4.018   6.730   6.486
 1749SOL    HW2 6147   3.928   6.600   6.445
 1750SOL     OW 6148   5.591   1.189   2.948
 1750SOL    HW1 6149   5.662   1.124   2.921
 1750SOL    HW2 6150   5.540   1.218   2.867
 1751SOL     OW 6151   2.368   4.766   4.551
 1751SOL    HW1 6152   2.312   4.735   4.628
 1751SOL    HW2 6153   2.312   4.822   4.490
 1752SOL     OW 6154   6.587   2.048   0.690
 1752SOL    HW1 6155   6.550   2.140   0.699
 1752SOL    HW2 6156   6.511   1.982   0.689
 1753SOL     OW 6157   0.760   6.969   6.492
 1753SOL    HW1 6158   0.818   6.954   6.572
 1753SOL    HW2 6159   0.814   7.015   6.421
 1754SOL     OW 6160   3.696   3.999   0.664
 1754SOL    HW1 6161   3.728   3.966   0.753
 1754SOL    HW2 6162   3.689   3.923   0.600
 1755SOL     OW 6163   5.238   4.449   1.824
 1755SOL    HW1 6164   5.277   4.541   1.829
 1755SOL    HW2 6165   5.148   4.454   1.779
 1756SOL     OW 6166   6.015   4.880   4.037
 1756SOL    HW1 6167   5.927   4.926   4.038
 1756SOL    HW2 6168   6.087   4.945   4.014
 1757SOL     OW 6169   2.441   6.428   4.591
 1757SOL    HW1 6170   2.487   6.349   4.632
 1757SOL    HW2 6171   2.346   6.431   4.621
 1758SOL     OW 6172   3.411   1.706   3.491
 1758SOL    HW1 6173   3.384   1.612   3.469
 1758SOL    HW2 6174   3.341   1.769   3.459
 1759SOL     OW 6175   0.690   4.877   6.178
 1759SOL    HW1 6176   0.735   4.919   6.099
 1759SOL    HW2 6177   0.621   4.939   6.215
 1760SOL     OW 6178   6.333   1.589   1.412
 1760SOL    HW1 6179   6.347   1.670   1.470
 1760SOL    HW2 6180   6.300   1.513   1.468
 1761SOL     OW 6181   6.146   0.805   0.945
 1761SOL    HW1 6182   6.208   0.782   1.020
 1761SOL    HW2 6183   6.199   0.818   0.861
 1762SOL     OW 6184   6.485   2.084   4.881
 1762SOL    HW1 6185   6.492   1.989   4.911
 1762SOL    HW2 6186   6.438   2.138   4.951
 1763SOL     OW 6187   2.130   3.619   4.339
 1763SOL    HW1 6188   2.125   3.719   4.340
 1763SOL    HW2 6189   2.158   3.588   4.248
 1764SOL     OW 6190   1.929   3.561   3.209
 1764SOL    HW1 6191   1.832   3.557   3.232
 1764SOL    HW2 6192   1.940   3.601   3.118
 1765SOL     OW 6193   2.719   1.337   0.183
 1765SOL    HW1 6194   2.814   1.321   0.210
 1765SOL    HW2 6195   2.715   1.412   0.117
 1766SOL     OW 6196   5.343   3.191   5.021
 1766SOL    HW1 6197   5.347   3.174   4.923
 1766SOL    HW2 6198   5.382   3.112   5.070
 1767SOL     OW 6199   5.332   3.738   2.246
 1767SOL    HW1 6200   5.276   3.719   2.327
 1767SOL    HW2 6201   5.386   3.657   2.223
 1768SOL     OW 6202   4.583   0.015   3.922
 1768SOL    HW1 6203   4.630   6.996   3.998
 1768SOL    HW2 6204   4.590   0.115   3.933
 1769SOL     OW 6205   3.997   2.197   4.186
 1769SOL    HW1 6206   4.094   2.223   4.192
 1769SOL    HW2 6207   3.941   2.280   4.188
 1770SOL     OW 6208   1.785   5.569   4.786
 1770SOL    HW1 6209   1.759   5.649   4.732
 1770SOL    HW2 6210   1.882   5.549   4.770
 1771SOL     OW 6211   2.484   5.787   0.046
 1771SOL    HW1 6212   2.478   5.819   6.977
 1771SOL    HW2 6213   2.566   5.825   0.088
 1772SOL     OW 6214   3.729   0.063   3.712
 1772SOL    HW1 6215   3.707   7.010   3.654
 1772SOL    HW2 6216   3.680   0.054   3.799
 1773SOL     OW 6217   2.250   5.306   5.718
 1773SOL    HW1 6218   2.265   5.319   5.816
 1773SOL    HW2 6219   2.237   5.209   5.699
 1774SOL     OW 6220   3.983   5.552   1.910
 1774SOL    HW1 6221   3.885   5.536   1.921
 1774SOL    HW2 6222   4.034   5.503   1.981
 1775SOL     OW 6223   0.751   3.955   2.645
 1775SOL    HW1 6224   0.678   3.887   2.655
 1775SOL    HW2 6225   0.778   3.959   2.549
 1776SOL     OW 6226   4.032   6.071   4.358
 1776SOL    HW1 6227   4.048   6.082   4.456
 1776SOL    HW2 6228   3.946   6.117   4.334
 1777SOL     OW 6229   3.532   5.587   7.006
 1777SOL    HW1 6230   3.451   5.588   6.947
 1777SOL    HW2 6231   3.612   5.616   6.953
 1778SOL     OW 6232   4.671   3.311   5.673
 1778SOL    HW1 6233   4.696   3.215   5.683
 1778SOL    HW2 6234   4.752   3.365   5.653
 1779SOL     OW 6235   3.736   0.347   4.441
 1779SOL    HW1 6236   3.771   0.392   4.359
 1779SOL    HW2 6237   3.805   0.284   4.477
 1780SOL     OW 6238   3.494   2.921   0.226
 1780SOL    HW1 6239   3.555   2.855   0.181
 1780SOL    HW2 6240   3.529   2.940   0.318
 1781SOL     OW 6241   3.754   6.308   2.735
 1781SOL    HW1 6242   3.828   6.366   2.700
 1781SOL    HW2 6243   3.777   6.212   2.720
 1782SOL     OW 6244   2.720   1.879   3.046
 1782SOL    HW1 6245   2.647   1.918   3.102
 1782SOL    HW2 6246   2.792   1.948   3.034
 1783SOL     OW 6247   2.821   5.760   5.990
 1783SOL    HW1 6248   2.757   5.829   6.024
 1783SOL    HW2 6249   2.780   5.711   5.913
 1784SOL     OW 6250   4.706   0.784   6.544
 1784SOL    HW1 6251   4.706   0.709   6.478
 1784SOL    HW2 6252   4.798   0.795   6.583
 1785SOL     OW 6253   5.937   3.683   3.035
 1785SOL    HW1 6254   5.966   3.607   3.093
 1785SOL    HW2 6255   5.933   3.653   2.939
 1786SOL     OW 6256   2.078   2.900   0.050
 1786SOL    HW1 6257   2.101   2.834   7.004
 1786SOL    HW2 6258   2.023   2.974   0.011
 1787SOL     OW 6259   2.747   1.361   5.116
 1787SOL    HW1 6260   2.802   1.399   5.191
 1787SOL    HW2 6261   2.689   1.288   5.152
 1788SOL     OW 6262   2.595   4.240   5.946
 1788SOL    HW1 6263   2.570   4.313   5.882
 1788SOL    HW2 6264   2.641   4.279   6.026
 1789SOL     OW 6265   5.465   2.081   1.802
 1789SOL    HW1 6266   5.508   2.004   1.756
 1789SOL    HW2 6267   5.528   2.159   1.802
 1790SOL     OW 6268   3.800   6.222   3.519
 1790SOL    HW1 6269   3.731   6.202   3.450
 1790SOL    HW2 6270   3.791   6.157   3.595
 1791SOL     OW 6271   6.805   0.836   3.166
 1791SOL    HW1 6272   6.725   0.831   3.226
 1791SOL    HW2 6273   6.848   0.926   3.174
 1792SOL     OW 6274   6.898   3.423   4.855
 1792SOL    HW1 6275   6.993   3.425   4.884
 1792SOL    HW2 6276   6.858   3.333   4.873
 1793SOL     OW 6277   6.142   6.974   3.923
 1793SOL    HW1 6278   6.062   6.933   3.878
 1793SOL    HW2 6279   6.205   7.008   3.854
 1794SOL     OW 6280   5.466   6.082   5.463
 1794SOL    HW1 6281   5.443   6.031   5.380
 1794SOL    HW2 6282   5.418   6.042   5.541
 1795SOL     OW 6283   1.087   2.425   1.092
 1795SOL    HW1 6284   1.150   2.497   1.121
 1795SOL    HW2 6285   0.993   2.454   1.110
 1796SOL     OW 6286   2.708   0.587   5.790
 1796SOL    HW1 6287   2.685   0.537   5.873
 1796SOL    HW2 6288   2.626   0.632   5.755
 1797SOL     OW 6289   1.370   0.025   0.309
 1797SOL    HW1 6290   1.406   0.080   0.233
 1797SOL    HW2 6291   1.411   6.960   0.307
 1798SOL     OW 6292   4.380   2.456   3.775
 1798SOL    HW1 6293   4.332   2.399   3.842
 1798SOL    HW2 6294   4.433   2.526   3.823
 1799SOL     OW 6295   0.019   2.726   4.777
 1799SOL    HW1 6296   0.057   2.771   4.858
 1799SOL    HW2 6297   7.007   2.637   4.803
 1800SOL     OW 6298   4.364   4.503   1.378
 1800SOL    HW1 6299   4.433   4.551   1.433
 1800SOL    HW2 6300   4.374   4.405   1.392
 1801SOL     OW 6301   0.034   0.168   2.224
 1801SOL    HW1 6302   6.989   0.100   2.241
 1801SOL    HW2 6303   0.123   0.129   2.244
 1802SOL     OW 6304   4.957   5.994   4.506
 1802SOL    HW1 6305   5.010   5.911   4.519
 1802SOL    HW2 6306   4.908   5.990   4.419
 1803SOL     OW 6307   0.223   5.577   6.843
 1803SOL    HW1 6308   0.286   5.511   6.802
 1803SOL    HW2 6309   0.182   5.633   6.771
 1804SOL     OW 6310   2.334   4.000   5.385
 1804SOL    HW1 6311   2.399   3.975   5.457
 1804SOL    HW2 6312   2.370   3.971   5.296
 1805SOL     OW 6313   5.407   3.666   5.925
 1805SOL    HW1 6314   5.323   3.672   5.979
 1805SOL    HW2 6315   5.456   3.583   5.949
 1806SOL     OW 6316   0.467   7.023   6.404
 1806SOL    HW1 6317   0.550   7.005   6.456
 1806SOL    HW2 6318   0.405   6.946   6.412
 1807SOL     OW 6319   5.425   2.971   4.559
 1807SOL    HW1 6320   5.475   2.886   4.575
 1807SOL    HW2 6321   5.378   2.967   4.470
 1808SOL     OW 6322   0.542   3.976   5.394
 1808SOL    HW1 6323   0.617   3.912   5.414
 1808SOL    HW2 6324   0.455   3.932   5.414
 1809SOL     OW 6325   2.372   2.439   5.274
 1809SOL    HW1 6326   2.401   2.469   5.365
 1809SOL    HW2 6327   2.453   2.428   5.216
 1810SOL     OW 6328   2.869   0.176   3.864
 1810SOL    HW1 6329   2.803   0.105   3.888
 1810SOL    HW2 6330   2.887   0.172   3.765
 1811SOL     OW 6331   6.141   6.088   3.522
 1811SOL    HW1 6332   6.165   5.991   3.530
 1811SOL    HW2 6333   6.052   6.104   3.564
 1812SOL     OW 6334   4.070   5.695   4.824
 1812SOL    HW1 6335   3.972   5.713   4.829
 1812SOL    HW2 6336   4.091   5.611   4.874
 1813SOL     OW 6337   5.968   4.511   0.327
 1813SOL    HW1 6338   6.062   4.521   0.358
 1813SOL    HW2 6339   5.928   4.428   0.366
 1814SOL     OW 6340   5.230   6.991   2.056
 1814SOL    HW1 6341   5.202   0.032   2.124
 1814SOL    HW2 6342   5.327   6.968   2.070
 1815SOL     OW 6343   0.760   2.217   1.888
 1815SOL    HW1 6344   0.681   2.204   1.948
 1815SOL    HW2 6345   0.753   2.307   1.843
 1816SOL     OW 6346   2.595   3.207   0.683
 1816SOL    HW1 6347   2.525   3.255   0.736
 1816SOL    HW2 6348   2.684   3.250   0.699
 1817SOL     OW 6349   2.592   6.805   2.246
 1817SOL    HW1 6350   2.667   6.816   2.181
 1817SOL    HW2 6351   2.505   6.815   2.199
 1818SOL     OW 6352   1.574   0.175   3.059
 1818SOL    HW1 6353   1.475   0.189   3.069
 1818SOL    HW2 6354   1.592   0.077   3.044
 1819SOL     OW 6355   0.817   4.520   2.061
 1819SOL    HW1 6356   0.909   4.552   2.039
 1819SOL    HW2 6357   0.789   4.451   1.994
 1820SOL     OW 6358   4.196   1.031   2.830
 1820SOL    HW1 6359   4.283   1.039   2.878
 1820SOL    HW2 6360   4.135   1.105   2.858
 1821SOL     OW 6361   1.970   1.577   2.283
 1821SOL    HW1 6362   1.953   1.627   2.198
 1821SOL    HW2 6363   1.954   1.637   2.361
 1822SOL     OW 6364   3.541   2.569   1.225
 1822SOL    HW1 6365   3.614   2.636   1.233
 1822SOL    HW2 6366   3.546   2.503   1.300
 1823SOL     OW 6367   3.590   6.174   3.375
 1823SOL    HW1 6368   3.603   6.116   3.295
 1823SOL    HW2 6369   3.493   6.190   3.390
 1824SOL     OW 6370   4.047   2.638   0.889
 1824SOL    HW1 6371   4.015   2.547   0.863
 1824SOL    HW2 6372   4.021   2.704   0.817
 1825SOL     OW 6373   0.988   0.846   2.113
 1825SOL    HW1 6374   1.028   0.922   2.062
 1825SOL    HW2 6375   1.046   0.765   2.103
 1826SOL     OW 6376   3.048   1.388   1.320
 1826SOL    HW1 6377   3.029   1.485   1.303
 1826SOL    HW2 6378   3.143   1.368   1.295
 1827SOL     OW 6379   0.100   4.885   2.056
 1827SOL    HW1 6380   0.110   4.863   2.153
 1827SOL    HW2 6381   0.166   4.955   2.031
 1828SOL     OW 6382   0.290   2.775   0.271
 1828SOL    HW1 6383   0.341   2.778   0.185
 1828SOL    HW2 6384   0.277   2.868   0.305
 1829SOL     OW 6385   4.731   0.056   3.366
 1829SOL    HW1 6386   4.641   0.015   3.360
 1829SOL    HW2 6387   4.737   0.112   3.448
 1830SOL     OW 6388   5.127   6.415   3.636
 1830SOL    HW1 6389   5.132   6.324   3.677
 1830SOL    HW2 6390   5.217   6.458   3.640
 1831SOL     OW 6391   5.953   6.897   2.756
 1831SOL    HW1 6392   5.984   6.827   2.820
 1831SOL    HW2 6393   5.976   6.869   2.662
 1832SOL     OW 6394   5.208   2.081   1.228
 1832SOL    HW1 6395   5.174   2.105   1.318
 1832SOL    HW2 6396   5.200   1.982   1.214
 1833SOL     OW 6397   5.530   0.038   4.432
 1833SOL    HW1 6398   5.576   0.098   4.497
 1833SOL    HW2 6399   5.433   0.062   4.427
 1834SOL     OW 6400   3.566   4.221   0.593
 1834SOL    HW1 6401   3.593   4.246   0.500
 1834SOL    HW2 6402   3.612   4.136   0.619
 1835SOL     OW 6403   1.119   4.191   1.795
 1835SOL    HW1 6404   1.093   4.095   1.799
 1835SOL    HW2 6405   1.052   4.241   1.739
 1836SOL     OW 6406   6.713   2.071   0.923
 1836SOL    HW1 6407   6.672   2.151   0.965
 1836SOL    HW2 6408   6.678   2.060   0.830
 1837SOL     OW 6409   0.438   1.885   4.052
 1837SOL    HW1 6410   0.525   1.892   4.101
 1837SOL    HW2 6411   0.392   1.800   4.080
 1838SOL     OW 6412   0.501   2.075   3.819
 1838SOL    HW1 6413   0.562   2.148   3.785
 1838SOL    HW2 6414   0.434   2.115   3.881
 1839SOL     OW 6415   5.113   2.536   4.960
 1839SOL    HW1 6416   5.081   2.523   5.054
 1839SOL    HW2 6417   5.046   2.496   4.897
 1840SOL     OW 6418   2.502   6.075   1.601
 1840SOL    HW1 6419   2.490   6.003   1.533
 1840SOL    HW2 6420   2.542   6.037   1.684
 1841SOL     OW 6421   1.708   3.335   4.488
 1841SOL    HW1 6422   1.708   3.281   4.404
 1841SOL    HW2 6423   1.733   3.429   4.468
 1842SOL     OW 6424   0.413   5.587   1.142
 1842SOL    HW1 6425   0.501   5.598   1.097
 1842SOL    HW2 6426   0.339   5.595   1.074
 1843SOL     OW 6427   1.775   2.272   5.276
 1843SOL    HW1 6428   1.830   2.322   5.209
 1843SOL    HW2 6429   1.815   2.183   5.293
 1844SOL     OW 6430   3.940   1.740   4.947
 1844SOL    HW1 6431   3.934   1.672   4.875
 1844SOL    HW2 6432   4.035   1.770   4.956
 1845SOL     OW 6433   2.654   0.250   6.827
 1845SOL    HW1 6434   2.600   0.172   6.859
 1845SOL    HW2 6435   2.708   0.222   6.747
 1846SOL     OW 6436   4.384   2.181   6.563
 1846SOL    HW1 6437   4.428   2.132   6.638
 1846SOL    HW2 6438   4.376   2.120   6.484
 1847SOL     OW 6439   1.162   0.479   6.655
 1847SOL    HW1 6440   1.199   0.404   6.601
 1847SOL    HW2 6441   1.076   0.451   6.698
 1848SOL     OW 6442   1.851   5.871   2.759
 1848SOL    HW1 6443   1.904   5.786   2.752
 1848SOL    HW2 6444   1.884   5.937   2.692
 1849SOL     OW 6445   3.996   0.610   0.438
 1849SOL    HW1 6446   4.016   0.588   0.534
 1849SOL    HW2 6447   4.079   0.640   0.392
 1850SOL     OW 6448   5.720   1.925   2.747
 1850SOL    HW1 6449   5.723   1.927   2.847
 1850SOL    HW2 6450   5.704   2.017   2.712
 1851SOL     OW 6451   0.486   1.705   1.231
 1851SOL    HW1 6452   0.554   1.669   1.166
 1851SOL    HW2 6453   0.413   1.750   1.181
 1852SOL     OW 6454   4.570   3.746   0.910
 1852SOL    HW1 6455   4.483   3.707   0.942
 1852SOL    HW2 6456   4.631   3.758   0.989
 1853SOL     OW 6457   0.882   3.820   1.662
 1853SOL    HW1 6458   0.938   3.866   1.731
 1853SOL    HW2 6459   0.936   3.802   1.580
 1854SOL     OW 6460   2.881   5.472   4.071
 1854SOL    HW1 6461   2.980   5.480   4.064
 1854SOL    HW2 6462   2.849   5.400   4.010
 1855SOL     OW 6463   4.799   4.795   0.149
 1855SOL    HW1 6464   4.870   4.863   0.167
 1855SOL    HW2 6465   4.769   4.755   0.236
 1856SOL     OW 6466   6.439   2.553   5.694
 1856SOL    HW1 6467   6.345   2.522   5.710
 1856SOL    HW2 6468   6.497   2.474   5.675
 1857SOL     OW 6469   4.765   0.927   5.122
 1857SOL    HW1 6470   4.731   0.841   5.086
 1857SOL    HW2 6471   4.847   0.910   5.177
 1858SOL     OW 6472   5.689   3.084   3.420
 1858SOL    HW1 6473   5.667   3.078   3.517
 1858SOL    HW2 6474   5.737   3.002   3.391
 1859SOL     OW 6475   4.132   1.987   3.810
 1859SOL    HW1 6476   4.218   1.957   3.852
 1859SOL    HW2 6477   4.151   2.062   3.747
 1860SOL     OW 6478   6.643   1.321   3.954
 1860SOL    HW1 6479   6.695   1.389   4.006
 1860SOL    HW2 6480   6.587   1.368   3.885
 1861SOL     OW 6481   4.677   6.658   2.065
 1861SOL    HW1 6482   4.616   6.675   2.142
 1861SOL    HW2 6483   4.738   6.581   2.088
 1862SOL     OW 6484   1.761   0.032   0.054
 1862SOL    HW1 6485   1.774   0.051   6.982
 1862SOL    HW2 6486   1.673   7.012   0.067
 1863SOL     OW 6487   2.635   2.924   0.548
 1863SOL    HW1 6488   2.651   2.847   0.610
 1863SOL    HW2 6489   2.607   3.004   0.600
 1864SOL     OW 6490   0.952   0.063   5.476
 1864SOL    HW1 6491   0.861   0.073   5.516
 1864SOL    HW2 6492   1.010   0.011   5.538
 1865SOL     OW 6493   4.142   1.027   5.439
 1865SOL    HW1 6494   4.160   0.965   5.516
 1865SOL    HW2 6495   4.062   1.083   5.459
 1866SOL     OW 6496   4.255   4.628   2.300
 1866SOL    HW1 6497   4.304   4.626   2.213
 1866SOL    HW2 6498   4.302   4.568   2.365
 1867SOL     OW 6499   0.577   3.839   0.300
 1867SOL    HW1 6500   0.651   3.811   0.360
 1867SOL    HW2 6501   0.504   3.882   0.354
 1868SOL     OW 6502   5.491   4.450   7.015
 1868SOL    HW1 6503   5.429   4.412   0.057
 1868SOL    HW2 6504   5.554   4.379   6.983
 1869SOL     OW 6505   6.649   1.954   5.154
 1869SOL    HW1 6506   6.591   1.887   5.108
 1869SOL    HW2 6507   6.712   1.995   5.087
 1870SOL     OW 6508   2.242   4.463   5.810
 1870SOL    HW1 6509   2.303   4.426   5.739
 1870SOL    HW2 6510   2.270   4.428   5.899
 1871SOL     OW 6511   1.523   6.908   0.645
 1871SOL    HW1 6512   1.429   6.939   0.659
 1871SOL    HW2 6513   1.541   6.897   0.547
 1872SOL     OW 6514   3.019   4.238   6.904
 1872SOL    HW1 6515   3.011   4.139   6.916
 1872SOL    HW2 6516   3.097   4.258   6.844
 1873SOL     OW 6517   4.190   1.139   5.116
 1873SOL    HW1 6518   4.266   1.145   5.180
 1873SOL    HW2 6519   4.139   1.225   5.116
 1874SOL     OW 6520   2.835   1.789   1.445
 1874SOL    HW1 6521   2.929   1.757   1.450
 1874SOL    HW2 6522   2.800   1.775   1.353
 1875SOL     OW 6523   0.923   0.362   6.846
 1875SOL    HW1 6524   0.832   0.333   6.875
 1875SOL    HW2 6525   0.946   0.449   6.890
 1876SOL     OW 6526   3.431   0.254   5.619
 1876SOL    HW1 6527   3.510   0.279   5.563
 1876SOL    HW2 6528   3.445   0.286   5.713
 1877SOL     OW 6529   0.449   0.581   3.650
 1877SOL    HW1 6530   0.440   0.593   3.551
 1877SOL    HW2 6531   0.408   0.660   3.696
 1878SOL     OW 6532   6.982   2.179   3.788
 1878SOL    HW1 6533   0.016   2.114   3.740
 1878SOL    HW2 6534   6.942   2.134   3.868
 1879SOL     OW 6535   1.211   3.513   4.502
 1879SOL    HW1 6536   1.292   3.521   4.559
 1879SOL    HW2 6537   1.131   3.494   4.559
 1880SOL     OW 6538   0.281   0.883   4.723
 1880SOL    HW1 6539   0.188   0.873   4.688
 1880SOL    HW2 6540   0.278   0.912   4.819
 1881SOL     OW 6541   6.061   2.092   1.681
 1881SOL    HW1 6542   6.152   2.086   1.721
 1881SOL    HW2 6543   6.010   2.008   1.701
 1882SOL     OW 6544   1.395   4.721   6.477
 1882SOL    HW1 6545   1.302   4.696   6.453
 1882SOL    HW2 6546   1.415   4.690   6.570
 1883SOL     OW 6547   6.390   2.222   2.571
 1883SOL    HW1 6548   6.422   2.133   2.604
 1883SOL    HW2 6549   6.292   2.216   2.549
 1884SOL     OW 6550   1.114   1.739   0.830
 1884SOL    HW1 6551   1.073   1.648   0.821
 1884SOL    HW2 6552   1.190   1.735   0.895
 1885SOL     OW 6553   1.776   1.652   5.694
 1885SOL    HW1 6554   1.873   1.678   5.693
 1885SOL    HW2 6555   1.767   1.560   5.655
 1886SOL     OW 6556   2.172   0.140   1.903
 1886SOL    HW1 6557   2.226   0.127   1.821
 1886SOL    HW2 6558   2.168   0.237   1.926
 1887SOL     OW 6559   0.840   5.524   5.572
 1887SOL    HW1 6560   0.856   5.580   5.491
 1887SOL    HW2 6561   0.923   5.471   5.593
 1888SOL     OW 6562   3.258   1.679   0.120
 1888SOL    HW1 6563   3.331   1.747   0.124
 1888SOL    HW2 6564   3.198   1.691   0.200
 1889SOL     OW 6565   0.218   3.672   3.875
 1889SOL    HW1 6566   0.227   3.621   3.960
 1889SOL    HW2 6567   0.271   3.626   3.803
 1890SOL     OW 6568   0.577   5.312   4.348
 1890SOL    HW1 6569   0.583   5.347   4.255
 1890SOL    HW2 6570   0.501   5.355   4.396
 1891SOL     OW 6571   4.544   3.101   1.643
 1891SOL    HW1 6572   4.550   3.200   1.631
 1891SOL    HW2 6573   4.575   3.076   1.734
 1892SOL     OW 6574   0.201   0.838   2.368
 1892SOL    HW1 6575   0.132   0.794   2.425
 1892SOL    HW2 6576   0.177   0.935   2.357
 1893SOL     OW 6577   4.132   3.282   2.001
 1893SOL    HW1 6578   4.106   3.191   1.969
 1893SOL    HW2 6579   4.183   3.329   1.929
 1894SOL     OW 6580   3.437   4.096   4.175
 1894SOL    HW1 6581   3.425   4.110   4.274
 1894SOL    HW2 6582   3.360   4.042   4.141
 1895SOL     OW 6583   4.019   0.161   1.117
 1895SOL    HW1 6584   4.000   0.188   1.211
 1895SOL    HW2 6585   3.936   0.126   1.075
 1896SOL     OW 6586   6.302   1.729   0.757
 1896SOL    HW1 6587   6.330   1.634   0.768
 1896SOL    HW2 6588   6.273   1.745   0.662
 1897SOL     OW 6589   1.611   4.766   2.325
 1897SOL    HW1 6590   1.637   4.669   2.319
 1897SOL    HW2 6591   1.560   4.791   2.243
 1898SOL     OW 6592   2.037   4.246   2.500
 1898SOL    HW1 6593   2.120   4.193   2.484
 1898SOL    HW2 6594   1.978   4.241   2.420
 1899SOL     OW 6595   0.799   1.018   0.399
 1899SOL    HW1 6596   0.835   1.110   0.387
 1899SOL    HW2 6597   0.773   0.980   0.310
 1900SOL     OW 6598   2.797   0.682   6.823
 1900SOL    HW1 6599   2.757   0.772   6.809
 1900SOL    HW2 6600   2.749   0.615   6.766
 1901SOL     OW 6601   2.662   2.904   0.913
 1901SOL    HW1 6602   2.677   2.835   0.843
 1901SOL    HW2 6603   2.740   2.968   0.914
 1902SOL     OW 6604   2.426   0.325   5.000
 1902SOL    HW1 6605   2.394   0.230   4.992
 1902SOL    HW2 6606   2.350   0.387   4.980
 1903SOL     OW 6607   0.731   3.349   3.422
 1903SOL    HW1 6608   0.813   3.310   3.463
 1903SOL    HW2 6609   0.650   3.317   3.471
 1904SOL     OW 6610   5.886   5.285   2.647
 1904SOL    HW1 6611   5.797   5.313   2.611
 1904SOL    HW2 6612   5.899   5.187   2.632
 1905SOL     OW 6613   0.901   0.352   3.947
 1905SOL    HW1 6614   0.848   0.325   4.028
 1905SOL    HW2 6615   0.841   0.352   3.867
 1906SOL     OW 6616   2.767   0.248   6.231
 1906SOL    HW1 6617   2.668   0.262   6.232
 1906SOL    HW2 6618   2.788   0.159   6.191
 1907SOL     OW 6619   4.559   2.630   0.935
 1907SOL    HW1 6620   4.463   2.617   0.958
 1907SOL    HW2 6621   4.604   2.540   0.928
 1908SOL     OW 6622   4.254   6.884   6.325
 1908SOL    HW1 6623   4.264   6.799   6.377
 1908SOL    HW2 6624   4.341   6.906   6.281
 1909SOL     OW 6625   0.604   3.262   3.664
 1909SOL    HW1 6626   0.520   3.212   3.643
 1909SOL    HW2 6627   0.581   3.347   3.713
 1910SOL     OW 6628   6.867   6.698   5.567
 1910SOL    HW1 6629   6.908   6.781   5.530
 1910SOL    HW2 6630   6.939   6.639   5.606
 1911SOL     OW 6631   6.756   4.002   4.649
 1911SOL    HW1 6632   6.714   4.071   4.590
 1911SOL    HW2 6633   6.855   4.015   4.652
 1912SOL     OW 6634   2.813   5.442   2.298
 1912SOL    HW1 6635   2.725   5.410   2.264
 1912SOL    HW2 6636   2.861   5.490   2.225
 1913SOL     OW 6637   2.144   6.664   4.576
 1913SOL    HW1 6638   2.205   6.728   4.528
 1913SOL    HW2 6639   2.185   6.638   4.663
 1914SOL     OW 6640   3.829   4.497   6.473
 1914SOL    HW1 6641   3.926   4.519   6.485
 1914SOL    HW2 6642   3.792   4.461   6.558
 1915SOL     OW 6643   4.504   2.641   5.814
 1915SOL    HW1 6644   4.442   2.568   5.787
 1915SOL    HW2 6645   4.451   2.718   5.851
 1916SOL     OW 6646   4.158   6.920   1.083
 1916SOL    HW1 6647   4.117   7.011   1.083
 1916SOL    HW2 6648   4.166   6.888   1.177
 1917SOL     OW 6649   2.488   4.003   6.984
 1917SOL    HW1 6650   2.470   4.065   6.907
 1917SOL    HW2 6651   2.529   3.918   6.950
 1918SOL     OW 6652   1.085   1.019   4.941
 1918SOL    HW1 6653   1.096   0.920   4.944
 1918SOL    HW2 6654   1.123   1.054   4.855
 1919SOL     OW 6655   1.986   1.727   1.106
 1919SOL    HW1 6656   1.908   1.755   1.049
 1919SOL    HW2 6657   2.068   1.721   1.049
 1920SOL     OW 6658   5.903   2.405   2.333
 1920SOL    HW1 6659   5.927   2.355   2.250
 1920SOL    HW2 6660   5.816   2.371   2.368
 1921SOL     OW 6661   1.595   2.955   0.171
 1921SOL    HW1 6662   1.652   2.873   0.167
 1921SOL    HW2 6663   1.540   2.962   0.088
 1922SOL     OW 6664   3.271   3.463   1.943
 1922SOL    HW1 6665   3.356   3.433   1.986
 1922SOL    HW2 6666   3.222   3.525   2.004
 1923SOL     OW 6667   4.963   0.280   6.769
 1923SOL    HW1 6668   4.962   0.340   6.690
 1923SOL    HW2 6669   5.020   0.319   6.841
 1924SOL     OW 6670   4.671   0.111   0.944
 1924SOL    HW1 6671   4.646   0.192   0.997
 1924SOL    HW2 6672   4.606   0.037   0.963
 1925SOL     OW 6673   0.772   4.313   1.872
 1925SOL    HW1 6674   0.704   4.375   1.834
 1925SOL    HW2 6675   0.824   4.270   1.798
 1926SOL     OW 6676   3.549   0.085   1.799
 1926SOL    HW1 6677   3.487   0.037   1.736
 1926SOL    HW2 6678   3.640   0.044   1.794
 1927SOL     OW 6679   2.368   4.229   1.024
 1927SOL    HW1 6680   2.349   4.140   1.066
 1927SOL    HW2 6681   2.394   4.294   1.095
 1928SOL     OW 6682   4.799   4.763   4.573
 1928SOL    HW1 6683   4.769   4.713   4.655
 1928SOL    HW2 6684   4.740   4.740   4.496
 1929SOL     OW 6685   2.998   0.721   2.580
 1929SOL    HW1 6686   2.930   0.790   2.554
 1929SOL    HW2 6687   3.030   0.674   2.498
 1930SOL     OW 6688   5.003   3.014   6.251
 1930SOL    HW1 6689   4.931   3.076   6.219
 1930SOL    HW2 6690   5.018   3.027   6.349
 1931SOL     OW 6691   1.099   2.047   6.575
 1931SOL    HW1 6692   1.034   1.977   6.544
 1931SOL    HW2 6693   1.156   2.075   6.498
 1932SOL     OW 6694   4.755   2.690   2.950
 1932SOL    HW1 6695   4.659   2.673   2.970
 1932SOL    HW2 6696   4.802   2.603   2.935
 1933SOL     OW 6697   0.030   1.808   0.080
 1933SOL    HW1 6698   0.080   1.883   0.038
 1933SOL    HW2 6699   0.070   1.787   0.169
 1934SOL     OW 6700   0.474   0.660   5.488
 1934SOL    HW1 6701   0.440   0.583   5.434
 1934SOL    HW2 6702   0.408   0.735   5.485
 1935SOL     OW 6703   4.762   4.305   3.646
 1935SOL    HW1 6704   4.785   4.251   3.565
 1935SOL    HW2 6705   4.676   4.353   3.630
 1936SOL     OW 6706   5.096   3.281   4.345
 1936SOL    HW1 6707   5.176   3.239   4.302
 1936SOL    HW2 6708   5.123   3.324   4.431
 1937SOL     OW 6709   4.991   5.725   6.924
 1937SOL    HW1 6710   5.005   5.804   6.864
 1937SOL    HW2 6711   4.895   5.699   6.924
 1938SOL     OW 6712   1.237   2.548   6.766
 1938SOL    HW1 6713   1.221   2.507   6.856
 1938SOL    HW2 6714   1.326   2.519   6.731
 1939SOL     OW 6715   0.624   5.556   4.907
 1939SOL    HW1 6716   0.574   5.555   4.821
 1939SOL    HW2 6717   0.713   5.600   4.894
 1940SOL     OW 6718   5.950   4.721   1.675
 1940SOL    HW1 6719   5.914   4.631   1.651
 1940SOL    HW2 6720   6.040   4.734   1.632
 1941SOL     OW 6721   0.160   2.945   3.342
 1941SOL    HW1 6722   0.113   2.966   3.428
 1941SOL    HW2 6723   0.259   2.946   3.356
 1942SOL     OW 6724   5.532   3.443   2.825
 1942SOL    HW1 6725   5.617   3.404   2.788
 1942SOL    HW2 6726   5.524   3.421   2.922
 1943SOL     OW 6727   1.693   1.386   2.356
 1943SOL    HW1 6728   1.776   1.400   2.410
 1943SOL    HW2 6729   1.629   1.330   2.407
 1944SOL     OW 6730   6.778   3.309   0.622
 1944SOL    HW1 6731   6.716   3.387   0.617
 1944SOL    HW2 6732   6.871   3.342   0.639
 1945SOL     OW 6733   3.869   6.829   0.900
 1945SOL    HW1 6734   3.944   6.878   0.856
 1945SOL    HW2 6735   3.870   6.849   0.998
 1946SOL     OW 6736   6.835   6.357   1.108
 1946SOL    HW1 6737   6.824   6.350   1.208
 1946SOL    HW2 6738   6.800   6.273   1.066
 1947SOL     OW 6739   5.752   4.395   3.457
 1947SOL    HW1 6740   5.811   4.437   3.526
 1947SOL    HW2 6741   5.757   4.447   3.372
 1948SOL     OW 6742   5.749   3.826   3.142
 1948SOL    HW1 6743   5.834   3.779   3.119
 1948SOL    HW2 6744   5.671   3.774   3.107
 1949SOL     OW 6745   4.161   4.236   0.741
 1949SOL    HW1 6746   4.149   4.333   0.722
 1949SOL    HW2 6747   4.078   4.186   0.718
 1950SOL     OW 6748   3.752   3.964   3.893
 1950SOL    HW1 6749   3.765   3.873   3.853
 1950SOL    HW2 6750   3.660   3.998   3.871
 1951SOL     OW 6751   6.632   4.012   5.677
 1951SOL    HW1 6752   6.547   4.031   5.629
 1951SOL    HW2 6753   6.616   4.014   5.776
 1952SOL     OW 6754   5.221   3.877   0.878
 1952SOL    HW1 6755   5.167   3.945   0.828
 1952SOL    HW2 6756   5.290   3.837   0.817
 1953SOL     OW 6757   0.555   1.309   6.557
 1953SOL    HW1 6758   0.521   1.274   6.644
 1953SOL    HW2 6759   0.644   1.268   6.537
 1954SOL     OW 6760   4.509   0.323   1.785
 1954SOL    HW1 6761   4.522   0.235   1.830
 1954SOL    HW2 6762   4.440   0.314   1.713
 1955SOL     OW 6763   1.270   1.485   1.827
 1955SOL    HW1 6764   1.281   1.387   1.848
 1955SOL    HW2 6765   1.187   1.499   1.773
 1956SOL     OW 6766   5.740   0.818   2.412
 1956SOL    HW1 6767   5.796   0.812   2.329
 1956SOL    HW2 6768   5.691   0.732   2.425
 1957SOL     OW 6769   5.356   2.714   3.844
 1957SOL    HW1 6770   5.383   2.619   3.860
 1957SOL    HW2 6771   5.266   2.730   3.883
 1958SOL     OW 6772   4.378   1.568   0.651
 1958SOL    HW1 6773   4.393   1.661   0.617
 1958SOL    HW2 6774   4.461   1.514   0.637
 1959SOL     OW 6775   6.870   0.039   4.082
 1959SOL    HW1 6776   6.830   6.997   4.021
 1959SOL    HW2 6777   6.851   0.015   4.177
 1960SOL     OW 6778   5.860   3.482   3.342
 1960SOL    HW1 6779   5.779   3.460   3.287
 1960SOL    HW2 6780   5.888   3.401   3.393
 1961SOL     OW 6781   6.105   4.389   4.790
 1961SOL    HW1 6782   6.079   4.480   4.759
 1961SOL    HW2 6783   6.062   4.370   4.878
 1962SOL     OW 6784   1.354   6.385   2.917
 1962SOL    HW1 6785   1.411   6.437   2.854
 1962SOL    HW2 6786   1.388   6.291   2.923
 1963SOL     OW 6787   1.054   1.522   1.660
 1963SOL    HW1 6788   1.024   1.611   1.626
 1963SOL    HW2 6789   0.975   1.467   1.687
 1964SOL     OW 6790   5.571   4.641   1.739
 1964SOL    HW1 6791   5.477   4.650   1.773
 1964SOL    HW2 6792   5.589   4.714   1.673
 1965SOL     OW 6793   0.574   4.274   4.176
 1965SOL    HW1 6794   0.555   4.181   4.144
 1965SOL    HW2 6795   0.672   4.291   4.176
 1966SOL     OW 6796   1.419   4.783   1.283
 1966SOL    HW1 6797   1.335   4.742   1.246
 1966SOL    HW2 6798   1.415   4.783   1.383
 1967SOL     OW 6799   6.686   2.312   3.907
 1967SOL    HW1 6800   6.724   2.221   3.924
 1967SOL    HW2 6801   6.597   2.319   3.952
 1968SOL     OW 6802   2.130   1.177   5.955
 1968SOL    HW1 6803   2.221   1.206   5.926
 1968SOL    HW2 6804   2.060   1.233   5.910
 1969SOL     OW 6805   3.345   0.595   0.852
 1969SOL    HW1 6806   3.268   0.533   0.865
 1969SOL    HW2 6807   3.414   0.578   0.923
 1970SOL     OW 6808   6.213   5.663   4.801
 1970SOL    HW1 6809   6.227   5.565   4.811
 1970SOL    HW2 6810   6.198   5.684   4.704
 1971SOL     OW 6811   1.364   6.974   5.804
 1971SOL    HW1 6812   1.435   6.906   5.817
 1971SOL    HW2 6813   1.399   0.038   5.832
 1972SOL     OW 6814   5.857   2.534   1.412
 1972SOL    HW1 6815   5.800   2.452   1.404
 1972SOL    HW2 6816   5.910   2.530   1.496
 1973SOL     OW 6817   2.620   3.493   1.245
 1973SOL    HW1 6818   2.525   3.496   1.277
 1973SOL    HW2 6819   2.678   3.543   1.310
 1974SOL     OW 6820   4.277   6.459   4.621
 1974SOL    HW1 6821   4.344   6.531   4.640
 1974SOL    HW2 6822   4.272   6.442   4.523
 1975SOL     OW 6823   2.122   3.578   3.428
 1975SOL    HW1 6824   2.039   3.559   3.375
 1975SOL    HW2 6825   2.151   3.496   3.476
 1976SOL     OW 6826   6.782   0.095   6.378
 1976SOL    HW1 6827   6.857   0.045   6.335
 1976SOL    HW2 6828   6.697   0.043   6.367
 1977SOL     OW 6829   2.439   4.191   6.773
 1977SOL    HW1 6830   2.459   4.257   6.846
 1977SOL    HW2 6831   2.375   4.232   6.708
 1978SOL     OW 6832   2.376   6.601   2.738
 1978SOL    HW1 6833   2.371   6.517   2.791
 1978SOL    HW2 6834   2.373   6.579   2.640
 1979SOL     OW 6835   6.211   5.418   6.218
 1979SOL    HW1 6836   6.274   5.413   6.295
 1979SOL    HW2 6837   6.226   5.339   6.158
 1980SOL     OW 6838   2.769   1.122   1.752
 1980SOL    HW1 6839   2.835   1.121   1.677
 1980SOL    HW2 6840   2.801   1.062   1.825
 1981SOL     OW 6841   4.677   2.635   3.444
 1981SOL    HW1 6842   4.735   2.556   3.423
 1981SOL    HW2 6843   4.581   2.612   3.426
 1982SOL     OW 6844   6.519   3.722   3.727
 1982SOL    HW1 6845   6.602   3.709   3.780
 1982SOL    HW2 6846   6.498   3.820   3.720
 1983SOL     OW 6847   0.314   0.400   0.869
 1983SOL    HW1 6848   0.242   0.431   0.807
 1983SOL    HW2 6849   0.392   0.463   0.865
 1984SOL     OW 6850   5.468   2.156   5.285
 1984SOL    HW1 6851   5.490   2.097   5.363
 1984SOL    HW2 6852   5.449   2.248   5.318
 1985SOL     OW 6853   6.264   5.029   1.614
 1985SOL    HW1 6854   6.256   4.930   1.605
 1985SOL    HW2 6855   6.217   5.058   1.697
 1986SOL     OW 6856   3.202   1.391   6.807
 1986SOL    HW1 6857   3.254   1.321   6.758
 1986SOL    HW2 6858   3.173   1.355   6.896
 1987SOL     OW 6859   1.360   0.966   3.834
 1987SOL    HW1 6860   1.319   1.006   3.752
 1987SOL    HW2 6861   1.299   0.980   3.912
 1988SOL     OW 6862   0.102   2.568   1.009
 1988SOL    HW1 6863   0.149   2.615   0.933
 1988SOL    HW2 6864   0.103   2.470   0.992
 1989SOL     OW 6865   2.843   5.258   5.536
 1989SOL    HW1 6866   2.940   5.246   5.516
 1989SOL    HW2 6867   2.832   5.309   5.621
 1990SOL     OW 6868   3.933   0.925   0.218
 1990SOL    HW1 6869   3.882   0.998   0.263
 1990SOL    HW2 6870   3.990   0.877   0.284
 1991SOL     OW 6871   2.858   5.612   0.305
 1991SOL    HW1 6872   2.935   5.565   0.263
 1991SOL    HW2 6873   2.774   5.561   0.287
 1992SOL     OW 6874   0.085   6.419   6.965
 1992SOL    HW1 6875   0.098   6.518   6.967
 1992SOL    HW2 6876   0.008   6.395   7.025
 1993SOL     OW 6877   1.991   2.864   4.895
 1993SOL    HW1 6878   1.912   2.921   4.873
 1993SOL    HW2 6879   1.974   2.815   4.981
 1994SOL     OW 6880   3.571   3.337   0.499
 1994SOL    HW1 6881   3.563   3.436   0.486
 1994SOL    HW2 6882   3.616   3.319   0.586
 1995SOL     OW 6883   5.310   1.883   5.068
 1995SOL    HW1 6884   5.273   1.940   5.142
 1995SOL    HW2 6885   5.244   1.880   4.992
 1996SOL     OW 6886   3.749   1.446   1.092
 1996SOL    HW1 6887   3.777   1.475   1.183
 1996SOL    HW2 6888   3.783   1.511   1.024
 1997SOL     OW 6889   3.460   1.587   4.025
 1997SOL    HW1 6890   3.558   1.566   4.018
 1997SOL    HW2 6891   3.415   1.560   3.940
 1998SOL     OW 6892   1.375   3.410   1.834
 1998SOL    HW1 6893   1.398   3.381   1.927
 1998SOL    HW2 6894   1.276   3.423   1.827
 1999SOL     OW 6895   0.849   0.526   5.301
 1999SOL    HW1 6896   0.833   0.501   5.396
 1999SOL    HW2 6897   0.901   0.453   5.255
 2000SOL     OW 6898   3.936   3.632   6.232
 2000SOL    HW1 6899   3.929   3.672   6.323
 2000SOL    HW2 6900   4.027   3.653   6.194
 2001SOL     OW 6901   1.874   1.619   6.441
 2001SOL    HW1 6902   1.925   1.667   6.370
 2001SOL    HW2 6903   1.810   1.682   6.485
 2002SOL     OW 6904   6.951   5.589   1.102
 2002SOL    HW1 6905   0.013   5.636   1.106
 2002SOL    HW2 6906   6.925   5.573   1.007
 2003SOL     OW 6907   5.895   4.855   2.266
 2003SOL    HW1 6908   5.910   4.950   2.236
 2003SOL    HW2 6909   5.803   4.827   2.242
 2004SOL     OW 6910   3.458   0.703   3.699
 2004SOL    HW1 6911   3.507   0.790   3.688
 2004SOL    HW2 6912   3.522   0.633   3.729
 2005SOL     OW 6913   0.402   6.243   0.380
 2005SOL    HW1 6914   0.456   6.196   0.311
 2005SOL    HW2 6915   0.456   6.253   0.464
 2006SOL     OW 6916   5.090   0.208   3.336
 2006SOL    HW1 6917   5.028   0.135   3.307
 2006SOL    HW2 6918   5.055   0.296   3.303
 2007SOL     OW 6919   5.237   4.377   0.585
 2007SOL    HW1 6920   5.139   4.361   0.597
 2007SOL    HW2 6921   5.255   4.409   0.492
 2008SOL     OW 6922   2.004   3.966   4.036
 2008SOL    HW1 6923   1.962   4.041   3.984
 2008SOL    HW2 6924   1.933   3.906   4.072
 2009SOL     OW 6925   6.336   6.159   1.657
 2009SOL    HW1 6926   6.300   6.119   1.741
 2009SOL    HW2 6927   6.407   6.226   1.680
 2010SOL     OW 6928   1.699   2.388   1.967
 2010SOL    HW1 6929   1.702   2.382   1.868
 2010SOL    HW2 6930   1.787   2.420   2.002
 2011SOL     OW 6931   6.951   5.894   5.435
 2011SOL    HW1 6932   0.012   5.919   5.392
 2011SOL    HW2 6933   6.960   5.902   5.535
 2012SOL     OW 6934   1.688   3.476   2.611
 2012SOL    HW1 6935   1.702   3.377   2.615
 2012SOL    HW2 6936   1.604   3.495   2.560
 2013SOL     OW 6937   0.445   2.765   2.951
 2013SOL    HW1 6938   0.356   2.799   2.920
 2013SOL    HW2 6939   0.487   2.832   3.013
 2014SOL     OW 6940   3.086   0.647   3.884
 2014SOL    HW1 6941   3.049   0.582   3.950
 2014SOL    HW2 6942   3.029   0.648   3.802
 2015SOL     OW 6943   3.636   0.729   1.716
 2015SOL    HW1 6944   3.652   0.664   1.789
 2015SOL    HW2 6945   3.719   0.783   1.699
 2016SOL     OW 6946   1.804   6.405   5.553
 2016SOL    HW1 6947   1.794   6.309   5.527
 2016SOL    HW2 6948   1.731   6.430   5.617
 2017SOL     OW 6949   4.179   6.806   3.068
 2017SOL    HW1 6950   4.159   6.797   2.971
 2017SOL    HW2 6951   4.133   6.733   3.119
 2018SOL     OW 6952   0.089   2.090   2.846
 2018SOL    HW1 6953   0.003   2.041   2.864
 2018SOL    HW2 6954   0.164   2.024   2.841
 2019SOL     OW 6955   6.469   4.848   6.429
 2019SOL    HW1 6956   6.437   4.865   6.336
 2019SOL    HW2 6957   6.553   4.794   6.427
 2020SOL     OW 6958   2.033   6.390   6.030
 2020SOL    HW1 6959   1.984   6.325   5.973
 2020SOL    HW2 6960   2.012   6.483   6.001
 2021SOL     OW 6961   6.106   6.471   3.343
 2021SOL    HW1 6962   6.192   6.430   3.372
 2021SOL    HW2 6963   6.092   6.558   3.391
 2022SOL     OW 6964   2.124   4.048   5.158
 2022SOL    HW1 6965   2.141   3.977   5.227
 2022SOL    HW2 6966   2.200   4.049   5.093
 2023SOL     OW 6967   6.951   0.122   0.058
 2023SOL    HW1 6968   6.914   0.211   0.087
 2023SOL    HW2 6969   0.025   0.124   0.066
 2024SOL     OW 6970   0.353   5.761   4.468
 2024SOL    HW1 6971   0.344   5.676   4.417
 2024SOL    HW2 6972   0.421   5.819   4.424
 2025SOL     OW 6973   2.532   0.539   4.700
 2025SOL    HW1 6974   2.446   0.505   4.738
 2025SOL    HW2 6975   2.520   0.559   4.603
 2026SOL     OW 6976   6.119   0.599   6.418
 2026SOL    HW1 6977   6.128   0.698   6.428
 2026SOL    HW2 6978   6.209   0.558   6.404
 2027SOL     OW 6979   0.802   5.796   2.162
 2027SOL    HW1 6980   0.899   5.812   2.178
 2027SOL    HW2 6981   0.773   5.713   2.209
 2028SOL     OW 6982   3.717   6.000   2.917
 2028SOL    HW1 6983   3.703   5.902   2.907
 2028SOL    HW2 6984   3.661   6.050   2.851
 2029SOL     OW 6985   0.019   2.410   6.452
 2029SOL    HW1 6986   0.026   2.338   6.522
 2029SOL    HW2 6987   6.966   2.391   6.393
 2030SOL     OW 6988   2.916   5.832   3.419
 2030SOL    HW1 6989   2.889   5.788   3.334
 2030SOL    HW2 6990   2.844   5.818   3.488
 2031SOL     OW 6991   6.624   5.425   3.048
 2031SOL    HW1 6992   6.672   5.343   3.079
 2031SOL    HW2 6993   6.549   5.399   2.987
 2032SOL     OW 6994   3.081   1.681   6.341
 2032SOL    HW1 6995   3.056   1.774   6.316
 2032SOL    HW2 6996   3.179   1.668   6.329
 2033SOL     OW 6997   2.000   0.877   1.004
 2033SOL    HW1 6998   1.942   0.914   1.077
 2033SOL    HW2 6999   1.991   0.777   1.002
 2034SOL     OW 7000   0.620   5.351   5.766
 2034SOL    HW1 7001   0.609   5.436   5.714
 2034SOL    HW2 7002   0.645   5.372   5.860
 2035SOL     OW 7003   5.905   0.248   2.159
 2035SOL    HW1 7004   6.001   0.264   2.181
 2035SOL    HW2 7005   5.858   0.336   2.148
 2036SOL     OW 7006   1.242   3.768   2.393
 2036SOL    HW1 7007   1.183   3.724   2.326
 2036SOL    HW2 7008   1.214   3.863   2.405
 2037SOL     OW 7009   0.449   3.071   6.274
 2037SOL    HW1 7010   0.371   3.028   6.229
 2037SOL    HW2 7011   0.421   3.108   6.362
 2038SOL     OW 7012   2.290   1.631   6.722
 2038SOL    HW1 7013   2.229   1.671   6.653
 2038SOL    HW2 7014   2.237   1.568   6.780
 2039SOL     OW 7015   6.701   6.074   2.586
 2039SOL    HW1 7016   6.744   6.025   2.509
 2039SOL    HW2 7017   6.620   6.123   2.553
 2040SOL     OW 7018   2.282   3.040   0.197
 2040SOL    HW1 7019   2.241   2.968   0.140
 2040SOL    HW2 7020   2.382   3.030   0.196
 2041SOL     OW 7021   2.124   0.044   6.372
 2041SOL    HW1 7022   2.178   0.083   6.298
 2041SOL    HW2 7023   2.050   0.106   6.396
 2042SOL     OW 7024   4.683   0.657   6.264
 2042SOL    HW1 7025   4.732   0.592   6.207
 2042SOL    HW2 7026   4.608   0.610   6.311
 2043SOL     OW 7027   6.898   3.459   1.140
 2043SOL    HW1 7028   6.984   3.408   1.148
 2043SOL    HW2 7029   6.859   3.473   1.231
 2044SOL     OW 7030   5.336   0.967   0.591
 2044SOL    HW1 7031   5.342   0.947   0.689
 2044SOL    HW2 7032   5.270   0.906   0.548
 2045SOL     OW 7033   1.868   5.927   5.897
 2045SOL    HW1 7034   1.803   6.003   5.902
 2045SOL    HW2 7035   1.931   5.932   5.974
 2046SOL     OW 7036   0.936   2.053   5.114
 2046SOL    HW1 7037   0.943   2.142   5.158
 2046SOL    HW2 7038   1.022   2.033   5.066
 2047SOL     OW 7039   6.390   2.031   6.968
 2047SOL    HW1 7040   6.300   2.073   6.958
 2047SOL    HW2 7041   6.448   2.060   6.891
 2048SOL     OW 7042   1.137   1.232   4.289
 2048SOL    HW1 7043   1.060   1.175   4.317
 2048SOL    HW2 7044   1.128   1.254   4.192
 2049SOL     OW 7045   4.831   1.263   4.811
 2049SOL    HW1 7046   4.746   1.299   4.774
 2049SOL    HW2 7047   4.818   1.239   4.908
 2050SOL     OW 7048   0.450   1.231   3.955
 2050SOL    HW1 7049   0.509   1.312   3.953
 2050SOL    HW2 7050   0.507   1.149   3.942
 2051SOL     OW 7051   3.105   6.784   1.126
 2051SOL    HW1 7052   3.171   6.836   1.179
 2051SOL    HW2 7053   3.105   6.816   1.031
 2052SOL     OW 7054   1.754   4.478   6.738
 2052SOL    HW1 7055   1.775   4.382   6.759
 2052SOL    HW2 7056   1.819   4.538   6.785
 2053SOL     OW 7057   0.884   5.221   3.978
 2053SOL    HW1 7058   0.980   5.236   3.955
 2053SOL    HW2 7059   0.838   5.175   3.903
 2054SOL     OW 7060   3.404   3.592   3.831
 2054SOL    HW1 7061   3.446   3.515   3.783
 2054SOL    HW2 7062   3.465   3.625   3.902
 2055SOL     OW 7063   1.613   2.045   5.746
 2055SOL    HW1 7064   1.564   2.115   5.695
 2055SOL    HW2 7065   1.688   2.087   5.797
 2056SOL     OW 7066   4.126   4.538   1.493
 2056SOL    HW1 7067   4.216   4.517   1.454
 2056SOL    HW2 7068   4.058   4.536   1.420
 2057SOL     OW 7069   5.493   2.479   4.641
 2057SOL    HW1 7070   5.430   2.459   4.566
 2057SOL    HW2 7071   5.447   2.467   4.729
 2058SOL     OW 7072   0.813   6.552   3.723
 2058SOL    HW1 7073   0.904   6.581   3.692
 2058SOL    HW2 7074   0.799   6.582   3.817
 2059SOL     OW 7075   2.517   0.109   5.452
 2059SOL    HW1 7076   2.584   0.038   5.470
 2059SOL    HW2 7077   2.553   0.197   5.482
 2060SOL     OW 7078   1.134   3.614   6.898
 2060SOL    HW1 7079   1.148   3.584   6.803
 2060SOL    HW2 7080   1.218   3.598   6.950
 2061SOL     OW 7081   2.185   1.767   2.157
 2061SOL    HW1 7082   2.100   1.774   2.104
 2061SOL    HW2 7083   2.184   1.835   2.231
 2062SOL     OW 7084   6.298   5.191   4.840
 2062SOL    HW1 7085   6.326   5.287   4.839
 2062SOL    HW2 7086   6.199   5.186   4.854
 2063SOL     OW 7087   1.911   0.763   5.208
 2063SOL    HW1 7088   1.816   0.732   5.205
 2063SOL    HW2 7089   1.915   0.852   5.253
 2064SOL     OW 7090   0.555   3.390   3.899
 2064SOL    HW1 7091   0.623   3.332   3.943
 2064SOL    HW2 7092   0.465   3.345   3.901
 2065SOL     OW 7093   4.759   2.656   5.518
 2065SOL    HW1 7094   4.763   2.654   5.618
 2065SOL    HW2 7095   4.688   2.593   5.487
 2066SOL     OW 7096   5.942   2.550   5.627
 2066SOL    HW1 7097   5.919   2.571   5.722
 2066SOL    HW2 7098   5.922   2.453   5.609
 2067SOL     OW 7099   6.529   4.747   0.998
 2067SOL    HW1 7100   6.496   4.834   1.033
 2067SOL    HW2 7101   6.484   4.727   0.911
 2068SOL     OW 7102   4.045   0.596   4.142
 2068SOL    HW1 7103   4.103   0.674   4.120
 2068SOL    HW2 7104   3.980   0.581   4.067
 2069SOL     OW 7105   0.335   2.274   4.366
 2069SOL    HW1 7106   0.398   2.224   4.425
 2069SOL    HW2 7107   0.323   2.223   4.281
 2070SOL     OW 7108   0.746   3.904   1.912
 2070SOL    HW1 7109   0.661   3.954   1.894
 2070SOL    HW2 7110   0.763   3.839   1.838
 2071SOL     OW 7111   6.533   1.674   6.267
 2071SOL    HW1 7112   6.575   1.715   6.187
 2071SOL    HW2 7113   6.565   1.721   6.350
 2072SOL     OW 7114   4.020   4.559   5.576
 2072SOL    HW1 7115   4.035   4.546   5.674
 2072SOL    HW2 7116   3.997   4.471   5.535
 2073SOL     OW 7117   3.560   5.955   0.648
 2073SOL    HW1 7118   3.649   5.922   0.681
 2073SOL    HW2 7119   3.539   5.910   0.561
 2074SOL     OW 7120   1.595   3.402   5.401
 2074SOL    HW1 7121   1.629   3.448   5.319
 2074SOL    HW2 7122   1.528   3.460   5.447
 2075SOL     OW 7123   0.328   2.195   1.978
 2075SOL    HW1 7124   0.264   2.203   2.055
 2075SOL    HW2 7125   0.413   2.243   2.000
 2076SOL     OW 7126   5.011   6.071   5.010
 2076SOL    HW1 7127   4.956   6.032   4.936
 2076SOL    HW2 7128   5.060   6.151   4.976
 2077SOL     OW 7129   0.152   3.567   1.015
 2077SOL    HW1 7130   0.120   3.488   1.066
 2077SOL    HW2 7131   0.242   3.595   1.049
 2078SOL     OW 7132   2.075   3.752   6.002
 2078SOL    HW1 7133   2.118   3.794   6.082
 2078SOL    HW2 7134   2.123   3.782   5.920
 2079SOL     OW 7135   5.317   1.739   1.813
 2079SOL    HW1 7136   5.312   1.642   1.835
 2079SOL    HW2 7137   5.302   1.793   1.896
 2080SOL     OW 7138   2.539   2.866   5.641
 2080SOL    HW1 7139   2.584   2.832   5.559
 2080SOL    HW2 7140   2.449   2.903   5.617
 2081SOL     OW 7141   6.880   0.155   3.228
 2081SOL    HW1 7142   6.883   0.137   3.129
 2081SOL    HW2 7143   6.909   0.073   3.277
 2082SOL     OW 7144   0.514   6.344   2.728
 2082SOL    HW1 7145   0.425   6.390   2.727
 2082SOL    HW2 7146   0.586   6.413   2.726
 2083SOL     OW 7147   6.550   6.133   4.468
 2083SOL    HW1 7148   6.544   6.100   4.563
 2083SOL    HW2 7149   6.556   6.055   4.406
 2084SOL     OW 7150   0.792   2.421   1.734
 2084SOL    HW1 7151   0.780   2.505   1.681
 2084SOL    HW2 7152   0.848   2.356   1.681
 2085SOL     OW 7153   4.988   5.227   0.320
 2085SOL    HW1 7154   4.986   5.274   0.408
 2085SOL    HW2 7155   5.043   5.280   0.255
 2086SOL     OW 7156   4.412   6.685   6.922
 2086SOL    HW1 7157   4.496   6.724   6.959
 2086SOL    HW2 7158   4.340   6.689   6.991
 2087SOL     OW 7159   4.261   2.366   6.929
 2087SOL    HW1 7160   4.234   2.385   6.835
 2087SOL    HW2 7161   4.261   2.451   6.982
 2088SOL     OW 7162   6.593   5.613   4.883
 2088SOL    HW1 7163   6.606   5.633   4.980
 2088SOL    HW2 7164   6.675   5.642   4.832
 2089SOL     OW 7165   2.977   3.361   5.954
 2089SOL    HW1 7166   3.009   3.295   6.023
 2089SOL    HW2 7167   2.878   3.351   5.942
 2090SOL     OW 7168   4.440   3.462   5.321
 2090SOL    HW1 7169   4.353   3.481   5.275
 2090SOL    HW2 7170   4.513   3.515   5.277
 2091SOL     OW 7171   6.190   5.666   2.138
 2091SOL    HW1 7172   6.196   5.569   2.119
 2091SOL    HW2 7173   6.242   5.717   2.069
 2092SOL     OW 7174   4.527   3.893   1.182
 2092SOL    HW1 7175   4.624   3.896   1.157
 2092SOL    HW2 7176   4.489   3.986   1.178
 2093SOL     OW 7177   3.764   2.009   2.944
 2093SOL    HW1 7178   3.849   2.037   2.898
 2093SOL    HW2 7179   3.693   1.994   2.876
 2094SOL     OW 7180   4.982   2.764   0.088
 2094SOL    HW1 7181   4.934   2.780   0.002
 2094SOL    HW2 7182   5.081   2.770   0.072
 2095SOL     OW 7183   5.452   6.359   3.563
 2095SOL    HW1 7184   5.516   6.429   3.531
 2095SOL    HW2 7185   5.389   6.335   3.490
 2096SOL     OW 7186   4.492   6.768   2.243
 2096SOL    HW1 7187   4.405   6.730   2.212
 2096SOL    HW2 7188   4.480   6.866   2.262
 2097SOL     OW 7189   1.259   5.394   6.484
 2097SOL    HW1 7190   1.356   5.386   6.508
 2097SOL    HW2 7191   1.205   5.334   6.544
 2098SOL     OW 7192   3.107   6.444   2.993
 2098SOL    HW1 7193   3.202   6.438   3.023
 2098SOL    HW2 7194   3.063   6.521   3.039
 2099SOL     OW 7195   5.235   1.257   0.488
 2099SOL    HW1 7196   5.215   1.166   0.450
 2099SOL    HW2 7197   5.192   1.327   0.431
 2100SOL     OW 7198   5.627   0.987   0.537
 2100SOL    HW1 7199   5.609   1.085   0.545
 2100SOL    HW2 7200   5.543   0.936   0.557
 2101SOL     OW 7201   0.122   6.605   2.292
 2101SOL    HW1 7202   0.084   6.516   2.318
 2101SOL    HW2 7203   0.048   6.665   2.261
 2102SOL     OW 7204   3.633   3.623   0.486
 2102SOL    HW1 7205   3.576   3.672   0.552
 2102SOL    HW2 7206   3.726   3.614   0.522
 2103SOL     OW 7207   3.399   6.217   0.613
 2103SOL    HW1 7208   3.447   6.143   0.659
 2103SOL    HW2 7209   3.310   6.184   0.580
 2104SOL     OW 7210   0.942   4.793   3.172
 2104SOL    HW1 7211   0.921   4.879   3.220
 2104SOL    HW2 7212   1.017   4.808   3.108
 2105SOL     OW 7213   5.225   4.044   6.579
 2105SOL    HW1 7214   5.311   4.095   6.569
 2105SOL    HW2 7215   5.169   4.056   6.497
 2106SOL     OW 7216   5.234   3.837   2.007
 2106SOL    HW1 7217   5.282   3.818   2.093
 2106SOL    HW2 7218   5.141   3.801   2.013
 2107SOL     OW 7219   5.599   3.630   5.205
 2107SOL    HW1 7220   5.675   3.647   5.142
 2107SOL    HW2 7221   5.570   3.535   5.199
 2108SOL     OW 7222   5.624   6.628   5.794
 2108SOL    HW1 7223   5.590   6.561   5.727
 2108SOL    HW2 7224   5.680   6.696   5.748
 2109SOL     OW 7225   2.815   5.019   2.756
 2109SOL    HW1 7226   2.786   4.930   2.720
 2109SOL    HW2 7227   2.864   5.069   2.684
 2110SOL     OW 7228   4.027   0.984   6.815
 2110SOL    HW1 7229   3.973   0.907   6.851
 2110SOL    HW2 7230   4.030   0.978   6.715
 2111SOL     OW 7231   0.952   2.773   5.998
 2111SOL    HW1 7232   1.042   2.785   6.040
 2111SOL    HW2 7233   0.899   2.707   6.050
 2112SOL     OW 7234   0.346   1.809   0.664
 2112SOL    HW1 7235   0.400   1.844   0.741
 2112SOL    HW2 7236   0.311   1.718   0.687
 2113SOL     OW 7237   1.639   0.131   4.599
 2113SOL    HW1 7238   1.566   0.196   4.622
 2113SOL    HW2 7239   1.602   0.038   4.603
 2114SOL     OW 7240   2.224   2.447   6.872
 2114SOL    HW1 7241   2.150   2.381   6.865
 2114SOL    HW2 7242   2.277   2.430   6.955
 2115SOL     OW 7243   7.001   5.712   3.674
 2115SOL    HW1 7244   0.072   5.691   3.689
 2115SOL    HW2 7245   6.985   5.810   3.689
 2116SOL     OW 7246   0.441   2.892   0.043
 2116SOL    HW1 7247   0.488   2.808   0.016
 2116SOL    HW2 7248   0.384   2.924   6.993
 2117SOL     OW 7249   5.993   1.623   2.196
 2117SOL    HW1 7250   5.979   1.570   2.113
 2117SOL    HW2 7251   5.911   1.616   2.254
 2118SOL     OW 7252   6.200   2.958   1.932
 2118SOL    HW1 7253   6.179   3.042   1.981
 2118SOL    HW2 7254   6.115   2.919   1.896
 2119SOL     OW 7255   3.377   0.409   0.279
 2119SOL    HW1 7256   3.324   0.342   0.330
 2119SOL    HW2 7257   3.333   0.427   0.191
 2120SOL     OW 7258   5.744   1.863   0.839
 2120SOL    HW1 7259   5.760   1.809   0.922
 2120SOL    HW2 7260   5.775   1.957   0.855
 2121SOL     OW 7261   1.688   0.799   6.549
 2121SOL    HW1 7262   1.621   0.749   6.605
 2121SOL    HW2 7263   1.670   0.897   6.557
 2122SOL     OW 7264   5.941   0.518   5.072
 2122SOL    HW1 7265   5.913   0.559   4.985
 2122SOL    HW2 7266   5.976   0.590   5.132
 2123SOL     OW 7267   1.232   5.912   3.411
 2123SOL    HW1 7268   1.173   5.963   3.349
 2123SOL    HW2 7269   1.322   5.901   3.370
 2124SOL     OW 7270   3.672   2.944   5.904
 2124SOL    HW1 7271   3.592   2.890   5.932
 2124SOL    HW2 7272   3.655   3.040   5.924
 2125SOL     OW 7273   1.503   6.133   3.012
 2125SOL    HW1 7274   1.500   6.190   3.094
 2125SOL    HW2 7275   1.560   6.052   3.029
 2126SOL     OW 7276   3.607   4.244   0.046
 2126SOL    HW1 7277   3.579   4.201   6.986
 2126SOL    HW2 7278   3.527   4.285   0.089
 2127SOL     OW 7279   0.447   2.460   5.038
 2127SOL    HW1 7280   0.385   2.403   4.984
 2127SOL    HW2 7281   0.399   2.542   5.069
 2128SOL     OW 7282   5.278   2.951   1.581
 2128SOL    HW1 7283   5.203   2.965   1.516
 2128SOL    HW2 7284   5.339   2.880   1.546
 2129SOL     OW 7285   4.967   4.476   3.688
 2129SOL    HW1 7286   5.005   4.487   3.779
 2129SOL    HW2 7287   4.883   4.422   3.693
 2130SOL     OW 7288   2.084   0.917   2.543
 2130SOL    HW1 7289   2.053   0.866   2.624
 2130SOL    HW2 7290   2.014   0.983   2.517
 2131SOL     OW 7291   5.859   1.771   5.804
 2131SOL    HW1 7292   5.890   1.834   5.733
 2131SOL    HW2 7293   5.899   1.799   5.892
 2132SOL     OW 7294   2.927   1.994   6.842
 2132SOL    HW1 7295   2.913   2.088   6.874
 2132SOL    HW2 7296   2.958   1.938   6.919
 2133SOL     OW 7297   2.616   2.382   1.786
 2133SOL    HW1 7298   2.671   2.463   1.766
 2133SOL    HW2 7299   2.579   2.389   1.879
 2134SOL     OW 7300   0.829   6.175   4.862
 2134SOL    HW1 7301   0.865   6.156   4.954
 2134SOL    HW2 7302   0.850   6.269   4.836
 2135SOL     OW 7303   0.467   1.340   3.340
 2135SOL    HW1 7304   0.515   1.419   3.301
 2135SOL    HW2 7305   0.369   1.349   3.321
 2136SOL     OW 7306   0.293   3.772   3.306
 2136SOL    HW1 7307   0.318   3.784   3.402
 2136SOL    HW2 7308   0.203   3.728   3.300
 2137SOL     OW 7309   1.181   0.303   5.140
 2137SOL    HW1 7310   1.258   0.254   5.180
 2137SOL    HW2 7311   1.215   0.388   5.099
 2138SOL     OW 7312   0.040   2.847   0.489
 2138SOL    HW1 7313   6.995   2.912   0.519
 2138SOL    HW2 7314   0.110   2.895   0.437
 2139SOL     OW 7315   2.776   0.579   5.181
 2139SOL    HW1 7316   2.782   0.619   5.273
 2139SOL    HW2 7317   2.794   0.481   5.186
 2140SOL     OW 7318   2.298   5.851   3.555
 2140SOL    HW1 7319   2.264   5.831   3.648
 2140SOL    HW2 7320   2.221   5.847   3.491
 2141SOL     OW 7321   5.314   2.179   0.975
 2141SOL    HW1 7322   5.275   2.164   1.066
 2141SOL    HW2 7323   5.256   2.135   0.906
 2142SOL     OW 7324   2.031   2.453   3.531
 2142SOL    HW1 7325   1.948   2.399   3.546
 2142SOL    HW2 7326   2.031   2.489   3.438
 2143SOL     OW 7327   3.277   6.606   1.677
 2143SOL    HW1 7328   3.235   6.578   1.591
 2143SOL    HW2 7329   3.239   6.551   1.751
 2144SOL     OW 7330   0.756   1.142   3.509
 2144SOL    HW1 7331   0.674   1.103   3.467
 2144SOL    HW2 7332   0.810   1.189   3.438
 2145SOL     OW 7333   3.455   5.015   3.009
 2145SOL    HW1 7334   3.473   5.104   3.051
 2145SOL    HW2 7335   3.539   4.962   3.007
 2146SOL     OW 7336   3.847   3.106   2.657
 2146SOL    HW1 7337   3.879   3.032   2.715
 2146SOL    HW2 7338   3.914   3.123   2.584
 2147SOL     OW 7339   1.199   1.354   5.533
 2147SOL    HW1 7340   1.118   1.388   5.582
 2147SOL    HW2 7341   1.277   1.352   5.595
 2148SOL     OW 7342   4.902   3.411   2.781
 2148SOL    HW1 7343   4.908   3.410   2.681
 2148SOL    HW2 7344   4.863   3.325   2.813
 2149SOL     OW 7345   3.656   1.165   2.577
 2149SOL    HW1 7346   3.738   1.203   2.534
 2149SOL    HW2 7347   3.678   1.138   2.671
 2150SOL     OW 7348   3.084   2.228   3.552
 2150SOL    HW1 7349   3.097   2.325   3.574
 2150SOL    HW2 7350   3.058   2.179   3.635
 2151SOL     OW 7351   3.909   2.922   5.586
 2151SOL    HW1 7352   3.902   3.013   5.626
 2151SOL    HW2 7353   4.004   2.903   5.563
 2152SOL     OW 7354   6.134   6.218   2.267
 2152SOL    HW1 7355   6.035   6.218   2.255
 2152SOL    HW2 7356   6.162   6.134   2.313
 2153SOL     OW 7357   4.524   2.344   3.553
 2153SOL    HW1 7358   4.484   2.387   3.633
 2153SOL    HW2 7359   4.611   2.301   3.578
 2154SOL     OW 7360   3.317   5.642   4.959
 2154SOL    HW1 7361   3.396   5.698   4.983
 2154SOL    HW2 7362   3.234   5.685   4.994
 2155SOL     OW 7363   0.469   4.319   0.329
 2155SOL    HW1 7364   0.562   4.345   0.306
 2155SOL    HW2 7365   0.411   4.327   0.247
 2156SOL     OW 7366   1.750   0.469   1.882
 2156SOL    HW1 7367   1.846   0.481   1.856
 2156SOL    HW2 7368   1.711   0.558   1.905
 2157SOL     OW 7369   0.740   1.368   5.122
 2157SOL    HW1 7370   0.713   1.395   5.214
 2157SOL    HW2 7371   0.763   1.449   5.069
 2158SOL     OW 7372   3.531   6.694   1.798
 2158SOL    HW1 7373   3.525   6.672   1.701
 2158SOL    HW2 7374   3.455   6.651   1.847
 2159SOL     OW 7375   1.241   6.668   5.061
 2159SOL    HW1 7376   1.301   6.590   5.080
 2159SOL    HW2 7377   1.291   6.753   5.077
 2160SOL     OW 7378   3.125   4.086   1.091
 2160SOL    HW1 7379   3.168   4.029   1.021
 2160SOL    HW2 7380   3.066   4.029   1.148
 2161SOL     OW 7381   5.208   2.556   3.390
 2161SOL    HW1 7382   5.140   2.622   3.359
 2161SOL    HW2 7383   5.279   2.547   3.320
 2162SOL     OW 7384   1.443   0.697   6.694
 2162SOL    HW1 7385   1.359   0.727   6.647
 2162SOL    HW2 7386   1.431   0.709   6.793
 2163SOL     OW 7387   1.906   1.356   0.558
 2163SOL    HW1 7388   1.868   1.392   0.644
 2163SOL    HW2 7389   1.837   1.361   0.486
 2164SOL     OW 7390   1.432   1.022   6.948
 2164SOL    HW1 7391   1.498   1.095   6.967
 2164SOL    HW2 7392   1.361   1.057   6.887
 2165SOL     OW 7393   2.021   6.743   2.843
 2165SOL    HW1 7394   1.957   6.805   2.889
 2165SOL    HW2 7395   2.096   6.795   2.803
 2166SOL     OW 7396   0.410   2.541   6.353
 2166SOL    HW1 7397   0.478   2.613   6.345
 2166SOL    HW2 7398   0.335   2.572   6.412
 2167SOL     OW 7399   3.511   0.675   2.766
 2167SOL    HW1 7400   3.517   0.774   2.757
 2167SOL    HW2 7401   3.600   0.638   2.792
 2168SOL     OW 7402   5.646   4.320   4.844
 2168SOL    HW1 7403   5.706   4.399   4.832
 2168SOL    HW2 7404   5.690   4.253   4.904
 2169SOL     OW 7405   5.334   2.108   6.295
 2169SOL    HW1 7406   5.373   2.035   6.239
 2169SOL    HW2 7407   5.401   2.137   6.363
 2170SOL     OW 7408   4.266   5.034   4.576
 2170SOL    HW1 7409   4.343   4.972   4.593
 2170SOL    HW2 7410   4.181   4.983   4.573
 2171SOL     OW 7411   6.955   3.087   0.046
 2171SOL    HW1 7412   7.008   3.160   0.003
 2171SOL    HW2 7413   6.986   3.074   0.140
 2172SOL     OW 7414   2.858   0.733   0.613
 2172SOL    HW1 7415   2.922   0.776   0.549
 2172SOL    HW2 7416   2.898   0.647   0.646
 2173SOL     OW 7417   5.610   1.279   5.585
 2173SOL    HW1 7418   5.570   1.194   5.618
 2173SOL    HW2 7419   5.540   1.350   5.583
 2174SOL     OW 7420   0.277   5.080   4.941
 2174SOL    HW1 7421   0.308   5.115   4.852
 2174SOL    HW2 7422   0.313   5.138   5.014
 2175SOL     OW 7423   2.110   0.203   4.656
 2175SOL    HW1 7424   2.080   0.299   4.653
 2175SOL    HW2 7425   2.040   0.148   4.701
 2176SOL     OW 7426   1.894   2.755   3.030
 2176SOL    HW1 7427   1.992   2.757   3.014
 2176SOL    HW2 7428   1.855   2.672   2.989
 2177SOL     OW 7429   0.461   2.653   1.009
 2177SOL    HW1 7430   0.471   2.553   1.007
 2177SOL    HW2 7431   0.538   2.695   0.962
 2178SOL     OW 7432   0.540   4.793   0.255
 2178SOL    HW1 7433   0.491   4.739   0.187
 2178SOL    HW2 7434   0.482   4.869   0.285
 2179SOL     OW 7435   1.692   5.530   4.424
 2179SOL    HW1 7436   1.719   5.456   4.485
 2179SOL    HW2 7437   1.603   5.566   4.453
 2180SOL     OW 7438   3.448   3.385   2.701
 2180SOL    HW1 7439   3.542   3.398   2.732
 2180SOL    HW2 7440   3.420   3.463   2.644
 2181SOL     OW 7441   4.912   5.487   6.306
 2181SOL    HW1 7442   4.928   5.522   6.214
 2181SOL    HW2 7443   4.975   5.412   6.325
 2182SOL     OW 7444   0.321   2.972   6.046
 2182SOL    HW1 7445   0.222   2.964   6.030
 2182SOL    HW2 7446   0.351   3.063   6.020
 2183SOL     OW 7447   3.557   3.165   1.001
 2183SOL    HW1 7448   3.570   3.226   0.923
 2183SOL    HW2 7449   3.640   3.163   1.057
 2184SOL     OW 7450   3.817   2.550   6.450
 2184SOL    HW1 7451   3.815   2.650   6.447
 2184SOL    HW2 7452   3.835   2.521   6.544
 2185SOL     OW 7453   2.020   1.067   1.228
 2185SOL    HW1 7454   2.120   1.059   1.227
 2185SOL    HW2 7455   1.990   1.110   1.143
 2186SOL     OW 7456   0.549   6.102   3.259
 2186SOL    HW1 7457   0.580   6.132   3.349
 2186SOL    HW2 7458   0.461   6.146   3.238
 2187SOL     OW 7459   0.273   1.500   6.861
 2187SOL    HW1 7460   0.347   1.517   6.795
 2187SOL    HW2 7461   0.198   1.564   6.843
 2188SOL     OW 7462   5.869   0.117   2.843
 2188SOL    HW1 7463   5.774   0.114   2.872
 2188SOL    HW2 7464   5.894   0.030   2.800
 2189SOL     OW 7465   2.071   6.591   6.403
 2189SOL    HW1 7466   2.007   6.616   6.330
 2189SOL    HW2 7467   2.086   6.492   6.401
 2190SOL     OW 7468   5.363   1.920   2.025
 2190SOL    HW1 7469   5.402   1.967   1.946
 2190SOL    HW2 7470   5.435   1.901   2.092
 2191SOL     OW 7471   3.345   2.721   6.213
 2191SOL    HW1 7472   3.277   2.653   6.241
 2191SOL    HW2 7473   3.436   2.691   6.243
 2192SOL     OW 7474   4.490   5.777   4.939
 2192SOL    HW1 7475   4.492   5.699   4.875
 2192SOL    HW2 7476   4.583   5.796   4.971
 2193SOL     OW 7477   1.182   5.106   5.759
 2193SOL    HW1 7478   1.206   5.014   5.730
 2193SOL    HW2 7479   1.221   5.172   5.695
 2194SOL     OW 7480   2.341   0.236   0.974
 2194SOL    HW1 7481   2.287   0.303   1.023
 2194SOL    HW2 7482   2.330   0.146   1.017
 2195SOL     OW 7483   1.741   5.606   2.619
 2195SOL    HW1 7484   1.760   5.661   2.538
 2195SOL    HW2 7485   1.801   5.525   2.619
 2196SOL     OW 7486   3.348   1.845   6.186
 2196SOL    HW1 7487   3.250   1.862   6.191
 2196SOL    HW2 7488   3.365   1.755   6.146
 2197SOL     OW 7489   4.933   5.070   1.454
 2197SOL    HW1 7490   4.957   5.160   1.491
 2197SOL    HW2 7491   4.946   5.070   1.355
 2198SOL     OW 7492   6.799   3.876   0.738
 2198SOL    HW1 7493   6.716   3.904   0.786
 2198SOL    HW2 7494   6.853   3.815   0.796
 2199SOL     OW 7495   4.747   0.174   1.542
 2199SOL    HW1 7496   4.812   0.102   1.565
 2199SOL    HW2 7497   4.658   0.134   1.521
 2200SOL     OW 7498   3.519   0.472   4.569
 2200SOL    HW1 7499   3.575   0.402   4.526
 2200SOL    HW2 7500   3.524   0.462   4.669
 2201SOL     OW 7501   5.629   3.414   2.058
 2201SOL    HW1 7502   5.693   3.363   2.001
 2201SOL    HW2 7503   5.663   3.507   2.070
 2202SOL     OW 7504   4.717   5.729   3.984
 2202SOL    HW1 7505   4.775   5.711   4.064
 2202SOL    HW2 7506   4.620   5.724   4.012
 2203SOL     OW 7507   3.494   2.025   3.602
 2203SOL    HW1 7508   3.521   1.936   3.638
 2203SOL    HW2 7509   3.568   2.061   3.545
 2204SOL     OW 7510   3.396   2.723   0.467
 2204SOL    HW1 7511   3.392   2.675   0.380
 2204SOL    HW2 7512   3.420   2.819   0.451
 2205SOL     OW 7513   2.867   6.861   0.844
 2205SOL    HW1 7514   2.835   6.918   0.920
 2205SOL    HW2 7515   2.956   6.895   0.813
 2206SOL     OW 7516   2.206   3.200   6.633
 2206SOL    HW1 7517   2.275   3.185   6.704
 2206SOL    HW2 7518   2.201   3.297   6.612
 2207SOL     OW 7519   0.941   4.492   6.138
 2207SOL    HW1 7520   0.909   4.538   6.221
 2207SOL    HW2 7521   1.015   4.544   6.097
 2208SOL     OW 7522   0.228   3.853   1.826
 2208SOL    HW1 7523   0.245   3.928   1.761
 2208SOL    HW2 7524   0.315   3.810   1.850
 2209SOL     OW 7525   0.690   5.957   6.609
 2209SOL    HW1 7526   0.735   5.985   6.694
 2209SOL    HW2 7527   0.643   6.036   6.570
 2210SOL     OW 7528   0.651   6.024   3.997
 2210SOL    HW1 7529   0.558   6.013   3.963
 2210SOL    HW2 7530   0.681   6.118   3.984
 2211SOL     OW 7531   6.230   1.302   5.395
 2211SOL    HW1 7532   6.220   1.367   5.470
 2211SOL    HW2 7533   6.142   1.291   5.349
 2212SOL     OW 7534   1.735   0.293   6.352
 2212SOL    HW1 7535   1.741   0.393   6.353
 2212SOL    HW2 7536   1.803   0.255   6.414
 2213SOL     OW 7537   4.042   1.746   3.715
 2213SOL    HW1 7538   4.096   1.826   3.742
 2213SOL    HW2 7539   3.980   1.772   3.640
 2214SOL     OW 7540   4.827   0.158   4.317
 2214SOL    HW1 7541   4.887   0.202   4.249
 2214SOL    HW2 7542   4.856   0.064   4.332
 2215SOL     OW 7543   6.409   2.090   5.330
 2215SOL    HW1 7544   6.435   2.129   5.242
 2215SOL    HW2 7545   6.400   1.991   5.321
 2216SOL     OW 7546   1.704   6.773   1.830
 2216SOL    HW1 7547   1.727   6.749   1.924
 2216SOL    HW2 7548   1.612   6.740   1.808
 2217SOL     OW 7549   4.174   0.427   1.140
 2217SOL    HW1 7550   4.127   0.377   1.067
 2217SOL    HW2 7551   4.117   0.428   1.222
 2218SOL     OW 7552   0.714   6.078   0.512
 2218SOL    HW1 7553   0.728   6.025   0.596
 2218SOL    HW2 7554   0.657   6.025   0.449
 2219SOL     OW 7555   1.497   4.310   3.546
 2219SOL    HW1 7556   1.532   4.321   3.638
 2219SOL    HW2 7557   1.548   4.237   3.499
 2220SOL     OW 7558   0.352   1.053   6.579
 2220SOL    HW1 7559   0.393   1.105   6.654
 2220SOL    HW2 7560   0.419   0.989   6.542
 2221SOL     OW 7561   6.629   2.662   1.418
 2221SOL    HW1 7562   6.567   2.642   1.494
 2221SOL    HW2 7563   6.630   2.760   1.400
 2222SOL     OW 7564   4.778   6.586   2.680
 2222SOL    HW1 7565   4.854   6.525   2.658
 2222SOL    HW2 7566   4.813   6.669   2.724
 2223SOL     OW 7567   5.481   5.473   2.794
 2223SOL    HW1 7568   5.490   5.482   2.893
 2223SOL    HW2 7569   5.547   5.407   2.760
 2224SOL     OW 7570   1.625   4.456   1.374
 2224SOL    HW1 7571   1.529   4.428   1.377
 2224SOL    HW2 7572   1.637   4.527   1.304
 2225SOL     OW 7573   5.973   4.850   1.916
 2225SOL    HW1 7574   5.982   4.803   1.828
 2225SOL    HW2 7575   5.994   4.786   1.990
 2226SOL     OW 7576   4.169   4.310   1.098
 2226SOL    HW1 7577   4.261   4.341   1.121
 2226SOL    HW2 7578   4.174   4.226   1.045
 2227SOL     OW 7579   0.001   4.027   4.627
 2227SOL    HW1 7580   0.019   4.042   4.724
 2227SOL    HW2 7581   0.085   3.997   4.581
 2228SOL     OW 7582   3.111   5.151   5.878
 2228SOL    HW1 7583   3.013   5.165   5.894
 2228SOL    HW2 7584   3.131   5.053   5.878
 2229SOL     OW 7585   4.949   1.066   3.803
 2229SOL    HW1 7586   4.875   1.125   3.769
 2229SOL    HW2 7587   4.920   0.971   3.800
 2230SOL     OW 7588   1.491   6.181   6.926
 2230SOL    HW1 7589   1.548   6.193   6.844
 2230SOL    HW2 7590   1.435   6.099   6.915
 2231SOL     OW 7591   2.604   6.876   1.554
 2231SOL    HW1 7592   2.554   6.795   1.586
 2231SOL    HW2 7593   2.542   6.937   1.506
 2232SOL     OW 7594   6.299   2.543   2.841
 2232SOL    HW1 7595   6.372   2.540   2.772
 2232SOL    HW2 7596   6.257   2.452   2.848
 2233SOL     OW 7597   4.137   0.390   0.255
 2233SOL    HW1 7598   4.170   0.308   0.207
 2233SOL    HW2 7599   4.057   0.366   0.310
 2234SOL     OW 7600   3.404   1.811   0.788
 2234SOL    HW1 7601   3.448   1.722   0.798
 2234SOL    HW2 7602   3.459   1.868   0.727
 2235SOL     OW 7603   1.638   6.822   0.897
 2235SOL    HW1 7604   1.584   6.876   0.832
 2235SOL    HW2 7605   1.666   6.881   0.973
 2236SOL     OW 7606   0.172   4.288   1.143
 2236SOL    HW1 7607   0.177   4.201   1.191
 2236SOL    HW2 7608   0.158   4.362   1.209
 2237SOL     OW 7609   6.431   2.190   4.071
 2237SOL    HW1 7610   6.416   2.288   4.059
 2237SOL    HW2 7611   6.353   2.140   4.033
 2238SOL     OW 7612   1.546   5.569   2.088
 2238SOL    HW1 7613   1.575   5.663   2.074
 2238SOL    HW2 7614   1.597   5.509   2.027
 2239SOL     OW 7615   4.304   5.437   3.167
 2239SOL    HW1 7616   4.277   5.352   3.121
 2239SOL    HW2 7617   4.321   5.508   3.098
 2240SOL     OW 7618   5.663   4.123   2.144
 2240SOL    HW1 7619   5.718   4.165   2.217
 2240SOL    HW2 7620   5.658   4.185   2.066
 2241SOL     OW 7621   0.615   0.289   2.388
 2241SOL    HW1 7622   0.693   0.229   2.408
 2241SOL    HW2 7623   0.571   0.260   2.304
 2242SOL     OW 7624   4.848   1.778   2.563
 2242SOL    HW1 7625   4.880   1.793   2.657
 2242SOL    HW2 7626   4.861   1.682   2.539
 2243SOL     OW 7627   2.228   6.246   5.425
 2243SOL    HW1 7628   2.171   6.321   5.458
 2243SOL    HW2 7629   2.268   6.198   5.503
 2244SOL     OW 7630   2.797   0.501   4.781
 2244SOL    HW1 7631   2.822   0.585   4.829
 2244SOL    HW2 7632   2.712   0.515   4.731
 2245SOL     OW 7633   1.579   1.360   1.939
 2245SOL    HW1 7634   1.656   1.298   1.949
 2245SOL    HW2 7635   1.550   1.393   2.029
 2246SOL     OW 7636   0.998   3.906   5.773
 2246SOL    HW1 7637   1.003   3.884   5.870
 2246SOL    HW2 7638   0.905   3.935   5.750
 2247SOL     OW 7639   1.788   2.127   5.982
 2247SOL    HW1 7640   1.860   2.068   5.945
 2247SOL    HW2 7641   1.754   2.087   6.067
 2248SOL     OW 7642   5.019   3.279   5.324
 2248SOL    HW1 7643   4.933   3.330   5.321
 2248SOL    HW2 7644   4.998   3.181   5.323
 2249SOL     OW 7645   5.097   5.466   3.900
 2249SOL    HW1 7646   5.090   5.466   4.000
 2249SOL    HW2 7647   5.096   5.371   3.867
 2250SOL     OW 7648   6.528   4.403   6.885
 2250SOL    HW1 7649   6.466   4.481   6.889
 2250SOL    HW2 7650   6.523   4.353   6.972
 2251SOL     OW 7651   6.139   0.879   6.952
 2251SOL    HW1 7652   6.203   0.832   6.892
 2251SOL    HW2 7653   6.103   0.960   6.905
 2252SOL     OW 7654   4.228   2.244   5.728
 2252SOL    HW1 7655   4.134   2.230   5.695
 2252SOL    HW2 7656   4.289   2.180   5.681
 2253SOL     OW 7657   2.429   3.852   6.682
 2253SOL    HW1 7658   2.345   3.863   6.736
 2253SOL    HW2 7659   2.447   3.937   6.632
 2254SOL     OW 7660   2.229   3.881   6.191
 2254SOL    HW1 7661   2.285   3.917   6.116
 2254SOL    HW2 7662   2.239   3.939   6.271
 2255SOL     OW 7663   5.904   2.823   1.516
 2255SOL    HW1 7664   5.943   2.876   1.441
 2255SOL    HW2 7665   5.898   2.727   1.490
 2256SOL     OW 7666   4.155   4.928   1.732
 2256SOL    HW1 7667   4.094   4.874   1.789
 2256SOL    HW2 7668   4.101   4.992   1.676
 2257SOL     OW 7669   2.301   4.247   3.845
 2257SOL    HW1 7670   2.234   4.175   3.825
 2257SOL    HW2 7671   2.289   4.322   3.780
 2258SOL     OW 7672   1.528   5.385   4.225
 2258SOL    HW1 7673   1.565   5.432   4.145
 2258SOL    HW2 7674   1.549   5.438   4.307
 2259SOL     OW 7675   5.626   3.213   6.635
 2259SOL    HW1 7676   5.684   3.288   6.602
 2259SOL    HW2 7677   5.554   3.250   6.693
 2260SOL     OW 7678   5.482   5.342   0.833
 2260SOL    HW1 7679   5.433   5.270   0.882
 2260SOL    HW2 7680   5.576   5.347   0.867
 2261SOL     OW 7681   5.018   5.962   6.792
 2261SOL    HW1 7682   5.057   5.967   6.884
 2261SOL    HW2 7683   5.077   6.012   6.728
 2262SOL     OW 7684   4.565   2.050   3.174
 2262SOL    HW1 7685   4.522   2.130   3.217
 2262SOL    HW2 7686   4.577   1.978   3.242
 2263SOL     OW 7687   0.336   5.538   6.292
 2263SOL    HW1 7688   0.400   5.529   6.216
 2263SOL    HW2 7689   0.283   5.453   6.300
 2264SOL     OW 7690   3.715   4.082   4.136
 2264SOL    HW1 7691   3.739   4.069   4.040
 2264SOL    HW2 7692   3.618   4.108   4.142
 2265SOL     OW 7693   6.983   0.652   1.962
 2265SOL    HW1 7694   0.036   0.671   2.020
 2265SOL    HW2 7695   6.899   0.671   2.013
 2266SOL     OW 7696   5.952   6.885   1.119
 2266SOL    HW1 7697   5.934   6.886   1.217
 2266SOL    HW2 7698   6.047   6.910   1.102
 2267SOL     OW 7699   6.222   2.414   5.813
 2267SOL    HW1 7700   6.222   2.327   5.764
 2267SOL    HW2 7701   6.129   2.450   5.818
 2268SOL     OW 7702   6.922   5.420   0.043
 2268SOL    HW1 7703   6.828   5.391   0.024
 2268SOL    HW2 7704   6.923   5.516   0.069
 2269SOL     OW 7705   6.936   5.299   5.720
 2269SOL    HW1 7706   7.022   5.249   5.730
 2269SOL    HW2 7707   6.916   5.313   5.623
 2270SOL     OW 7708   4.025   3.584   1.671
 2270SOL    HW1 7709   4.092   3.547   1.736
 2270SOL    HW2 7710   3.934   3.546   1.692
 2271SOL     OW 7711   6.505   4.624   2.284
 2271SOL    HW1 7712   6.473   4.562   2.356
 2271SOL    HW2 7713   6.597   4.597   2.256
 2272SOL     OW 7714   6.093   1.873   6.169
 2272SOL    HW1 7715   6.177   1.849   6.119
 2272SOL    HW2 7716   6.016   1.827   6.126
 2273SOL     OW 7717   1.129   1.720   3.310
 2273SOL    HW1 7718   1.125   1.799   3.371
 2273SOL    HW2 7719   1.160   1.749   3.220
 2274SOL     OW 7720   1.260   2.959   4.141
 2274SOL    HW1 7721   1.252   2.884   4.075
 2274SOL    HW2 7722   1.245   3.046   4.094
 2275SOL     OW 7723   5.315   6.716   3.616
 2275SOL    HW1 7724   5.413   6.702   3.631
 2275SOL    HW2 7725   5.295   6.711   3.518
 2276SOL     OW 7726   4.985   4.723   1.786
 2276SOL    HW1 7727   4.978   4.646   1.849
 2276SOL    HW2 7728   5.064   4.779   1.810
 2277SOL     OW 7729   3.065   3.857   0.321
 2277SOL    HW1 7730   3.044   3.954   0.317
 2277SOL    HW2 7731   3.024   3.810   0.243
 2278SOL     OW 7732   5.539   6.356   1.526
 2278SOL    HW1 7733   5.611   6.319   1.467
 2278SOL    HW2 7734   5.581   6.405   1.602
 2279SOL     OW 7735   5.823   3.716   5.010
 2279SOL    HW1 7736   5.779   3.784   4.951
 2279SOL    HW2 7737   5.907   3.682   4.966
 2280SOL     OW 7738   6.192   6.643   6.450
 2280SOL    HW1 7739   6.169   6.565   6.392
 2280SOL    HW2 7740   6.183   6.728   6.398
 2281SOL     OW 7741   3.725   3.035   0.789
 2281SOL    HW1 7742   3.759   3.117   0.743
 2281SOL    HW2 7743   3.673   3.062   0.871
 2282SOL     OW 7744   3.793   5.324   3.319
 2282SOL    HW1 7745   3.735   5.243   3.320
 2282SOL    HW2 7746   3.884   5.298   3.286
 2283SOL     OW 7747   6.629   3.277   3.462
 2283SOL    HW1 7748   6.662   3.187   3.434
 2283SOL    HW2 7749   6.544   3.266   3.513
 2284SOL     OW 7750   1.836   2.927   1.988
 2284SOL    HW1 7751   1.921   2.882   1.960
 2284SOL    HW2 7752   1.812   2.897   2.080
 2285SOL     OW 7753   2.006   4.610   0.241
 2285SOL    HW1 7754   2.048   4.626   0.151
 2285SOL    HW2 7755   1.913   4.576   0.229
 2286SOL     OW 7756   6.446   6.617   4.490
 2286SOL    HW1 7757   6.352   6.589   4.510
 2286SOL    HW2 7758   6.469   6.698   4.544
 2287SOL     OW 7759   2.218   2.929   1.690
 2287SOL    HW1 7760   2.305   2.975   1.707
 2287SOL    HW2 7761   2.231   2.852   1.628
 2288SOL     OW 7762   0.299   6.382   4.376
 2288SOL    HW1 7763   0.371   6.313   4.390
 2288SOL    HW2 7764   0.210   6.340   4.390
 2289SOL     OW 7765   5.346   2.353   1.588
 2289SOL    HW1 7766   5.368   2.372   1.683
 2289SOL    HW2 7767   5.284   2.423   1.553
 2290SOL     OW 7768   3.510   3.096   3.020
 2290SOL    HW1 7769   3.473   3.186   3.042
 2290SOL    HW2 7770   3.454   3.053   2.950
 2291SOL     OW 7771   1.883   2.647   0.490
 2291SOL    HW1 7772   1.946   2.671   0.564
 2291SOL    HW2 7773   1.931   2.656   0.402
 2292SOL     OW 7774   4.301   2.313   2.899
 2292SOL    HW1 7775   4.273   2.287   2.806
 2292SOL    HW2 7776   4.349   2.236   2.941
 2293SOL     OW 7777   6.199   1.207   0.265
 2293SOL    HW1 7778   6.139   1.287   0.262
 2293SOL    HW2 7779   6.289   1.232   0.231
 2294SOL     OW 7780   0.699   2.323   5.873
 2294SOL    HW1 7781   0.759   2.398   5.902
 2294SOL    HW2 7782   0.755   2.248   5.838
 2295SOL     OW 7783   5.975   6.378   1.423
 2295SOL    HW1 7784   6.011   6.304   1.480
 2295SOL    HW2 7785   6.037   6.395   1.347
 2296SOL     OW 7786   2.812   5.308   3.862
 2296SOL    HW1 7787   2.735   5.244   3.872
 2296SOL    HW2 7788   2.898   5.258   3.870
 2297SOL     OW 7789   4.239   4.208   5.363
 2297SOL    HW1 7790   4.256   4.282   5.298
 2297SOL    HW2 7791   4.154   4.227   5.414
 2298SOL     OW 7792   4.131   3.365   4.433
 2298SOL    HW1 7793   4.060   3.327   4.374
 2298SOL    HW2 7794   4.220   3.355   4.389
 2299SOL     OW 7795   5.345   3.145   4.773
 2299SOL    HW1 7796   5.366   3.069   4.712
 2299SOL    HW2 7797   5.317   3.224   4.719
 2300SOL     OW 7798   4.217   6.718   2.227
 2300SOL    HW1 7799   4.187   6.744   2.318
 2300SOL    HW2 7800   4.197   6.621   2.211
 2301SOL     OW 7801   3.896   3.267   4.280
 2301SOL    HW1 7802   3.802   3.300   4.294
 2301SOL    HW2 7803   3.893   3.174   4.243
 2302SOL     OW 7804   4.065   2.201   0.416
 2302SOL    HW1 7805   4.051   2.120   0.359
 2302SOL    HW2 7806   4.111   2.272   0.363
 2303SOL     OW 7807   3.548   2.245   0.276
 2303SOL    HW1 7808   3.587   2.335   0.258
 2303SOL    HW2 7809   3.467   2.254   0.334
 2304SOL     OW 7810   6.131   5.853   1.708
 2304SOL    HW1 7811   6.169   5.822   1.621
 2304SOL    HW2 7812   6.093   5.945   1.697
 2305SOL     OW 7813   2.333   0.940   5.225
 2305SOL    HW1 7814   2.289   0.857   5.190
 2305SOL    HW2 7815   2.350   1.003   5.150
 2306SOL     OW 7816   1.630   5.508   3.999
 2306SOL    HW1 7817   1.723   5.473   3.986
 2306SOL    HW2 7818   1.602   5.558   3.918
 2307SOL     OW 7819   7.022   2.693   5.907
 2307SOL    HW1 7820   6.942   2.656   5.859
 2307SOL    HW2 7821   0.060   2.619   5.928
 2308SOL     OW 7822   2.512   4.709   1.571
 2308SOL    HW1 7823   2.453   4.665   1.639
 2308SOL    HW2 7824   2.606   4.674   1.582
 2309SOL     OW 7825   1.686   6.272   5.172
 2309SOL    HW1 7826   1.776   6.234   5.194
 2309SOL    HW2 7827   1.621   6.197   5.156
 2310SOL     OW 7828   4.662   6.458   1.578
 2310SOL    HW1 7829   4.734   6.421   1.519
 2310SOL    HW2 7830   4.703   6.496   1.661
 2311SOL     OW 7831   2.391   6.133   1.107
 2311SOL    HW1 7832   2.414   6.164   1.014
 2311SOL    HW2 7833   2.339   6.204   1.154
 2312SOL     OW 7834   3.357   4.918   2.373
 2312SOL    HW1 7835   3.283   4.856   2.399
 2312SOL    HW2 7836   3.329   5.012   2.388
 2313SOL     OW 7837   4.262   5.448   2.089
 2313SOL    HW1 7838   4.304   5.395   2.162
 2313SOL    HW2 7839   4.312   5.433   2.004
 2314SOL     OW 7840   2.718   5.683   3.969
 2314SOL    HW1 7841   2.778   5.733   3.907
 2314SOL    HW2 7842   2.770   5.611   4.014
 2315SOL     OW 7843   4.310   3.011   6.621
 2315SOL    HW1 7844   4.288   3.108   6.610
 2315SOL    HW2 7845   4.227   2.956   6.612
 2316SOL     OW 7846   5.577   2.996   2.768
 2316SOL    HW1 7847   5.538   3.057   2.699
 2316SOL    HW2 7848   5.640   2.932   2.723
 2317SOL     OW 7849   1.071   4.983   3.608
 2317SOL    HW1 7850   1.120   4.936   3.534
 2317SOL    HW2 7851   1.122   4.973   3.693
 2318SOL     OW 7852   6.795   1.316   3.541
 2318SOL    HW1 7853   6.834   1.359   3.623
 2318SOL    HW2 7854   6.868   1.286   3.480
 2319SOL     OW 7855   0.861   4.060   4.385
 2319SOL    HW1 7856   0.906   4.084   4.471
 2319SOL    HW2 7857   0.812   3.973   4.396
 2320SOL     OW 7858   6.370   3.674   4.459
 2320SOL    HW1 7859   6.436   3.749   4.466
 2320SOL    HW2 7860   6.296   3.689   4.525
 2321SOL     OW 7861   3.251   6.682   5.548
 2321SOL    HW1 7862   3.325   6.619   5.571
 2321SOL    HW2 7863   3.231   6.676   5.450
 2322SOL     OW 7864   2.509   0.121   5.888
 2322SOL    HW1 7865   2.590   0.153   5.838
 2322SOL    HW2 7866   2.469   0.197   5.939
 2323SOL     OW 7867   4.872   5.087   1.837
 2323SOL    HW1 7868   4.837   5.101   1.929
 2323SOL    HW2 7869   4.816   5.019   1.790
 2324SOL     OW 7870   6.732   5.653   3.713
 2324SOL    HW1 7871   6.825   5.689   3.703
 2324SOL    HW2 7872   6.693   5.683   3.800
 2325SOL     OW 7873   0.173   3.640   0.377
 2325SOL    HW1 7874   0.128   3.677   0.295
 2325SOL    HW2 7875   0.126   3.557   0.406
 2326SOL     OW 7876   1.360   5.344   6.937
 2326SOL    HW1 7877   1.296   5.418   6.958
 2326SOL    HW2 7878   1.447   5.383   6.908
 2327SOL     OW 7879   4.912   2.396   4.792
 2327SOL    HW1 7880   4.838   2.424   4.853
 2327SOL    HW2 7881   4.895   2.304   4.758
 2328SOL     OW 7882   4.676   6.412   3.284
 2328SOL    HW1 7883   4.591   6.395   3.334
 2328SOL    HW2 7884   4.656   6.467   3.203
 2329SOL     OW 7885   0.381   6.088   4.185
 2329SOL    HW1 7886   0.362   6.068   4.089
 2329SOL    HW2 7887   0.295   6.087   4.237
 2330SOL     OW 7888   6.963   4.042   2.861
 2330SOL    HW1 7889   0.032   4.073   2.855
 2330SOL    HW2 7890   6.944   3.976   2.787
 2331SOL     OW 7891   0.798   4.413   5.196
 2331SOL    HW1 7892   0.729   4.354   5.156
 2331SOL    HW2 7893   0.844   4.465   5.124
 2332SOL     OW 7894   5.507   1.966   5.483
 2332SOL    HW1 7895   5.412   1.938   5.495
 2332SOL    HW2 7896   5.562   1.886   5.458
 2333SOL     OW 7897   1.035   5.677   4.081
 2333SOL    HW1 7898   0.949   5.638   4.113
 2333SOL    HW2 7899   1.040   5.774   4.106
 2334SOL     OW 7900   2.814   0.176   0.205
 2334SOL    HW1 7901   2.768   0.107   0.150
 2334SOL    HW2 7902   2.808   0.151   0.302
 2335SOL     OW 7903   5.575   6.634   3.672
 2335SOL    HW1 7904   5.624   6.618   3.586
 2335SOL    HW2 7905   5.596   6.559   3.736
 2336SOL     OW 7906   5.102   1.558   6.061
 2336SOL    HW1 7907   5.085   1.460   6.046
 2336SOL    HW2 7908   5.171   1.568   6.133
 2337SOL     OW 7909   5.232   0.112   2.707
 2337SOL    HW1 7910   5.317   0.153   2.674
 2337SOL    HW2 7911   5.218   0.023   2.664
 2338SOL     OW 7912   0.897   6.509   6.591
 2338SOL    HW1 7913   0.909   6.534   6.687
 2338SOL    HW2 7914   0.890   6.410   6.582
 2339SOL     OW 7915   3.862   4.421   0.623
 2339SOL    HW1 7916   3.784   4.465   0.667
 2339SOL    HW2 7917   3.846   4.323   0.616
 2340SOL     OW 7918   3.406   5.188   5.034
 2340SOL    HW1 7919   3.407   5.135   5.119
 2340SOL    HW2 7920   3.420   5.284   5.054
 2341SOL     OW 7921   5.914   5.101   0.299
 2341SOL    HW1 7922   5.960   5.180   0.339
 2341SOL    HW2 7923   5.861   5.054   0.369
 2342SOL     OW 7924   6.400   0.522   5.726
 2342SOL    HW1 7925   6.316   0.550   5.680
 2342SOL    HW2 7926   6.392   0.542   5.824
 2343SOL     OW 7927   1.269   6.885   1.145
 2343SOL    HW1 7928   1.169   6.879   1.145
 2343SOL    HW2 7929   1.306   6.815   1.206
 2344SOL     OW 7930   2.062   2.330   2.658
 2344SOL    HW1 7931   1.991   2.357   2.592
 2344SOL    HW2 7932   2.098   2.412   2.702
 2345SOL     OW 7933   1.873   1.216   4.456
 2345SOL    HW1 7934   1.882   1.314   4.475
 2345SOL    HW2 7935   1.816   1.174   4.525
 2346SOL     OW 7936   4.898   3.555   5.981
 2346SOL    HW1 7937   4.985   3.595   6.010
 2346SOL    HW2 7938   4.834   3.627   5.957
 2347SOL     OW 7939   1.655   3.113   1.710
 2347SOL    HW1 7940   1.665   3.175   1.788
 2347SOL    HW2 7941   1.605   3.032   1.738
 2348SOL     OW 7942   2.712   6.812   2.000
 2348SOL    HW1 7943   2.649   6.879   1.962
 2348SOL    HW2 7944   2.731   6.742   1.932
 2349SOL     OW 7945   4.941   5.541   6.059
 2349SOL    HW1 7946   4.929   5.621   6.000
 2349SOL    HW2 7947   4.997   5.473   6.011
 2350SOL     OW 7948   2.072   6.426   5.543
 2350SOL    HW1 7949   2.101   6.520   5.524
 2350SOL    HW2 7950   1.974   6.426   5.565
 2351SOL     OW 7951   2.181   5.617   4.161
 2351SOL    HW1 7952   2.137   5.542   4.112
 2351SOL    HW2 7953   2.151   5.704   4.123
 2352SOL     OW 7954   0.645   3.573   2.481
 2352SOL    HW1 7955   0.714   3.500   2.476
 2352SOL    HW2 7956   0.634   3.614   2.390
 2353SOL     OW 7957   3.252   4.249   6.260
 2353SOL    HW1 7958   3.177   4.270   6.323
 2353SOL    HW2 7959   3.311   4.180   6.301
 2354SOL     OW 7960   3.780   2.197   0.687
 2354SOL    HW1 7961   3.747   2.141   0.611
 2354SOL    HW2 7962   3.788   2.141   0.769
 2355SOL     OW 7963   0.723   6.714   0.690
 2355SOL    HW1 7964   0.768   6.730   0.603
 2355SOL    HW2 7965   0.697   6.802   0.730
 2356SOL     OW 7966   2.925   4.961   3.289
 2356SOL    HW1 7967   2.873   4.877   3.275
 2356SOL    HW2 7968   3.022   4.939   3.299
 2357SOL     OW 7969   6.454   4.604   1.571
 2357SOL    HW1 7970   6.420   4.638   1.658
 2357SOL    HW2 7971   6.541   4.648   1.549
 2358SOL     OW 7972   3.985   1.830   5.867
 2358SOL    HW1 7973   3.979   1.745   5.919
 2358SOL    HW2 7974   3.944   1.904   5.919
 2359SOL     OW 7975   1.636   1.362   5.824
 2359SOL    HW1 7976   1.584   1.290   5.871
 2359SOL    HW2 7977   1.718   1.322   5.782
 2360SOL     OW 7978   4.394   4.175   0.866
 2360SOL    HW1 7979   4.308   4.221   0.845
 2360SOL    HW2 7980   4.410   4.102   0.799
 2361SOL     OW 7981   4.088   6.335   1.976
 2361SOL    HW1 7982   4.071   6.241   1.944
 2361SOL    HW2 7983   4.178   6.339   2.019
 2362SOL     OW 7984   4.016   5.994   3.897
 2362SOL    HW1 7985   3.994   6.036   3.985
 2362SOL    HW2 7986   4.072   6.057   3.843
 2363SOL     OW 7987   2.869   3.668   0.956
 2363SOL    HW1 7988   2.786   3.660   0.900
 2363SOL    HW2 7989   2.845   3.707   1.045
 2364SOL     OW 7990   4.372   1.254   2.166
 2364SOL    HW1 7991   4.310   1.301   2.104
 2364SOL    HW2 7992   4.329   1.244   2.256
 2365SOL     OW 7993   4.991   3.533   3.443
 2365SOL    HW1 7994   4.955   3.503   3.354
 2365SOL    HW2 7995   5.014   3.452   3.498
 2366SOL     OW 7996   2.681   4.698   5.198
 2366SOL    HW1 7997   2.712   4.637   5.270
 2366SOL    HW2 7998   2.752   4.705   5.128
 2367SOL     OW 7999   0.111   4.568   5.467
 2367SOL    HW1 8000   0.115   4.660   5.427
 2367SOL    HW2 8001   0.029   4.559   5.523
 2368SOL     OW 8002   5.613   6.104   4.300
 2368SOL    HW1 8003   5.678   6.030   4.283
 2368SOL    HW2 8004   5.551   6.076   4.373
 2369SOL     OW 8005   3.085   1.772   4.152
 2369SOL    HW1 8006   3.121   1.759   4.244
 2369SOL    HW2 8007   3.157   1.809   4.093
 2370SOL     OW 8008   5.588   2.695   1.296
 2370SOL    HW1 8009   5.563   2.624   1.230
 2370SOL    HW2 8010   5.667   2.746   1.261
 2371SOL     OW 8011   0.974   6.576   3.002
 2371SOL    HW1 8012   1.069   6.575   3.033
 2371SOL    HW2 8013   0.968   6.544   2.908
 2372SOL     OW 8014   6.170   0.856   6.224
 2372SOL    HW1 8015   6.085   0.809   6.198
 2372SOL    HW2 8016   6.158   0.900   6.313
 2373SOL     OW 8017   5.894   6.270   6.183
 2373SOL    HW1 8018   5.874   6.202   6.112
 2373SOL    HW2 8019   5.858   6.359   6.155
 2374SOL     OW 8020   5.851   5.799   2.224
 2374SOL    HW1 8021   5.801   5.761   2.301
 2374SOL    HW2 8022   5.862   5.728   2.154
 2375SOL     OW 8023   1.034   0.600   3.903
 2375SOL    HW1 8024   1.021   0.502   3.885
 2375SOL    HW2 8025   1.123   0.614   3.947
 2376SOL     OW 8026   5.671   1.379   3.119
 2376SOL    HW1 8027   5.652   1.298   3.063
 2376SOL    HW2 8028   5.761   1.415   3.095
 2377SOL     OW 8029   4.424   5.377   5.898
 2377SOL    HW1 8030   4.358   5.402   5.969
 2377SOL    HW2 8031   4.514   5.415   5.920
 2378SOL     OW 8032   0.036   0.983   0.280
 2378SOL    HW1 8033   0.083   0.922   0.344
 2378SOL    HW2 8034   6.979   0.938   0.246
 2379SOL     OW 8035   6.936   4.942   0.941
 2379SOL    HW1 8036   6.978   4.855   0.917
 2379SOL    HW2 8037   6.836   4.932   0.941
 2380SOL     OW 8038   4.861   4.740   5.147
 2380SOL    HW1 8039   4.802   4.779   5.076
 2380SOL    HW2 8040   4.943   4.797   5.157
 2381SOL     OW 8041   2.661   4.859   4.615
 2381SOL    HW1 8042   2.602   4.813   4.681
 2381SOL    HW2 8043   2.707   4.936   4.659
 2382SOL     OW 8044   1.045   5.693   1.734
 2382SOL    HW1 8045   1.039   5.638   1.818
 2382SOL    HW2 8046   1.072   5.635   1.658
 2383SOL     OW 8047   4.723   5.579   5.437
 2383SOL    HW1 8048   4.662   5.644   5.483
 2383SOL    HW2 8049   4.692   5.567   5.342
 2384SOL     OW 8050   0.781   1.917   1.812
 2384SOL    HW1 8051   0.784   1.852   1.888
 2384SOL    HW2 8052   0.786   2.011   1.848
 2385SOL     OW 8053   1.053   2.253   1.323
 2385SOL    HW1 8054   1.016   2.164   1.294
 2385SOL    HW2 8055   1.086   2.303   1.244
 2386SOL     OW 8056   4.508   5.721   4.294
 2386SOL    HW1 8057   4.481   5.748   4.201
 2386SOL    HW2 8058   4.604   5.692   4.294
 2387SOL     OW 8059   1.468   1.677   4.037
 2387SOL    HW1 8060   1.526   1.677   4.118
 2387SOL    HW2 8061   1.393   1.742   4.050
 2388SOL     OW 8062   6.740   1.813   5.375
 2388SOL    HW1 8063   6.688   1.835   5.292
 2388SOL    HW2 8064   6.682   1.828   5.455
 2389SOL     OW 8065   5.696   4.740   3.960
 2389SOL    HW1 8066   5.698   4.840   3.971
 2389SOL    HW2 8067   5.644   4.700   4.036
 2390SOL     OW 8068   4.086   4.178   5.664
 2390SOL    HW1 8069   4.044   4.230   5.590
 2390SOL    HW2 8070   4.022   4.169   5.740
 2391SOL     OW 8071   3.768   3.965   6.205
 2391SOL    HW1 8072   3.785   4.061   6.226
 2391SOL    HW2 8073   3.824   3.937   6.127
 2392SOL     OW 8074   3.950   5.103   5.514
 2392SOL    HW1 8075   3.963   5.142   5.423
 2392SOL    HW2 8076   3.888   5.024   5.507
 2393SOL     OW 8077   3.120   5.776   1.301
 2393SOL    HW1 8078   3.131   5.846   1.372
 2393SOL    HW2 8079   3.093   5.690   1.343
 2394SOL     OW 8080   0.856   2.805   3.225
 2394SOL    HW1 8081   0.918   2.882   3.211
 2394SOL    HW2 8082   0.891   2.746   3.298
 2395SOL     OW 8083   0.139   2.080   4.876
 2395SOL    HW1 8084   0.068   2.115   4.815
 2395SOL    HW2 8085   0.099   2.019   4.943
 2396SOL     OW 8086   6.697   0.961   4.990
 2396SOL    HW1 8087   6.600   0.979   5.000
 2396SOL    HW2 8088   6.712   0.897   4.914
 2397SOL     OW 8089   0.395   4.919   5.422
 2397SOL    HW1 8090   0.311   4.959   5.457
 2397SOL    HW2 8091   0.382   4.820   5.409
 2398SOL     OW 8092   2.711   5.810   3.620
 2398SOL    HW1 8093   2.658   5.886   3.582
 2398SOL    HW2 8094   2.765   5.843   3.697
 2399SOL     OW 8095   2.753   2.316   4.389
 2399SOL    HW1 8096   2.704   2.383   4.334
 2399SOL    HW2 8097   2.769   2.352   4.481
 2400SOL     OW 8098   0.707   4.132   0.650
 2400SOL    HW1 8099   0.610   4.126   0.625
 2400SOL    HW2 8100   0.716   4.138   0.749
 2401SOL     OW 8101   3.868   6.974   5.704
 2401SOL    HW1 8102   3.892   0.036   5.661
 2401SOL    HW2 8103   3.808   6.990   5.782
 2402SOL     OW 8104   1.016   4.194   2.333
 2402SOL    HW1 8105   1.115   4.184   2.337
 2402SOL    HW2 8106   0.989   4.215   2.239
 2403SOL     OW 8107   3.519   4.044   2.851
 2403SOL    HW1 8108   3.544   3.983   2.926
 2403SOL    HW2 8109   3.483   3.991   2.774
 2404SOL     OW 8110   6.363   1.990   0.954
 2404SOL    HW1 8111   6.446   1.934   0.963
 2404SOL    HW2 8112   6.378   2.079   0.997
 2405SOL     OW 8113   2.112   3.645   0.668
 2405SOL    HW1 8114   2.082   3.736   0.639
 2405SOL    HW2 8115   2.145   3.594   0.589
 2406SOL     OW 8116   2.648   6.491   4.887
 2406SOL    HW1 8117   2.735   6.455   4.920
 2406SOL    HW2 8118   2.662   6.580   4.843
 2407SOL     OW 8119   3.750   1.406   3.761
 2407SOL    HW1 8120   3.691   1.383   3.684
 2407SOL    HW2 8121   3.789   1.322   3.799
 2408SOL     OW 8122   2.990   5.551   4.669
 2408SOL    HW1 8123   2.946   5.503   4.594
 2408SOL    HW2 8124   2.943   5.530   4.755
 2409SOL     OW 8125   2.305   2.489   1.647
 2409SOL    HW1 8126   2.383   2.460   1.592
 2409SOL    HW2 8127   2.296   2.429   1.727
 2410SOL     OW 8128   0.367   3.706   5.273
 2410SOL    HW1 8129   0.375   3.619   5.322
 2410SOL    HW2 8130   0.451   3.723   5.222
 2411SOL     OW 8131   2.655   3.782   6.891
 2411SOL    HW1 8132   2.658   3.780   6.991
 2411SOL    HW2 8133   2.584   3.720   6.859
 2412SOL     OW 8134   3.628   1.860   6.504
 2412SOL    HW1 8135   3.700   1.880   6.437
 2412SOL    HW2 8136   3.630   1.929   6.576
 2413SOL     OW 8137   6.759   2.958   6.537
 2413SOL    HW1 8138   6.689   3.005   6.484
 2413SOL    HW2 8139   6.835   2.933   6.477
 2414SOL     OW 8140   6.275   2.355   4.449
 2414SOL    HW1 8141   6.298   2.269   4.495
 2414SOL    HW2 8142   6.185   2.386   4.479
 2415SOL     OW 8143   2.766   5.857   0.931
 2415SOL    HW1 8144   2.674   5.823   0.951
 2415SOL    HW2 8145   2.825   5.843   1.011
 2416SOL     OW 8146   6.563   3.699   2.906
 2416SOL    HW1 8147   6.519   3.740   2.986
 2416SOL    HW2 8148   6.661   3.720   2.908
 2417SOL     OW 8149   3.671   3.486   1.129
 2417SOL    HW1 8150   3.702   3.392   1.117
 2417SOL    HW2 8151   3.588   3.502   1.077
 2418SOL     OW 8152   4.532   3.956   5.856
 2418SOL    HW1 8153   4.540   3.960   5.757
 2418SOL    HW2 8154   4.599   3.891   5.892
 2419SOL     OW 8155   1.875   6.392   4.396
 2419SOL    HW1 8156   1.907   6.301   4.423
 2419SOL    HW2 8157   1.778   6.388   4.375
 2420SOL     OW 8158   1.954   4.373   2.790
 2420SOL    HW1 8159   1.912   4.392   2.879
 2420SOL    HW2 8160   2.036   4.430   2.778
 2421SOL     OW 8161   2.960   6.674   4.620
 2421SOL    HW1 8162   2.922   6.764   4.643
 2421SOL    HW2 8163   3.009   6.680   4.533
 2422SOL     OW 8164   4.165   6.387   0.647
 2422SOL    HW1 8165   4.179   6.377   0.548
 2422SOL    HW2 8166   4.235   6.335   0.696
 2423SOL     OW 8167   2.055   4.964   2.226
 2423SOL    HW1 8168   2.087   5.009   2.142
 2423SOL    HW2 8169   2.134   4.942   2.284
 2424SOL     OW 8170   5.589   1.130   6.081
 2424SOL    HW1 8171   5.604   1.121   6.179
 2424SOL    HW2 8172   5.676   1.121   6.033
 2425SOL     OW 8173   4.698   5.412   5.659
 2425SOL    HW1 8174   4.725   5.486   5.596
 2425SOL    HW2 8175   4.736   5.430   5.749
 2426SOL     OW 8176   1.266   4.855   5.657
 2426SOL    HW1 8177   1.217   4.891   5.578
 2426SOL    HW2 8178   1.351   4.906   5.670
 2427SOL     OW 8179   5.203   0.902   6.736
 2427SOL    HW1 8180   5.261   0.821   6.731
 2427SOL    HW2 8181   5.248   0.973   6.790
 2428SOL     OW 8182   0.225   0.905   3.172
 2428SOL    HW1 8183   0.319   0.924   3.142
 2428SOL    HW2 8184   0.167   0.984   3.153
 2429SOL     OW 8185   5.163   5.782   1.801
 2429SOL    HW1 8186   5.165   5.695   1.851
 2429SOL    HW2 8187   5.241   5.784   1.738
 2430SOL     OW 8188   5.964   2.586   6.733
 2430SOL    HW1 8189   5.967   2.491   6.703
 2430SOL    HW2 8190   5.873   2.605   6.771
 2431SOL     OW 8191   6.896   2.354   1.618
 2431SOL    HW1 8192   6.995   2.367   1.625
 2431SOL    HW2 8193   6.872   2.326   1.525
 2432SOL     OW 8194   3.482   5.560   2.316
 2432SOL    HW1 8195   3.494   5.462   2.301
 2432SOL    HW2 8196   3.440   5.576   2.405
 2433SOL     OW 8197   6.789   4.058   0.312
 2433SOL    HW1 8198   6.734   4.006   0.377
 2433SOL    HW2 8199   6.838   3.995   0.251
 2434SOL     OW 8200   4.277   1.874   3.104
 2434SOL    HW1 8201   4.195   1.924   3.075
 2434SOL    HW2 8202   4.302   1.904   3.197
 2435SOL     OW 8203   5.404   6.335   6.774
 2435SOL    HW1 8204   5.411   6.435   6.773
 2435SOL    HW2 8205   5.459   6.297   6.700
 2436SOL     OW 8206   2.318   1.804   1.331
 2436SOL    HW1 8207   2.321   1.787   1.232
 2436SOL    HW2 8208   2.267   1.888   1.348
 2437SOL     OW 8209   6.814   5.456   2.040
 2437SOL    HW1 8210   6.862   5.393   1.979
 2437SOL    HW2 8211   6.794   5.409   2.126
 2438SOL     OW 8212   2.902   1.655   4.855
 2438SOL    HW1 8213   2.903   1.558   4.832
 2438SOL    HW2 8214   2.981   1.700   4.815
 2439SOL     OW 8215   0.763   5.866   0.725
 2439SOL    HW1 8216   0.824   5.793   0.695
 2439SOL    HW2 8217   0.770   5.878   0.824
 2440SOL     OW 8218   4.928   0.606   5.251
 2440SOL    HW1 8219   4.883   0.587   5.164
 2440SOL    HW2 8220   5.015   0.557   5.255
 2441SOL     OW 8221   5.853   0.046   0.164
 2441SOL    HW1 8222   5.781   0.100   0.120
 2441SOL    HW2 8223   5.930   0.105   0.187
 2442SOL     OW 8224   4.971   3.721   2.069
 2442SOL    HW1 8225   4.881   3.720   2.024
 2442SOL    HW2 8226   5.006   3.628   2.074
 2443SOL     OW 8227   2.317   2.138   0.740
 2443SOL    HW1 8228   2.241   2.112   0.680
 2443SOL    HW2 8229   2.291   2.121   0.835
 2444SOL     OW 8230   3.790   6.070   1.048
 2444SOL    HW1 8231   3.786   5.982   1.001
 2444SOL    HW2 8232   3.727   6.134   1.004
 2445SOL     OW 8233   0.255   2.707   0.829
 2445SOL    HW1 8234   0.259   2.798   0.870
 2445SOL    HW2 8235   0.333   2.653   0.860
 2446SOL     OW 8236   1.684   3.563   1.473
 2446SOL    HW1 8237   1.615   3.537   1.405
 2446SOL    HW2 8238   1.662   3.522   1.561
 2447SOL     OW 8239   3.491   0.213   0.847
 2447SOL    HW1 8240   3.459   0.124   0.877
 2447SOL    HW2 8241   3.432   0.246   0.773
 2448SOL     OW 8242   5.963   1.872   3.845
 2448SOL    HW1 8243   5.969   1.951   3.784
 2448SOL    HW2 8244   5.958   1.903   3.940
 2449SOL     OW 8245   1.886   4.155   2.265
 2449SOL    HW1 8246   1.898   4.235   2.206
 2449SOL    HW2 8247   1.790   4.126   2.264
 2450SOL     OW 8248   1.871   5.686   6.229
 2450SOL    HW1 8249   1.851   5.680   6.327
 2450SOL    HW2 8250   1.962   5.648   6.212
 2451SOL     OW 8251   0.803   0.170   4.529
 2451SOL    HW1 8252   0.739   0.238   4.565
 2451SOL    HW2 8253   0.887   0.170   4.584
 2452SOL     OW 8254   2.632   2.074   3.908
 2452SOL    HW1 8255   2.602   1.997   3.965
 2452SOL    HW2 8256   2.718   2.110   3.945
 2453SOL     OW 8257   0.967   1.514   6.924
 2453SOL    HW1 8258   0.901   1.522   6.998
 2453SOL    HW2 8259   1.060   1.516   6.962
 2454SOL     OW 8260   4.183   5.814   0.817
 2454SOL    HW1 8261   4.107   5.772   0.768
 2454SOL    HW2 8262   4.148   5.860   0.899
 2455SOL     OW 8263   4.239   1.027   0.321
 2455SOL    HW1 8264   4.235   0.943   0.376
 2455SOL    HW2 8265   4.223   1.004   0.224
 2456SOL     OW 8266   1.012   4.716   0.036
 2456SOL    HW1 8267   1.075   4.637   0.036
 2456SOL    HW2 8268   1.051   4.789   7.005
 2457SOL     OW 8269   5.710   1.581   5.460
 2457SOL    HW1 8270   5.665   1.665   5.429
 2457SOL    HW2 8271   5.668   1.549   5.544
 2458SOL     OW 8272   0.950   6.708   2.626
 2458SOL    HW1 8273   1.016   6.633   2.621
 2458SOL    HW2 8274   0.995   6.794   2.602
 2459SOL     OW 8275   2.733   6.085   0.789
 2459SOL    HW1 8276   2.734   5.996   0.836
 2459SOL    HW2 8277   2.809   6.141   0.823
 2460SOL     OW 8278   1.512   1.047   6.313
 2460SOL    HW1 8279   1.495   1.058   6.411
 2460SOL    HW2 8280   1.595   0.993   6.299
 2461SOL     OW 8281   4.178   0.824   4.154
 2461SOL    HW1 8282   4.132   0.894   4.100
 2461SOL    HW2 8283   4.167   0.844   4.251
 2462SOL     OW 8284   0.578   4.881   0.996
 2462SOL    HW1 8285   0.480   4.861   1.000
 2462SOL    HW2 8286   0.592   4.979   0.988
 2463SOL     OW 8287   6.853   0.972   6.218
 2463SOL    HW1 8288   6.864   1.057   6.270
 2463SOL    HW2 8289   6.759   0.940   6.227
 2464SOL     OW 8290   0.961   2.175   3.051
 2464SOL    HW1 8291   0.965   2.075   3.046
 2464SOL    HW2 8292   0.872   2.203   3.086
 2465SOL     OW 8293   0.838   4.769   5.779
 2465SOL    HW1 8294   0.742   4.742   5.790
 2465SOL    HW2 8295   0.874   4.731   5.694
 2466SOL     OW 8296   1.569   2.101   1.498
 2466SOL    HW1 8297   1.642   2.136   1.439
 2466SOL    HW2 8298   1.597   2.108   1.594
 2467SOL     OW 8299   5.155   1.312   5.993
 2467SOL    HW1 8300   5.123   1.232   5.942
 2467SOL    HW2 8301   5.251   1.301   6.017
 2468SOL     OW 8302   3.914   0.161   5.563
 2468SOL    HW1 8303   3.865   0.247   5.582
 2468SOL    HW2 8304   3.987   0.178   5.497
 2469SOL     OW 8305   3.726   2.763   5.433
 2469SOL    HW1 8306   3.650   2.826   5.415
 2469SOL    HW2 8307   3.797   2.811   5.486
 2470SOL     OW 8308   3.618   5.017   0.648
 2470SOL    HW1 8309   3.532   5.055   0.615
 2470SOL    HW2 8310   3.688   5.028   0.578
 2471SOL     OW 8311   3.615   6.823   0.813
 2471SOL    HW1 8312   3.696   6.802   0.867
 2471SOL    HW2 8313   3.639   6.821   0.716
 2472SOL     OW 8314   5.013   2.281   4.058
 2472SOL    HW1 8315   5.102   2.321   4.034
 2472SOL    HW2 8316   5.020   2.182   4.060
 2473SOL     OW 8317   0.620   4.600   4.572
 2473SOL    HW1 8318   0.676   4.581   4.652
 2473SOL    HW2 8319   0.644   4.537   4.498
 2474SOL     OW 8320   1.074   6.061   0.826
 2474SOL    HW1 8321   1.061   6.025   0.734
 2474SOL    HW2 8322   0.985   6.075   0.870
 2475SOL     OW 8323   5.224   0.473   0.672
 2475SOL    HW1 8324   5.295   0.543   0.671
 2475SOL    HW2 8325   5.266   0.382   0.671
 2476SOL     OW 8326   5.743   0.922   1.709
 2476SOL    HW1 8327   5.782   0.940   1.618
 2476SOL    HW2 8328   5.781   0.987   1.775
 2477SOL     OW 8329   3.555   0.807   3.269
 2477SOL    HW1 8330   3.470   0.818   3.219
 2477SOL    HW2 8331   3.603   0.725   3.237
 2478SOL     OW 8332   4.524   1.233   3.348
 2478SOL    HW1 8333   4.579   1.296   3.293
 2478SOL    HW2 8334   4.436   1.276   3.369
 2479SOL     OW 8335   0.870   3.164   1.061
 2479SOL    HW1 8336   0.818   3.214   1.129
 2479SOL    HW2 8337   0.843   3.193   0.969
 2480SOL     OW 8338   3.864   2.622   1.122
 2480SOL    HW1 8339   3.914   2.619   1.035
 2480SOL    HW2 8340   3.926   2.597   1.196
 2481SOL     OW 8341   3.788   0.489   1.446
 2481SOL    HW1 8342   3.811   0.556   1.516
 2481SOL    HW2 8343   3.872   0.445   1.414
 2482SOL     OW 8344   5.747   3.665   0.056
 2482SOL    HW1 8345   5.670   3.601   0.060
 2482SOL    HW2 8346   5.817   3.629   7.021
 2483SOL     OW 8347   0.827   2.563   0.191
 2483SOL    HW1 8348   0.848   2.635   0.259
 2483SOL    HW2 8349   0.906   2.502   0.183
 2484SOL     OW 8350   4.610   1.239   1.816
 2484SOL    HW1 8351   4.625   1.220   1.914
 2484SOL    HW2 8352   4.525   1.289   1.804
 2485SOL     OW 8353   5.444   2.147   6.673
 2485SOL    HW1 8354   5.477   2.057   6.703
 2485SOL    HW2 8355   5.373   2.179   6.736
 2486SOL     OW 8356   0.572   4.651   5.805
 2486SOL    HW1 8357   0.527   4.567   5.776
 2486SOL    HW2 8358   0.616   4.636   5.894
 2487SOL     OW 8359   4.768   6.186   0.508
 2487SOL    HW1 8360   4.787   6.089   0.525
 2487SOL    HW2 8361   4.817   6.241   0.576
 2488SOL     OW 8362   6.962   3.989   1.674
 2488SOL    HW1 8363   6.998   3.928   1.603
 2488SOL    HW2 8364   6.905   4.059   1.633
 2489SOL     OW 8365   0.540   6.341   4.224
 2489SOL    HW1 8366   0.509   6.267   4.164
 2489SOL    HW2 8367   0.603   6.304   4.293
 2490SOL     OW 8368   0.911   6.269   1.337
 2490SOL    HW1 8369   0.939   6.306   1.249
 2490SOL    HW2 8370   0.993   6.250   1.392
 2491SOL     OW 8371   4.070   4.631   1.806
 2491SOL    HW1 8372   3.975   4.618   1.778
 2491SOL    HW2 8373   4.130   4.608   1.730
 2492SOL     OW 8374   5.178   3.442   0.865
 2492SOL    HW1 8375   5.119   3.518   0.894
 2492SOL    HW2 8376   5.169   3.429   0.766
 2493SOL     OW 8377   0.008   0.211   1.358
 2493SOL    HW1 8378   0.090   0.231   1.410
 2493SOL    HW2 8379   6.960   0.273   1.385
 2494SOL     OW 8380   5.927   3.242   2.157
 2494SOL    HW1 8381   6.021   3.232   2.126
 2494SOL    HW2 8382   5.867   3.256   2.078
 2495SOL     OW 8383   5.250   5.853   3.611
 2495SOL    HW1 8384   5.217   5.937   3.567
 2495SOL    HW2 8385   5.348   5.843   3.592
 2496SOL     OW 8386   6.999   3.651   6.725
 2496SOL    HW1 8387   0.052   3.624   6.781
 2496SOL    HW2 8388   6.974   3.575   6.665
 2497SOL     OW 8389   0.464   0.585   0.695
 2497SOL    HW1 8390   0.365   0.572   0.694
 2497SOL    HW2 8391   0.493   0.621   0.606
 2498SOL     OW 8392   3.314   2.834   5.514
 2498SOL    HW1 8393   3.260   2.763   5.467
 2498SOL    HW2 8394   3.313   2.917   5.459
 2499SOL     OW 8395   6.330   3.187   1.173
 2499SOL    HW1 8396   6.313   3.282   1.202
 2499SOL    HW2 8397   6.394   3.187   1.096
 2500SOL     OW 8398   3.475   3.720   6.104
 2500SOL    HW1 8399   3.394   3.673   6.140
 2500SOL    HW2 8400   3.557   3.682   6.147
 2501SOL     OW 8401   6.086   5.836   0.093
 2501SOL    HW1 8402   5.999   5.884   0.099
 2501SOL    HW2 8403   6.070   5.741   0.065
 2502SOL     OW 8404   2.245   6.636   4.834
 2502SOL    HW1 8405   2.290   6.723   4.854
 2502SOL    HW2 8406   2.297   6.561   4.876
 2503SOL     OW 8407   3.274   6.671   5.282
 2503SOL    HW1 8408   3.349   6.613   5.251
 2503SOL    HW2 8409   3.237   6.721   5.204
 2504SOL     OW 8410   3.167   5.376   2.510
 2504SOL    HW1 8411   3.148   5.440   2.436
 2504SOL    HW2 8412   3.155   5.422   2.598
 2505SOL     OW 8413   0.584   5.847   3.485
 2505SOL    HW1 8414   0.631   5.761   3.506
 2505SOL    HW2 8415   0.580   5.904   3.567
 2506SOL     OW 8416   6.352   3.737   6.228
 2506SOL    HW1 8417   6.255   3.731   6.250
 2506SOL    HW2 8418   6.390   3.821   6.268
 2507SOL     OW 8419   6.921   3.493   6.998
 2507SOL    HW1 8420   6.871   3.453   0.050
 2507SOL    HW2 8421   6.856   3.516   6.925
 2508SOL     OW 8422   2.783   2.001   4.973
 2508SOL    HW1 8423   2.755   1.914   5.014
 2508SOL    HW2 8424   2.727   2.019   4.892
 2509SOL     OW 8425   6.506   4.136   0.477
 2509SOL    HW1 8426   6.554   4.051   0.495
 2509SOL    HW2 8427   6.561   4.194   0.418
 2510SOL     OW 8428   3.517   4.334   1.052
 2510SOL    HW1 8429   3.616   4.322   1.051
 2510SOL    HW2 8430   3.495   4.425   1.016
 2511SOL     OW 8431   2.193   1.062   4.835
 2511SOL    HW1 8432   2.114   1.019   4.793
 2511SOL    HW2 8433   2.191   1.161   4.817
 2512SOL     OW 8434   3.949   4.315   5.478
 2512SOL    HW1 8435   3.944   4.329   5.379
 2512SOL    HW2 8436   3.896   4.235   5.504
 2513SOL     OW 8437   2.010   5.903   5.366
 2513SOL    HW1 8438   2.000   5.855   5.453
 2513SOL    HW2 8439   2.103   5.890   5.332
 2514SOL     OW 8440   0.516   3.118   4.336
 2514SOL    HW1 8441   0.556   3.027   4.333
 2514SOL    HW2 8442   0.440   3.124   4.271
 2515SOL     OW 8443   1.678   0.219   1.362
 2515SOL    HW1 8444   1.597   0.258   1.318
 2515SOL    HW2 8445   1.757   0.230   1.302
 2516SOL     OW 8446   5.090   1.011   2.633
 2516SOL    HW1 8447   5.150   0.938   2.601
 2516SOL    HW2 8448   5.048   0.985   2.720
 2517SOL     OW 8449   1.983   6.812   5.665
 2517SOL    HW1 8450   1.937   6.888   5.620
 2517SOL    HW2 8451   2.022   6.842   5.752
 2518SOL     OW 8452   1.601   5.331   1.260
 2518SOL    HW1 8453   1.623   5.351   1.165
 2518SOL    HW2 8454   1.602   5.232   1.274
 2519SOL     OW 8455   3.532   0.956   1.306
 2519SOL    HW1 8456   3.622   0.999   1.309
 2519SOL    HW2 8457   3.461   1.024   1.326
 2520SOL     OW 8458   3.611   1.871   6.804
 2520SOL    HW1 8459   3.512   1.868   6.819
 2520SOL    HW2 8460   3.646   1.777   6.797
 2521SOL     OW 8461   3.694   1.937   5.760
 2521SOL    HW1 8462   3.619   1.992   5.796
 2521SOL    HW2 8463   3.749   1.993   5.698
 2522SOL     OW 8464   1.096   1.656   5.458
 2522SOL    HW1 8465   1.186   1.614   5.469
 2522SOL    HW2 8466   1.043   1.604   5.390
 2523SOL     OW 8467   1.625   3.336   1.132
 2523SOL    HW1 8468   1.711   3.286   1.136
 2523SOL    HW2 8469   1.639   3.424   1.086
 2524SOL     OW 8470   0.315   6.562   4.797
 2524SOL    HW1 8471   0.341   6.625   4.724
 2524SOL    HW2 8472   0.250   6.495   4.762
 2525SOL     OW 8473   1.477   3.196   4.950
 2525SOL    HW1 8474   1.530   3.280   4.937
 2525SOL    HW2 8475   1.442   3.164   4.862
 2526SOL     OW 8476   1.608   5.006   6.450
 2526SOL    HW1 8477   1.643   4.963   6.366
 2526SOL    HW2 8478   1.619   4.943   6.527
 2527SOL     OW 8479   4.964   5.751   5.881
 2527SOL    HW1 8480   4.982   5.849   5.887
 2527SOL    HW2 8481   4.991   5.718   5.791
 2528SOL     OW 8482   5.435   4.178   5.201
 2528SOL    HW1 8483   5.409   4.263   5.246
 2528SOL    HW2 8484   5.438   4.104   5.268
 2529SOL     OW 8485   0.718   0.122   6.892
 2529SOL    HW1 8486   0.738   0.033   6.851
 2529SOL    HW2 8487   0.655   0.172   6.833
 2530SOL     OW 8488   2.735   5.897   5.504
 2530SOL    HW1 8489   2.674   5.934   5.434
 2530SOL    HW2 8490   2.830   5.903   5.472
 2531SOL     OW 8491   6.041   6.031   5.595
 2531SOL    HW1 8492   6.004   5.952   5.643
 2531SOL    HW2 8493   6.034   6.112   5.653
 2532SOL     OW 8494   0.142   6.814   0.593
 2532SOL    HW1 8495   0.177   6.734   0.546
 2532SOL    HW2 8496   0.042   6.811   0.594
 2533SOL     OW 8497   4.387   0.722   3.946
 2533SOL    HW1 8498   4.359   0.658   3.874
 2533SOL    HW2 8499   4.310   0.738   4.008
 2534SOL     OW 8500   4.214   1.217   1.586
 2534SOL    HW1 8501   4.232   1.314   1.603
 2534SOL    HW2 8502   4.179   1.205   1.493
 2535SOL     OW 8503   3.128   2.247   6.828
 2535SOL    HW1 8504   3.193   2.211   6.895
 2535SOL    HW2 8505   3.061   2.306   6.873
 2536SOL     OW 8506   1.724   0.581   6.356
 2536SOL    HW1 8507   1.635   0.547   6.327
 2536SOL    HW2 8508   1.712   0.665   6.409
 2537SOL     OW 8509   3.389   6.990   6.454
 2537SOL    HW1 8510   3.375   6.892   6.467
 2537SOL    HW2 8511   3.315   0.001   6.398
 2538SOL     OW 8512   0.179   3.894   4.254
 2538SOL    HW1 8513   0.193   3.986   4.291
 2538SOL    HW2 8514   0.230   3.885   4.168
 2539SOL     OW 8515   5.212   0.628   4.203
 2539SOL    HW1 8516   5.273   0.550   4.220
 2539SOL    HW2 8517   5.119   0.596   4.189
 2540SOL     OW 8518   4.272   1.934   2.502
 2540SOL    HW1 8519   4.296   1.943   2.405
 2540SOL    HW2 8520   4.261   2.024   2.542
 2541SOL     OW 8521   2.629   6.666   5.336
 2541SOL    HW1 8522   2.646   6.675   5.434
 2541SOL    HW2 8523   2.704   6.615   5.294
 2542SOL     OW 8524   3.188   3.628   6.647
 2542SOL    HW1 8525   3.193   3.712   6.593
 2542SOL    HW2 8526   3.211   3.647   6.742
 2543SOL     OW 8527   0.445   0.862   4.069
 2543SOL    HW1 8528   0.491   0.908   3.993
 2543SOL    HW2 8529   0.473   0.766   4.073
 2544SOL     OW 8530   0.632   6.255   0.721
 2544SOL    HW1 8531   0.583   6.331   0.677
 2544SOL    HW2 8532   0.699   6.218   0.656
 2545SOL     OW 8533   1.691   6.716   2.404
 2545SOL    HW1 8534   1.644   6.736   2.489
 2545SOL    HW2 8535   1.730   6.624   2.408
 2546SOL     OW 8536   6.996   2.048   1.211
 2546SOL    HW1 8537   6.956   2.046   1.119
 2546SOL    HW2 8538   0.068   2.069   1.203
 2547SOL     OW 8539   0.148   3.558   6.919
 2547SOL    HW1 8540   0.066   3.534   6.971
 2547SOL    HW2 8541   0.229   3.524   6.967
 2548SOL     OW 8542   0.129   6.796   4.360
 2548SOL    HW1 8543   0.122   6.828   4.266
 2548SOL    HW2 8544   0.103   6.869   4.423
 2549SOL     OW 8545   0.923   0.706   1.678
 2549SOL    HW1 8546   0.860   0.722   1.754
 2549SOL    HW2 8547   0.947   0.609   1.675
 2550SOL     OW 8548   6.305   6.733   0.658
 2550SOL    HW1 8549   6.348   6.823   0.646
 2550SOL    HW2 8550   6.296   6.714   0.756
 2551SOL     OW 8551   2.909   4.824   0.515
 2551SOL    HW1 8552   2.847   4.889   0.559
 2551SOL    HW2 8553   2.939   4.756   0.582
 2552SOL     OW 8554   2.358   5.525   4.992
 2552SOL    HW1 8555   2.277   5.578   5.016
 2552SOL    HW2 8556   2.354   5.501   4.895
 2553SOL     OW 8557   3.903   3.374   5.811
 2553SOL    HW1 8558   3.886   3.449   5.746
 2553SOL    HW2 8559   3.905   3.411   5.904
 2554SOL     OW 8560   2.378   1.185   7.020
 2554SOL    HW1 8561   2.378   1.163   0.092
 2554SOL    HW2 8562   2.373   1.284   7.009
 2555SOL     OW 8563   5.794   1.614   4.105
 2555SOL    HW1 8564   5.856   1.645   4.033
 2555SOL    HW2 8565   5.729   1.549   4.066
 2556SOL     OW 8566   4.524   5.903   0.232
 2556SOL    HW1 8567   4.619   5.896   0.201
 2556SOL    HW2 8568   4.512   5.988   0.284
 2557SOL     OW 8569   1.783   3.590   0.313
 2557SOL    HW1 8570   1.882   3.574   0.313
 2557SOL    HW2 8571   1.759   3.651   0.237
 2558SOL     OW 8572   5.251   0.861   5.488
 2558SOL    HW1 8573   5.246   0.957   5.515
 2558SOL    HW2 8574   5.217   0.851   5.395
 2559SOL     OW 8575   1.295   4.300   5.454
 2559SOL    HW1 8576   1.203   4.276   5.485
 2559SOL    HW2 8577   1.318   4.392   5.485
 2560SOL     OW 8578   6.679   2.253   5.711
 2560SOL    HW1 8579   6.612   2.209   5.651
 2560SOL    HW2 8580   6.769   2.210   5.696
 2561SOL     OW 8581   2.421   4.787   5.178
 2561SOL    HW1 8582   2.517   4.760   5.178
 2561SOL    HW2 8583   2.407   4.860   5.245
 2562SOL     OW 8584   2.277   4.572   1.217
 2562SOL    HW1 8585   2.219   4.564   1.136
 2562SOL    HW2 8586   2.346   4.500   1.216
 2563SOL     OW 8587   3.561   1.471   0.590
 2563SOL    HW1 8588   3.510   1.392   0.558
 2563SOL    HW2 8589   3.657   1.446   0.602
 2564SOL     OW 8590   1.405   5.521   0.163
 2564SOL    HW1 8591   1.484   5.478   0.207
 2564SOL    HW2 8592   1.324   5.510   0.220
 2565SOL     OW 8593   0.917   0.767   0.023
 2565SOL    HW1 8594   0.958   0.811   6.969
 2565SOL    HW2 8595   0.852   0.697   7.018
 2566SOL     OW 8596   2.398   6.502   1.432
 2566SOL    HW1 8597   2.376   6.591   1.392
 2566SOL    HW2 8598   2.492   6.477   1.408
 2567SOL     OW 8599   1.211   0.249   0.851
 2567SOL    HW1 8600   1.154   0.320   0.810
 2567SOL    HW2 8601   1.172   0.222   0.939
 2568SOL     OW 8602   4.551   2.251   6.942
 2568SOL    HW1 8603   4.536   2.176   6.878
 2568SOL    HW2 8604   4.472   2.313   6.940
 2569SOL     OW 8605   3.430   1.231   3.170
 2569SOL    HW1 8606   3.401   1.195   3.081
 2569SOL    HW2 8607   3.354   1.226   3.235
 2570SOL     OW 8608   5.670   0.608   5.624
 2570SOL    HW1 8609   5.627   0.593   5.713
 2570SOL    HW2 8610   5.704   0.521   5.588
 2571SOL     OW 8611   1.522   4.745   3.416
 2571SOL    HW1 8612   1.549   4.822   3.473
 2571SOL    HW2 8613   1.594   4.724   3.351
 2572SOL     OW 8614   2.795   5.165   2.385
 2572SOL    HW1 8615   2.817   5.262   2.381
 2572SOL    HW2 8616   2.874   5.111   2.357
 2573SOL     OW 8617   0.946   2.006   1.189
 2573SOL    HW1 8618   0.975   1.911   1.187
 2573SOL    HW2 8619   0.930   2.039   1.095
 2574SOL     OW 8620   5.028   3.675   0.888
 2574SOL    HW1 8621   5.093   3.750   0.897
 2574SOL    HW2 8622   4.953   3.703   0.828
 2575SOL     OW 8623   5.962   5.599   6.846
 2575SOL    HW1 8624   5.998   5.520   6.797
 2575SOL    HW2 8625   5.950   5.675   6.783
 2576SOL     OW 8626   4.091   6.051   4.622
 2576SOL    HW1 8627   4.189   6.043   4.641
 2576SOL    HW2 8628   4.040   6.009   4.697
 2577SOL     OW 8629   2.611   5.190   1.921
 2577SOL    HW1 8630   2.638   5.244   1.841
 2577SOL    HW2 8631   2.693   5.168   1.975
 2578SOL     OW 8632   4.038   1.495   3.726
 2578SOL    HW1 8633   3.939   1.478   3.728
 2578SOL    HW2 8634   4.054   1.594   3.719
 2579SOL     OW 8635   0.649   6.227   3.722
 2579SOL    HW1 8636   0.674   6.304   3.781
 2579SOL    HW2 8637   0.678   6.245   3.628
 2580SOL     OW 8638   2.299   4.871   0.056
 2580SOL    HW1 8639   2.369   4.846   0.122
 2580SOL    HW2 8640   2.327   4.841   6.990
 2581SOL     OW 8641   2.025   5.671   0.553
 2581SOL    HW1 8642   2.014   5.740   0.625
 2581SOL    HW2 8643   2.092   5.703   0.486
 2582SOL     OW 8644   0.178   4.075   1.683
 2582SOL    HW1 8645   0.089   4.039   1.712
 2582SOL    HW2 8646   0.179   4.083   1.583
 2583SOL     OW 8647   0.486   0.843   6.788
 2583SOL    HW1 8648   0.407   0.871   6.843
 2583SOL    HW2 8649   0.556   0.913   6.793
 2584SOL     OW 8650   4.083   5.426   5.799
 2584SOL    HW1 8651   4.118   5.519   5.790
 2584SOL    HW2 8652   4.130   5.366   5.735
 2585SOL     OW 8653   2.495   4.362   6.979
 2585SOL    HW1 8654   2.452   4.434   0.009
 2585SOL    HW2 8655   2.591   4.352   7.008
 2586SOL     OW 8656   2.898   0.756   5.896
 2586SOL    HW1 8657   2.838   0.694   5.844
 2586SOL    HW2 8658   2.983   0.708   5.919
 2587SOL     OW 8659   0.220   1.423   3.202
 2587SOL    HW1 8660   0.275   1.371   3.137
 2587SOL    HW2 8661   0.197   1.511   3.162
 2588SOL     OW 8662   3.981   2.344   5.305
 2588SOL    HW1 8663   3.901   2.397   5.332
 2588SOL    HW2 8664   4.050   2.404   5.266
 2589SOL     OW 8665   1.307   6.363   6.364
 2589SOL    HW1 8666   1.391   6.342   6.414
 2589SOL    HW2 8667   1.264   6.278   6.333
 2590SOL     OW 8668   2.718   5.092   0.328
 2590SOL    HW1 8669   2.657   5.130   0.258
 2590SOL    HW2 8670   2.787   5.035   0.285
 2591SOL     OW 8671   6.488   5.429   3.323
 2591SOL    HW1 8672   6.547   5.466   3.394
 2591SOL    HW2 8673   6.543   5.407   3.242
 2592SOL     OW 8674   2.766   4.054   6.496
 2592SOL    HW1 8675   2.729   3.962   6.480
 2592SOL    HW2 8676   2.693   4.114   6.528
 2593SOL     OW 8677   3.331   5.892   0.782
 2593SOL    HW1 8678   3.323   5.816   0.847
 2593SOL    HW2 8679   3.427   5.913   0.767
 2594SOL     OW 8680   2.640   4.370   6.216
 2594SOL    HW1 8681   2.648   4.466   6.188
 2594SOL    HW2 8682   2.731   4.335   6.239
 2595SOL     OW 8683   1.021   1.440   4.451
 2595SOL    HW1 8684   0.982   1.481   4.368
 2595SOL    HW2 8685   1.107   1.393   4.428
 2596SOL     OW 8686   1.911   2.919   1.172
 2596SOL    HW1 8687   2.005   2.899   1.146
 2596SOL    HW2 8688   1.897   3.018   1.176
 2597SOL     OW 8689   6.756   5.201   6.592
 2597SOL    HW1 8690   6.782   5.134   6.523
 2597SOL    HW2 8691   6.663   5.181   6.624
 2598SOL     OW 8692   6.385   1.761   1.619
 2598SOL    HW1 8693   6.382   1.855   1.586
 2598SOL    HW2 8694   6.446   1.756   1.698
 2599SOL     OW 8695   1.698   6.616   1.441
 2599SOL    HW1 8696   1.769   6.648   1.504
 2599SOL    HW2 8697   1.634   6.556   1.490
 2600SOL     OW 8698   5.782   3.487   4.406
 2600SOL    HW1 8699   5.778   3.401   4.456
 2600SOL    HW2 8700   5.690   3.528   4.403
 2601SOL     OW 8701   1.806   2.144   2.083
 2601SOL    HW1 8702   1.881   2.147   2.018
 2601SOL    HW2 8703   1.749   2.226   2.074
 2602SOL     OW 8704   1.783   5.159   3.775
 2602SOL    HW1 8705   1.750   5.188   3.865
 2602SOL    HW2 8706   1.856   5.220   3.745
 2603SOL     OW 8707   2.680   1.330   2.076
 2603SOL    HW1 8708   2.736   1.343   1.994
 2603SOL    HW2 8709   2.711   1.248   2.124
 2604SOL     OW 8710   5.115   1.721   2.149
 2604SOL    HW1 8711   5.042   1.786   2.132
 2604SOL    HW2 8712   5.204   1.767   2.139
 2605SOL     OW 8713   1.195   4.269   2.728
 2605SOL    HW1 8714   1.213   4.268   2.827
 2605SOL    HW2 8715   1.265   4.215   2.681
 2606SOL     OW 8716   5.194   5.050   1.137
 2606SOL    HW1 8717   5.279   5.063   1.086
 2606SOL    HW2 8718   5.200   4.965   1.190
 2607SOL     OW 8719   1.733   2.525   1.157
 2607SOL    HW1 8720   1.678   2.446   1.181
 2607SOL    HW2 8721   1.687   2.578   1.085
 2608SOL     OW 8722   1.988   5.865   6.592
 2608SOL    HW1 8723   2.069   5.899   6.546
 2608SOL    HW2 8724   1.999   5.874   6.691
 2609SOL     OW 8725   0.381   1.422   1.147
 2609SOL    HW1 8726   0.285   1.440   1.128
 2609SOL    HW2 8727   0.391   1.329   1.182
 2610SOL     OW 8728   1.259   4.918   4.265
 2610SOL    HW1 8729   1.294   5.006   4.232
 2610SOL    HW2 8730   1.208   4.932   4.350
 2611SOL     OW 8731   4.601   6.224   6.953
 2611SOL    HW1 8732   4.531   6.198   6.887
 2611SOL    HW2 8733   4.627   6.319   6.939
 2612SOL     OW 8734   5.058   6.721   4.809
 2612SOL    HW1 8735   5.021   6.686   4.895
 2612SOL    HW2 8736   5.076   6.645   4.747
 2613SOL     OW 8737   1.108   5.610   5.918
 2613SOL    HW1 8738   1.138   5.694   5.874
 2613SOL    HW2 8739   1.018   5.583   5.883
 2614SOL     OW 8740   5.874   0.796   6.159
 2614SOL    HW1 8741   5.843   0.845   6.241
 2614SOL    HW2 8742   5.832   0.837   6.078
 2615SOL     OW 8743   1.168   3.467   1.473
 2615SOL    HW1 8744   1.128   3.405   1.540
 2615SOL    HW2 8745   1.140   3.441   1.381
 2616SOL     OW 8746   1.035   1.266   5.342
 2616SOL    HW1 8747   1.104   1.286   5.411
 2616SOL    HW2 8748   1.080   1.247   5.254
 2617SOL     OW 8749   5.315   0.114   0.849
 2617SOL    HW1 8750   5.271   0.047   0.909
 2617SOL    HW2 8751   5.309   0.205   0.889
 2618SOL     OW 8752   1.817   5.732   5.232
 2618SOL    HW1 8753   1.888   5.753   5.299
 2618SOL    HW2 8754   1.851   5.663   5.169
 2619SOL     OW 8755   4.004   1.885   1.926
 2619SOL    HW1 8756   3.921   1.844   1.963
 2619SOL    HW2 8757   4.015   1.860   1.830
 2620SOL     OW 8758   6.250   6.039   1.889
 2620SOL    HW1 8759   6.181   6.036   1.962
 2620SOL    HW2 8760   6.255   5.950   1.844
 2621SOL     OW 8761   0.390   6.021   2.478
 2621SOL    HW1 8762   0.329   5.944   2.499
 2621SOL    HW2 8763   0.458   6.030   2.551
 2622SOL     OW 8764   3.415   2.804   5.954
 2622SOL    HW1 8765   3.360   2.887   5.955
 2622SOL    HW2 8766   3.389   2.746   6.030
 2623SOL     OW 8767   0.195   6.527   3.610
 2623SOL    HW1 8768   0.190   6.601   3.542
 2623SOL    HW2 8769   0.191   6.439   3.564
 2624SOL     OW 8770   6.842   1.658   4.421
 2624SOL    HW1 8771   6.915   1.593   4.444
 2624SOL    HW2 8772   6.805   1.698   4.504
 2625SOL     OW 8773   1.894   5.120   5.373
 2625SOL    HW1 8774   1.922   5.027   5.352
 2625SOL    HW2 8775   1.972   5.182   5.363
 2626SOL     OW 8776   6.795   6.709   5.258
 2626SOL    HW1 8777   6.816   6.796   5.303
 2626SOL    HW2 8778   6.706   6.676   5.289
 2627SOL     OW 8779   1.206   6.914   6.073
 2627SOL    HW1 8780   1.273   6.961   6.015
 2627SOL    HW2 8781   1.166   6.838   6.022
 2628SOL     OW 8782   1.516   3.411   3.956
 2628SOL    HW1 8783   1.423   3.449   3.955
 2628SOL    HW2 8784   1.573   3.460   3.891
 2629SOL     OW 8785   3.202   3.924   3.375
 2629SOL    HW1 8786   3.219   4.007   3.427
 2629SOL    HW2 8787   3.106   3.899   3.381
 2630SOL     OW 8788   3.913   1.359   3.238
 2630SOL    HW1 8789   3.959   1.448   3.243
 2630SOL    HW2 8790   3.945   1.301   3.312
 2631SOL     OW 8791   5.681   0.534   6.784
 2631SOL    HW1 8792   5.709   0.443   6.756
 2631SOL    HW2 8793   5.619   0.527   6.862
 2632SOL     OW 8794   5.541   4.820   1.427
 2632SOL    HW1 8795   5.463   4.864   1.472
 2632SOL    HW2 8796   5.626   4.863   1.456
 2633SOL     OW 8797   6.663   2.775   5.316
 2633SOL    HW1 8798   6.740   2.731   5.271
 2633SOL    HW2 8799   6.684   2.871   5.332
 2634SOL     OW 8800   6.691   6.538   4.636
 2634SOL    HW1 8801   6.619   6.553   4.568
 2634SOL    HW2 8802   6.764   6.482   4.595
 2635SOL     OW 8803   5.412   5.409   3.820
 2635SOL    HW1 8804   5.416   5.484   3.887
 2635SOL    HW2 8805   5.325   5.361   3.830
 2636SOL     OW 8806   4.058   0.361   5.845
 2636SOL    HW1 8807   4.058   0.269   5.806
 2636SOL    HW2 8808   3.983   0.369   5.911
 2637SOL     OW 8809   0.474   1.868   2.968
 2637SOL    HW1 8810   0.555   1.921   2.944
 2637SOL    HW2 8811   0.398   1.894   2.908
 2638SOL     OW 8812   0.772   0.435   4.381
 2638SOL    HW1 8813   0.753   0.532   4.366
 2638SOL    HW2 8814   0.766   0.386   4.294
 2639SOL     OW 8815   4.542   5.004   5.153
 2639SOL    HW1 8816   4.480   5.079   5.176
 2639SOL    HW2 8817   4.628   5.041   5.120
 2640SOL     OW 8818   1.018   0.140   4.693
 2640SOL    HW1 8819   1.105   0.096   4.719
 2640SOL    HW2 8820   1.012   0.230   4.738
 2641SOL     OW 8821   5.239   2.463   0.243
 2641SOL    HW1 8822   5.187   2.514   0.312
 2641SOL    HW2 8823   5.181   2.445   0.164
 2642SOL     OW 8824   6.789   1.313   4.705
 2642SOL    HW1 8825   6.861   1.381   4.716
 2642SOL    HW2 8826   6.790   1.278   4.611
 2643SOL     OW 8827   0.914   3.303   3.978
 2643SOL    HW1 8828   0.908   3.233   4.049
 2643SOL    HW2 8829   0.919   3.259   3.888
 2644SOL     OW 8830   4.983   5.543   4.398
 2644SOL    HW1 8831   4.952   5.455   4.434
 2644SOL    HW2 8832   5.018   5.599   4.473
 2645SOL     OW 8833   4.973   5.550   3.555
 2645SOL    HW1 8834   5.014   5.468   3.514
 2645SOL    HW2 8835   4.950   5.531   3.650
 2646SOL     OW 8836   0.663   3.736   5.921
 2646SOL    HW1 8837   0.728   3.742   5.996
 2646SOL    HW2 8838   0.576   3.698   5.954
 2647SOL     OW 8839   5.561   0.052   1.765
 2647SOL    HW1 8840   5.600   0.045   1.673
 2647SOL    HW2 8841   5.582   0.142   1.803
 2648SOL     OW 8842   0.737   0.268   4.162
 2648SOL    HW1 8843   0.754   0.178   4.201
 2648SOL    HW2 8844   0.664   0.261   4.093
 2649SOL     OW 8845   5.164   2.774   1.750
 2649SOL    HW1 8846   5.081   2.785   1.805
 2649SOL    HW2 8847   5.183   2.859   1.701
 2650SOL     OW 8848   3.241   5.949   4.963
 2650SOL    HW1 8849   3.175   6.018   4.991
 2650SOL    HW2 8850   3.334   5.982   4.979
 2651SOL     OW 8851   3.804   1.610   5.440
 2651SOL    HW1 8852   3.733   1.553   5.482
 2651SOL    HW2 8853   3.844   1.669   5.510
 2652SOL     OW 8854   4.930   3.545   5.485
 2652SOL    HW1 8855   4.979   3.491   5.553
 2652SOL    HW2 8856   4.876   3.484   5.426
 2653SOL     OW 8857   3.344   6.386   6.560
 2653SOL    HW1 8858   3.443   6.393   6.547
 2653SOL    HW2 8859   3.312   6.296   6.532
 2654SOL     OW 8860   5.125   6.844   0.367
 2654SOL    HW1 8861   5.030   6.858   0.395
 2654SOL    HW2 8862   5.159   6.758   0.405
 2655SOL     OW 8863   5.189   6.330   3.174
 2655SOL    HW1 8864   5.108   6.379   3.205
 2655SOL    HW2 8865   5.214   6.261   3.242
 2656SOL     OW 8866   3.759   6.110   3.781
 2656SOL    HW1 8867   3.835   6.047   3.801
 2656SOL    HW2 8868   3.681   6.058   3.745
 2657SOL     OW 8869   2.051   3.584   0.257
 2657SOL    HW1 8870   2.048   3.566   0.159
 2657SOL    HW2 8871   2.140   3.557   0.293
 2658SOL     OW 8872   4.084   4.497   6.232
 2658SOL    HW1 8873   4.101   4.432   6.307
 2658SOL    HW2 8874   4.126   4.585   6.254
 2659SOL     OW 8875   5.349   2.208   5.019
 2659SOL    HW1 8876   5.395   2.190   5.106
 2659SOL    HW2 8877   5.250   2.200   5.031
 2660SOL     OW 8878   0.871   1.451   0.929
 2660SOL    HW1 8879   0.842   1.528   0.985
 2660SOL    HW2 8880   0.843   1.365   0.973
 2661SOL     OW 8881   1.463   0.598   1.454
 2661SOL    HW1 8882   1.528   0.615   1.380
 2661SOL    HW2 8883   1.438   0.685   1.497
 2662SOL     OW 8884   3.284   0.910   3.126
 2662SOL    HW1 8885   3.328   0.974   3.064
 2662SOL    HW2 8886   3.270   0.822   3.080
 2663SOL     OW 8887   3.026   6.855   6.181
 2663SOL    HW1 8888   3.086   6.895   6.112
 2663SOL    HW2 8889   3.077   6.788   6.235
 2664SOL     OW 8890   3.821   2.894   5.165
 2664SOL    HW1 8891   3.853   2.800   5.175
 2664SOL    HW2 8892   3.747   2.912   5.230
 2665SOL     OW 8893   2.199   3.716   5.144
 2665SOL    HW1 8894   2.228   3.631   5.186
 2665SOL    HW2 8895   2.276   3.780   5.140
 2666SOL     OW 8896   2.122   3.741   2.665
 2666SOL    HW1 8897   2.151   3.647   2.680
 2666SOL    HW2 8898   2.022   3.744   2.654
 2667SOL     OW 8899   6.005   3.993   3.703
 2667SOL    HW1 8900   6.065   3.996   3.783
 2667SOL    HW2 8901   6.058   3.970   3.622
 2668SOL     OW 8902   5.864   1.580   4.876
 2668SOL    HW1 8903   5.766   1.581   4.898
 2668SOL    HW2 8904   5.877   1.560   4.779
 2669SOL     OW 8905   2.115   6.955   0.389
 2669SOL    HW1 8906   2.181   6.888   0.355
 2669SOL    HW2 8907   2.145   6.988   0.479
 2670SOL     OW 8908   6.971   1.268   5.718
 2670SOL    HW1 8909   6.927   1.247   5.631
 2670SOL    HW2 8910   0.011   1.343   5.705
 2671SOL     OW 8911   3.647   5.625   5.968
 2671SOL    HW1 8912   3.703   5.584   5.896
 2671SOL    HW2 8913   3.590   5.697   5.929
 2672SOL     OW 8914   3.644   1.134   1.786
 2672SOL    HW1 8915   3.615   1.038   1.784
 2672SOL    HW2 8916   3.739   1.139   1.818
 2673SOL     OW 8917   4.689   0.425   2.446
 2673SOL    HW1 8918   4.743   0.499   2.406
 2673SOL    HW2 8919   4.733   0.394   2.530
 2674SOL     OW 8920   1.017   5.565   3.031
 2674SOL    HW1 8921   1.015   5.625   2.952
 2674SOL    HW2 8922   1.096   5.587   3.088
 2675SOL     OW 8923   7.008   6.330   3.775
 2675SOL    HW1 8924   0.072   6.286   3.790
 2675SOL    HW2 8925   7.002   6.413   3.830
 2676SOL     OW 8926   3.378   3.891   2.668
 2676SOL    HW1 8927   3.315   3.954   2.623
 2676SOL    HW2 8928   3.332   3.845   2.744
 2677SOL     OW 8929   1.921   4.680   1.400
 2677SOL    HW1 8930   1.902   4.707   1.495
 2677SOL    HW2 8931   1.838   4.690   1.345
 2678SOL     OW 8932   5.856   2.609   2.752
 2678SOL    HW1 8933   5.867   2.533   2.817
 2678SOL    HW2 8934   5.866   2.696   2.800
 2679SOL     OW 8935   1.542   5.221   2.485
 2679SOL    HW1 8936   1.535   5.124   2.505
 2679SOL    HW2 8937   1.589   5.234   2.397
 2680SOL     OW 8938   1.073   2.280   6.731
 2680SOL    HW1 8939   1.079   2.194   6.679
 2680SOL    HW2 8940   1.162   2.324   6.732
 2681SOL     OW 8941   1.462   2.973   5.175
 2681SOL    HW1 8942   1.385   2.926   5.131
 2681SOL    HW2 8943   1.508   3.031   5.108
 2682SOL     OW 8944   4.723   4.334   2.149
 2682SOL    HW1 8945   4.660   4.368   2.219
 2682SOL    HW2 8946   4.673   4.311   2.066
 2683SOL     OW 8947   1.894   3.913   3.035
 2683SOL    HW1 8948   1.917   3.824   2.997
 2683SOL    HW2 8949   1.861   3.973   2.963
 2684SOL     OW 8950   5.680   5.935   2.066
 2684SOL    HW1 8951   5.740   5.880   2.124
 2684SOL    HW2 8952   5.729   6.016   2.035
 2685SOL     OW 8953   6.926   5.416   4.909
 2685SOL    HW1 8954   6.990   5.455   4.844
 2685SOL    HW2 8955   6.843   5.473   4.913
 2686SOL     OW 8956   1.322   1.152   4.487
 2686SOL    HW1 8957   1.362   1.224   4.543
 2686SOL    HW2 8958   1.273   1.192   4.410
 2687SOL     OW 8959   3.974   1.368   2.155
 2687SOL    HW1 8960   3.958   1.357   2.253
 2687SOL    HW2 8961   3.968   1.279   2.110
 2688SOL     OW 8962   3.966   2.510   6.688
 2688SOL    HW1 8963   4.053   2.463   6.696
 2688SOL    HW2 8964   3.909   2.490   6.767
 2689SOL     OW 8965   0.599   4.196   3.103
 2689SOL    HW1 8966   0.545   4.171   3.183
 2689SOL    HW2 8967   0.679   4.249   3.131
 2690SOL     OW 8968   3.694   1.635   6.087
 2690SOL    HW1 8969   3.750   1.717   6.081
 2690SOL    HW2 8970   3.737   1.570   6.149
 2691SOL     OW 8971   7.017   4.382   4.478
 2691SOL    HW1 8972   6.995   4.391   4.575
 2691SOL    HW2 8973   6.947   4.429   4.424
 2692SOL     OW 8974   3.008   5.761   2.518
 2692SOL    HW1 8975   3.056   5.759   2.606
 2692SOL    HW2 8976   2.919   5.717   2.527
 2693SOL     OW 8977   1.476   5.886   4.002
 2693SOL    HW1 8978   1.541   5.891   4.078
 2693SOL    HW2 8979   1.496   5.804   3.947
 2694SOL     OW 8980   3.107   6.724   3.847
 2694SOL    HW1 8981   3.202   6.692   3.850
 2694SOL    HW2 8982   3.106   6.820   3.820
 2695SOL     OW 8983   6.254   6.829   2.652
 2695SOL    HW1 8984   6.345   6.871   2.647
 2695SOL    HW2 8985   6.214   6.848   2.741
 2696SOL     OW 8986   5.174   4.171   6.207
 2696SOL    HW1 8987   5.265   4.211   6.219
 2696SOL    HW2 8988   5.114   4.238   6.161
 2697SOL     OW 8989   4.139   1.632   0.852
 2697SOL    HW1 8990   4.137   1.537   0.886
 2697SOL    HW2 8991   4.222   1.646   0.799
 2698SOL     OW 8992   1.411   4.478   6.053
 2698SOL    HW1 8993   1.461   4.438   6.130
 2698SOL    HW2 8994   1.415   4.416   5.975
 2699SOL     OW 8995   3.422   5.994   2.447
 2699SOL    HW1 8996   3.472   5.965   2.529
 2699SOL    HW2 8997   3.347   6.055   2.474
 2700SOL     OW 8998   3.107   2.024   1.393
 2700SOL    HW1 8999   3.019   2.065   1.418
 2700SOL    HW2 9000   3.104   1.994   1.298
 2701SOL     OW 9001   4.853   3.032   4.782
 2701SOL    HW1 9002   4.944   3.019   4.822
 2701SOL    HW2 9003   4.858   3.106   4.714
 2702SOL     OW 9004   2.518   1.649   4.571
 2702SOL    HW1 9005   2.461   1.661   4.490
 2702SOL    HW2 9006   2.599   1.595   4.547
 2703SOL     OW 9007   1.627   5.841   1.813
 2703SOL    HW1 9008   1.594   5.928   1.850
 2703SOL    HW2 9009   1.680   5.793   1.882
 2704SOL     OW 9010   6.729   5.946   3.360
 2704SOL    HW1 9011   6.658   5.881   3.330
 2704SOL    HW2 9012   6.761   5.999   3.282
 2705SOL     OW 9013   0.656   0.598   4.798
 2705SOL    HW1 9014   0.675   0.646   4.884
 2705SOL    HW2 9015   0.630   0.664   4.728
 2706SOL     OW 9016   6.416   4.473   4.174
 2706SOL    HW1 9017   6.324   4.509   4.156
 2706SOL    HW2 9018   6.431   4.469   4.272
 2707SOL     OW 9019   3.961   0.052   3.064
 2707SOL    HW1 9020   3.956   7.018   2.984
 2707SOL    HW2 9021   4.056   0.081   3.078
 2708SOL     OW 9022   5.911   2.673   0.255
 2708SOL    HW1 9023   5.910   2.745   0.185
 2708SOL    HW2 9024   5.817   2.651   0.281
 2709SOL     OW 9025   5.230   6.861   5.987
 2709SOL    HW1 9026   5.133   6.858   5.967
 2709SOL    HW2 9027   5.277   6.788   5.937
 2710SOL     OW 9028   1.432   3.364   4.254
 2710SOL    HW1 9029   1.496   3.342   4.180
 2710SOL    HW2 9030   1.466   3.325   4.340
 2711SOL     OW 9031   3.467   2.100   3.875
 2711SOL    HW1 9032   3.497   2.107   3.780
 2711SOL    HW2 9033   3.417   2.014   3.889
 2712SOL     OW 9034   3.912   5.592   2.514
 2712SOL    HW1 9035   4.006   5.621   2.502
 2712SOL    HW2 9036   3.863   5.658   2.570
 2713SOL     OW 9037   4.486   4.700   6.346
 2713SOL    HW1 9038   4.518   4.677   6.438
 2713SOL    HW2 9039   4.502   4.623   6.284
 2714SOL     OW 9040   3.191   3.870   6.508
 2714SOL    HW1 9041   3.242   3.907   6.430
 2714SOL    HW2 9042   3.128   3.940   6.542
 2715SOL     OW 9043   5.319   1.320   1.379
 2715SOL    HW1 9044   5.378   1.240   1.373
 2715SOL    HW2 9045   5.274   1.322   1.468
 2716SOL     OW 9046   4.043   2.066   2.829
 2716SOL    HW1 9047   4.077   2.101   2.916
 2716SOL    HW2 9048   4.069   2.128   2.755
 2717SOL     OW 9049   1.454   1.256   2.497
 2717SOL    HW1 9050   1.420   1.332   2.552
 2717SOL    HW2 9051   1.376   1.208   2.456
 2718SOL     OW 9052   0.349   0.381   6.155
 2718SOL    HW1 9053   0.408   0.334   6.221
 2718SOL    HW2 9054   0.348   0.479   6.175
 2719SOL     OW 9055   1.697   3.941   2.627
 2719SOL    HW1 9056   1.710   3.953   2.528
 2719SOL    HW2 9057   1.778   3.976   2.675
 2720SOL     OW 9058   1.534   0.465   5.102
 2720SOL    HW1 9059   1.491   0.374   5.101
 2720SOL    HW2 9060   1.589   0.476   5.020
 2721SOL     OW 9061   2.827   5.793   1.580
 2721SOL    HW1 9062   2.918   5.832   1.566
 2721SOL    HW2 9063   2.822   5.703   1.536
 2722SOL     OW 9064   3.948   5.478   6.949
 2722SOL    HW1 9065   3.971   5.526   0.008
 2722SOL    HW2 9066   3.880   5.408   6.969
 2723SOL     OW 9067   3.339   6.708   0.325
 2723SOL    HW1 9068   3.421   6.734   0.274
 2723SOL    HW2 9069   3.364   6.687   0.419
 2724SOL     OW 9070   0.926   6.108   0.169
 2724SOL    HW1 9071   0.914   6.155   0.257
 2724SOL    HW2 9072   0.837   6.077   0.135
 2725SOL     OW 9073   5.155   3.380   4.602
 2725SOL    HW1 9074   5.195   3.410   4.689
 2725SOL    HW2 9075   5.064   3.342   4.619
 2726SOL     OW 9076   0.865   1.723   1.593
 2726SOL    HW1 9077   0.784   1.747   1.539
 2726SOL    HW2 9078   0.862   1.772   1.680
 2727SOL     OW 9079   2.242   3.961   4.126
 2727SOL    HW1 9080   2.149   3.964   4.088
 2727SOL    HW2 9081   2.280   4.053   4.126
 2728SOL     OW 9082   5.400   5.183   6.759
 2728SOL    HW1 9083   5.485   5.217   6.718
 2728SOL    HW2 9084   5.422   5.136   6.845
 2729SOL     OW 9085   5.196   6.378   5.853
 2729SOL    HW1 9086   5.283   6.356   5.898
 2729SOL    HW2 9087   5.208   6.461   5.798
 2730SOL     OW 9088   0.549   5.796   2.063
 2730SOL    HW1 9089   0.525   5.893   2.071
 2730SOL    HW2 9090   0.648   5.785   2.075
 2731SOL     OW 9091   3.019   3.139   3.552
 2731SOL    HW1 9092   2.925   3.108   3.540
 2731SOL    HW2 9093   3.082   3.066   3.523
 2732SOL     OW 9094   4.717   1.382   1.431
 2732SOL    HW1 9095   4.749   1.425   1.515
 2732SOL    HW2 9096   4.661   1.302   1.453
 2733SOL     OW 9097   0.126   0.509   5.957
 2733SOL    HW1 9098   0.052   0.443   5.945
 2733SOL    HW2 9099   0.211   0.471   5.920
 2734SOL     OW 9100   3.648   6.000   1.464
 2734SOL    HW1 9101   3.729   6.013   1.521
 2734SOL    HW2 9102   3.570   6.049   1.504
 2735SOL     OW 9103   1.415   2.115   0.557
 2735SOL    HW1 9104   1.495   2.155   0.601
 2735SOL    HW2 9105   1.333   2.137   0.609
 2736SOL     OW 9106   5.246   6.140   3.363
 2736SOL    HW1 9107   5.183   6.065   3.344
 2736SOL    HW2 9108   5.252   6.153   3.462
 2737SOL     OW 9109   2.764   1.740   6.197
 2737SOL    HW1 9110   2.747   1.699   6.107
 2737SOL    HW2 9111   2.849   1.703   6.235
 2738SOL     OW 9112   5.644   0.549   1.380
 2738SOL    HW1 9113   5.739   0.577   1.392
 2738SOL    HW2 9114   5.621   0.478   1.447
 2739SOL     OW 9115   1.174   5.221   2.017
 2739SOL    HW1 9116   1.236   5.186   1.948
 2739SOL    HW2 9117   1.193   5.318   2.034
 2740SOL     OW 9118   0.285   6.462   2.603
 2740SOL    HW1 9119   0.312   6.556   2.582
 2740SOL    HW2 9120   0.193   6.461   2.641
 2741SOL     OW 9121   1.164   2.194   4.446
 2741SOL    HW1 9122   1.217   2.194   4.531
 2741SOL    HW2 9123   1.078   2.243   4.460
 2742SOL     OW 9124   3.475   4.572   1.597
 2742SOL    HW1 9125   3.494   4.480   1.561
 2742SOL    HW2 9126   3.545   4.596   1.664
 2743SOL     OW 9127   6.747   4.771   2.144
 2743SOL    HW1 9128   6.798   4.688   2.122
 2743SOL    HW2 9129   6.675   4.784   2.076
 2744SOL     OW 9130   3.429   2.949   2.581
 2744SOL    HW1 9131   3.453   2.911   2.492
 2744SOL    HW2 9132   3.504   2.933   2.645
 2745SOL     OW 9133   6.561   0.956   5.907
 2745SOL    HW1 9134   6.516   1.044   5.893
 2745SOL    HW2 9135   6.603   0.926   5.822
 2746SOL     OW 9136   0.724   1.368   3.657
 2746SOL    HW1 9137   0.734   1.275   3.620
 2746SOL    HW2 9138   0.680   1.365   3.746
 2747SOL     OW 9139   3.433   5.388   0.612
 2747SOL    HW1 9140   3.492   5.422   0.539
 2747SOL    HW2 9141   3.368   5.459   0.639
 2748SOL     OW 9142   4.915   0.726   1.191
 2748SOL    HW1 9143   4.931   0.772   1.103
 2748SOL    HW2 9144   4.820   0.694   1.195
 2749SOL     OW 9145   1.672   3.574   0.558
 2749SOL    HW1 9146   1.725   3.578   0.473
 2749SOL    HW2 9147   1.635   3.482   0.570
 2750SOL     OW 9148   2.437   5.221   2.683
 2750SOL    HW1 9149   2.461   5.145   2.623
 2750SOL    HW2 9150   2.509   5.235   2.751
 2751SOL     OW 9151   1.497   2.694   1.368
 2751SOL    HW1 9152   1.546   2.776   1.340
 2751SOL    HW2 9153   1.489   2.631   1.291
 2752SOL     OW 9154   4.306   4.841   5.813
 2752SOL    HW1 9155   4.401   4.857   5.837
 2752SOL    HW2 9156   4.290   4.871   5.719
 2753SOL     OW 9157   6.364   6.775   5.139
 2753SOL    HW1 9158   6.371   6.762   5.040
 2753SOL    HW2 9159   6.271   6.802   5.163
 2754SOL     OW 9160   0.415   6.494   6.460
 2754SOL    HW1 9161   0.333   6.446   6.487
 2754SOL    HW2 9162   0.472   6.513   6.540
 2755SOL     OW 9163   2.729   6.785   2.676
 2755SOL    HW1 9164   2.707   6.880   2.652
 2755SOL    HW2 9165   2.743   6.731   2.593
 2756SOL     OW 9166   5.242   6.598   0.379
 2756SOL    HW1 9167   5.295   6.568   0.300
 2756SOL    HW2 9168   5.298   6.660   0.435
 2757SOL     OW 9169   1.244   5.192   1.027
 2757SOL    HW1 9170   1.210   5.285   1.017
 2757SOL    HW2 9171   1.319   5.177   0.962
 2758SOL     OW 9172   5.416   0.143   5.271
 2758SOL    HW1 9173   5.398   0.102   5.360
 2758SOL    HW2 9174   5.439   0.240   5.283
 2759SOL     OW 9175   5.652   6.513   3.914
 2759SOL    HW1 9176   5.641   6.606   3.948
 2759SOL    HW2 9177   5.631   6.448   3.987
 2760SOL     OW 9178   1.927   5.406   2.037
 2760SOL    HW1 9179   1.982   5.415   2.120
 2760SOL    HW2 9180   1.907   5.309   2.021
 2761SOL     OW 9181   0.929   5.665   3.292
 2761SOL    HW1 9182   1.024   5.634   3.288
 2761SOL    HW2 9183   0.870   5.596   3.249
 2762SOL     OW 9184   1.402   6.786   5.345
 2762SOL    HW1 9185   1.385   6.833   5.259
 2762SOL    HW2 9186   1.501   6.777   5.358
 2763SOL     OW 9187   5.722   2.213   3.652
 2763SOL    HW1 9188   5.764   2.234   3.741
 2763SOL    HW2 9189   5.725   2.295   3.594
 2764SOL     OW 9190   5.477   6.895   1.400
 2764SOL    HW1 9191   5.542   6.872   1.473
 2764SOL    HW2 9192   5.387   6.913   1.441
 2765SOL     OW 9193   5.330   1.388   2.288
 2765SOL    HW1 9194   5.332   1.288   2.288
 2765SOL    HW2 9195   5.235   1.419   2.294
 2766SOL     OW 9196   5.918   1.671   1.183
 2766SOL    HW1 9197   6.014   1.651   1.202
 2766SOL    HW2 9198   5.888   1.619   1.103
 2767SOL     OW 9199   6.420   4.112   6.257
 2767SOL    HW1 9200   6.488   4.185   6.264
 2767SOL    HW2 9201   6.391   4.084   6.349
 2768SOL     OW 9202   5.501   1.214   0.208
 2768SOL    HW1 9203   5.459   1.189   0.296
 2768SOL    HW2 9204   5.598   1.235   0.222
 2769SOL     OW 9205   6.664   4.226   2.942
 2769SOL    HW1 9206   6.737   4.290   2.918
 2769SOL    HW2 9207   6.653   4.158   2.870
 2770SOL     OW 9208   1.333   5.466   1.082
 2770SOL    HW1 9209   1.428   5.440   1.096
 2770SOL    HW2 9210   1.329   5.551   1.029
 2771SOL     OW 9211   5.295   1.594   1.435
 2771SOL    HW1 9212   5.318   1.498   1.427
 2771SOL    HW2 9213   5.241   1.609   1.518
 2772SOL     OW 9214   4.335   2.727   0.148
 2772SOL    HW1 9215   4.369   2.633   0.145
 2772SOL    HW2 9216   4.286   2.743   0.234
 2773SOL     OW 9217   4.103   3.579   6.024
 2773SOL    HW1 9218   4.136   3.515   5.954
 2773SOL    HW2 9219   4.028   3.633   5.986
 2774SOL     OW 9220   5.666   2.320   1.829
 2774SOL    HW1 9221   5.765   2.317   1.819
 2774SOL    HW2 9222   5.631   2.406   1.793
 2775SOL     OW 9223   6.964   6.053   1.390
 2775SOL    HW1 9224   6.929   5.963   1.415
 2775SOL    HW2 9225   7.010   6.047   1.302
 2776SOL     OW 9226   4.053   5.874   5.380
 2776SOL    HW1 9227   4.033   5.910   5.472
 2776SOL    HW2 9228   4.124   5.930   5.338
 2777SOL     OW 9229   3.218   0.890   2.634
 2777SOL    HW1 9230   3.195   0.972   2.583
 2777SOL    HW2 9231   3.138   0.857   2.684
 2778SOL     OW 9232   2.296   1.442   5.494
 2778SOL    HW1 9233   2.339   1.354   5.514
 2778SOL    HW2 9234   2.222   1.458   5.560
 2779SOL     OW 9235   5.367   6.984   7.021
 2779SOL    HW1 9236   5.312   6.900   7.024
 2779SOL    HW2 9237   5.410   6.998   0.085
 2780SOL     OW 9238   5.315   5.207   6.086
 2780SOL    HW1 9239   5.391   5.144   6.100
 2780SOL    HW2 9240   5.344   5.283   6.027
 2781SOL     OW 9241   5.721   4.878   1.635
 2781SOL    HW1 9242   5.689   4.956   1.689
 2781SOL    HW2 9243   5.780   4.820   1.692
 2782SOL     OW 9244   3.147   2.717   6.512
 2782SOL    HW1 9245   3.119   2.666   6.593
 2782SOL    HW2 9246   3.100   2.681   6.431
 2783SOL     OW 9247   6.450   3.713   4.909
 2783SOL    HW1 9248   6.545   3.683   4.903
 2783SOL    HW2 9249   6.440   3.777   4.985
 2784SOL     OW 9250   2.160   2.787   1.114
 2784SOL    HW1 9251   2.161   2.699   1.067
 2784SOL    HW2 9252   2.229   2.788   1.186
 2785SOL     OW 9253   6.712   1.387   6.800
 2785SOL    HW1 9254   6.760   1.462   6.847
 2785SOL    HW2 9255   6.695   1.413   6.705
 2786SOL     OW 9256   3.861   6.576   0.746
 2786SOL    HW1 9257   3.915   6.512   0.800
 2786SOL    HW2 9258   3.867   6.667   0.788
 2787SOL     OW 9259   2.261   4.468   6.631
 2787SOL    HW1 9260   2.222   4.455   6.722
 2787SOL    HW2 9261   2.289   4.564   6.620
 2788SOL     OW 9262   2.472   4.218   0.429
 2788SOL    HW1 9263   2.511   4.152   0.366
 2788SOL    HW2 9264   2.379   4.189   0.454
 2789SOL     OW 9265   1.180   1.760   3.717
 2789SOL    HW1 9266   1.230   1.782   3.801
 2789SOL    HW2 9267   1.083   1.748   3.737
 2790SOL     OW 9268   3.538   4.914   3.578
 2790SOL    HW1 9269   3.537   4.940   3.675
 2790SOL    HW2 9270   3.518   4.994   3.522
 2791SOL     OW 9271   1.966   4.506   4.696
 2791SOL    HW1 9272   1.924   4.419   4.722
 2791SOL    HW2 9273   1.895   4.573   4.673
 2792SOL     OW 9274   1.251   0.551   5.057
 2792SOL    HW1 9275   1.342   0.589   5.039
 2792SOL    HW2 9276   1.220   0.578   5.148
 2793SOL     OW 9277   5.258   1.527   2.580
 2793SOL    HW1 9278   5.228   1.614   2.541
 2793SOL    HW2 9279   5.353   1.510   2.554
 2794SOL     OW 9280   0.283   2.435   0.437
 2794SOL    HW1 9281   0.210   2.483   0.486
 2794SOL    HW2 9282   0.263   2.434   0.339
 2795SOL     OW 9283   2.969   4.222   1.465
 2795SOL    HW1 9284   2.939   4.225   1.560
 2795SOL    HW2 9285   3.044   4.156   1.456
 2796SOL     OW 9286   6.327   4.390   2.318
 2796SOL    HW1 9287   6.263   4.314   2.313
 2796SOL    HW2 9288   6.356   4.416   2.226
 2797SOL     OW 9289   5.135   5.463   4.644
 2797SOL    HW1 9290   5.085   5.493   4.725
 2797SOL    HW2 9291   5.110   5.369   4.622
 2798SOL     OW 9292   0.633   3.956   2.924
 2798SOL    HW1 9293   0.657   3.973   2.828
 2798SOL    HW2 9294   0.617   4.043   2.970
 2799SOL     OW 9295   0.105   5.764   6.595
 2799SOL    HW1 9296   0.089   5.835   6.526
 2799SOL    HW2 9297   0.203   5.744   6.599
 2800SOL     OW 9298   4.253   4.832   6.563
 2800SOL    HW1 9299   4.226   4.887   6.642
 2800SOL    HW2 9300   4.351   4.814   6.567
 2801SOL     OW 9301   4.040   5.571   2.865
 2801SOL    HW1 9302   4.101   5.562   2.786
 2801SOL    HW2 9303   4.036   5.667   2.893
 2802SOL     OW 9304   3.927   2.309   6.352
 2802SOL    HW1 9305   3.909   2.403   6.380
 2802SOL    HW2 9306   4.025   2.293   6.348
 2803SOL     OW 9307   2.071   5.952   5.693
 2803SOL    HW1 9308   2.148   6.011   5.668
 2803SOL    HW2 9309   2.014   5.999   5.760
 2804SOL     OW 9310   6.848   4.318   3.392
 2804SOL    HW1 9311   6.864   4.247   3.323
 2804SOL    HW2 9312   6.935   4.343   3.435
 2805SOL     OW 9313   4.804   3.373   1.420
 2805SOL    HW1 9314   4.756   3.291   1.388
 2805SOL    HW2 9315   4.898   3.350   1.442
 2806SOL     OW 9316   6.050   5.507   2.761
 2806SOL    HW1 9317   6.103   5.552   2.689
 2806SOL    HW2 9318   5.984   5.445   2.720
 2807SOL     OW 9319   5.096   4.741   3.760
 2807SOL    HW1 9320   5.144   4.763   3.675
 2807SOL    HW2 9321   5.149   4.674   3.811
 2808SOL     OW 9322   5.078   1.511   3.465
 2808SOL    HW1 9323   5.011   1.504   3.538
 2808SOL    HW2 9324   5.166   1.473   3.496
 2809SOL     OW 9325   5.999   2.610   1.180
 2809SOL    HW1 9326   5.950   2.583   1.263
 2809SOL    HW2 9327   6.095   2.628   1.203
 2810SOL     OW 9328   3.373   6.507   5.054
 2810SOL    HW1 9329   3.400   6.478   4.962
 2810SOL    HW2 9330   3.380   6.429   5.117
 2811SOL     OW 9331   1.122   1.386   2.603
 2811SOL    HW1 9332   1.201   1.380   2.665
 2811SOL    HW2 9333   1.090   1.293   2.583
 2812SOL     OW 9334   5.008   3.456   2.161
 2812SOL    HW1 9335   5.092   3.446   2.215
 2812SOL    HW2 9336   5.005   3.384   2.091
 2813SOL     OW 9337   5.932   6.661   6.222
 2813SOL    HW1 9338   5.976   6.748   6.201
 2813SOL    HW2 9339   5.996   6.602   6.271
 2814SOL     OW 9340   4.087   4.076   6.089
 2814SOL    HW1 9341   4.015   4.040   6.030
 2814SOL    HW2 9342   4.146   4.002   6.120
 2815SOL     OW 9343   6.315   0.979   4.501
 2815SOL    HW1 9344   6.374   1.045   4.454
 2815SOL    HW2 9345   6.301   0.899   4.442
 2816SOL     OW 9346   6.000   6.717   3.848
 2816SOL    HW1 9347   6.025   6.624   3.820
 2816SOL    HW2 9348   5.948   6.760   3.774
 2817SOL     OW 9349   1.746   0.969   1.323
 2817SOL    HW1 9350   1.780   0.997   1.413
 2817SOL    HW2 9351   1.813   0.992   1.253
 2818SOL     OW 9352   6.910   5.385   6.718
 2818SOL    HW1 9353   6.865   5.305   6.677
 2818SOL    HW2 9354   7.008   5.369   6.723
 2819SOL     OW 9355   0.263   2.098   0.862
 2819SOL    HW1 9356   0.180   2.044   0.849
 2819SOL    HW2 9357   0.340   2.054   0.816
 2820SOL     OW 9358   0.185   2.697   2.171
 2820SOL    HW1 9359   0.194   2.787   2.215
 2820SOL    HW2 9360   0.119   2.641   2.220
 2821SOL     OW 9361   3.033   4.380   6.054
 2821SOL    HW1 9362   2.988   4.313   6.113
 2821SOL    HW2 9363   3.075   4.451   6.111
 2822SOL     OW 9364   4.065   2.516   0.257
 2822SOL    HW1 9365   4.039   2.512   0.161
 2822SOL    HW2 9366   4.020   2.594   0.301
 2823SOL     OW 9367   2.492   6.991   1.876
 2823SOL    HW1 9368   2.422   6.973   1.808
 2823SOL    HW2 9369   2.452   6.984   1.968
 2824SOL     OW 9370   2.378   1.140   5.034
 2824SOL    HW1 9371   2.401   1.237   5.034
 2824SOL    HW2 9372   2.341   1.115   4.944
 2825SOL     OW 9373   6.970   6.959   0.869
 2825SOL    HW1 9374   6.976   6.994   0.962
 2825SOL    HW2 9375   0.029   6.912   0.845
 2826SOL     OW 9376   5.589   1.697   5.730
 2826SOL    HW1 9377   5.542   1.668   5.813
 2826SOL    HW2 9378   5.676   1.741   5.754
 2827SOL     OW 9379   6.792   1.417   4.977
 2827SOL    HW1 9380   6.798   1.318   4.965
 2827SOL    HW2 9381   6.881   1.458   4.962
 2828SOL     OW 9382   3.735   0.777   5.721
 2828SOL    HW1 9383   3.638   0.784   5.740
 2828SOL    HW2 9384   3.775   0.869   5.718
 2829SOL     OW 9385   3.730   5.075   6.235
 2829SOL    HW1 9386   3.699   5.028   6.318
 2829SOL    HW2 9387   3.651   5.104   6.181
 2830SOL     OW 9388   6.238   4.046   6.024
 2830SOL    HW1 9389   6.246   3.950   5.996
 2830SOL    HW2 9390   6.302   4.064   6.099
 2831SOL     OW 9391   5.905   6.002   4.784
 2831SOL    HW1 9392   5.964   6.077   4.812
 2831SOL    HW2 9393   5.953   5.915   4.796
 2832SOL     OW 9394   0.358   1.530   1.450
 2832SOL    HW1 9395   0.269   1.498   1.419
 2832SOL    HW2 9396   0.403   1.580   1.376
 2833SOL     OW 9397   5.811   1.821   2.067
 2833SOL    HW1 9398   5.898   1.777   2.091
 2833SOL    HW2 9399   5.769   1.858   2.149
 2834SOL     OW 9400   3.061   1.403   6.375
 2834SOL    HW1 9401   3.083   1.498   6.401
 2834SOL    HW2 9402   2.962   1.391   6.375
 2835SOL     OW 9403   0.199   6.789   1.958
 2835SOL    HW1 9404   0.171   6.845   1.881
 2835SOL    HW2 9405   0.217   6.696   1.927
 2836SOL     OW 9406   6.994   0.102   1.720
 2836SOL    HW1 9407   7.006   0.172   1.790
 2836SOL    HW2 9408   0.055   0.052   1.708
 2837SOL     OW 9409   5.210   3.444   2.831
 2837SOL    HW1 9410   5.270   3.464   2.909
 2837SOL    HW2 9411   5.144   3.519   2.821
 2838SOL     OW 9412   2.207   4.525   2.043
 2838SOL    HW1 9413   2.237   4.440   2.000
 2838SOL    HW2 9414   2.235   4.603   1.986
 2839SOL     OW 9415   5.848   1.284   2.080
 2839SOL    HW1 9416   5.874   1.320   2.169
 2839SOL    HW2 9417   5.900   1.332   2.009
 2840SOL     OW 9418   0.333   1.179   4.886
 2840SOL    HW1 9419   0.412   1.162   4.945
 2840SOL    HW2 9420   0.363   1.198   4.793
 2841SOL     OW 9421   0.642   6.483   6.919
 2841SOL    HW1 9422   0.741   6.488   6.903
 2841SOL    HW2 9423   0.607   6.575   6.935
 2842SOL     OW 9424   0.052   2.965   3.822
 2842SOL    HW1 9425   7.015   2.887   3.819
 2842SOL    HW2 9426   0.065   2.994   3.917
 2843SOL     OW 9427   3.637   1.365   4.489
 2843SOL    HW1 9428   3.651   1.267   4.498
 2843SOL    HW2 9429   3.719   1.414   4.518
 2844SOL     OW 9430   1.062   4.144   0.070
 2844SOL    HW1 9431   1.117   4.134   7.013
 2844SOL    HW2 9432   0.982   4.202   0.050
 2845SOL     OW 9433   1.032   3.839   0.546
 2845SOL    HW1 9434   1.113   3.779   0.551
 2845SOL    HW2 9435   0.955   3.793   0.590
 2846SOL     OW 9436   5.134   1.369   0.047
 2846SOL    HW1 9437   5.110   1.274   0.028
 2846SOL    HW2 9438   5.076   1.429   7.018
 2847SOL     OW 9439   5.330   3.853   3.321
 2847SOL    HW1 9440   5.403   3.854   3.389
 2847SOL    HW2 9441   5.256   3.914   3.351
 2848SOL     OW 9442   0.163   4.376   5.278
 2848SOL    HW1 9443   0.206   4.426   5.202
 2848SOL    HW2 9444   0.152   4.439   5.356
 2849SOL     OW 9445   3.516   1.092   0.943
 2849SOL    HW1 9446   3.518   0.999   0.981
 2849SOL    HW2 9447   3.566   1.094   0.857
 2850SOL     OW 9448   3.311   0.602   1.376
 2850SOL    HW1 9449   3.351   0.660   1.446
 2850SOL    HW2 9450   3.261   0.527   1.419
 2851SOL     OW 9451   1.018   4.483   5.419
 2851SOL    HW1 9452   1.007   4.579   5.395
 2851SOL    HW2 9453   0.974   4.426   5.350
 2852SOL     OW 9454   5.618   4.041   6.762
 2852SOL    HW1 9455   5.681   4.014   6.835
 2852SOL    HW2 9456   5.650   4.004   6.675
 2853SOL     OW 9457   3.177   2.676   0.648
 2853SOL    HW1 9458   3.135   2.754   0.694
 2853SOL    HW2 9459   3.256   2.707   0.595
 2854SOL     OW 9460   2.714   0.980   4.354
 2854SOL    HW1 9461   2.712   0.894   4.405
 2854SOL    HW2 9462   2.744   0.962   4.260
 2855SOL     OW 9463   2.143   0.098   5.796
 2855SOL    HW1 9464   2.196   0.153   5.732
 2855SOL    HW2 9465   2.047   0.125   5.792
 2856SOL     OW 9466   2.529   2.940   6.072
 2856SOL    HW1 9467   2.597   2.902   6.010
 2856SOL    HW2 9468   2.438   2.906   6.047
 2857SOL     OW 9469   3.131   1.732   1.497
 2857SOL    HW1 9470   3.121   1.643   1.543
 2857SOL    HW2 9471   3.140   1.803   1.567
 2858SOL     OW 9472   5.952   2.981   2.215
 2858SOL    HW1 9473   5.935   3.079   2.207
 2858SOL    HW2 9474   5.876   2.938   2.263
 2859SOL     OW 9475   4.941   1.352   0.786
 2859SOL    HW1 9476   4.874   1.289   0.825
 2859SOL    HW2 9477   5.030   1.336   0.829
 2860SOL     OW 9478   4.361   1.710   1.461
 2860SOL    HW1 9479   4.307   1.783   1.503
 2860SOL    HW2 9480   4.455   1.715   1.495
 2861SOL     OW 9481   4.209   5.639   5.562
 2861SOL    HW1 9482   4.150   5.665   5.638
 2861SOL    HW2 9483   4.305   5.658   5.585
 2862SOL     OW 9484   5.771   1.512   3.431
 2862SOL    HW1 9485   5.773   1.416   3.461
 2862SOL    HW2 9486   5.798   1.571   3.507
 2863SOL     OW 9487   6.019   1.454   0.250
 2863SOL    HW1 9488   6.055   1.451   0.158
 2863SOL    HW2 9489   5.925   1.489   0.248
 2864SOL     OW 9490   3.565   0.479   1.006
 2864SOL    HW1 9491   3.560   0.403   0.941
 2864SOL    HW2 9492   3.540   0.448   1.097
 2865SOL     OW 9493   4.603   4.441   5.312
 2865SOL    HW1 9494   4.652   4.354   5.310
 2865SOL    HW2 9495   4.661   4.514   5.276
 2866SOL     OW 9496   6.775   0.071   6.866
 2866SOL    HW1 9497   6.832   0.094   6.946
 2866SOL    HW2 9498   6.826   0.091   6.782
 2867SOL     OW 9499   6.030   4.277   2.330
 2867SOL    HW1 9500   6.058   4.363   2.371
 2867SOL    HW2 9501   5.970   4.227   2.392
 2868SOL     OW 9502   0.790   3.548   5.410
 2868SOL    HW1 9503   0.830   3.579   5.496
 2868SOL    HW2 9504   0.744   3.460   5.424
 2869SOL     OW 9505   6.066   1.100   2.422
 2869SOL    HW1 9506   6.011   1.057   2.494
 2869SOL    HW2 9507   6.151   1.136   2.462
 2870SOL     OW 9508   6.608   1.541   3.766
 2870SOL    HW1 9509   6.694   1.575   3.729
 2870SOL    HW2 9510   6.573   1.606   3.834
 2871SOL     OW 9511   2.140   1.969   6.561
 2871SOL    HW1 9512   2.219   1.944   6.618
 2871SOL    HW2 9513   2.144   2.066   6.537
 2872SOL     OW 9514   3.093   1.470   4.116
 2872SOL    HW1 9515   3.090   1.570   4.125
 2872SOL    HW2 9516   3.000   1.433   4.121
 2873SOL     OW 9517   0.667   5.887   2.951
 2873SOL    HW1 9518   0.687   5.839   3.036
 2873SOL    HW2 9519   0.580   5.936   2.959
 2874SOL     OW 9520   5.387   4.613   2.318
 2874SOL    HW1 9521   5.432   4.528   2.292
 2874SOL    HW2 9522   5.307   4.592   2.375
 2875SOL     OW 9523   3.774   6.274   6.350
 2875SOL    HW1 9524   3.811   6.291   6.259
 2875SOL    HW2 9525   3.831   6.205   6.396
 2876SOL     OW 9526   0.802   1.136   1.950
 2876SOL    HW1 9527   0.894   1.116   1.982
 2876SOL    HW2 9528   0.799   1.132   1.850
 2877SOL     OW 9529   3.603   2.982   5.348
 2877SOL    HW1 9530   3.552   2.982   5.262
 2877SOL    HW2 9531   3.586   3.066   5.398
 2878SOL     OW 9532   2.827   5.036   4.761
 2878SOL    HW1 9533   2.795   5.129   4.781
 2878SOL    HW2 9534   2.912   5.019   4.810
 2879SOL     OW 9535   4.725   5.190   0.244
 2879SOL    HW1 9536   4.821   5.177   0.267
 2879SOL    HW2 9537   4.717   5.247   0.162
 2880SOL     OW 9538   6.629   6.344   0.439
 2880SOL    HW1 9539   6.672   6.255   0.428
 2880SOL    HW2 9540   6.698   6.416   0.432
 2881SOL     OW 9541   6.583   6.378   1.438
 2881SOL    HW1 9542   6.677   6.367   1.405
 2881SOL    HW2 9543   6.571   6.325   1.522
 2882SOL     OW 9544   0.840   3.511   2.810
 2882SOL    HW1 9545   0.744   3.497   2.788
 2882SOL    HW2 9546   0.888   3.548   2.730
 2883SOL     OW 9547   3.597   6.884   3.600
 2883SOL    HW1 9548   3.576   6.816   3.530
 2883SOL    HW2 9549   3.520   6.948   3.610
 2884SOL     OW 9550   0.207   6.763   3.393
 2884SOL    HW1 9551   0.300   6.735   3.371
 2884SOL    HW2 9552   0.209   6.849   3.445
 2885SOL     OW 9553   0.111   2.841   2.906
 2885SOL    HW1 9554   0.092   2.744   2.922
 2885SOL    HW2 9555   0.075   2.867   2.817
 2886SOL     OW 9556   2.585   2.882   6.513
 2886SOL    HW1 9557   2.558   2.977   6.499
 2886SOL    HW2 9558   2.582   2.861   6.610
 2887SOL     OW 9559   2.809   6.395   5.209
 2887SOL    HW1 9560   2.736   6.334   5.176
 2887SOL    HW2 9561   2.855   6.437   5.131
 2888SOL     OW 9562   0.183   5.313   6.315
 2888SOL    HW1 9563   0.171   5.267   6.403
 2888SOL    HW2 9564   0.184   5.245   6.242
 2889SOL     OW 9565   1.593   1.014   1.713
 2889SOL    HW1 9566   1.613   1.064   1.629
 2889SOL    HW2 9567   1.552   0.925   1.689
 2890SOL     OW 9568   3.011   0.756   1.283
 2890SOL    HW1 9569   3.041   0.825   1.218
 2890SOL    HW2 9570   3.029   0.787   1.376
 2891SOL     OW 9571   1.895   4.796   3.534
 2891SOL    HW1 9572   1.832   4.780   3.611
 2891SOL    HW2 9573   1.981   4.833   3.569
 2892SOL     OW 9574   4.530   4.209   6.891
 2892SOL    HW1 9575   4.614   4.247   6.851
 2892SOL    HW2 9576   4.475   4.168   6.818
 2893SOL     OW 9577   2.204   6.350   5.808
 2893SOL    HW1 9578   2.177   6.399   5.725
 2893SOL    HW2 9579   2.210   6.414   5.884
 2894SOL     OW 9580   2.830   2.743   6.727
 2894SOL    HW1 9581   2.857   2.692   6.809
 2894SOL    HW2 9582   2.730   2.751   6.725
 2895SOL     OW 9583   3.825   3.321   6.720
 2895SOL    HW1 9584   3.826   3.243   6.782
 2895SOL    HW2 9585   3.732   3.355   6.709
 2896SOL     OW 9586   2.665   5.610   6.672
 2896SOL    HW1 9587   2.715   5.638   6.754
 2896SOL    HW2 9588   2.567   5.614   6.689
 2897SOL     OW 9589   2.169   6.460   3.745
 2897SOL    HW1 9590   2.179   6.512   3.830
 2897SOL    HW2 9591   2.244   6.394   3.738
 2898SOL     OW 9592   4.358   5.156   2.771
 2898SOL    HW1 9593   4.371   5.249   2.736
 2898SOL    HW2 9594   4.291   5.108   2.714
 2899SOL     OW 9595   0.448   0.799   6.422
 2899SOL    HW1 9596   0.462   0.702   6.442
 2899SOL    HW2 9597   0.506   0.826   6.346
 2900SOL     OW 9598   1.102   4.666   5.772
 2900SOL    HW1 9599   1.037   4.719   5.827
 2900SOL    HW2 9600   1.162   4.729   5.722
 2901SOL     OW 9601   2.194   0.344   2.323
 2901SOL    HW1 9602   2.190   0.286   2.405
 2901SOL    HW2 9603   2.289   0.363   2.300
 2902SOL     OW 9604   5.642   6.717   0.449
 2902SOL    HW1 9605   5.624   6.620   0.466
 2902SOL    HW2 9606   5.728   6.743   0.494
 2903SOL     OW 9607   3.302   0.503   2.137
 2903SOL    HW1 9608   3.339   0.594   2.120
 2903SOL    HW2 9609   3.364   0.453   2.197
 2904SOL     OW 9610   2.470   3.234   5.410
 2904SOL    HW1 9611   2.476   3.159   5.344
 2904SOL    HW2 9612   2.420   3.310   5.370
 2905SOL     OW 9613   1.852   1.085   2.462
 2905SOL    HW1 9614   1.839   1.134   2.376
 2905SOL    HW2 9615   1.768   1.090   2.516
 2906SOL     OW 9616   5.402   5.122   1.636
 2906SOL    HW1 9617   5.361   5.191   1.578
 2906SOL    HW2 9618   5.396   5.033   1.592
 2907SOL     OW 9619   6.642   1.446   5.220
 2907SOL    HW1 9620   6.545   1.459   5.198
 2907SOL    HW2 9621   6.698   1.474   5.143
 2908SOL     OW 9622   3.883   6.726   4.284
 2908SOL    HW1 9623   3.820   6.792   4.243
 2908SOL    HW2 9624   3.832   6.666   4.346
 2909SOL     OW 9625   0.495   4.898   4.497
 2909SOL    HW1 9626   0.476   4.819   4.556
 2909SOL    HW2 9627   0.592   4.898   4.473
 2910SOL     OW 9628   3.463   6.113   5.043
 2910SOL    HW1 9629   3.487   6.151   4.953
 2910SOL    HW2 9630   3.410   6.180   5.095
 2911SOL     OW 9631   2.234   5.088   3.241
 2911SOL    HW1 9632   2.185   5.001   3.235
 2911SOL    HW2 9633   2.235   5.119   3.336
 2912SOL     OW 9634   2.687   5.983   0.547
 2912SOL    HW1 9635   2.663   6.058   0.486
 2912SOL    HW2 9636   2.724   6.019   0.632
 2913SOL     OW 9637   1.923   4.054   2.753
 2913SOL    HW1 9638   2.013   4.011   2.747
 2913SOL    HW2 9639   1.934   4.154   2.748
 2914SOL     OW 9640   6.125   4.730   6.239
 2914SOL    HW1 9641   6.134   4.633   6.260
 2914SOL    HW2 9642   6.215   4.770   6.224
 2915SOL     OW 9643   4.718   1.218   4.183
 2915SOL    HW1 9644   4.726   1.300   4.240
 2915SOL    HW2 9645   4.622   1.188   4.181
 2916SOL     OW 9646   6.262   4.747   5.611
 2916SOL    HW1 9647   6.287   4.669   5.668
 2916SOL    HW2 9648   6.191   4.800   5.655
 2917SOL     OW 9649   4.045   0.129   0.731
 2917SOL    HW1 9650   3.950   0.145   0.755
 2917SOL    HW2 9651   4.070   0.035   0.753
 2918SOL     OW 9652   6.977   3.631   3.087
 2918SOL    HW1 9653   6.920   3.555   3.056
 2918SOL    HW2 9654   6.930   3.717   3.069
 2919SOL     OW 9655   6.019   6.949   0.391
 2919SOL    HW1 9656   6.116   6.975   0.393
 2919SOL    HW2 9657   5.979   6.978   0.305
 2920SOL     OW 9658   3.567   1.996   2.747
 2920SOL    HW1 9659   3.540   2.028   2.656
 2920SOL    HW2 9660   3.516   2.047   2.816
 2921SOL     OW 9661   0.339   1.557   2.769
 2921SOL    HW1 9662   0.254   1.554   2.718
 2921SOL    HW2 9663   0.398   1.629   2.734
 2922SOL     OW 9664   5.855   6.092   6.387
 2922SOL    HW1 9665   5.883   6.175   6.339
 2922SOL    HW2 9666   5.933   6.030   6.394
 2923SOL     OW 9667   6.956   5.444   2.523
 2923SOL    HW1 9668   6.962   5.537   2.560
 2923SOL    HW2 9669   0.015   5.395   2.545
 2924SOL     OW 9670   0.896   1.833   5.818
 2924SOL    HW1 9671   0.995   1.841   5.830
 2924SOL    HW2 9672   0.875   1.750   5.767
 2925SOL     OW 9673   5.830   1.831   2.529
 2925SOL    HW1 9674   5.847   1.733   2.531
 2925SOL    HW2 9675   5.805   1.863   2.621
 2926SOL     OW 9676   0.137   1.446   4.985
 2926SOL    HW1 9677   0.175   1.530   5.024
 2926SOL    HW2 9678   0.178   1.366   5.029
 2927SOL     OW 9679   1.474   2.798   2.024
 2927SOL    HW1 9680   1.500   2.892   2.046
 2927SOL    HW2 9681   1.488   2.740   2.105
 2928SOL     OW 9682   6.747   1.121   6.772
 2928SOL    HW1 9683   6.748   1.217   6.802
 2928SOL    HW2 9684   6.760   1.062   6.852
 2929SOL     OW 9685   0.654   0.882   6.258
 2929SOL    HW1 9686   0.640   0.981   6.257
 2929SOL    HW2 9687   0.732   0.861   6.318
 2930SOL     OW 9688   4.977   0.109   4.592
 2930SOL    HW1 9689   4.917   0.119   4.512
 2930SOL    HW2 9690   4.952   0.027   4.642
 2931SOL     OW 9691   5.154   5.549   6.578
 2931SOL    HW1 9692   5.241   5.540   6.530
 2931SOL    HW2 9693   5.141   5.470   6.638
 2932SOL     OW 9694   1.704   4.362   1.977
 2932SOL    HW1 9695   1.792   4.347   2.022
 2932SOL    HW2 9696   1.716   4.423   1.899
 2933SOL     OW 9697   5.709   2.151   4.120
 2933SOL    HW1 9698   5.701   2.120   4.215
 2933SOL    HW2 9699   5.714   2.072   4.060
 2934SOL     OW 9700   3.717   0.028   1.066
 2934SOL    HW1 9701   3.707   0.038   0.967
 2934SOL    HW2 9702   3.641   0.074   1.112
 2935SOL     OW 9703   6.508   3.596   1.624
 2935SOL    HW1 9704   6.526   3.607   1.722
 2935SOL    HW2 9705   6.523   3.500   1.598
 2936SOL     OW 9706   5.173   6.061   1.234
 2936SOL    HW1 9707   5.184   6.157   1.261
 2936SOL    HW2 9708   5.113   6.056   1.154
 2937SOL     OW 9709   3.325   5.083   0.607
 2937SOL    HW1 9710   3.230   5.064   0.581
 2937SOL    HW2 9711   3.351   5.174   0.575
 2938SOL     OW 9712   4.492   4.872   5.456
 2938SOL    HW1 9713   4.511   4.908   5.364
 2938SOL    HW2 9714   4.394   4.855   5.466
 2939SOL     OW 9715   6.485   6.869   4.591
 2939SOL    HW1 9716   6.542   6.905   4.664
 2939SOL    HW2 9717   6.389   6.892   4.609
 2940SOL     OW 9718   5.683   6.705   5.488
 2940SOL    HW1 9719   5.612   6.637   5.509
 2940SOL    HW2 9720   5.644   6.797   5.497
 2941SOL     OW 9721   1.915   2.282   5.804
 2941SOL    HW1 9722   1.846   2.264   5.874
 2941SOL    HW2 9723   1.922   2.380   5.789
 2942SOL     OW 9724   3.052   0.580   2.321
 2942SOL    HW1 9725   3.109   0.660   2.309
 2942SOL    HW2 9726   3.033   0.538   2.232
 2943SOL     OW 9727   5.284   3.175   2.429
 2943SOL    HW1 9728   5.359   3.178   2.363
 2943SOL    HW2 9729   5.320   3.185   2.521
 2944SOL     OW 9730   3.147   5.236   6.213
 2944SOL    HW1 9731   3.234   5.198   6.181
 2944SOL    HW2 9732   3.076   5.216   6.145
 2945SOL     OW 9733   3.876   4.023   2.761
 2945SOL    HW1 9734   3.928   3.965   2.699
 2945SOL    HW2 9735   3.876   4.117   2.726
 2946SOL     OW 9736   6.232   6.018   5.423
 2946SOL    HW1 9737   6.295   6.090   5.452
 2946SOL    HW2 9738   6.162   6.006   5.493
 2947SOL     OW 9739   0.127   3.891   6.600
 2947SOL    HW1 9740   0.119   3.830   6.521
 2947SOL    HW2 9741   0.068   3.858   6.674
 2948SOL     OW 9742   6.157   3.656   5.695
 2948SOL    HW1 9743   6.179   3.622   5.604
 2948SOL    HW2 9744   6.116   3.582   5.749
 2949SOL     OW 9745   1.830   6.344   1.377
 2949SOL    HW1 9746   1.850   6.247   1.386
 2949SOL    HW2 9747   1.731   6.359   1.385
 2950SOL     OW 9748   5.519   3.577   4.356
 2950SOL    HW1 9749   5.486   3.666   4.324
 2950SOL    HW2 9750   5.460   3.543   4.429
 2951SOL     OW 9751   7.009   2.266   0.255
 2951SOL    HW1 9752   0.082   2.264   0.236
 2951SOL    HW2 9753   6.985   2.190   0.315
 2952SOL     OW 9754   0.593   5.015   3.076
 2952SOL    HW1 9755   0.563   5.106   3.105
 2952SOL    HW2 9756   0.681   5.022   3.030
 2953SOL     OW 9757   5.207   2.600   2.289
 2953SOL    HW1 9758   5.222   2.689   2.332
 2953SOL    HW2 9759   5.130   2.606   2.225
 2954SOL     OW 9760   0.382   6.539   1.927
 2954SOL    HW1 9761   0.459   6.486   1.964
 2954SOL    HW2 9762   0.407   6.577   1.838
 2955SOL     OW 9763   0.278   3.007   0.435
 2955SOL    HW1 9764   0.316   2.952   0.509
 2955SOL    HW2 9765   0.240   3.091   0.473
 2956SOL     OW 9766   0.351   5.869   3.308
 2956SOL    HW1 9767   0.431   5.871   3.368
 2956SOL    HW2 9768   0.270   5.899   3.358
 2957SOL     OW 9769   0.476   3.600   0.575
 2957SOL    HW1 9770   0.454   3.535   0.503
 2957SOL    HW2 9771   0.413   3.678   0.570
 2958SOL     OW 9772   2.043   4.653   5.769
 2958SOL    HW1 9773   2.054   4.711   5.850
 2958SOL    HW2 9774   2.100   4.572   5.778
 2959SOL     OW 9775   5.985   4.842   6.051
 2959SOL    HW1 9776   5.982   4.936   6.083
 2959SOL    HW2 9777   6.033   4.785   6.118
 2960SOL     OW 9778   3.183   1.411   0.328
 2960SOL    HW1 9779   3.239   1.426   0.246
 2960SOL    HW2 9780   3.201   1.484   0.394
 2961SOL     OW 9781   5.083   2.982   4.911
 2961SOL    HW1 9782   5.168   2.933   4.930
 2961SOL    HW2 9783   5.100   3.081   4.914
 2962SOL     OW 9784   4.463   0.960   3.775
 2962SOL    HW1 9785   4.455   0.922   3.683
 2962SOL    HW2 9786   4.453   0.887   3.842
 2963SOL     OW 9787   2.039   1.753   5.641
 2963SOL    HW1 9788   1.983   1.817   5.589
 2963SOL    HW2 9789   2.116   1.722   5.585
 2964SOL     OW 9790   1.629   7.008   1.955
 2964SOL    HW1 9791   1.711   0.040   1.948
 2964SOL    HW2 9792   1.646   6.921   1.910
 2965SOL     OW 9793   0.307   0.885   5.184
 2965SOL    HW1 9794   0.303   0.902   5.283
 2965SOL    HW2 9795   0.385   0.934   5.145
 2966SOL     OW 9796   5.696   4.114   3.511
 2966SOL    HW1 9797   5.727   4.086   3.602
 2966SOL    HW2 9798   5.703   4.214   3.503
 2967SOL     OW 9799   6.249   2.452   3.681
 2967SOL    HW1 9800   6.249   2.471   3.583
 2967SOL    HW2 9801   6.306   2.520   3.728
 2968SOL     OW 9802   0.733   3.917   5.730
 2968SOL    HW1 9803   0.703   3.857   5.803
 2968SOL    HW2 9804   0.722   4.013   5.759
 2969SOL     OW 9805   5.624   1.799   5.272
 2969SOL    HW1 9806   5.572   1.757   5.198
 2969SOL    HW2 9807   5.722   1.782   5.258
 2970SOL     OW 9808   1.142   4.663   6.476
 2970SOL    HW1 9809   1.055   4.630   6.514
 2970SOL    HW2 9810   1.140   4.763   6.470
 2971SOL     OW 9811   5.957   3.018   3.728
 2971SOL    HW1 9812   6.004   3.105   3.717
 2971SOL    HW2 9813   5.859   3.034   3.739
 2972SOL     OW 9814   6.841   3.770   6.897
 2972SOL    HW1 9815   6.759   3.797   6.847
 2972SOL    HW2 9816   6.912   3.743   6.832
 2973SOL     OW 9817   5.195   0.500   3.918
 2973SOL    HW1 9818   5.122   0.433   3.904
 2973SOL    HW2 9819   5.274   0.455   3.959
 2974SOL     OW 9820   5.555   4.037   3.149
 2974SOL    HW1 9821   5.633   3.978   3.172
 2974SOL    HW2 9822   5.535   4.096   3.228
 2975SOL     OW 9823   0.795   1.609   4.964
 2975SOL    HW1 9824   0.850   1.586   4.884
 2975SOL    HW2 9825   0.757   1.701   4.953
 2976SOL     OW 9826   4.184   1.000   3.446
 2976SOL    HW1 9827   4.145   1.086   3.477
 2976SOL    HW2 9828   4.216   1.010   3.351
 2977SOL     OW 9829   2.538   0.112   4.158
 2977SOL    HW1 9830   2.452   0.062   4.166
 2977SOL    HW2 9831   2.592   0.098   4.242
 2978SOL     OW 9832   4.302   4.803   0.256
 2978SOL    HW1 9833   4.272   4.719   0.300
 2978SOL    HW2 9834   4.234   4.833   0.189
 2979SOL     OW 9835   3.325   0.492   3.892
 2979SOL    HW1 9836   3.341   0.458   3.799
 2979SOL    HW2 9837   3.247   0.555   3.892
 2980SOL     OW 9838   0.962   6.627   4.594
 2980SOL    HW1 9839   0.974   6.636   4.693
 2980SOL    HW2 9840   0.879   6.676   4.566
 2981SOL     OW 9841   1.066   0.492   5.736
 2981SOL    HW1 9842   1.072   0.537   5.825
 2981SOL    HW2 9843   1.059   0.560   5.664
 2982SOL     OW 9844   3.891   6.369   3.090
 2982SOL    HW1 9845   3.958   6.443   3.091
 2982SOL    HW2 9846   3.818   6.391   3.025
 2983SOL     OW 9847   0.035   0.452   3.989
 2983SOL    HW1 9848   6.991   0.479   4.055
 2983SOL    HW2 9849   0.111   0.408   4.037
 2984SOL     OW 9850   6.209   5.604   1.495
 2984SOL    HW1 9851   6.221   5.571   1.589
 2984SOL    HW2 9852   6.291   5.654   1.466
 2985SOL     OW 9853   0.926   1.999   4.267
 2985SOL    HW1 9854   0.970   2.008   4.178
 2985SOL    HW2 9855   0.974   1.932   4.322
 2986SOL     OW 9856   2.626   4.110   5.613
 2986SOL    HW1 9857   2.717   4.086   5.647
 2986SOL    HW2 9858   2.624   4.100   5.513
 2987SOL     OW 9859   5.041   0.920   4.415
 2987SOL    HW1 9860   5.107   0.946   4.344
 2987SOL    HW2 9861   4.954   0.897   4.372
 2988SOL     OW 9862   1.276   0.444   2.390
 2988SOL    HW1 9863   1.370   0.471   2.367
 2988SOL    HW2 9864   1.242   0.380   2.320
 2989SOL     OW 9865   6.167   5.433   1.216
 2989SOL    HW1 9866   6.179   5.355   1.277
 2989SOL    HW2 9867   6.214   5.513   1.254
 2990SOL     OW 9868   3.736   0.831   2.975
 2990SOL    HW1 9869   3.815   0.823   3.035
 2990SOL    HW2 9870   3.654   0.848   3.030
 2991SOL     OW 9871   0.252   4.400   0.512
 2991SOL    HW1 9872   0.338   4.404   0.462
 2991SOL    HW2 9873   0.259   4.332   0.586
 2992SOL     OW 9874   2.965   5.755   6.223
 2992SOL    HW1 9875   2.919   5.728   6.308
 2992SOL    HW2 9876   2.900   5.751   6.147
 2993SOL     OW 9877   1.804   4.515   2.329
 2993SOL    HW1 9878   1.828   4.471   2.416
 2993SOL    HW2 9879   1.719   4.476   2.295
 2994SOL     OW 9880   4.799   0.407   6.972
 2994SOL    HW1 9881   4.839   0.316   6.962
 2994SOL    HW2 9882   4.783   0.447   6.882
 2995SOL     OW 9883   1.583   2.346   7.013
 2995SOL    HW1 9884   1.649   2.273   6.996
 2995SOL    HW2 9885   1.500   2.330   6.958
 2996SOL     OW 9886   3.053   6.127   5.020
 2996SOL    HW1 9887   2.966   6.081   5.001
 2996SOL    HW2 9888   3.043   6.183   5.102
 2997SOL     OW 9889   5.289   6.043   2.107
 2997SOL    HW1 9890   5.372   6.073   2.154
 2997SOL    HW2 9891   5.253   5.961   2.152
 2998SOL     OW 9892   4.505   5.970   4.398
 2998SOL    HW1 9893   4.583   6.018   4.358
 2998SOL    HW2 9894   4.510   5.873   4.373
 2999SOL     OW 9895   3.376   6.192   3.679
 2999SOL    HW1 9896   3.353   6.285   3.651
 2999SOL    HW2 9897   3.317   6.165   3.756
 3000SOL     OW 9898   1.415   3.550   5.792
 3000SOL    HW1 9899   1.511   3.532   5.811
 3000SOL    HW2 9900   1.360   3.520   5.870
 3001SOL     OW 9901   5.007   7.002   6.431
 3001SOL    HW1 9902   5.070   6.934   6.395
 3001SOL    HW2 9903   5.031   0.067   6.397
 3002SOL     OW 9904   4.112   0.225   5.404
 3002SOL    HW1 9905   4.206   0.238   5.435
 3002SOL    HW2 9906   4.102   0.262   5.311
 3003SOL     OW 9907   2.946   6.395   6.325
 3003SOL    HW1 9908   3.008   6.379   6.402
 3003SOL    HW2 9909   2.907   6.487   6.332
 3004SOL     OW 9910   5.995   3.724   3.864
 3004SOL    HW1 9911   5.945   3.770   3.791
 3004SOL    HW2 9912   6.024   3.791   3.932
 3005SOL     OW 9913   3.410   3.052   1.334
 3005SOL    HW1 9914   3.483   2.994   1.370
 3005SOL    HW2 9915   3.337   2.995   1.297
 3006SOL     OW 9916   6.613   1.311   0.728
 3006SOL    HW1 9917   6.602   1.234   0.791
 3006SOL    HW2 9918   6.569   1.289   0.641
 3007SOL     OW 9919   5.405   5.116   1.977
 3007SOL    HW1 9920   5.332   5.098   1.911
 3007SOL    HW2 9921   5.365   5.148   2.063
 3008SOL     OW 9922   3.892   0.620   6.344
 3008SOL    HW1 9923   3.910   0.563   6.424
 3008SOL    HW2 9924   3.821   0.577   6.288
 3009SOL     OW 9925   0.443   0.224   2.769
 3009SOL    HW1 9926   0.355   0.248   2.727
 3009SOL    HW2 9927   0.507   0.300   2.759
 3010SOL     OW 9928   3.931   6.083   3.091
 3010SOL    HW1 9929   3.932   6.179   3.119
 3010SOL    HW2 9930   3.873   6.072   3.011
 3011SOL     OW 9931   6.236   0.818   6.713
 3011SOL    HW1 9932   6.295   0.739   6.699
 3011SOL    HW2 9933   6.163   0.818   6.644
 3012SOL     OW 9934   0.278   3.345   3.922
 3012SOL    HW1 9935   0.181   3.357   3.903
 3012SOL    HW2 9936   0.309   3.416   3.985
 3013SOL     OW 9937   5.631   6.034   3.267
 3013SOL    HW1 9938   5.728   6.019   3.283
 3013SOL    HW2 9939   5.615   6.129   3.242
 3014SOL     OW 9940   5.383   1.548   4.469
 3014SOL    HW1 9941   5.446   1.519   4.541
 3014SOL    HW2 9942   5.431   1.605   4.403
 3015SOL     OW 9943   2.869   2.201   0.043
 3015SOL    HW1 9944   2.832   2.294   0.040
 3015SOL    HW2 9945   2.964   2.204   0.074
 3016SOL     OW 9946   3.190   5.487   4.322
 3016SOL    HW1 9947   3.268   5.465   4.381
 3016SOL    HW2 9948   3.138   5.404   4.303
 3017SOL     OW 9949   0.911   5.819   0.964
 3017SOL    HW1 9950   0.993   5.779   0.924
 3017SOL    HW2 9951   0.911   5.805   1.062
 3018SOL     OW 9952   3.680   0.536   6.670
 3018SOL    HW1 9953   3.760   0.489   6.631
 3018SOL    HW2 9954   3.596   0.496   6.633
 3019SOL     OW 9955   3.425   6.565   1.122
 3019SOL    HW1 9956   3.387   6.657   1.109
 3019SOL    HW2 9957   3.426   6.516   1.035
 3020SOL     OW 9958   3.664   3.697   1.595
 3020SOL    HW1 9959   3.758   3.723   1.571
 3020SOL    HW2 9960   3.605   3.713   1.516
 3021SOL     OW 9961   2.064   2.237   6.752
 3021SOL    HW1 9962   2.068   2.310   6.685
 3021SOL    HW2 9963   2.017   2.158   6.713
 3022SOL     OW 9964   3.664   5.562   2.932
 3022SOL    HW1 9965   3.734   5.604   2.874
 3022SOL    HW2 9966   3.595   5.631   2.955
 3023SOL     OW 9967   3.302   6.081   3.425
 3023SOL    HW1 9968   3.208   6.098   3.397
 3023SOL    HW2 9969   3.310   6.095   3.523
 3024SOL     OW 9970   2.746   0.931   6.727
 3024SOL    HW1 9971   2.807   0.987   6.783
 3024SOL    HW2 9972   2.671   0.987   6.693
 3025SOL     OW 9973   3.303   3.187   1.042
 3025SOL    HW1 9974   3.402   3.189   1.035
 3025SOL    HW2 9975   3.267   3.110   0.989
 3026SOL     OW 9976   1.421   3.555   1.070
 3026SOL    HW1 9977   1.484   3.568   0.994
 3026SOL    HW2 9978   1.360   3.478   1.050
 3027SOL     OW 9979   3.920   0.845   2.640
 3027SOL    HW1 9980   3.892   0.868   2.547
 3027SOL    HW2 9981   3.892   0.918   2.702
 3028SOL     OW 9982   1.317   4.999   0.153
 3028SOL    HW1 9983   1.280   4.993   0.061
 3028SOL    HW2 9984   1.263   4.941   0.214
 3029SOL     OW 9985   6.240   4.863   5.343
 3029SOL    HW1 9986   6.178   4.822   5.276
 3029SOL    HW2 9987   6.256   4.799   5.418
 3030SOL     OW 9988   0.879   1.654   5.638
 3030SOL    HW1 9989   0.939   1.696   5.570
 3030SOL    HW2 9990   0.922   1.572   5.675
 3031SOL     OW 9991   0.818   3.716   0.660
 3031SOL    HW1 9992   0.757   3.763   0.724
 3031SOL    HW2 9993   0.770   3.639   0.618
 3032SOL     OW 9994   5.143   0.129   0.023
 3032SOL    HW1 9995   5.095   0.091   0.102
 3032SOL    HW2 9996   5.212   0.064   7.017
 3033SOL     OW 9997   0.609   2.777   0.411
 3033SOL    HW1 9998   0.608   2.876   0.402
 3033SOL    HW2 9999   0.517   2.741   0.396
 3034SOL     OW10000   1.869   6.401   3.367
 3034SOL    HW110001   1.907   6.486   3.402
 3034SOL    HW210002   1.854   6.338   3.443
 3035SOL     OW10003   6.554   1.597   0.725
 3035SOL    HW110004   6.485   1.635   0.664
 3035SOL    HW210005   6.542   1.498   0.731
 3036SOL     OW10006   1.997   3.834   6.881
 3036SOL    HW110007   1.944   3.864   6.802
 3036SOL    HW210008   1.981   3.737   6.898
 3037SOL     OW10009   5.823   5.694   4.738
 3037SOL    HW110010   5.878   5.709   4.821
 3037SOL    HW210011   5.795   5.599   4.734
 3038SOL     OW10012   5.719   6.827   6.183
 3038SOL    HW110013   5.656   6.817   6.260
 3038SOL    HW210014   5.798   6.767   6.198
 3039SOL     OW10015   6.651   4.556   2.544
 3039SOL    HW110016   6.709   4.556   2.625
 3039SOL    HW210017   6.566   4.605   2.564
 3040SOL     OW10018   4.392   3.927   6.471
 3040SOL    HW110019   4.385   3.995   6.398
 3040SOL    HW210020   4.301   3.904   6.504
 3041SOL     OW10021   1.969   2.793   5.926
 3041SOL    HW110022   1.941   2.698   5.943
 3041SOL    HW210023   1.929   2.853   5.995
 3042SOL     OW10024   5.267   0.186   2.240
 3042SOL    HW110025   5.202   0.229   2.303
 3042SOL    HW210026   5.345   0.151   2.292
 3043SOL     OW10027   0.429   5.824   0.525
 3043SOL    HW110028   0.334   5.831   0.494
 3043SOL    HW210029   0.490   5.857   0.454
 3044SOL     OW10030   3.667   4.464   5.325
 3044SOL    HW110031   3.680   4.450   5.423
 3044SOL    HW210032   3.703   4.386   5.275
 3045SOL     OW10033   4.918   0.572   2.867
 3045SOL    HW110034   4.897   0.516   2.947
 3045SOL    HW210035   4.838   0.576   2.807
 3046SOL     OW10036   0.924   3.203   5.338
 3046SOL    HW110037   1.008   3.233   5.383
 3046SOL    HW210038   0.946   3.157   5.252
 3047SOL     OW10039   5.624   5.112   1.774
 3047SOL    HW110040   5.593   5.127   1.868
 3047SOL    HW210041   5.545   5.101   1.714
 3048SOL     OW10042   4.501   3.351   1.310
 3048SOL    HW110043   4.548   3.309   1.232
 3048SOL    HW210044   4.462   3.439   1.283
 3049SOL     OW10045   0.998   6.889   1.181
 3049SOL    HW110046   0.939   6.969   1.188
 3049SOL    HW210047   0.941   6.807   1.178
 3050SOL     OW10048   3.120   6.898   3.429
 3050SOL    HW110049   3.162   6.922   3.342
 3050SOL    HW210050   3.118   6.979   3.488
 3051SOL     OW10051   2.361   4.741   6.615
 3051SOL    HW110052   2.347   4.727   6.517
 3051SOL    HW210053   2.287   4.796   6.652
 3052SOL     OW10054   3.750   0.258   3.290
 3052SOL    HW110055   3.765   0.322   3.215
 3052SOL    HW210056   3.784   0.167   3.264
 3053SOL     OW10057   5.931   0.715   0.037
 3053SOL    HW110058   6.013   0.758   7.024
 3053SOL    HW210059   5.952   0.622   0.064
 3054SOL     OW10060   6.911   2.876   6.872
 3054SOL    HW110061   6.945   2.805   6.933
 3054SOL    HW210062   6.916   2.965   6.919
 3055SOL     OW10063   4.982   0.312   3.858
 3055SOL    HW110064   4.912   0.379   3.882
 3055SOL    HW210065   4.988   0.303   3.759
 3056SOL     OW10066   6.557   0.301   0.086
 3056SOL    HW110067   6.539   0.283   7.015
 3056SOL    HW210068   6.508   0.234   0.142
 3057SOL     OW10069   4.627   5.542   2.643
 3057SOL    HW110070   4.665   5.634   2.658
 3057SOL    HW210071   4.684   5.493   2.577
 3058SOL     OW10072   6.618   5.879   1.142
 3058SOL    HW110073   6.539   5.927   1.181
 3058SOL    HW210074   6.669   5.834   1.216
 3059SOL     OW10075   1.367   3.375   5.161
 3059SOL    HW110076   1.312   3.309   5.110
 3059SOL    HW210077   1.460   3.376   5.124
 3060SOL     OW10078   0.804   6.698   0.415
 3060SOL    HW110079   0.901   6.717   0.426
 3060SOL    HW210080   0.763   6.769   0.357
 3061SOL     OW10081   0.075   0.812   4.969
 3061SOL    HW110082   7.013   0.812   5.017
 3061SOL    HW210083   0.149   0.826   5.035
 3062SOL     OW10084   1.828   0.101   1.693
 3062SOL    HW110085   1.747   0.073   1.641
 3062SOL    HW210086   1.799   0.151   1.774
 3063SOL     OW10087   2.168   5.071   1.988
 3063SOL    HW110088   2.128   5.144   1.932
 3063SOL    HW210089   2.187   4.992   1.930
 3064SOL     OW10090   5.503   3.271   3.968
 3064SOL    HW110091   5.532   3.311   4.055
 3064SOL    HW210092   5.565   3.301   3.896
 3065SOL     OW10093   2.187   0.327   6.392
 3065SOL    HW110094   2.226   0.409   6.350
 3065SOL    HW210095   2.139   0.353   6.476
 3066SOL     OW10096   6.007   4.216   0.310
 3066SOL    HW110097   6.106   4.230   0.309
 3066SOL    HW210098   5.987   4.125   0.346
 3067SOL     OW10099   3.776   0.947   5.147
 3067SOL    HW110100   3.802   0.958   5.243
 3067SOL    HW210101   3.767   1.037   5.104
 3068SOL     OW10102   5.990   6.106   0.814
 3068SOL    HW110103   6.084   6.085   0.841
 3068SOL    HW210104   5.935   6.023   0.817
 3069SOL     OW10105   0.279   5.992   1.731
 3069SOL    HW110106   0.285   6.070   1.670
 3069SOL    HW210107   0.296   6.022   1.825
 3070SOL     OW10108   2.298   1.259   2.692
 3070SOL    HW110109   2.289   1.290   2.787
 3070SOL    HW210110   2.331   1.164   2.691
 3071SOL     OW10111   6.516   7.002   3.667
 3071SOL    HW110112   6.583   6.932   3.646
 3071SOL    HW210113   6.487   6.994   3.762
 3072SOL     OW10114   0.876   6.773   1.538
 3072SOL    HW110115   0.841   6.865   1.523
 3072SOL    HW210116   0.805   6.706   1.512
 3073SOL     OW10117   0.611   3.719   5.142
 3073SOL    HW110118   0.668   3.773   5.080
 3073SOL    HW210119   0.668   3.682   5.215
 3074SOL     OW10120   4.735   2.885   0.194
 3074SOL    HW110121   4.724   2.844   0.284
 3074SOL    HW210122   4.805   2.836   0.143
 3075SOL     OW10123   1.910   6.745   1.606
 3075SOL    HW110124   1.866   6.744   1.696
 3075SOL    HW210125   1.997   6.696   1.610
 3076SOL     OW10126   6.401   0.317   4.699
 3076SOL    HW110127   6.408   0.258   4.619
 3076SOL    HW210128   6.482   0.375   4.705
 3077SOL     OW10129   5.822   4.798   3.465
 3077SOL    HW110130   5.890   4.773   3.395
 3077SOL    HW210131   5.865   4.800   3.555
 3078SOL     OW10132   2.202   3.954   1.911
 3078SOL    HW110133   2.186   4.053   1.905
 3078SOL    HW210134   2.144   3.915   1.983
 3079SOL     OW10135   1.486   2.512   5.473
 3079SOL    HW110136   1.438   2.597   5.492
 3079SOL    HW210137   1.478   2.490   5.376
 3080SOL     OW10138   6.125   5.180   1.399
 3080SOL    HW110139   6.029   5.195   1.425
 3080SOL    HW210140   6.171   5.131   1.473
 3081SOL     OW10141   0.646   4.648   6.053
 3081SOL    HW110142   0.655   4.729   6.111
 3081SOL    HW210143   0.726   4.589   6.065
 3082SOL     OW10144   4.042   6.630   3.636
 3082SOL    HW110145   4.064   6.569   3.712
 3082SOL    HW210146   4.058   6.725   3.664
 3083SOL     OW10147   3.828   6.943   2.842
 3083SOL    HW110148   3.882   7.004   2.783
 3083SOL    HW210149   3.731   6.969   2.837
 3084SOL     OW10150   4.627   4.375   4.036
 3084SOL    HW110151   4.687   4.455   4.037
 3084SOL    HW210152   4.682   4.293   4.053
 3085SOL     OW10153   0.118   4.403   3.462
 3085SOL    HW110154   0.164   4.417   3.374
 3085SOL    HW210155   0.187   4.394   3.534
 3086SOL     OW10156   3.946   1.098   2.100
 3086SOL    HW110157   4.005   1.018   2.111
 3086SOL    HW210158   3.940   1.122   2.003
 3087SOL     OW10159   6.705   4.780   3.837
 3087SOL    HW110160   6.663   4.866   3.864
 3087SOL    HW210161   6.803   4.782   3.861
 3088SOL     OW10162   2.948   5.019   5.383
 3088SOL    HW110163   2.850   5.018   5.363
 3088SOL    HW210164   2.992   5.088   5.324
 3089SOL     OW10165   1.466   3.229   0.017
 3089SOL    HW110166   1.407   3.309   0.010
 3089SOL    HW210167   1.455   3.187   0.107
 3090SOL     OW10168   1.927   1.731   1.367
 3090SOL    HW110169   1.921   1.743   1.268
 3090SOL    HW210170   1.842   1.689   1.400
 3091SOL     OW10171   3.251   6.972   0.135
 3091SOL    HW110172   3.323   6.911   0.166
 3091SOL    HW210173   3.242   0.022   0.200
 3092SOL     OW10174   5.466   6.661   0.006
 3092SOL    HW110175   5.532   6.730   7.001
 3092SOL    HW210176   5.438   6.605   6.954
 3093SOL     OW10177   5.882   5.111   6.017
 3093SOL    HW110178   5.879   5.204   6.053
 3093SOL    HW210179   5.813   5.100   5.945
 3094SOL     OW10180   3.245   6.259   4.843
 3094SOL    HW110181   3.175   6.272   4.774
 3094SOL    HW210182   3.207   6.208   4.920
 3095SOL     OW10183   2.333   4.321   4.428
 3095SOL    HW110184   2.337   4.353   4.334
 3095SOL    HW210185   2.251   4.265   4.441
 3096SOL     OW10186   6.620   0.482   4.733
 3096SOL    HW110187   6.713   0.454   4.710
 3096SOL    HW210188   6.581   0.534   4.657
 3097SOL     OW10189   0.862   2.472   0.478
 3097SOL    HW110190   0.919   2.553   0.460
 3097SOL    HW210191   0.776   2.501   0.521
 3098SOL     OW10192   2.732   3.244   1.387
 3098SOL    HW110193   2.758   3.159   1.342
 3098SOL    HW210194   2.664   3.292   1.330
 3099SOL     OW10195   6.497   5.628   4.629
 3099SOL    HW110196   6.460   5.713   4.594
 3099SOL    HW210197   6.534   5.643   4.721
 3100SOL     OW10198   6.868   0.401   4.646
 3100SOL    HW110199   6.916   0.416   4.560
 3100SOL    HW210200   6.934   0.407   4.722
 3101SOL     OW10201   4.853   6.100   5.413
 3101SOL    HW110202   4.754   6.097   5.399
 3101SOL    HW210203   4.873   6.126   5.508
 3102SOL     OW10204   0.978   4.352   1.485
 3102SOL    HW110205   0.919   4.417   1.533
 3102SOL    HW210206   0.963   4.360   1.387
 3103SOL     OW10207   3.726   1.987   0.881
 3103SOL    HW110208   3.683   2.051   0.944
 3103SOL    HW210209   3.655   1.938   0.829
 3104SOL     OW10210   5.295   5.774   4.422
 3104SOL    HW110211   5.233   5.713   4.373
 3104SOL    HW210212   5.389   5.748   4.403
 3105SOL     OW10213   5.896   6.043   3.296
 3105SOL    HW110214   5.930   6.058   3.203
 3105SOL    HW210215   5.942   6.106   3.359
 3106SOL     OW10216   6.453   2.173   2.117
 3106SOL    HW110217   6.416   2.080   2.115
 3106SOL    HW210218   6.546   2.172   2.080
 3107SOL     OW10219   3.434   0.400   4.108
 3107SOL    HW110220   3.398   0.431   4.020
 3107SOL    HW210221   3.489   0.473   4.149
 3108SOL     OW10222   1.823   1.027   4.239
 3108SOL    HW110223   1.851   1.078   4.320
 3108SOL    HW210224   1.749   1.075   4.192
 3109SOL     OW10225   5.071   5.786   2.641
 3109SOL    HW110226   5.150   5.725   2.653
 3109SOL    HW210227   5.078   5.862   2.706
 3110SOL     OW10228   0.023   2.608   3.555
 3110SOL    HW110229   0.014   2.598   3.456
 3110SOL    HW210230   0.108   2.657   3.576
 3111SOL     OW10231   6.176   5.218   4.163
 3111SOL    HW110232   6.256   5.264   4.126
 3111SOL    HW210233   6.130   5.167   4.091
 3112SOL     OW10234   4.505   2.438   6.144
 3112SOL    HW110235   4.444   2.493   6.201
 3112SOL    HW210236   4.466   2.428   6.053
 3113SOL     OW10237   2.248   0.106   3.782
 3113SOL    HW110238   2.175   0.049   3.819
 3113SOL    HW210239   2.324   0.048   3.751
 3114SOL     OW10240   5.360   3.968   6.815
 3114SOL    HW110241   5.454   3.994   6.793
 3114SOL    HW210242   5.304   3.972   6.732
 3115SOL     OW10243   4.013   4.122   0.365
 3115SOL    HW110244   3.983   4.212   0.398
 3115SOL    HW210245   3.955   4.094   0.289
 3116SOL     OW10246   6.688   2.757   6.693
 3116SOL    HW110247   6.742   2.782   6.773
 3116SOL    HW210248   6.687   2.833   6.628
 3117SOL     OW10249   4.486   3.703   5.482
 3117SOL    HW110250   4.578   3.703   5.442
 3117SOL    HW210251   4.442   3.615   5.464
 3118SOL     OW10252   6.893   4.682   6.659
 3118SOL    HW110253   6.801   4.718   6.678
 3118SOL    HW210254   6.890   4.623   6.578
 3119SOL     OW10255   2.026   4.383   5.159
 3119SOL    HW110256   2.030   4.405   5.062
 3119SOL    HW210257   1.960   4.309   5.174
 3120SOL     OW10258   2.188   5.821   4.628
 3120SOL    HW110259   2.088   5.825   4.625
 3120SOL    HW210260   2.223   5.795   4.538
 3121SOL     OW10261   0.773   1.647   1.923
 3121SOL    HW110262   0.785   1.565   1.979
 3121SOL    HW210263   0.781   1.623   1.826
 3122SOL     OW10264   3.158   5.474   6.388
 3122SOL    HW110265   3.144   5.389   6.336
 3122SOL    HW210266   3.193   5.545   6.328
 3123SOL     OW10267   3.290   6.436   3.593
 3123SOL    HW110268   3.263   6.462   3.500
 3123SOL    HW210269   3.252   6.501   3.659
 3124SOL     OW10270   4.422   0.768   5.099
 3124SOL    HW110271   4.452   0.770   5.195
 3124SOL    HW210272   4.410   0.862   5.066
 3125SOL     OW10273   6.310   1.825   5.270
 3125SOL    HW110274   6.297   1.816   5.172
 3125SOL    HW210275   6.222   1.842   5.314
 3126SOL     OW10276   5.243   4.659   6.156
 3126SOL    HW110277   5.234   4.688   6.061
 3126SOL    HW210278   5.333   4.687   6.191
 3127SOL     OW10279   0.700   1.860   3.209
 3127SOL    HW110280   0.683   1.797   3.285
 3127SOL    HW210281   0.616   1.873   3.157
 3128SOL     OW10282   1.736   0.787   0.615
 3128SOL    HW110283   1.765   0.691   0.619
 3128SOL    HW210284   1.815   0.846   0.635
 3129SOL     OW10285   0.723   4.188   5.836
 3129SOL    HW110286   0.812   4.219   5.870
 3129SOL    HW210287   0.650   4.245   5.873
 3130SOL     OW10288   2.738   4.790   2.359
 3130SOL    HW110289   2.712   4.697   2.384
 3130SOL    HW210290   2.793   4.830   2.431
 3131SOL     OW10291   1.041   3.010   3.136
 3131SOL    HW110292   1.046   3.012   3.236
 3131SOL    HW210293   0.981   3.084   3.104
 3132SOL     OW10294   5.165   5.874   5.414
 3132SOL    HW110295   5.163   5.792   5.357
 3132SOL    HW210296   5.105   5.861   5.493
 3133SOL     OW10297   2.292   1.965   4.281
 3133SOL    HW110298   2.228   1.944   4.207
 3133SOL    HW210299   2.295   1.889   4.346
 3134SOL     OW10300   5.130   3.334   1.379
 3134SOL    HW110301   5.094   3.242   1.396
 3134SOL    HW210302   5.217   3.328   1.330
 3135SOL     OW10303   4.074   2.020   4.613
 3135SOL    HW110304   4.077   1.921   4.599
 3135SOL    HW210305   4.166   2.054   4.632
 3136SOL     OW10306   5.880   6.049   5.995
 3136SOL    HW110307   5.967   6.004   6.016
 3136SOL    HW210308   5.890   6.105   5.913
 3137SOL     OW10309   4.945   1.631   3.970
 3137SOL    HW110310   4.915   1.538   3.952
 3137SOL    HW210311   4.995   1.666   3.891
 3138SOL     OW10312   6.240   1.802   4.654
 3138SOL    HW110313   6.262   1.899   4.642
 3138SOL    HW210314   6.192   1.789   4.741
 3139SOL     OW10315   5.153   6.475   6.143
 3139SOL    HW110316   5.218   6.528   6.198
 3139SOL    HW210317   5.144   6.518   6.053
 3140SOL     OW10318   6.690   6.850   6.586
 3140SOL    HW110319   6.662   6.938   6.622
 3140SOL    HW210320   6.611   6.801   6.551
 3141SOL     OW10321   0.518   6.278   6.748
 3141SOL    HW110322   0.526   6.365   6.700
 3141SOL    HW210323   0.443   6.283   6.814
 3142SOL     OW10324   4.877   6.256   0.222
 3142SOL    HW110325   4.864   6.169   0.174
 3142SOL    HW210326   4.843   6.249   0.315
 3143SOL     OW10327   6.897   1.944   6.680
 3143SOL    HW110328   6.991   1.919   6.656
 3143SOL    HW210329   6.893   2.043   6.695
 3144SOL     OW10330   1.950   3.483   0.817
 3144SOL    HW110331   1.935   3.395   0.772
 3144SOL    HW210332   1.988   3.548   0.751
 3145SOL     OW10333   3.098   5.780   2.781
 3145SOL    HW110334   3.017   5.772   2.839
 3145SOL    HW210335   3.138   5.872   2.792
 3146SOL     OW10336   1.607   6.638   3.449
 3146SOL    HW110337   1.700   6.672   3.463
 3146SOL    HW210338   1.588   6.630   3.351
 3147SOL     OW10339   4.510   4.905   0.413
 3147SOL    HW110340   4.533   4.998   0.385
 3147SOL    HW210341   4.438   4.869   0.353
 3148SOL     OW10342   3.990   5.219   3.929
 3148SOL    HW110343   3.971   5.171   4.015
 3148SOL    HW210344   4.089   5.228   3.918
 3149SOL     OW10345   3.499   0.768   5.401
 3149SOL    HW110346   3.521   0.865   5.412
 3149SOL    HW210347   3.403   0.753   5.422
 3150SOL     OW10348   5.055   6.488   4.621
 3150SOL    HW110349   5.149   6.483   4.653
 3150SOL    HW210350   5.015   6.396   4.619
 3151SOL     OW10351   5.118   1.347   6.403
 3151SOL    HW110352   5.096   1.264   6.353
 3151SOL    HW210353   5.040   1.411   6.397
 3152SOL     OW10354   0.423   5.253   1.298
 3152SOL    HW110355   0.364   5.289   1.370
 3152SOL    HW210356   0.493   5.193   1.338
 3153SOL     OW10357   6.223   4.169   1.358
 3153SOL    HW110358   6.294   4.100   1.338
 3153SOL    HW210359   6.264   4.260   1.354
 3154SOL     OW10360   6.609   2.217   6.597
 3154SOL    HW110361   6.628   2.313   6.615
 3154SOL    HW210362   6.513   2.197   6.617
 3155SOL     OW10363   6.364   5.046   0.957
 3155SOL    HW110364   6.392   5.076   0.865
 3155SOL    HW210365   6.372   5.123   1.020
 3156SOL     OW10366   3.721   4.104   3.023
 3156SOL    HW110367   3.632   4.103   2.979
 3156SOL    HW210368   3.789   4.062   2.961
 3157SOL     OW10369   2.053   3.595   4.766
 3157SOL    HW110370   2.076   3.498   4.773
 3157SOL    HW210371   2.070   3.639   4.854
 3158SOL     OW10372   4.991   6.778   1.350
 3158SOL    HW110373   4.905   6.734   1.325
 3158SOL    HW210374   4.978   6.877   1.353
 3159SOL     OW10375   5.068   5.822   6.169
 3159SOL    HW110376   5.095   5.908   6.128
 3159SOL    HW210377   5.086   5.747   6.105
 3160SOL     OW10378   5.636   3.824   5.889
 3160SOL    HW110379   5.695   3.807   5.968
 3160SOL    HW210380   5.568   3.751   5.882
 3161SOL     OW10381   1.646   1.050   2.633
 3161SOL    HW110382   1.571   1.112   2.611
 3161SOL    HW210383   1.670   1.059   2.729
 3162SOL     OW10384   0.411   5.663   0.000
 3162SOL    HW110385   0.483   5.593   0.005
 3162SOL    HW210386   0.336   5.630   6.969
 3163SOL     OW10387   3.907   3.037   6.826
 3163SOL    HW110388   3.828   2.982   6.851
 3163SOL    HW210389   3.990   2.995   6.862
 3164SOL     OW10390   5.627   4.326   0.811
 3164SOL    HW110391   5.600   4.237   0.847
 3164SOL    HW210392   5.658   4.384   0.887
 3165SOL     OW10393   0.627   7.021   2.091
 3165SOL    HW110394   0.546   6.963   2.102
 3165SOL    HW210395   0.696   6.994   2.158
 3166SOL     OW10396   4.878   2.833   5.977
 3166SOL    HW110397   4.874   2.917   6.031
 3166SOL    HW210398   4.951   2.773   6.012
 3167SOL     OW10399   0.249   4.330   1.785
 3167SOL    HW110400   0.190   4.385   1.726
 3167SOL    HW210401   0.250   4.236   1.753
 3168SOL     OW10402   5.640   2.796   0.359
 3168SOL    HW110403   5.577   2.719   0.348
 3168SOL    HW210404   5.603   2.876   0.312
 3169SOL     OW10405   0.778   2.951   5.918
 3169SOL    HW110406   0.848   2.885   5.947
 3169SOL    HW210407   0.815   3.044   5.927
 3170SOL     OW10408   4.334   0.432   6.800
 3170SOL    HW110409   4.261   0.365   6.791
 3170SOL    HW210410   4.319   0.506   6.734
 3171SOL     OW10411   6.674   0.400   2.126
 3171SOL    HW110412   6.656   0.498   2.117
 3171SOL    HW210413   6.773   0.385   2.132
 3172SOL     OW10414   6.659   6.557   4.910
 3172SOL    HW110415   6.668   6.566   4.810
 3172SOL    HW210416   6.582   6.613   4.941
 3173SOL     OW10417   2.218   0.383   2.029
 3173SOL    HW110418   2.182   0.350   2.117
 3173SOL    HW210419   2.221   0.483   2.030
 3174SOL     OW10420   3.039   2.842   5.668
 3174SOL    HW110421   3.138   2.849   5.655
 3174SOL    HW210422   2.991   2.874   5.586
 3175SOL     OW10423   0.895   6.019   6.801
 3175SOL    HW110424   0.930   6.113   6.810
 3175SOL    HW210425   0.950   5.959   6.859
 3176SOL     OW10426   1.630   4.339   6.172
 3176SOL    HW110427   1.651   4.254   6.221
 3176SOL    HW210428   1.663   4.332   6.077
 3177SOL     OW10429   5.201   5.094   5.480
 3177SOL    HW110430   5.261   5.074   5.558
 3177SOL    HW210431   5.108   5.065   5.501
 3178SOL     OW10432   0.508   4.362   2.209
 3178SOL    HW110433   0.425   4.382   2.261
 3178SOL    HW210434   0.575   4.434   2.224
 3179SOL     OW10435   2.086   2.551   2.350
 3179SOL    HW110436   1.991   2.529   2.330
 3179SOL    HW210437   2.093   2.645   2.384
 3180SOL     OW10438   5.321   0.091   5.522
 3180SOL    HW110439   5.228   0.056   5.510
 3180SOL    HW210440   5.319   0.169   5.585
 3181SOL     OW10441   0.479   1.065   3.329
 3181SOL    HW110442   0.478   1.165   3.325
 3181SOL    HW210443   0.482   1.027   3.237
 3182SOL     OW10444   0.329   6.292   5.491
 3182SOL    HW110445   0.404   6.341   5.535
 3182SOL    HW210446   0.308   6.209   5.543
 3183SOL     OW10447   4.350   4.967   1.940
 3183SOL    HW110448   4.277   4.985   1.875
 3183SOL    HW210449   4.423   5.034   1.927
 3184SOL     OW10450   2.520   2.193   3.094
 3184SOL    HW110451   2.601   2.249   3.075
 3184SOL    HW210452   2.548   2.111   3.143
 3185SOL     OW10453   0.774   6.689   5.221
 3185SOL    HW110454   0.828   6.772   5.208
 3185SOL    HW210455   0.821   6.612   5.177
 3186SOL     OW10456   3.336   1.300   2.742
 3186SOL    HW110457   3.266   1.344   2.798
 3186SOL    HW210458   3.397   1.370   2.704
 3187SOL     OW10459   3.418   4.510   0.067
 3187SOL    HW110460   3.496   4.544   0.120
 3187SOL    HW210461   3.438   4.517   6.995
 3188SOL     OW10462   3.495   5.752   2.977
 3188SOL    HW110463   3.458   5.776   3.067
 3188SOL    HW210464   3.438   5.792   2.906
 3189SOL     OW10465   0.941   0.434   3.270
 3189SOL    HW110466   0.884   0.357   3.302
 3189SOL    HW210467   1.031   0.400   3.243
 3190SOL     OW10468   1.387   5.845   1.669
 3190SOL    HW110469   1.336   5.791   1.735
 3190SOL    HW210470   1.485   5.840   1.690
 3191SOL     OW10471   3.837   0.888   0.795
 3191SOL    HW110472   3.787   0.886   0.882
 3191SOL    HW210473   3.839   0.796   0.756
 3192SOL     OW10474   0.695   2.633   1.600
 3192SOL    HW110475   0.613   2.657   1.548
 3192SOL    HW210476   0.748   2.715   1.620
 3193SOL     OW10477   4.563   1.833   6.518
 3193SOL    HW110478   4.616   1.771   6.459
 3193SOL    HW210479   4.625   1.877   6.583
 3194SOL     OW10480   1.415   3.762   6.056
 3194SOL    HW110481   1.471   3.844   6.063
 3194SOL    HW210482   1.379   3.755   5.963
 3195SOL     OW10483   1.545   3.050   3.819
 3195SOL    HW110484   1.459   3.089   3.787
 3195SOL    HW210485   1.620   3.086   3.764
 3196SOL     OW10486   0.461   0.287   4.699
 3196SOL    HW110487   0.488   0.326   4.787
 3196SOL    HW210488   0.402   0.351   4.651
 3197SOL     OW10489   1.176   5.246   3.554
 3197SOL    HW110490   1.227   5.274   3.635
 3197SOL    HW210491   1.130   5.159   3.572
 3198SOL     OW10492   0.438   1.736   6.140
 3198SOL    HW110493   0.514   1.791   6.108
 3198SOL    HW210494   0.363   1.740   6.074
 3199SOL     OW10495   4.290   1.385   2.395
 3199SOL    HW110496   4.390   1.384   2.383
 3199SOL    HW210497   4.257   1.478   2.383
 3200SOL     OW10498   6.736   2.117   0.257
 3200SOL    HW110499   6.786   2.190   0.304
 3200SOL    HW210500   6.691   2.155   0.176
 3201SOL     OW10501   5.518   3.947   3.911
 3201SOL    HW110502   5.584   4.004   3.863
 3201SOL    HW210503   5.524   3.853   3.877
 3202SOL     OW10504   1.786   4.918   1.845
 3202SOL    HW110505   1.808   4.891   1.939
 3202SOL    HW210506   1.868   4.910   1.788
 3203SOL     OW10507   6.942   0.876   0.936
 3203SOL    HW110508   6.913   0.893   1.030
 3203SOL    HW210509   6.878   0.813   0.892
 3204SOL     OW10510   6.765   5.732   2.015
 3204SOL    HW110511   6.757   5.647   1.964
 3204SOL    HW210512   6.793   5.713   2.109
 3205SOL     OW10513   6.758   3.520   5.283
 3205SOL    HW110514   6.664   3.507   5.251
 3205SOL    HW210515   6.821   3.475   5.220
 3206SOL     OW10516   1.294   6.667   5.584
 3206SOL    HW110517   1.322   6.577   5.617
 3206SOL    HW210518   1.350   6.692   5.505
 3207SOL     OW10519   0.618   0.904   4.761
 3207SOL    HW110520   0.627   0.987   4.705
 3207SOL    HW210521   0.552   0.843   4.718
 3208SOL     OW10522   4.345   5.460   5.150
 3208SOL    HW110523   4.398   5.540   5.122
 3208SOL    HW210524   4.340   5.457   5.250
 3209SOL     OW10525   2.437   0.270   3.937
 3209SOL    HW110526   2.355   0.218   3.912
 3209SOL    HW210527   2.494   0.215   3.998
 3210SOL     OW10528   6.890   4.575   2.708
 3210SOL    HW110529   6.913   4.482   2.737
 3210SOL    HW210530   6.969   4.617   2.664
 3211SOL     OW10531   2.185   4.589   1.495
 3211SOL    HW110532   2.153   4.661   1.433
 3211SOL    HW210533   2.196   4.504   1.445
 3212SOL     OW10534   4.517   2.611   6.940
 3212SOL    HW110535   4.432   2.646   6.902
 3212SOL    HW210536   4.583   2.597   6.866
 3213SOL     OW10537   5.859   5.693   2.850
 3213SOL    HW110538   5.809   5.676   2.935
 3213SOL    HW210539   5.931   5.624   2.839
 3214SOL     OW10540   4.368   5.826   6.763
 3214SOL    HW110541   4.456   5.794   6.727
 3214SOL    HW210542   4.365   5.926   6.761
 3215SOL     OW10543   6.378   2.774   6.569
 3215SOL    HW110544   6.307   2.823   6.520
 3215SOL    HW210545   6.422   2.835   6.635
 3216SOL     OW10546   5.346   6.860   3.313
 3216SOL    HW110547   5.314   6.942   3.361
 3216SOL    HW210548   5.445   6.855   3.317
 3217SOL     OW10549   0.274   4.395   2.348
 3217SOL    HW110550   0.272   4.317   2.411
 3217SOL    HW210551   0.268   4.480   2.400
 3218SOL     OW10552   4.116   0.344   3.267
 3218SOL    HW110553   4.088   0.425   3.319
 3218SOL    HW210554   4.103   0.262   3.324
 3219SOL     OW10555   0.474   0.398   3.306
 3219SOL    HW110556   0.510   0.308   3.284
 3219SOL    HW210557   0.379   0.404   3.277
 3220SOL     OW10558   0.284   4.408   5.024
 3220SOL    HW110559   0.379   4.391   5.000
 3220SOL    HW210560   0.261   4.504   5.005
 3221SOL     OW10561   2.859   0.114   3.604
 3221SOL    HW110562   2.957   0.110   3.589
 3221SOL    HW210563   2.811   0.111   3.516
 3222SOL     OW10564   5.587   2.201   3.000
 3222SOL    HW110565   5.575   2.301   3.005
 3222SOL    HW210566   5.667   2.175   3.052
 3223SOL     OW10567   2.560   4.806   6.003
 3223SOL    HW110568   2.574   4.870   6.079
 3223SOL    HW210569   2.478   4.751   6.021
 3224SOL     OW10570   4.060   5.394   0.519
 3224SOL    HW110571   4.067   5.430   0.426
 3224SOL    HW210572   4.089   5.298   0.519
 3225SOL     OW10573   2.949   3.689   0.143
 3225SOL    HW110574   2.853   3.691   0.115
 3225SOL    HW210575   3.003   3.642   0.074
 3226SOL     OW10576   1.448   0.919   4.174
 3226SOL    HW110577   1.485   0.876   4.091
 3226SOL    HW210578   1.367   0.972   4.151
 3227SOL     OW10579   3.914   1.203   5.514
 3227SOL    HW110580   3.848   1.214   5.440
 3227SOL    HW210581   3.941   1.293   5.549
 3228SOL     OW10582   5.322   3.676   4.615
 3228SOL    HW110583   5.296   3.754   4.672
 3228SOL    HW210584   5.241   3.622   4.593
 3229SOL     OW10585   4.420   1.601   5.635
 3229SOL    HW110586   4.407   1.688   5.682
 3229SOL    HW210587   4.332   1.571   5.596
 3230SOL     OW10588   0.607   0.624   3.412
 3230SOL    HW110589   0.586   0.526   3.405
 3230SOL    HW210590   0.521   0.675   3.420
 3231SOL     OW10591   6.213   6.026   0.939
 3231SOL    HW110592   6.303   5.984   0.922
 3231SOL    HW210593   6.167   5.976   1.012
 3232SOL     OW10594   2.756   4.731   4.366
 3232SOL    HW110595   2.738   4.768   4.458
 3232SOL    HW210596   2.686   4.664   4.343
 3233SOL     OW10597   0.493   4.043   1.353
 3233SOL    HW110598   0.582   4.011   1.320
 3233SOL    HW210599   0.474   4.134   1.315
 3234SOL     OW10600   0.401   1.538   6.617
 3234SOL    HW110601   0.364   1.587   6.538
 3234SOL    HW210602   0.425   1.445   6.591
 3235SOL     OW10603   5.544   6.843   2.681
 3235SOL    HW110604   5.575   6.749   2.667
 3235SOL    HW210605   5.512   6.854   2.775
 3236SOL     OW10606   1.416   3.254   2.813
 3236SOL    HW110607   1.380   3.311   2.739
 3236SOL    HW210608   1.342   3.226   2.873
 3237SOL     OW10609   3.501   6.972   4.865
 3237SOL    HW110610   3.581   6.974   4.805
 3237SOL    HW210611   3.519   6.913   4.943
 3238SOL     OW10612   6.976   6.307   6.442
 3238SOL    HW110613   0.002   6.313   6.356
 3238SOL    HW210614   0.006   6.263   6.512
 3239SOL     OW10615   6.638   0.319   5.283
 3239SOL    HW110616   6.652   0.340   5.186
 3239SOL    HW210617   6.565   0.251   5.293
 3240SOL     OW10618   1.475   0.323   4.718
 3240SOL    HW110619   1.411   0.319   4.641
 3240SOL    HW210620   1.514   0.415   4.724
 3241SOL     OW10621   4.851   0.972   4.195
 3241SOL    HW110622   4.811   1.062   4.178
 3241SOL    HW210623   4.917   0.950   4.123
 3242SOL     OW10624   3.958   6.399   6.763
 3242SOL    HW110625   3.882   6.335   6.769
 3242SOL    HW210626   3.949   6.455   6.680
 3243SOL     OW10627   4.595   5.181   0.879
 3243SOL    HW110628   4.627   5.175   0.785
 3243SOL    HW210629   4.495   5.170   0.881
 3244SOL     OW10630   3.255   6.241   6.843
 3244SOL    HW110631   3.250   6.317   6.778
 3244SOL    HW210632   3.165   6.198   6.851
 3245SOL     OW10633   3.598   2.452   6.710
 3245SOL    HW110634   3.545   2.536   6.703
 3245SOL    HW210635   3.560   2.383   6.648
 3246SOL     OW10636   5.121   6.239   2.775
 3246SOL    HW110637   5.200   6.280   2.820
 3246SOL    HW210638   5.096   6.154   2.822
 3247SOL     OW10639   0.333   2.598   3.416
 3247SOL    HW110640   0.424   2.578   3.379
 3247SOL    HW210641   0.341   2.667   3.488
 3248SOL     OW10642   6.162   3.274   1.521
 3248SOL    HW110643   6.213   3.335   1.460
 3248SOL    HW210644   6.064   3.286   1.505
 3249SOL     OW10645   2.555   4.734   4.834
 3249SOL    HW110646   2.493   4.671   4.881
 3249SOL    HW210647   2.649   4.717   4.866
 3250SOL     OW10648   4.590   6.544   2.436
 3250SOL    HW110649   4.647   6.575   2.512
 3250SOL    HW210650   4.597   6.609   2.360
 3251SOL     OW10651   3.562   2.047   3.127
 3251SOL    HW110652   3.643   2.023   3.074
 3251SOL    HW210653   3.495   1.973   3.120
 3252SOL     OW10654   2.776   1.040   2.823
 3252SOL    HW110655   2.865   1.055   2.867
 3252SOL    HW210656   2.790   1.010   2.728
 3253SOL     OW10657   5.351   3.019   1.037
 3253SOL    HW110658   5.253   3.018   1.059
 3253SOL    HW210659   5.371   2.947   0.970
 3254SOL     OW10660   4.770   4.588   3.351
 3254SOL    HW110661   4.768   4.489   3.337
 3254SOL    HW210662   4.678   4.625   3.337
 3255SOL     OW10663   4.505   5.474   0.428
 3255SOL    HW110664   4.490   5.477   0.527
 3255SOL    HW210665   4.465   5.391   0.391
 3256SOL     OW10666   5.034   6.759   5.625
 3256SOL    HW110667   5.012   6.759   5.722
 3256SOL    HW210668   5.133   6.769   5.613
 3257SOL     OW10669   1.357   2.490   0.907
 3257SOL    HW110670   1.455   2.503   0.888
 3257SOL    HW210671   1.337   2.526   0.999
 3258SOL     OW10672   5.273   6.509   2.001
 3258SOL    HW110673   5.269   6.547   2.094
 3258SOL    HW210674   5.181   6.481   1.973
 3259SOL     OW10675   4.338   6.291   3.865
 3259SOL    HW110676   4.271   6.356   3.831
 3259SOL    HW210677   4.311   6.198   3.841
 3260SOL     OW10678   2.341   2.140   0.325
 3260SOL    HW110679   2.389   2.226   0.343
 3260SOL    HW210680   2.343   2.121   0.227
 3261SOL     OW10681   4.473   6.960   1.088
 3261SOL    HW110682   4.410   0.012   1.093
 3261SOL    HW210683   4.511   6.942   1.179
 3262SOL     OW10684   3.875   1.817   3.172
 3262SOL    HW110685   3.803   1.755   3.140
 3262SOL    HW210686   3.863   1.907   3.129
 3263SOL     OW10687   4.401   6.649   1.458
 3263SOL    HW110688   4.316   6.625   1.412
 3263SOL    HW210689   4.446   6.566   1.490
 3264SOL     OW10690   6.646   4.732   6.804
 3264SOL    HW110691   6.667   4.655   6.863
 3264SOL    HW210692   6.608   4.807   6.859
 3265SOL     OW10693   5.065   0.496   6.110
 3265SOL    HW110694   5.151   0.546   6.126
 3265SOL    HW210695   5.085   0.399   6.095
 3266SOL     OW10696   1.009   1.513   6.025
 3266SOL    HW110697   1.071   1.442   6.059
 3266SOL    HW210698   0.915   1.477   6.025
 3267SOL     OW10699   3.768   1.988   1.332
 3267SOL    HW110700   3.754   2.068   1.274
 3267SOL    HW210701   3.704   1.991   1.409
 3268SOL     OW10702   1.311   4.357   6.300
 3268SOL    HW110703   1.343   4.414   6.376
 3268SOL    HW210704   1.302   4.414   6.218
 3269SOL     OW10705   4.265   4.739   1.193
 3269SOL    HW110706   4.354   4.724   1.150
 3269SOL    HW210707   4.250   4.670   1.264
 3270SOL     OW10708   0.801   5.884   4.621
 3270SOL    HW110709   0.836   5.962   4.673
 3270SOL    HW210710   0.723   5.844   4.668
 3271SOL     OW10711   6.194   1.798   1.063
 3271SOL    HW110712   6.125   1.766   0.999
 3271SOL    HW210713   6.245   1.873   1.022
 3272SOL     OW10714   4.194   0.177   0.492
 3272SOL    HW110715   4.131   0.249   0.464
 3272SOL    HW210716   4.172   0.148   0.585
 3273SOL     OW10717   0.186   6.918   2.587
 3273SOL    HW110718   0.281   6.903   2.560
 3273SOL    HW210719   0.158   7.010   2.561
 3274SOL     OW10720   3.046   1.958   5.935
 3274SOL    HW110721   3.120   1.897   5.905
 3274SOL    HW210722   3.049   2.043   5.882
 3275SOL     OW10723   2.230   0.518   6.850
 3275SOL    HW110724   2.303   0.586   6.852
 3275SOL    HW210725   2.143   0.561   6.873
 3276SOL     OW10726   3.269   6.583   0.089
 3276SOL    HW110727   3.222   6.637   0.019
 3276SOL    HW210728   3.307   6.644   0.159
 3277SOL     OW10729   0.061   5.934   4.889
 3277SOL    HW110730   0.017   5.874   4.956
 3277SOL    HW210731   0.159   5.941   4.910
 3278SOL     OW10732   1.403   0.480   6.006
 3278SOL    HW110733   1.338   0.553   6.026
 3278SOL    HW210734   1.357   0.392   6.007
 3279SOL     OW10735   1.036   0.187   1.041
 3279SOL    HW110736   1.012   0.229   1.129
 3279SOL    HW210737   0.962   0.202   0.976
 3280SOL     OW10738   1.676   4.814   6.014
 3280SOL    HW110739   1.586   4.806   5.970
 3280SOL    HW210740   1.676   4.760   6.098
 3281SOL     OW10741   2.583   5.675   0.747
 3281SOL    HW110742   2.579   5.695   0.845
 3281SOL    HW210743   2.650   5.602   0.731
 3282SOL     OW10744   2.398   5.158   2.990
 3282SOL    HW110745   2.474   5.095   2.972
 3282SOL    HW210746   2.343   5.123   3.065
 3283SOL     OW10747   2.283   0.885   3.551
 3283SOL    HW110748   2.330   0.856   3.635
 3283SOL    HW210749   2.350   0.923   3.487
 3284SOL     OW10750   0.052   5.003   6.917
 3284SOL    HW110751   0.090   4.934   6.978
 3284SOL    HW210752   0.099   5.090   6.930
 3285SOL     OW10753   0.665   1.820   3.519
 3285SOL    HW110754   0.596   1.795   3.587
 3285SOL    HW210755   0.720   1.740   3.496
 3286SOL     OW10756   3.568   3.552   4.624
 3286SOL    HW110757   3.567   3.651   4.613
 3286SOL    HW210758   3.660   3.522   4.651
 3287SOL     OW10759   1.802   5.197   0.486
 3287SOL    HW110760   1.831   5.292   0.487
 3287SOL    HW210761   1.826   5.155   0.398
 3288SOL     OW10762   0.557   6.228   6.060
 3288SOL    HW110763   0.615   6.243   5.980
 3288SOL    HW210764   0.534   6.316   6.101
 3289SOL     OW10765   1.395   6.291   4.950
 3289SOL    HW110766   1.304   6.326   4.929
 3289SOL    HW210767   1.453   6.366   4.982
 3290SOL     OW10768   6.542   4.999   1.205
 3290SOL    HW110769   6.446   4.989   1.234
 3290SOL    HW210770   6.602   4.974   1.280
 3291SOL     OW10771   1.210   6.322   0.319
 3291SOL    HW110772   1.294   6.376   0.318
 3291SOL    HW210773   1.207   6.267   0.403
 3292SOL     OW10774   0.026   0.005   5.620
 3292SOL    HW110775   0.057   6.993   5.707
 3292SOL    HW210776   0.105   0.033   5.566
 3293SOL     OW10777   7.000   1.201   2.557
 3293SOL    HW110778   0.043   1.173   2.624
 3293SOL    HW210779   0.015   1.264   2.492
 3294SOL     OW10780   0.151   0.492   6.969
 3294SOL    HW110781   0.192   0.574   7.010
 3294SOL    HW210782   0.183   0.411   7.018
 3295SOL     OW10783   1.955   3.320   0.318
 3295SOL    HW110784   1.879   3.267   0.281
 3295SOL    HW210785   2.005   3.363   0.243
 3296SOL     OW10786   2.115   6.714   2.293
 3296SOL    HW110787   2.137   6.785   2.360
 3296SOL    HW210788   2.166   6.631   2.315
 3297SOL     OW10789   3.058   2.388   6.506
 3297SOL    HW110790   3.092   2.295   6.489
 3297SOL    HW210791   3.108   2.452   6.448
 3298SOL     OW10792   6.205   3.077   2.702
 3298SOL    HW110793   6.143   3.033   2.767
 3298SOL    HW210794   6.252   3.007   2.648
 3299SOL     OW10795   1.876   7.018   5.035
 3299SOL    HW110796   1.875   7.003   5.134
 3299SOL    HW210797   1.959   6.981   4.995
 3300SOL     OW10798   6.320   6.281   4.378
 3300SOL    HW110799   6.419   6.285   4.387
 3300SOL    HW210800   6.277   6.338   4.449
 3301SOL     OW10801   0.622   3.695   3.082
 3301SOL    HW110802   0.696   3.653   3.135
 3301SOL    HW210803   0.662   3.757   3.014
 3302SOL     OW10804   1.114   4.968   3.928
 3302SOL    HW110805   1.163   4.929   4.006
 3302SOL    HW210806   1.016   4.954   3.940
 3303SOL     OW10807   3.859   3.446   3.568
 3303SOL    HW110808   3.795   3.511   3.528
 3303SOL    HW210809   3.918   3.493   3.634
 3304SOL     OW10810   0.553   6.519   4.513
 3304SOL    HW110811   0.491   6.455   4.467
 3304SOL    HW210812   0.510   6.608   4.518
 3305SOL     OW10813   2.058   1.085   2.210
 3305SOL    HW110814   2.006   1.170   2.203
 3305SOL    HW210815   2.147   1.103   2.251
 3306SOL     OW10816   1.447   3.787   3.628
 3306SOL    HW110817   1.531   3.842   3.631
 3306SOL    HW210818   1.368   3.846   3.648
 3307SOL     OW10819   6.987   6.015   0.180
 3307SOL    HW110820   0.056   6.030   0.151
 3307SOL    HW210821   6.986   5.994   0.278
 3308SOL     OW10822   4.940   5.825   0.771
 3308SOL    HW110823   4.925   5.867   0.682
 3308SOL    HW210824   4.880   5.866   0.839
 3309SOL     OW10825   0.436   4.794   2.927
 3309SOL    HW110826   0.482   4.883   2.922
 3309SOL    HW210827   0.504   4.721   2.924
 3310SOL     OW10828   0.866   5.211   2.333
 3310SOL    HW110829   0.915   5.143   2.278
 3310SOL    HW210830   0.932   5.268   2.381
 3311SOL     OW10831   4.181   6.483   1.019
 3311SOL    HW110832   4.174   6.511   0.924
 3311SOL    HW210833   4.121   6.404   1.035
 3312SOL     OW10834   3.309   3.702   6.864
 3312SOL    HW110835   3.321   3.774   6.932
 3312SOL    HW210836   3.371   3.627   6.883
 3313SOL     OW10837   0.064   5.396   3.883
 3313SOL    HW110838   0.010   5.385   3.799
 3313SOL    HW210839   0.144   5.452   3.864
 3314SOL     OW10840   1.231   3.402   5.413
 3314SOL    HW110841   1.298   3.453   5.467
 3314SOL    HW210842   1.265   3.391   5.319
 3315SOL     OW10843   0.257   2.064   4.126
 3315SOL    HW110844   0.312   1.990   4.086
 3315SOL    HW210845   0.247   2.137   4.059
 3316SOL     OW10846   4.734   1.833   6.718
 3316SOL    HW110847   4.710   1.819   6.814
 3316SOL    HW210848   4.825   1.875   6.711
 3317SOL     OW10849   4.290   2.586   1.005
 3317SOL    HW110850   4.202   2.610   0.963
 3317SOL    HW210851   4.278   2.510   1.068
 3318SOL     OW10852   2.688   5.674   5.779
 3318SOL    HW110853   2.671   5.690   5.682
 3318SOL    HW210854   2.607   5.699   5.832
 3319SOL     OW10855   0.357   5.885   4.957
 3319SOL    HW110856   0.383   5.862   4.863
 3319SOL    HW210857   0.406   5.824   5.020
 3320SOL     OW10858   6.337   1.290   5.729
 3320SOL    HW110859   6.250   1.242   5.742
 3320SOL    HW210860   6.411   1.224   5.720
 3321SOL     OW10861   3.381   3.347   3.091
 3321SOL    HW110862   3.341   3.395   3.169
 3321SOL    HW210863   3.345   3.385   3.006
 3322SOL     OW10864   3.902   1.640   0.556
 3322SOL    HW110865   3.927   1.720   0.611
 3322SOL    HW210866   3.973   1.624   0.488
 3323SOL     OW10867   2.467   4.896   0.469
 3323SOL    HW110868   2.563   4.907   0.495
 3323SOL    HW210869   2.410   4.891   0.551
 3324SOL     OW10870   1.048   2.938   0.465
 3324SOL    HW110871   1.069   3.000   0.389
 3324SOL    HW210872   1.119   2.867   0.470
 3325SOL     OW10873   1.216   2.815   1.034
 3325SOL    HW110874   1.276   2.823   0.954
 3325SOL    HW210875   1.125   2.850   1.011
 3326SOL     OW10876   6.314   1.543   1.051
 3326SOL    HW110877   6.294   1.507   0.960
 3326SOL    HW210878   6.283   1.639   1.055
 3327SOL     OW10879   2.936   6.737   2.238
 3327SOL    HW110880   2.855   6.682   2.218
 3327SOL    HW210881   2.940   6.815   2.176
 3328SOL     OW10882   4.682   0.890   2.245
 3328SOL    HW110883   4.635   0.802   2.255
 3328SOL    HW210884   4.778   0.875   2.223
 3329SOL     OW10885   4.942   0.289   5.470
 3329SOL    HW110886   4.986   0.371   5.504
 3329SOL    HW210887   4.951   0.215   5.538
 3330SOL     OW10888   6.410   6.131   2.583
 3330SOL    HW110889   6.402   6.032   2.593
 3330SOL    HW210890   6.332   6.166   2.531
 3331SOL     OW10891   1.922   3.378   2.747
 3331SOL    HW110892   1.856   3.305   2.728
 3331SOL    HW210893   1.898   3.458   2.692
 3332SOL     OW10894   4.313   5.551   1.000
 3332SOL    HW110895   4.280   5.636   0.958
 3332SOL    HW210896   4.406   5.532   0.968
 3333SOL     OW10897   4.172   3.717   1.475
 3333SOL    HW110898   4.143   3.656   1.549
 3333SOL    HW210899   4.124   3.804   1.483
 3334SOL     OW10900   1.863   1.927   2.887
 3334SOL    HW110901   1.937   1.963   2.830
 3334SOL    HW210902   1.867   1.968   2.978
 3335SOL     OW10903   3.942   4.329   5.222
 3335SOL    HW110904   3.868   4.274   5.184
 3335SOL    HW210905   3.995   4.369   5.148
 3336SOL     OW10906   4.475   6.008   3.739
 3336SOL    HW110907   4.380   6.003   3.707
 3336SOL    HW210908   4.476   6.025   3.837
 3337SOL     OW10909   3.412   3.686   3.164
 3337SOL    HW110910   3.347   3.611   3.156
 3337SOL    HW210911   3.417   3.715   3.260
 3338SOL     OW10912   2.155   1.678   1.521
 3338SOL    HW110913   2.077   1.686   1.459
 3338SOL    HW210914   2.238   1.710   1.473
 3339SOL     OW10915   2.292   6.927   5.499
 3339SOL    HW110916   2.321   6.867   5.425
 3339SOL    HW210917   2.352   7.007   5.503
 3340SOL     OW10918   4.177   0.975   4.603
 3340SOL    HW110919   4.105   1.035   4.569
 3340SOL    HW210920   4.179   0.891   4.548
 3341SOL     OW10921   2.316   4.233   2.795
 3341SOL    HW110922   2.250   4.162   2.771
 3341SOL    HW210923   2.362   4.209   2.881
 3342SOL     OW10924   6.870   0.546   3.157
 3342SOL    HW110925   6.904   0.513   3.245
 3342SOL    HW210926   6.881   0.645   3.153
 3343SOL     OW10927   4.901   5.081   6.832
 3343SOL    HW110928   4.931   5.002   6.885
 3343SOL    HW210929   4.833   5.052   6.765
 3344SOL     OW10930   6.969   2.815   2.682
 3344SOL    HW110931   6.937   2.743   2.621
 3344SOL    HW210932   6.991   2.897   2.629
 3345SOL     OW10933   6.755   4.874   0.699
 3345SOL    HW110934   6.707   4.915   0.776
 3345SOL    HW210935   6.703   4.796   0.665
 3346SOL     OW10936   2.031   1.258   7.020
 3346SOL    HW110937   2.031   1.291   0.089
 3346SOL    HW210938   2.058   1.162   7.018
 3347SOL     OW10939   0.124   3.411   6.498
 3347SOL    HW110940   0.097   3.329   6.447
 3347SOL    HW210941   0.203   3.390   6.556
 3348SOL     OW10942   3.920   3.831   5.991
 3348SOL    HW110943   3.968   3.856   5.907
 3348SOL    HW210944   3.834   3.786   5.968
 3349SOL     OW10945   2.201   5.120   3.531
 3349SOL    HW110946   2.170   5.202   3.579
 3349SOL    HW210947   2.299   5.109   3.545
 3350SOL     OW10948   0.416   3.740   5.551
 3350SOL    HW110949   0.401   3.740   5.452
 3350SOL    HW210950   0.496   3.684   5.572
 3351SOL     OW10951   5.498   0.912   1.573
 3351SOL    HW110952   5.449   0.842   1.625
 3351SOL    HW210953   5.587   0.929   1.614
 3352SOL     OW10954   5.084   2.329   7.021
 3352SOL    HW110955   5.175   2.320   6.982
 3352SOL    HW210956   5.043   2.415   6.991
 3353SOL     OW10957   2.697   0.384   1.782
 3353SOL    HW110958   2.721   0.287   1.776
 3353SOL    HW210959   2.780   0.439   1.774
 3354SOL     OW10960   3.519   3.525   6.406
 3354SOL    HW110961   3.511   3.491   6.500
 3354SOL    HW210962   3.554   3.618   6.407
 3355SOL     OW10963   2.022   0.503   5.237
 3355SOL    HW110964   1.957   0.441   5.195
 3355SOL    HW210965   1.983   0.595   5.240
 3356SOL     OW10966   1.733   6.712   5.156
 3356SOL    HW110967   1.754   6.799   5.202
 3356SOL    HW210968   1.813   6.683   5.103
 3357SOL     OW10969   3.531   3.443   1.668
 3357SOL    HW110970   3.580   3.529   1.651
 3357SOL    HW210971   3.530   3.388   1.584
 3358SOL     OW10972   0.290   1.143   2.422
 3358SOL    HW110973   0.234   1.127   2.341
 3358SOL    HW210974   0.306   1.241   2.433
 3359SOL     OW10975   6.626   6.259   4.105
 3359SOL    HW110976   6.572   6.317   4.166
 3359SOL    HW210977   6.589   6.166   4.106
 3360SOL     OW10978   0.026   3.063   5.762
 3360SOL    HW110979   0.012   2.995   5.834
 3360SOL    HW210980   0.068   3.145   5.801
 3361SOL     OW10981   0.144   0.706   4.472
 3361SOL    HW110982   0.074   0.669   4.412
 3361SOL    HW210983   0.122   0.801   4.495
 3362SOL     OW10984   3.723   1.575   3.997
 3362SOL    HW110985   3.793   1.646   3.994
 3362SOL    HW210986   3.734   1.513   3.920
 3363SOL     OW10987   5.848   3.704   1.053
 3363SOL    HW110988   5.899   3.764   0.991
 3363SOL    HW210989   5.885   3.714   1.146
 3364SOL     OW10990   1.581   4.338   3.819
 3364SOL    HW110991   1.599   4.433   3.795
 3364SOL    HW210992   1.540   4.334   3.910
 3365SOL     OW10993   1.809   3.812   4.119
 3365SOL    HW110994   1.736   3.809   4.052
 3365SOL    HW210995   1.772   3.835   4.209
 3366SOL     OW10996   5.721   3.842   4.726
 3366SOL    HW110997   5.673   3.756   4.708
 3366SOL    HW210998   5.668   3.918   4.690
 3367SOL     OW10999   3.977   3.077   3.963
 3367SOL    HW111000   3.924   3.084   3.879
 3367SOL    HW211001   4.074   3.070   3.942
 3368SOL     OW11002   1.463   6.095   0.573
 3368SOL    HW111003   1.426   6.131   0.659
 3368SOL    HW211004   1.412   6.014   0.546
 3369SOL     OW11005   4.392   2.795   1.167
 3369SOL    HW111006   4.337   2.780   1.249
 3369SOL    HW211007   4.360   2.735   1.094
 3370SOL     OW11008   0.411   5.723   2.589
 3370SOL    HW111009   0.389   5.654   2.658
 3370SOL    HW211010   0.511   5.733   2.583
 3371SOL     OW11011   1.654   3.124   3.276
 3371SOL    HW111012   1.739   3.150   3.323
 3371SOL    HW211013   1.633   3.192   3.206
 3372SOL     OW11014   6.697   3.777   1.592
 3372SOL    HW111015   6.637   3.857   1.588
 3372SOL    HW211016   6.643   3.695   1.608
 3373SOL     OW11017   0.293   2.853   1.104
 3373SOL    HW111018   0.248   2.831   1.190
 3373SOL    HW211019   0.373   2.794   1.093
 3374SOL     OW11020   0.266   0.356   4.122
 3374SOL    HW111021   0.226   0.264   4.118
 3374SOL    HW211022   0.348   0.354   4.178
 3375SOL     OW11023   6.587   5.151   6.228
 3375SOL    HW111024   6.524   5.216   6.272
 3375SOL    HW211025   6.668   5.141   6.285
 3376SOL     OW11026   2.659   3.901   5.251
 3376SOL    HW111027   2.747   3.886   5.206
 3376SOL    HW211028   2.585   3.889   5.184
 3377SOL     OW11029   6.054   4.709   3.275
 3377SOL    HW111030   6.121   4.635   3.277
 3377SOL    HW211031   6.098   4.795   3.298
 3378SOL     OW11032   0.951   6.436   0.217
 3378SOL    HW111033   0.863   6.388   0.220
 3378SOL    HW211034   1.011   6.400   0.288
 3379SOL     OW11035   6.936   4.196   3.757
 3379SOL    HW111036   7.020   4.142   3.764
 3379SOL    HW211037   6.862   4.139   3.722
 3380SOL     OW11038   3.617   4.290   6.545
 3380SOL    HW111039   3.582   4.247   6.628
 3380SOL    HW211040   3.551   4.358   6.514
 3381SOL     OW11041   1.392   3.949   0.982
 3381SOL    HW111042   1.364   4.044   0.996
 3381SOL    HW211043   1.357   3.892   1.057
 3382SOL     OW11044   0.221   2.478   1.280
 3382SOL    HW111045   0.307   2.436   1.251
 3382SOL    HW211046   0.179   2.524   1.202
 3383SOL     OW11047   5.174   5.337   0.170
 3383SOL    HW111048   5.259   5.355   0.220
 3383SOL    HW211049   5.169   5.398   0.090
 3384SOL     OW11050   2.412   4.502   0.224
 3384SOL    HW111051   2.441   4.597   0.221
 3384SOL    HW211052   2.415   4.469   0.319
 3385SOL     OW11053   0.537   1.814   3.800
 3385SOL    HW111054   0.515   1.911   3.813
 3385SOL    HW211055   0.629   1.796   3.834
 3386SOL     OW11056   6.671   4.690   6.331
 3386SOL    HW111057   6.594   4.629   6.315
 3386SOL    HW211058   6.748   4.639   6.370
 3387SOL     OW11059   6.455   0.238   3.898
 3387SOL    HW111060   6.392   0.196   3.833
 3387SOL    HW211061   6.405   0.295   3.962
 3388SOL     OW11062   6.261   3.451   1.320
 3388SOL    HW111063   6.185   3.462   1.256
 3388SOL    HW211064   6.311   3.537   1.327
 3389SOL     OW11065   6.257   6.288   0.953
 3389SOL    HW111066   6.273   6.189   0.944
 3389SOL    HW211067   6.200   6.320   0.878
 3390SOL     OW11068   3.657   6.937   6.144
 3390SOL    HW111069   3.657   7.020   6.199
 3390SOL    HW211070   3.624   6.860   6.200
 3391SOL     OW11071   5.453   2.958   3.849
 3391SOL    HW111072   5.433   2.860   3.848
 3391SOL    HW211073   5.376   3.008   3.889
 3392SOL     OW11074   4.248   6.879   5.647
 3392SOL    HW111075   4.194   6.804   5.608
 3392SOL    HW211076   4.345   6.865   5.626
 3393SOL     OW11077   5.161   6.352   1.629
 3393SOL    HW111078   5.094   6.402   1.574
 3393SOL    HW211079   5.246   6.405   1.634
 3394SOL     OW11080   3.035   5.533   1.421
 3394SOL    HW111081   2.943   5.535   1.383
 3394SOL    HW211082   3.032   5.559   1.518
 3395SOL     OW11083   2.791   0.464   3.444
 3395SOL    HW111084   2.697   0.472   3.475
 3395SOL    HW211085   2.815   0.368   3.431
 3396SOL     OW11086   4.460   1.863   4.338
 3396SOL    HW111087   4.465   1.962   4.325
 3396SOL    HW211088   4.552   1.826   4.346
 3397SOL     OW11089   2.138   5.750   0.056
 3397SOL    HW111090   2.040   5.769   0.054
 3397SOL    HW211091   2.154   5.653   0.040
 3398SOL     OW11092   6.997   1.461   4.468
 3398SOL    HW111093   6.998   1.416   4.557
 3398SOL    HW211094   6.947   1.405   4.403
 3399SOL     OW11095   6.529   5.109   2.181
 3399SOL    HW111096   6.622   5.110   2.145
 3399SOL    HW211097   6.491   5.202   2.180
 3400SOL     OW11098   5.697   1.932   6.148
 3400SOL    HW111099   5.671   1.939   6.052
 3400SOL    HW211100   5.736   2.019   6.178
 3401SOL     OW11101   6.991   3.433   5.490
 3401SOL    HW111102   6.952   3.419   5.399
 3401SOL    HW211103   0.045   3.374   5.502
 3402SOL     OW11104   6.563   4.337   1.743
 3402SOL    HW111105   6.527   4.430   1.740
 3402SOL    HW211106   6.621   4.326   1.824
 3403SOL     OW11107   4.276   6.359   6.806
 3403SOL    HW111108   4.310   6.380   6.898
 3403SOL    HW211109   4.179   6.383   6.800
 3404SOL     OW11110   5.175   4.024   4.849
 3404SOL    HW111111   5.274   4.036   4.852
 3404SOL    HW211112   5.154   3.926   4.845
 3405SOL     OW11113   5.250   5.928   5.730
 3405SOL    HW111114   5.279   5.834   5.712
 3405SOL    HW211115   5.284   5.957   5.819
 3406SOL     OW11116   2.041   4.873   1.696
 3406SOL    HW111117   2.119   4.837   1.746
 3406SOL    HW211118   2.066   4.888   1.601
 3407SOL     OW11119   1.326   3.977   0.405
 3407SOL    HW111120   1.417   3.982   0.445
 3407SOL    HW211121   1.285   4.068   0.404
 3408SOL     OW11122   4.841   2.466   3.939
 3408SOL    HW111123   4.892   2.392   3.982
 3408SOL    HW211124   4.855   2.463   3.840
 3409SOL     OW11125   4.530   0.511   0.752
 3409SOL    HW111126   4.492   0.419   0.746
 3409SOL    HW211127   4.462   0.577   0.719
 3410SOL     OW11128   4.905   0.292   2.605
 3410SOL    HW111129   4.968   0.296   2.682
 3410SOL    HW211130   4.955   0.305   2.520
 3411SOL     OW11131   6.757   2.293   0.540
 3411SOL    HW111132   6.685   2.318   0.605
 3411SOL    HW211133   6.838   2.263   0.590
 3412SOL     OW11134   5.453   3.395   1.313
 3412SOL    HW111135   5.452   3.429   1.219
 3412SOL    HW211136   5.477   3.470   1.375
 3413SOL     OW11137   0.149   2.475   5.972
 3413SOL    HW111138   0.160   2.471   6.072
 3413SOL    HW211139   0.237   2.455   5.928
 3414SOL     OW11140   3.125   3.816   0.968
 3414SOL    HW111141   3.056   3.744   0.978
 3414SOL    HW211142   3.120   3.854   0.875
 3415SOL     OW11143   2.016   2.914   5.423
 3415SOL    HW111144   1.964   2.902   5.507
 3415SOL    HW211145   2.099   2.966   5.442
 3416SOL     OW11146   5.737   6.876   6.714
 3416SOL    HW111147   5.821   6.930   6.707
 3416SOL    HW211148   5.667   6.917   6.656
 3417SOL     OW11149   6.354   0.224   2.920
 3417SOL    HW111150   6.288   0.197   2.850
 3417SOL    HW211151   6.402   0.142   2.953
 3418SOL     OW11152   5.191   4.694   0.810
 3418SOL    HW111153   5.286   4.701   0.842
 3418SOL    HW211154   5.176   4.605   0.769
 3419SOL     OW11155   3.300   6.205   5.577
 3419SOL    HW111156   3.299   6.128   5.514
 3419SOL    HW211157   3.208   6.242   5.587
 3420SOL     OW11158   4.412   2.238   3.317
 3420SOL    HW111159   4.452   2.282   3.397
 3420SOL    HW211160   4.321   2.203   3.340
 3421SOL     OW11161   6.287   2.304   3.150
 3421SOL    HW111162   6.250   2.234   3.211
 3421SOL    HW211163   6.368   2.269   3.103
 3422SOL     OW11164   2.232   7.021   1.068
 3422SOL    HW111165   2.274   6.954   1.007
 3422SOL    HW211166   2.220   6.981   1.159
 3423SOL     OW11167   1.107   4.922   6.045
 3423SOL    HW111168   1.193   4.947   5.999
 3423SOL    HW211169   1.114   4.827   6.078
 3424SOL     OW11170   4.748   0.477   1.831
 3424SOL    HW111171   4.724   0.573   1.818
 3424SOL    HW211172   4.671   0.419   1.805
 3425SOL     OW11173   5.583   3.769   0.995
 3425SOL    HW111174   5.535   3.719   0.922
 3425SOL    HW211175   5.659   3.713   1.028
 3426SOL     OW11176   5.334   2.910   6.797
 3426SOL    HW111177   5.411   2.851   6.776
 3426SOL    HW211178   5.264   2.858   6.845
 3427SOL     OW11179   0.870   2.749   0.380
 3427SOL    HW111180   0.774   2.767   0.405
 3427SOL    HW211181   0.928   2.823   0.415
 3428SOL     OW11182   4.739   5.846   6.257
 3428SOL    HW111183   4.794   5.816   6.335
 3428SOL    HW211184   4.700   5.936   6.276
 3429SOL     OW11185   6.488   0.347   1.012
 3429SOL    HW111186   6.555   0.338   1.086
 3429SOL    HW211187   6.451   0.440   1.013
 3430SOL     OW11188   2.070   4.454   5.439
 3430SOL    HW111189   1.982   4.484   5.403
 3430SOL    HW211190   2.112   4.388   5.376
 3431SOL     OW11191   2.093   5.745   3.089
 3431SOL    HW111192   2.043   5.683   3.028
 3431SOL    HW211193   2.080   5.839   3.058
 3432SOL     OW11194   1.904   4.483   0.978
 3432SOL    HW111195   1.869   4.561   0.927
 3432SOL    HW211196   1.834   4.452   1.043
 3433SOL     OW11197   2.370   1.454   7.018
 3433SOL    HW111198   2.417   1.439   0.079
 3433SOL    HW211199   2.305   1.530   0.003
 3434SOL     OW11200   2.909   2.623   0.880
 3434SOL    HW111201   2.932   2.527   0.864
 3434SOL    HW211202   2.878   2.634   0.975
 3435SOL     OW11203   2.555   0.438   0.290
 3435SOL    HW111204   2.601   0.418   0.203
 3435SOL    HW211205   2.600   0.517   0.333
 3436SOL     OW11206   3.188   5.938   0.307
 3436SOL    HW111207   3.095   5.976   0.309
 3436SOL    HW211208   3.254   6.009   0.328
 3437SOL     OW11209   1.590   6.464   6.576
 3437SOL    HW111210   1.559   6.489   6.668
 3437SOL    HW211211   1.641   6.541   6.537
 3438SOL     OW11212   1.265   3.938   1.573
 3438SOL    HW111213   1.262   3.965   1.669
 3438SOL    HW211214   1.273   3.839   1.566
 3439SOL     OW11215   2.636   5.758   2.078
 3439SOL    HW111216   2.571   5.701   2.028
 3439SOL    HW211217   2.728   5.721   2.066
 3440SOL     OW11218   3.779   3.628   4.427
 3440SOL    HW111219   3.746   3.704   4.483
 3440SOL    HW211220   3.805   3.552   4.487
 3441SOL     OW11221   5.372   5.029   5.734
 3441SOL    HW111222   5.304   5.017   5.806
 3441SOL    HW211223   5.454   5.073   5.771
 3442SOL     OW11224   3.319   3.376   0.665
 3442SOL    HW111225   3.264   3.458   0.683
 3442SOL    HW211226   3.409   3.387   0.707
 3443SOL     OW11227   1.789   6.442   2.120
 3443SOL    HW111228   1.709   6.474   2.068
 3443SOL    HW211229   1.761   6.372   2.185
 3444SOL     OW11230   6.107   3.567   0.363
 3444SOL    HW111231   6.013   3.602   0.354
 3444SOL    HW211232   6.107   3.469   0.346
 3445SOL     OW11233   6.009   4.533   2.845
 3445SOL    HW111234   6.028   4.457   2.909
 3445SOL    HW211235   5.986   4.615   2.898
 3446SOL     OW11236   5.209   1.201   1.161
 3446SOL    HW111237   5.112   1.194   1.185
 3446SOL    HW211238   5.255   1.263   1.224
 3447SOL     OW11239   5.638   1.303   6.909
 3447SOL    HW111240   5.627   1.266   6.817
 3447SOL    HW211241   5.549   1.333   6.944
 3448SOL     OW11242   1.352   6.057   4.813
 3448SOL    HW111243   1.363   6.154   4.832
 3448SOL    HW211244   1.261   6.027   4.843
 3449SOL     OW11245   6.426   3.864   5.137
 3449SOL    HW111246   6.449   3.943   5.195
 3449SOL    HW211247   6.342   3.883   5.086
 3450SOL     OW11248   1.421   6.247   1.062
 3450SOL    HW111249   1.439   6.215   1.155
 3450SOL    HW211250   1.395   6.343   1.065
 3451SOL     OW11251   2.257   0.888   1.275
 3451SOL    HW111252   2.204   0.803   1.274
 3451SOL    HW211253   2.350   0.870   1.307
 3452SOL     OW11254   4.883   0.179   5.013
 3452SOL    HW111255   4.925   0.099   4.970
 3452SOL    HW211256   4.785   0.161   5.027
 3453SOL     OW11257   4.570   6.320   6.248
 3453SOL    HW111258   4.646   6.258   6.266
 3453SOL    HW211259   4.606   6.409   6.218
 3454SOL     OW11260   1.208   2.737   1.594
 3454SOL    HW111261   1.130   2.747   1.656
 3454SOL    HW211262   1.293   2.753   1.644
 3455SOL     OW11263   0.669   3.318   5.877
 3455SOL    HW111264   0.705   3.360   5.795
 3455SOL    HW211265   0.741   3.312   5.947
 3456SOL     OW11266   5.454   4.363   2.251
 3456SOL    HW111267   5.375   4.320   2.294
 3456SOL    HW211268   5.523   4.294   2.229
 3457SOL     OW11269   3.740   5.284   5.654
 3457SOL    HW111270   3.831   5.250   5.629
 3457SOL    HW211271   3.676   5.207   5.653
 3458SOL     OW11272   3.916   1.385   2.667
 3458SOL    HW111273   3.907   1.406   2.764
 3458SOL    HW211274   3.996   1.327   2.653
 3459SOL     OW11275   4.576   6.512   3.059
 3459SOL    HW111276   4.565   6.549   2.966
 3459SOL    HW211277   4.528   6.424   3.066
 3460SOL     OW11278   4.202   1.510   5.254
 3460SOL    HW111279   4.214   1.491   5.352
 3460SOL    HW211280   4.136   1.446   5.216
 3461SOL     OW11281   5.961   5.241   5.266
 3461SOL    HW111282   5.938   5.192   5.350
 3461SOL    HW211283   5.882   5.243   5.205
 3462SOL     OW11284   1.808   4.188   6.656
 3462SOL    HW111285   1.856   4.200   6.743
 3462SOL    HW211286   1.818   4.093   6.625
 3463SOL     OW11287   6.155   4.088   1.090
 3463SOL    HW111288   6.161   4.109   1.188
 3463SOL    HW211289   6.157   3.989   1.077
 3464SOL     OW11290   6.932   4.875   6.176
 3464SOL    HW111291   0.006   4.880   6.164
 3464SOL    HW211292   6.906   4.782   6.199
 3465SOL     OW11293   1.823   0.413   1.200
 3465SOL    HW111294   1.738   0.386   1.155
 3465SOL    HW211295   1.805   0.438   1.295
 3466SOL     OW11296   6.497   4.127   5.261
 3466SOL    HW111297   6.415   4.164   5.217
 3466SOL    HW211298   6.500   4.157   5.356
 3467SOL     OW11299   2.104   2.143   7.010
 3467SOL    HW111300   2.141   2.158   6.919
 3467SOL    HW211301   2.064   2.228   0.018
 3468SOL     OW11302   2.656   0.114   4.418
 3468SOL    HW111303   2.616   0.139   4.507
 3468SOL    HW211304   2.754   0.100   4.429
 3469SOL     OW11305   5.610   2.464   2.974
 3469SOL    HW111306   5.588   2.436   2.880
 3469SOL    HW211307   5.551   2.540   3.000
 3470SOL     OW11308   0.183   5.807   1.178
 3470SOL    HW111309   0.228   5.895   1.168
 3470SOL    HW211310   0.211   5.746   1.104
 3471SOL     OW11311   3.420   6.252   4.528
 3471SOL    HW111312   3.337   6.202   4.506
 3471SOL    HW211313   3.452   6.302   4.448
 3472SOL     OW11314   3.023   1.188   5.388
 3472SOL    HW111315   3.074   1.174   5.303
 3472SOL    HW211316   2.986   1.100   5.419
 3473SOL     OW11317   5.055   0.638   6.342
 3473SOL    HW111318   5.024   0.732   6.325
 3473SOL    HW211319   5.027   0.580   6.265
 3474SOL     OW11320   5.137   5.536   1.119
 3474SOL    HW111321   5.080   5.607   1.160
 3474SOL    HW211322   5.230   5.571   1.105
 3475SOL     OW11323   1.372   5.919   4.353
 3475SOL    HW111324   1.379   5.845   4.286
 3475SOL    HW211325   1.370   5.881   4.445
 3476SOL     OW11326   4.978   0.640   4.544
 3476SOL    HW111327   4.903   0.601   4.491
 3476SOL    HW211328   4.953   0.732   4.575
 3477SOL     OW11329   4.000   6.424   1.429
 3477SOL    HW111330   3.982   6.330   1.456
 3477SOL    HW211331   3.914   6.475   1.427
 3478SOL     OW11332   4.214   5.183   0.675
 3478SOL    HW111333   4.249   5.273   0.702
 3478SOL    HW211334   4.229   5.170   0.577
 3479SOL     OW11335   0.877   0.668   2.331
 3479SOL    HW111336   0.780   0.689   2.342
 3479SOL    HW211337   0.914   0.718   2.253
 3480SOL     OW11338   0.752   1.550   3.419
 3480SOL    HW111339   0.848   1.528   3.402
 3480SOL    HW211340   0.712   1.480   3.478
 3481SOL     OW11341   2.305   6.313   0.044
 3481SOL    HW111342   2.261   6.251   7.004
 3481SOL    HW211343   2.235   6.357   0.100
 3482SOL     OW11344   0.599   2.371   0.234
 3482SOL    HW111345   0.677   2.432   0.214
 3482SOL    HW211346   0.515   2.415   0.204
 3483SOL     OW11347   3.040   0.105   1.209
 3483SOL    HW111348   3.111   0.101   1.279
 3483SOL    HW211349   2.957   0.146   1.248
 3484SOL     OW11350   3.921   4.015   3.376
 3484SOL    HW111351   3.874   4.061   3.301
 3484SOL    HW211352   3.863   4.017   3.458
 3485SOL     OW11353   1.190   2.355   5.276
 3485SOL    HW111354   1.148   2.347   5.185
 3485SOL    HW211355   1.262   2.286   5.286
 3486SOL     OW11356   4.207   1.621   1.942
 3486SOL    HW111357   4.180   1.635   1.846
 3486SOL    HW211358   4.130   1.641   2.002
 3487SOL     OW11359   6.390   1.049   6.748
 3487SOL    HW111360   6.312   0.987   6.758
 3487SOL    HW211361   6.419   1.050   6.652
 3488SOL     OW11362   5.270   3.366   3.818
 3488SOL    HW111363   5.350   3.337   3.871
 3488SOL    HW211364   5.291   3.451   3.770
 3489SOL     OW11365   3.270   0.246   1.001
 3489SOL    HW111366   3.218   0.229   1.084
 3489SOL    HW211367   3.232   0.325   0.953
 3490SOL     OW11368   3.881   4.312   7.004
 3490SOL    HW111369   3.900   4.387   0.042
 3490SOL    HW211370   3.787   4.279   7.019
 3491SOL     OW11371   0.491   2.883   4.853
 3491SOL    HW111372   0.514   2.976   4.883
 3491SOL    HW211373   0.575   2.831   4.839
 3492SOL     OW11374   6.747   4.265   6.893
 3492SOL    HW111375   6.758   4.239   6.989
 3492SOL    HW211376   6.668   4.325   6.883
 3493SOL     OW11377   6.578   4.670   0.582
 3493SOL    HW111378   6.540   4.711   0.499
 3493SOL    HW211379   6.503   4.642   0.643
 3494SOL     OW11380   3.328   0.300   0.590
 3494SOL    HW111381   3.375   0.388   0.585
 3494SOL    HW211382   3.359   0.241   0.516
 3495SOL     OW11383   4.926   4.717   0.581
 3495SOL    HW111384   5.018   4.712   0.542
 3495SOL    HW211385   4.858   4.705   0.509
 3496SOL     OW11386   2.201   3.015   0.946
 3496SOL    HW111387   2.289   3.055   0.970
 3496SOL    HW211388   2.180   2.940   1.010
 3497SOL     OW11389   4.264   0.206   3.803
 3497SOL    HW111390   4.272   0.223   3.705
 3497SOL    HW211391   4.349   0.232   3.848
 3498SOL     OW11392   2.707   1.777   1.840
 3498SOL    HW111393   2.804   1.800   1.854
 3498SOL    HW211394   2.687   1.691   1.887
 3499SOL     OW11395   6.574   3.071   3.807
 3499SOL    HW111396   6.519   3.132   3.749
 3499SOL    HW211397   6.642   3.024   3.750
 3500SOL     OW11398   6.459   3.570   6.885
 3500SOL    HW111399   6.514   3.653   6.875
 3500SOL    HW211400   6.461   3.540   6.981
 3501SOL     OW11401   1.700   4.401   4.489
 3501SOL    HW111402   1.773   4.449   4.440
 3501SOL    HW211403   1.669   4.323   4.435
 3502SOL     OW11404   0.718   3.288   1.238
 3502SOL    HW111405   0.672   3.218   1.293
 3502SOL    HW211406   0.715   3.376   1.286
 3503SOL     OW11407   4.777   5.890   4.672
 3503SOL    HW111408   4.685   5.929   4.663
 3503SOL    HW211409   4.842   5.944   4.618
 3504SOL     OW11410   2.171   3.349   1.659
 3504SOL    HW111411   2.221   3.414   1.716
 3504SOL    HW211412   2.201   3.358   1.564
 3505SOL     OW11413   5.381   4.931   5.338
 3505SOL    HW111414   5.335   5.011   5.376
 3505SOL    HW211415   5.455   4.961   5.278
 3506SOL     OW11416   4.703   5.481   3.187
 3506SOL    HW111417   4.801   5.462   3.195
 3506SOL    HW211418   4.672   5.460   3.095
 3507SOL     OW11419   0.811   6.707   6.406
 3507SOL    HW111420   0.793   6.793   6.453
 3507SOL    HW211421   0.838   6.637   6.473
 3508SOL     OW11422   5.827   3.411   6.688
 3508SOL    HW111423   5.779   3.497   6.672
 3508SOL    HW211424   5.899   3.425   6.756
 3509SOL     OW11425   6.700   6.782   0.996
 3509SOL    HW111426   6.609   6.740   0.997
 3509SOL    HW211427   6.768   6.711   0.978
 3510SOL     OW11428   2.177   3.078   1.974
 3510SOL    HW111429   2.253   3.013   1.965
 3510SOL    HW211430   2.118   3.072   1.893
 3511SOL     OW11431   0.865   2.123   6.226
 3511SOL    HW111432   0.836   2.212   6.263
 3511SOL    HW211433   0.925   2.138   6.147
 3512SOL     OW11434   2.461   3.291   0.927
 3512SOL    HW111435   2.468   3.227   1.003
 3512SOL    HW211436   2.515   3.372   0.947
 3513SOL     OW11437   6.262   4.967   1.268
 3513SOL    HW111438   6.215   4.881   1.249
 3513SOL    HW211439   6.195   5.037   1.293
 3514SOL     OW11440   0.472   6.199   1.347
 3514SOL    HW111441   0.455   6.296   1.359
 3514SOL    HW211442   0.559   6.174   1.391
 3515SOL     OW11443   2.824   6.209   3.736
 3515SOL    HW111444   2.848   6.276   3.807
 3515SOL    HW211445   2.731   6.175   3.753
 3516SOL     OW11446   3.159   1.194   1.152
 3516SOL    HW111447   3.118   1.103   1.139
 3516SOL    HW211448   3.144   1.249   1.070
 3517SOL     OW11449   1.117   0.799   6.335
 3517SOL    HW111450   1.195   0.852   6.302
 3517SOL    HW211451   1.083   0.740   6.262
 3518SOL     OW11452   4.302   2.804   5.898
 3518SOL    HW111453   4.211   2.766   5.882
 3518SOL    HW211454   4.295   2.896   5.934
 3519SOL     OW11455   1.989   6.129   0.495
 3519SOL    HW111456   2.061   6.075   0.538
 3519SOL    HW211457   1.918   6.149   0.562
 3520SOL     OW11458   4.082   5.977   1.006
 3520SOL    HW111459   4.158   6.025   1.049
 3520SOL    HW211460   3.996   6.023   1.030
 3521SOL     OW11461   6.212   2.633   0.636
 3521SOL    HW111462   6.221   2.536   0.659
 3521SOL    HW211463   6.213   2.687   0.721
 3522SOL     OW11464   2.800   5.094   2.068
 3522SOL    HW111465   2.774   4.999   2.047
 3522SOL    HW211466   2.780   5.113   2.164
 3523SOL     OW11467   2.215   4.676   5.390
 3523SOL    HW111468   2.309   4.663   5.419
 3523SOL    HW211469   2.164   4.590   5.404
 3524SOL     OW11470   3.071   0.260   0.252
 3524SOL    HW111471   2.986   0.218   0.221
 3524SOL    HW211472   3.051   0.350   0.291
 3525SOL     OW11473   0.801   2.553   2.736
 3525SOL    HW111474   0.848   2.466   2.749
 3525SOL    HW211475   0.839   2.621   2.800
 3526SOL     OW11476   1.920   1.333   2.175
 3526SOL    HW111477   1.979   1.414   2.170
 3526SOL    HW211478   1.832   1.359   2.214
 3527SOL     OW11479   5.426   2.456   5.709
 3527SOL    HW111480   5.342   2.407   5.733
 3527SOL    HW211481   5.449   2.520   5.782
 3528SOL     OW11482   0.294   6.740   4.997
 3528SOL    HW111483   0.206   6.726   5.043
 3528SOL    HW211484   0.306   6.672   4.926
 3529SOL     OW11485   3.525   6.155   6.350
 3529SOL    HW111486   3.538   6.079   6.413
 3529SOL    HW211487   3.612   6.199   6.332
 3530SOL     OW11488   1.720   5.632   3.582
 3530SOL    HW111489   1.778   5.551   3.593
 3530SOL    HW211490   1.778   5.712   3.570
 3531SOL     OW11491   5.381   3.636   6.643
 3531SOL    HW111492   5.328   3.670   6.566
 3531SOL    HW211493   5.341   3.671   6.728
 3532SOL     OW11494   1.911   6.781   6.923
 3532SOL    HW111495   1.941   6.802   7.017
 3532SOL    HW211496   1.989   6.746   6.871
 3533SOL     OW11497   1.516   1.234   3.020
 3533SOL    HW111498   1.434   1.209   2.969
 3533SOL    HW211499   1.498   1.318   3.072
 3534SOL     OW11500   5.260   0.818   4.888
 3534SOL    HW111501   5.254   0.886   4.815
 3534SOL    HW211502   5.179   0.759   4.886
 3535SOL     OW11503   5.472   5.015   6.389
 3535SOL    HW111504   5.440   5.110   6.395
 3535SOL    HW211505   5.547   5.001   6.454
 3536SOL     OW11506   0.741   4.031   3.625
 3536SOL    HW111507   0.757   3.946   3.574
 3536SOL    HW211508   0.788   4.106   3.581
 3537SOL     OW11509   2.504   5.327   1.119
 3537SOL    HW111510   2.563   5.268   1.174
 3537SOL    HW211511   2.479   5.408   1.172
 3538SOL     OW11512   2.489   1.105   4.256
 3538SOL    HW111513   2.561   1.037   4.271
 3538SOL    HW211514   2.492   1.172   4.329
 3539SOL     OW11515   5.092   5.412   5.873
 3539SOL    HW111516   5.079   5.376   5.781
 3539SOL    HW211517   5.188   5.436   5.886
 3540SOL     OW11518   3.081   3.452   6.492
 3540SOL    HW111519   3.007   3.494   6.440
 3540SOL    HW211520   3.116   3.518   6.559
 3541SOL     OW11521   3.330   2.589   0.872
 3541SOL    HW111522   3.281   2.630   0.794
 3541SOL    HW211523   3.291   2.500   0.893
 3542SOL     OW11524   5.495   2.401   6.199
 3542SOL    HW111525   5.553   2.468   6.244
 3542SOL    HW211526   5.508   2.311   6.242
 3543SOL     OW11527   1.127   2.973   3.473
 3543SOL    HW111528   1.122   2.940   3.567
 3543SOL    HW211529   1.210   2.938   3.430
 3544SOL     OW11530   2.718   4.612   6.108
 3544SOL    HW111531   2.675   4.652   6.027
 3544SOL    HW211532   2.719   4.678   6.183
 3545SOL     OW11533   3.410   6.912   1.585
 3545SOL    HW111534   3.392   6.936   1.490
 3545SOL    HW211535   3.389   6.815   1.599
 3546SOL     OW11536   0.051   3.680   3.342
 3546SOL    HW111537   0.015   3.652   3.253
 3546SOL    HW211538   7.002   3.689   3.408
 3547SOL     OW11539   0.757   4.384   5.595
 3547SOL    HW111540   0.849   4.418   5.617
 3547SOL    HW211541   0.762   4.287   5.570
 3548SOL     OW11542   5.971   0.268   5.181
 3548SOL    HW111543   6.063   0.258   5.217
 3548SOL    HW211544   5.955   0.363   5.156
 3549SOL     OW11545   2.673   6.036   0.087
 3549SOL    HW111546   2.755   5.987   0.117
 3549SOL    HW211547   2.697   6.130   0.065
 3550SOL     OW11548   5.495   0.918   5.266
 3550SOL    HW111549   5.543   1.006   5.266
 3550SOL    HW211550   5.501   0.876   5.356
 3551SOL     OW11551   4.196   1.897   4.325
 3551SOL    HW111552   4.288   1.860   4.321
 3551SOL    HW211553   4.130   1.829   4.293
 3552SOL     OW11554   0.725   6.250   3.083
 3552SOL    HW111555   0.683   6.178   3.138
 3552SOL    HW211556   0.670   6.264   3.000
 3553SOL     OW11557   4.474   5.144   0.265
 3553SOL    HW111558   4.566   5.157   0.228
 3553SOL    HW211559   4.406   5.174   0.198
 3554SOL     OW11560   5.041   3.262   1.016
 3554SOL    HW111561   4.951   3.261   0.972
 3554SOL    HW211562   5.103   3.320   0.963
 3555SOL     OW11563   2.534   2.104   5.278
 3555SOL    HW111564   2.579   2.034   5.334
 3555SOL    HW211565   2.577   2.193   5.295
 3556SOL     OW11566   4.873   0.731   5.591
 3556SOL    HW111567   4.941   0.705   5.660
 3556SOL    HW211568   4.891   0.825   5.562
 3557SOL     OW11569   6.553   0.993   1.171
 3557SOL    HW111570   6.499   0.914   1.200
 3557SOL    HW211571   6.506   1.077   1.198
 3558SOL     OW11572   3.325   6.038   2.094
 3558SOL    HW111573   3.362   6.112   2.151
 3558SOL    HW211574   3.303   5.960   2.152
 3559SOL     OW11575   3.888   5.989   4.831
 3559SOL    HW111576   3.830   5.960   4.754
 3559SOL    HW211577   3.847   5.958   4.917
 3560SOL     OW11578   2.295   5.765   4.376
 3560SOL    HW111579   2.252   5.701   4.312
 3560SOL    HW211580   2.394   5.753   4.374
 3561SOL     OW11581   5.030   4.021   5.417
 3561SOL    HW111582   5.014   4.120   5.412
 3561SOL    HW211583   4.971   3.982   5.488
 3562SOL     OW11584   2.358   1.213   5.824
 3562SOL    HW111585   2.380   1.226   5.727
 3562SOL    HW211586   2.439   1.178   5.872
 3563SOL     OW11587   5.694   2.349   5.321
 3563SOL    HW111588   5.688   2.314   5.227
 3563SOL    HW211589   5.603   2.352   5.361
 3564SOL     OW11590   6.399   4.381   2.040
 3564SOL    HW111591   6.487   4.333   2.037
 3564SOL    HW211592   6.327   4.320   2.006
 3565SOL     OW11593   3.696   5.787   3.308
 3565SOL    HW111594   3.735   5.702   3.271
 3565SOL    HW211595   3.648   5.767   3.393
 3566SOL     OW11596   1.598   0.762   5.512
 3566SOL    HW111597   1.588   0.686   5.576
 3566SOL    HW211598   1.633   0.727   5.425
 3567SOL     OW11599   0.587   4.171   6.139
 3567SOL    HW111600   0.552   4.239   6.075
 3567SOL    HW211601   0.557   4.080   6.110
 3568SOL     OW11602   6.257   3.791   5.919
 3568SOL    HW111603   6.204   3.777   5.835
 3568SOL    HW211604   6.299   3.705   5.947
 3569SOL     OW11605   1.711   1.878   5.305
 3569SOL    HW111606   1.679   1.837   5.390
 3569SOL    HW211607   1.796   1.928   5.322
 3570SOL     OW11608   6.259   1.553   3.874
 3570SOL    HW111609   6.243   1.596   3.785
 3570SOL    HW211610   6.337   1.597   3.918
 3571SOL     OW11611   6.486   5.816   5.852
 3571SOL    HW111612   6.388   5.803   5.865
 3571SOL    HW211613   6.524   5.737   5.804
 3572SOL     OW11614   5.384   4.387   4.798
 3572SOL    HW111615   5.484   4.392   4.795
 3572SOL    HW211616   5.347   4.403   4.707
 3573SOL     OW11617   1.233   3.129   2.965
 3573SOL    HW111618   1.208   3.111   3.060
 3573SOL    HW211619   1.190   3.061   2.906
 3574SOL     OW11620   0.454   3.953   0.700
 3574SOL    HW111621   0.415   3.886   0.637
 3574SOL    HW211622   0.524   3.910   0.756
 3575SOL     OW11623   5.682   4.490   2.016
 3575SOL    HW111624   5.739   4.470   2.096
 3575SOL    HW211625   5.738   4.488   1.933
 3576SOL     OW11626   0.665   1.154   6.291
 3576SOL    HW111627   0.732   1.187   6.358
 3576SOL    HW211628   0.586   1.215   6.290
 3577SOL     OW11629   0.863   3.180   7.025
 3577SOL    HW111630   0.905   3.258   6.979
 3577SOL    HW211631   0.792   3.141   6.967
 3578SOL     OW11632   3.376   4.869   0.743
 3578SOL    HW111633   3.442   4.875   0.817
 3578SOL    HW211634   3.358   4.960   0.706
 3579SOL     OW11635   6.853   3.747   4.588
 3579SOL    HW111636   6.834   3.844   4.603
 3579SOL    HW211637   6.774   3.693   4.619
 3580SOL     OW11638   6.165   2.114   2.050
 3580SOL    HW111639   6.233   2.073   1.989
 3580SOL    HW211640   6.182   2.212   2.060
 3581SOL     OW11641   0.446   0.610   3.036
 3581SOL    HW111642   0.530   0.594   3.088
 3581SOL    HW211643   0.371   0.632   3.100
 3582SOL     OW11644   1.466   0.067   6.164
 3582SOL    HW111645   1.482   6.995   6.182
 3582SOL    HW211646   1.554   0.115   6.162
 3583SOL     OW11647   1.210   5.592   6.830
 3583SOL    HW111648   1.206   5.663   6.760
 3583SOL    HW211649   1.199   5.634   6.921
 3584SOL     OW11650   5.277   5.953   6.565
 3584SOL    HW111651   5.232   5.960   6.654
 3584SOL    HW211652   5.267   5.861   6.529
 3585SOL     OW11653   3.141   4.916   3.982
 3585SOL    HW111654   3.112   4.898   3.888
 3585SOL    HW211655   3.071   4.881   4.045
 3586SOL     OW11656   6.651   3.629   5.842
 3586SOL    HW111657   6.554   3.619   5.861
 3586SOL    HW211658   6.668   3.615   5.745
 3587SOL     OW11659   4.307   6.381   0.061
 3587SOL    HW111660   4.395   6.365   0.105
 3587SOL    HW211661   4.286   6.478   0.063
 3588SOL     OW11662   1.196   2.493   6.049
 3588SOL    HW111663   1.272   2.464   6.108
 3588SOL    HW211664   1.230   2.556   5.980
 3589SOL     OW11665   2.995   0.923   5.485
 3589SOL    HW111666   2.967   0.934   5.580
 3589SOL    HW211667   2.931   0.862   5.438
 3590SOL     OW11668   1.714   5.231   5.968
 3590SOL    HW111669   1.722   5.170   5.890
 3590SOL    HW211670   1.785   5.210   6.035
 3591SOL     OW11671   5.193   2.263   6.123
 3591SOL    HW111672   5.100   2.284   6.155
 3591SOL    HW211673   5.240   2.208   6.192
 3592SOL     OW11674   5.225   2.890   2.808
 3592SOL    HW111675   5.216   2.983   2.775
 3592SOL    HW211676   5.266   2.891   2.900
 3593SOL     OW11677   1.320   6.492   4.048
 3593SOL    HW111678   1.282   6.553   3.978
 3593SOL    HW211679   1.419   6.492   4.041
 3594SOL     OW11680   2.828   1.391   4.152
 3594SOL    HW111681   2.830   1.321   4.224
 3594SOL    HW211682   2.744   1.444   4.159
 3595SOL     OW11683   2.855   6.375   6.081
 3595SOL    HW111684   2.905   6.361   6.166
 3595SOL    HW211685   2.914   6.424   6.016
 3596SOL     OW11686   6.433   1.926   2.224
 3596SOL    HW111687   6.471   1.834   2.230
 3596SOL    HW211688   6.344   1.928   2.270
 3597SOL     OW11689   3.211   5.964   4.105
 3597SOL    HW111690   3.163   5.942   4.190
 3597SOL    HW211691   3.289   5.902   4.093
 3598SOL     OW11692   1.534   6.810   5.925
 3598SOL    HW111693   1.619   6.764   5.899
 3598SOL    HW211694   1.490   6.759   5.999
 3599SOL     OW11695   0.192   1.726   5.120
 3599SOL    HW111696   0.170   1.774   5.205
 3599SOL    HW211697   0.291   1.711   5.115
 3600SOL     OW11698   5.830   2.508   0.757
 3600SOL    HW111699   5.818   2.587   0.697
 3600SOL    HW211700   5.842   2.425   0.702
 3601SOL     OW11701   0.305   3.788   6.864
 3601SOL    HW111702   0.376   3.817   6.799
 3601SOL    HW211703   0.292   3.689   6.856
 3602SOL     OW11704   2.069   1.121   6.663
 3602SOL    HW111705   2.166   1.096   6.667
 3602SOL    HW211706   2.027   1.105   6.753
 3603SOL     OW11707   3.981   4.780   3.773
 3603SOL    HW111708   3.973   4.715   3.697
 3603SOL    HW211709   4.065   4.762   3.823
 3604SOL     OW11710   0.263   2.255   2.697
 3604SOL    HW111711   0.195   2.206   2.751
 3604SOL    HW211712   0.338   2.285   2.756
 3605SOL     OW11713   6.167   3.535   6.130
 3605SOL    HW111714   6.093   3.521   6.064
 3605SOL    HW211715   6.136   3.597   6.201
 3606SOL     OW11716   0.012   4.094   5.514
 3606SOL    HW111717   6.955   4.142   5.486
 3606SOL    HW211718   7.015   4.027   5.585
 3607SOL     OW11719   5.241   6.759   0.764
 3607SOL    HW111720   5.282   6.801   0.684
 3607SOL    HW211721   5.180   6.685   0.736
 3608SOL     OW11722   0.501   2.111   1.688
 3608SOL    HW111723   0.582   2.140   1.637
 3608SOL    HW211724   0.511   2.016   1.716
 3609SOL     OW11725   6.534   0.727   4.858
 3609SOL    HW111726   6.483   0.642   4.849
 3609SOL    HW211727   6.622   0.719   4.810
 3610SOL     OW11728   1.525   6.353   5.989
 3610SOL    HW111729   1.512   6.271   6.045
 3610SOL    HW211730   1.473   6.429   6.028
 3611SOL     OW11731   3.575   5.317   5.409
 3611SOL    HW111732   3.530   5.364   5.485
 3611SOL    HW211733   3.657   5.270   5.441
 3612SOL     OW11734   1.377   6.506   0.993
 3612SOL    HW111735   1.439   6.464   0.927
 3612SOL    HW211736   1.334   6.586   0.951
 3613SOL     OW11737   5.550   4.891   0.206
 3613SOL    HW111738   5.577   4.799   0.175
 3613SOL    HW211739   5.451   4.896   0.213
 3614SOL     OW11740   3.721   3.374   2.756
 3614SOL    HW111741   3.701   3.378   2.854
 3614SOL    HW211742   3.783   3.298   2.738
 3615SOL     OW11743   5.561   5.259   5.509
 3615SOL    HW111744   5.514   5.254   5.421
 3615SOL    HW211745   5.571   5.167   5.546
 3616SOL     OW11746   6.911   2.134   5.615
 3616SOL    HW111747   6.980   2.205   5.630
 3616SOL    HW211748   6.919   2.099   5.522
 3617SOL     OW11749   6.604   1.883   6.013
 3617SOL    HW111750   6.587   1.854   5.919
 3617SOL    HW211751   6.588   1.982   6.021
 3618SOL     OW11752   1.994   1.855   5.944
 3618SOL    HW111753   1.978   1.835   5.847
 3618SOL    HW211754   2.092   1.851   5.963
 3619SOL     OW11755   5.681   1.982   3.909
 3619SOL    HW111756   5.763   1.930   3.886
 3619SOL    HW211757   5.601   1.924   3.900
 3620SOL     OW11758   5.769   0.371   5.468
 3620SOL    HW111759   5.764   0.274   5.444
 3620SOL    HW211760   5.863   0.403   5.457
 3621SOL     OW11761   2.686   2.881   5.869
 3621SOL    HW111762   2.633   2.887   5.784
 3621SOL    HW211763   2.746   2.801   5.864
 3622SOL     OW11764   1.194   2.065   2.298
 3622SOL    HW111765   1.124   2.019   2.353
 3622SOL    HW211766   1.263   2.103   2.358
 3623SOL     OW11767   5.111   5.194   3.749
 3623SOL    HW111768   5.025   5.146   3.734
 3623SOL    HW211769   5.171   5.183   3.670
 3624SOL     OW11770   2.618   6.943   3.057
 3624SOL    HW111771   2.597   6.875   2.988
 3624SOL    HW211772   2.624   0.008   3.015
 3625SOL     OW11773   6.203   2.910   5.754
 3625SOL    HW111774   6.283   2.888   5.809
 3625SOL    HW211775   6.181   2.833   5.695
 3626SOL     OW11776   1.871   3.769   5.499
 3626SOL    HW111777   1.958   3.816   5.482
 3626SOL    HW211778   1.795   3.829   5.475
 3627SOL     OW11779   3.438   3.767   3.421
 3627SOL    HW111780   3.356   3.815   3.391
 3627SOL    HW211781   3.500   3.831   3.467
 3628SOL     OW11782   2.460   5.575   2.401
 3628SOL    HW111783   2.458   5.675   2.399
 3628SOL    HW211784   2.492   5.540   2.313
 3629SOL     OW11785   6.044   2.004   5.046
 3629SOL    HW111786   6.045   1.925   4.984
 3629SOL    HW211787   5.977   1.989   5.119
 3630SOL     OW11788   6.026   2.413   4.519
 3630SOL    HW111789   5.962   2.476   4.476
 3630SOL    HW211790   5.991   2.319   4.512
 3631SOL     OW11791   2.294   0.015   4.154
 3631SOL    HW111792   2.224   0.084   4.141
 3631SOL    HW211793   2.265   6.975   4.224
 3632SOL     OW11794   4.905   0.930   0.733
 3632SOL    HW111795   4.925   0.864   0.660
 3632SOL    HW211796   4.979   0.997   0.738
 3633SOL     OW11797   3.161   2.522   6.259
 3633SOL    HW111798   3.128   2.512   6.165
 3633SOL    HW211799   3.210   2.440   6.286
 3634SOL     OW11800   1.922   6.454   4.793
 3634SOL    HW111801   1.834   6.413   4.771
 3634SOL    HW211802   1.993   6.413   4.736
 3635SOL     OW11803   2.687   1.590   5.562
 3635SOL    HW111804   2.706   1.539   5.646
 3635SOL    HW211805   2.773   1.625   5.524
 3636SOL     OW11806   0.058   6.056   5.748
 3636SOL    HW111807   0.058   6.155   5.762
 3636SOL    HW211808   6.994   6.019   5.771
 3637SOL     OW11809   5.562   1.346   1.717
 3637SOL    HW111810   5.645   1.322   1.668
 3637SOL    HW211811   5.580   1.346   1.816
 3638SOL     OW11812   6.796   4.397   4.263
 3638SOL    HW111813   6.784   4.469   4.195
 3638SOL    HW211814   6.707   4.357   4.285
 3639SOL     OW11815   2.779   4.018   0.850
 3639SOL    HW111816   2.729   4.080   0.790
 3639SOL    HW211817   2.782   4.056   0.943
 3640SOL     OW11818   3.256   6.155   0.897
 3640SOL    HW111819   3.283   6.085   0.830
 3640SOL    HW211820   3.291   6.129   0.987
 3641SOL     OW11821   3.375   1.278   4.964
 3641SOL    HW111822   3.423   1.322   4.888
 3641SOL    HW211823   3.281   1.312   4.968
 3642SOL     OW11824   4.844   0.474   4.971
 3642SOL    HW111825   4.847   0.377   4.947
 3642SOL    HW211826   4.814   0.528   4.892
 3643SOL     OW11827   3.206   5.182   4.850
 3643SOL    HW111828   3.267   5.192   4.929
 3643SOL    HW211829   3.151   5.099   4.860
 3644SOL     OW11830   6.496   2.599   0.884
 3644SOL    HW111831   6.507   2.633   0.978
 3644SOL    HW211832   6.508   2.675   0.820
 3645SOL     OW11833   4.508   1.518   3.485
 3645SOL    HW111834   4.556   1.518   3.397
 3645SOL    HW211835   4.573   1.542   3.558
 3646SOL     OW11836   0.381   4.883   5.791
 3646SOL    HW111837   0.434   4.947   5.736
 3646SOL    HW211838   0.428   4.795   5.794
 3647SOL     OW11839   1.299   2.950   0.272
 3647SOL    HW111840   1.357   2.920   0.196
 3647SOL    HW211841   1.331   3.038   0.305
 3648SOL     OW11842   3.737   5.511   2.037
 3648SOL    HW111843   3.646   5.482   2.006
 3648SOL    HW211844   3.740   5.509   2.137
 3649SOL     OW11845   4.238   3.921   1.027
 3649SOL    HW111846   4.337   3.915   1.035
 3649SOL    HW211847   4.207   3.864   0.951
 3650SOL     OW11848   0.083   6.437   1.389
 3650SOL    HW111849   0.142   6.412   1.312
 3650SOL    HW211850   0.078   6.537   1.396
 3651SOL     OW11851   0.738   6.205   2.238
 3651SOL    HW111852   0.744   6.130   2.304
 3651SOL    HW211853   0.830   6.230   2.208
 3652SOL     OW11854   4.820   6.197   3.494
 3652SOL    HW111855   4.840   6.261   3.419
 3652SOL    HW211856   4.724   6.170   3.490
 3653SOL     OW11857   5.971   1.443   3.090
 3653SOL    HW111858   6.042   1.438   3.161
 3653SOL    HW211859   6.006   1.405   3.005
 3654SOL     OW11860   2.283   6.568   0.643
 3654SOL    HW111861   2.279   6.469   0.654
 3654SOL    HW211862   2.213   6.597   0.577
 3655SOL     OW11863   1.880   0.128   4.756
 3655SOL    HW111864   1.792   0.140   4.710
 3655SOL    HW211865   1.864   0.105   4.852
 3656SOL     OW11866   1.963   2.480   2.037
 3656SOL    HW111867   2.045   2.423   2.032
 3656SOL    HW211868   1.983   2.572   2.003
 3657SOL     OW11869   3.791   6.042   0.290
 3657SOL    HW111870   3.889   6.039   0.272
 3657SOL    HW211871   3.767   5.974   0.360
 3658SOL     OW11872   1.048   5.489   5.020
 3658SOL    HW111873   1.028   5.467   5.116
 3658SOL    HW211874   1.129   5.547   5.016
 3659SOL     OW11875   2.810   4.802   0.257
 3659SOL    HW111876   2.847   4.712   0.232
 3659SOL    HW211877   2.827   4.819   0.354
 3660SOL     OW11878   4.804   6.257   1.832
 3660SOL    HW111879   4.726   6.316   1.849
 3660SOL    HW211880   4.790   6.168   1.876
 3661SOL     OW11881   5.182   2.044   0.763
 3661SOL    HW111882   5.257   2.034   0.698
 3661SOL    HW211883   5.100   1.999   0.728
 3662SOL     OW11884   3.753   0.137   5.270
 3662SOL    HW111885   3.834   0.131   5.327
 3662SOL    HW211886   3.693   0.059   5.288
 3663SOL     OW11887   1.599   2.049   0.124
 3663SOL    HW111888   1.563   2.084   0.210
 3663SOL    HW211889   1.681   2.100   0.099
 3664SOL     OW11890   4.841   1.390   0.339
 3664SOL    HW111891   4.941   1.396   0.340
 3664SOL    HW211892   4.812   1.324   0.409
 3665SOL     OW11893   0.932   6.954   5.242
 3665SOL    HW111894   0.923   7.007   5.326
 3665SOL    HW211895   0.869   6.989   5.173
 3666SOL     OW11896   1.368   4.673   3.897
 3666SOL    HW111897   1.394   4.640   3.988
 3666SOL    HW211898   1.270   4.663   3.884
 3667SOL     OW11899   6.398   0.613   6.602
 3667SOL    HW111900   6.351   0.569   6.525
 3667SOL    HW211901   6.473   0.668   6.568
 3668SOL     OW11902   1.258   0.045   2.856
 3668SOL    HW111903   1.352   0.014   2.838
 3668SOL    HW211904   1.256   0.094   2.944
 3669SOL     OW11905   5.872   1.882   4.508
 3669SOL    HW111906   5.900   1.934   4.588
 3669SOL    HW211907   5.940   1.812   4.488
 3670SOL     OW11908   1.812   5.471   6.961
 3670SOL    HW111909   1.908   5.451   6.944
 3670SOL    HW211910   1.768   5.391   7.002
 3671SOL     OW11911   0.203   0.630   3.150
 3671SOL    HW111912   0.142   0.565   3.103
 3671SOL    HW211913   0.153   0.714   3.170
 3672SOL     OW11914   6.520   2.387   0.393
 3672SOL    HW111915   6.472   2.329   0.327
 3672SOL    HW211916   6.607   2.344   0.418
 3673SOL     OW11917   4.353   1.335   6.577
 3673SOL    HW111918   4.265   1.361   6.617
 3673SOL    HW211919   4.415   1.305   6.650
 3674SOL     OW11920   0.258   6.714   6.858
 3674SOL    HW111921   0.176   6.722   6.801
 3674SOL    HW211922   0.303   6.803   6.864
 3675SOL     OW11923   1.562   2.709   5.819
 3675SOL    HW111924   1.581   2.629   5.762
 3675SOL    HW211925   1.600   2.694   5.910
 3676SOL     OW11926   3.551   5.350   4.016
 3676SOL    HW111927   3.599   5.302   3.944
 3676SOL    HW211928   3.610   5.422   4.054
 3677SOL     OW11929   0.091   6.851   3.139
 3677SOL    HW111930   0.151   6.894   3.072
 3677SOL    HW211931   0.147   6.804   3.208
 3678SOL     OW11932   1.953   2.617   3.751
 3678SOL    HW111933   2.013   2.561   3.694
 3678SOL    HW211934   1.944   2.575   3.841
 3679SOL     OW11935   0.545   1.110   2.557
 3679SOL    HW111936   0.467   1.137   2.501
 3679SOL    HW211937   0.628   1.110   2.501
 3680SOL     OW11938   6.415   2.710   3.756
 3680SOL    HW111939   6.341   2.775   3.739
 3680SOL    HW211940   6.477   2.747   3.826
 3681SOL     OW11941   1.294   0.247   6.028
 3681SOL    HW111942   1.366   0.185   6.059
 3681SOL    HW211943   1.209   0.228   6.078
 3682SOL     OW11944   6.841   1.559   5.395
 3682SOL    HW111945   6.822   1.656   5.380
 3682SOL    HW211946   6.773   1.504   5.346
 3683SOL     OW11947   6.186   6.496   4.559
 3683SOL    HW111948   6.187   6.455   4.650
 3683SOL    HW211949   6.092   6.519   4.533
 3684SOL     OW11950   2.003   3.118   1.736
 3684SOL    HW111951   2.053   3.204   1.731
 3684SOL    HW211952   2.061   3.044   1.702
 3685SOL     OW11953   6.459   5.900   6.277
 3685SOL    HW111954   6.448   5.802   6.264
 3685SOL    HW211955   6.408   5.930   6.357
 3686SOL     OW11956   6.149   4.827   2.396
 3686SOL    HW111957   6.061   4.845   2.354
 3686SOL    HW211958   6.221   4.832   2.327
 3687SOL     OW11959   2.436   6.675   6.977
 3687SOL    HW111960   2.506   6.645   0.015
 3687SOL    HW211961   2.410   6.770   6.997
 3688SOL     OW11962   0.952   3.709   0.083
 3688SOL    HW111963   1.028   3.668   0.032
 3688SOL    HW211964   0.987   3.780   0.144
 3689SOL     OW11965   1.572   1.074   5.318
 3689SOL    HW111966   1.585   1.169   5.346
 3689SOL    HW211967   1.474   1.052   5.320
 3690SOL     OW11968   5.062   0.679   5.808
 3690SOL    HW111969   4.998   0.742   5.852
 3690SOL    HW211970   5.150   0.724   5.795
 3691SOL     OW11971   2.866   3.753   6.713
 3691SOL    HW111972   2.794   3.738   6.781
 3691SOL    HW211973   2.943   3.692   6.732
 3692SOL     OW11974   0.863   5.720   4.931
 3692SOL    HW111975   0.805   5.800   4.940
 3692SOL    HW211976   0.876   5.678   5.020
 3693SOL     OW11977   2.238   2.255   3.477
 3693SOL    HW111978   2.248   2.300   3.388
 3693SOL    HW211979   2.180   2.311   3.536
 3694SOL     OW11980   0.708   5.821   3.227
 3694SOL    HW111981   0.763   5.739   3.239
 3694SOL    HW211982   0.641   5.829   3.301
 3695SOL     OW11983   1.597   2.127   2.894
 3695SOL    HW111984   1.516   2.091   2.941
 3695SOL    HW211985   1.679   2.107   2.949
 3696SOL     OW11986   4.498   6.182   5.717
 3696SOL    HW111987   4.483   6.089   5.749
 3696SOL    HW211988   4.472   6.247   5.789
 3697SOL     OW11989   6.735   6.860   3.605
 3697SOL    HW111990   6.736   6.760   3.604
 3697SOL    HW211991   6.808   6.893   3.544
 3698SOL     OW11992   3.451   0.531   5.290
 3698SOL    HW111993   3.368   0.560   5.241
 3698SOL    HW211994   3.483   0.605   5.348
 3699SOL     OW11995   6.951   3.413   2.836
 3699SOL    HW111996   6.885   3.416   2.911
 3699SOL    HW211997   0.017   3.428   2.873
 3700SOL     OW11998   6.222   6.960   4.370
 3700SOL    HW111999   6.249   6.889   4.435
 3700SOL    HW212000   6.182   6.918   4.289
 3701SOL     OW12001   6.898   0.723   3.685
 3701SOL    HW112002   6.862   0.725   3.591
 3701SOL    HW212003   6.963   0.647   3.693
 3702SOL     OW12004   4.068   0.335   1.699
 3702SOL    HW112005   4.096   0.256   1.753
 3702SOL    HW212006   4.059   0.414   1.759
 3703SOL     OW12007   3.876   4.153   5.878
 3703SOL    HW112008   3.833   4.226   5.933
 3703SOL    HW212009   3.805   4.095   5.840
 3704SOL     OW12010   2.928   1.177   2.358
 3704SOL    HW112011   2.953   1.253   2.419
 3704SOL    HW212012   3.008   1.149   2.306
 3705SOL     OW12013   4.646   0.699   4.022
 3705SOL    HW112014   4.546   0.701   4.020
 3705SOL    HW212015   4.679   0.762   4.092
 3706SOL     OW12016   1.562   3.100   4.641
 3706SOL    HW112017   1.543   3.198   4.630
 3706SOL    HW212018   1.657   3.087   4.670
 3707SOL     OW12019   5.231   2.284   5.855
 3707SOL    HW112020   5.216   2.191   5.819
 3707SOL    HW212021   5.226   2.282   5.954
 3708SOL     OW12022   6.441   0.503   6.876
 3708SOL    HW112023   6.457   0.526   6.780
 3708SOL    HW212024   6.385   0.421   6.882
 3709SOL     OW12025   3.766   0.551   5.873
 3709SOL    HW112026   3.789   0.555   5.970
 3709SOL    HW212027   3.776   0.642   5.833
 3710SOL     OW12028   6.410   5.605   0.205
 3710SOL    HW112029   6.327   5.599   0.261
 3710SOL    HW212030   6.419   5.699   0.170
 3711SOL     OW12031   0.405   6.301   2.381
 3711SOL    HW112032   0.372   6.369   2.446
 3711SOL    HW212033   0.376   6.210   2.410
 3712SOL     OW12034   0.449   6.540   6.718
 3712SOL    HW112035   0.531   6.538   6.775
 3712SOL    HW212036   0.375   6.583   6.771
 3713SOL     OW12037   2.503   5.977   4.941
 3713SOL    HW112038   2.522   6.049   5.009
 3713SOL    HW212039   2.573   5.978   4.871
 3714SOL     OW12040   4.733   6.900   4.135
 3714SOL    HW112041   4.768   6.938   4.220
 3714SOL    HW212042   4.796   6.832   4.100
 3715SOL     OW12043   5.776   5.002   4.062
 3715SOL    HW112044   5.750   4.951   4.145
 3715SOL    HW212045   5.716   5.081   4.051
 3716SOL     OW12046   6.389   0.105   4.498
 3716SOL    HW112047   6.431   0.184   4.454
 3716SOL    HW212048   6.343   0.049   4.429
 3717SOL     OW12049   6.464   5.932   0.894
 3717SOL    HW112050   6.545   5.931   0.952
 3717SOL    HW212051   6.464   5.850   0.836
 3718SOL     OW12052   0.938   6.926   6.684
 3718SOL    HW112053   0.928   6.915   6.783
 3718SOL    HW212054   1.031   6.957   6.663
 3719SOL     OW12055   5.340   4.734   0.323
 3719SOL    HW112056   5.365   4.790   0.402
 3719SOL    HW212057   5.244   4.706   0.331
 3720SOL     OW12058   6.673   1.826   6.469
 3720SOL    HW112059   6.755   1.822   6.526
 3720SOL    HW212060   6.592   1.823   6.527
 3721SOL     OW12061   6.434   4.661   6.610
 3721SOL    HW112062   6.508   4.677   6.675
 3721SOL    HW212063   6.418   4.744   6.557
 3722SOL     OW12064   0.022   5.946   2.730
 3722SOL    HW112065   0.091   5.890   2.684
 3722SOL    HW212066   7.022   6.022   2.671
 3723SOL     OW12067   5.743   6.594   2.006
 3723SOL    HW112068   5.775   6.502   2.027
 3723SOL    HW212069   5.739   6.648   2.090
 3724SOL     OW12070   1.087   5.116   0.391
 3724SOL    HW112071   1.110   5.019   0.386
 3724SOL    HW212072   0.999   5.131   0.345
 3725SOL     OW12073   6.426   6.416   6.853
 3725SOL    HW112074   6.499   6.428   6.785
 3725SOL    HW212075   6.358   6.487   6.842
 3726SOL     OW12076   6.507   4.037   1.897
 3726SOL    HW112077   6.471   4.000   1.982
 3726SOL    HW212078   6.454   4.117   1.870
 3727SOL     OW12079   0.782   2.939   5.369
 3727SOL    HW112080   0.816   3.033   5.364
 3727SOL    HW212081   0.860   2.876   5.376
 3728SOL     OW12082   2.098   3.131   0.471
 3728SOL    HW112083   2.064   3.197   0.404
 3728SOL    HW212084   2.184   3.091   0.438
 3729SOL     OW12085   0.922   2.306   2.817
 3729SOL    HW112086   0.913   2.290   2.916
 3729SOL    HW212087   0.921   2.218   2.769
 3730SOL     OW12088   3.084   0.723   6.781
 3730SOL    HW112089   3.100   0.808   6.729
 3730SOL    HW212090   2.988   0.719   6.809
 3731SOL     OW12091   4.513   1.806   1.124
 3731SOL    HW112092   4.509   1.897   1.163
 3731SOL    HW212093   4.444   1.748   1.168
 3732SOL     OW12094   2.355   3.247   5.870
 3732SOL    HW112095   2.432   3.251   5.934
 3732SOL    HW212096   2.279   3.300   5.906
 3733SOL     OW12097   2.585   4.047   1.526
 3733SOL    HW112098   2.666   4.006   1.568
 3733SOL    HW212099   2.520   4.073   1.598
 3734SOL     OW12100   4.586   0.988   2.655
 3734SOL    HW112101   4.598   1.072   2.708
 3734SOL    HW212102   4.661   0.980   2.588
 3735SOL     OW12103   1.636   2.520   2.874
 3735SOL    HW112104   1.576   2.583   2.924
 3735SOL    HW212105   1.615   2.426   2.901
 3736SOL     OW12106   7.010   3.073   0.919
 3736SOL    HW112107   6.927   3.125   0.939
 3736SOL    HW212108   6.985   2.984   0.881
 3737SOL     OW12109   5.053   0.280   2.841
 3737SOL    HW112110   5.116   0.337   2.894
 3737SOL    HW212111   5.098   0.195   2.816
 3738SOL     OW12112   6.310   6.176   3.264
 3738SOL    HW112113   6.371   6.255   3.264
 3738SOL    HW212114   6.249   6.180   3.343
 3739SOL     OW12115   1.454   3.964   2.750
 3739SOL    HW112116   1.411   3.883   2.791
 3739SOL    HW212117   1.532   3.936   2.694
 3740SOL     OW12118   4.943   1.174   7.023
 3740SOL    HW112119   4.953   1.118   6.940
 3740SOL    HW212120   4.847   1.179   0.022
 3741SOL     OW12121   4.320   3.614   0.959
 3741SOL    HW112122   4.368   3.545   0.905
 3741SOL    HW212123   4.230   3.632   0.917
 3742SOL     OW12124   3.098   2.186   6.201
 3742SOL    HW112125   3.021   2.248   6.184
 3742SOL    HW212126   3.169   2.202   6.133
 3743SOL     OW12127   6.501   5.337   0.242
 3743SOL    HW112128   6.589   5.329   0.290
 3743SOL    HW212129   6.480   5.434   0.228
 3744SOL     OW12130   0.612   4.877   3.899
 3744SOL    HW112131   0.553   4.808   3.941
 3744SOL    HW212132   0.587   4.967   3.934
 3745SOL     OW12133   3.606   5.334   2.657
 3745SOL    HW112134   3.532   5.393   2.625
 3745SOL    HW212135   3.579   5.290   2.743
 3746SOL     OW12136   4.595   2.012   1.593
 3746SOL    HW112137   4.600   1.953   1.674
 3746SOL    HW212138   4.631   1.964   1.514
 3747SOL     OW12139   3.169   6.567   6.808
 3747SOL    HW112140   3.078   6.529   6.791
 3747SOL    HW212141   3.234   6.527   6.744
 3748SOL     OW12142   6.142   1.069   1.367
 3748SOL    HW112143   6.170   1.156   1.325
 3748SOL    HW212144   6.094   1.014   1.299
 3749SOL     OW12145   1.467   6.784   4.170
 3749SOL    HW112146   1.535   6.786   4.244
 3749SOL    HW212147   1.376   6.768   4.208
 3750SOL     OW12148   0.297   3.798   0.542
 3750SOL    HW112149   0.306   3.880   0.486
 3750SOL    HW212150   0.235   3.734   0.498
 3751SOL     OW12151   6.958   4.173   3.134
 3751SOL    HW112152   6.987   4.181   3.039
 3751SOL    HW212153   6.923   4.081   3.151
 3752SOL     OW12154   6.075   1.187   5.733
 3752SOL    HW112155   6.075   1.142   5.644
 3752SOL    HW212156   6.092   1.118   5.804
 3753SOL     OW12157   6.325   1.281   3.928
 3753SOL    HW112158   6.382   1.286   3.846
 3753SOL    HW212159   6.263   1.359   3.930
 3754SOL     OW12160   2.281   1.536   2.214
 3754SOL    HW112161   2.243   1.628   2.200
 3754SOL    HW212162   2.210   1.476   2.252
 3755SOL     OW12163   2.903   4.823   4.153
 3755SOL    HW112164   2.845   4.784   4.224
 3755SOL    HW212165   2.859   4.813   4.064
 3756SOL     OW12166   2.221   5.860   0.490
 3756SOL    HW112167   2.219   5.887   0.394
 3756SOL    HW212168   2.309   5.817   0.511
 3757SOL     OW12169   6.382   4.624   1.865
 3757SOL    HW112170   6.383   4.547   1.930
 3757SOL    HW212171   6.358   4.708   1.913
 3758SOL     OW12172   1.911   0.692   3.367
 3758SOL    HW112173   1.914   0.781   3.321
 3758SOL    HW212174   1.905   0.620   3.298
 3759SOL     OW12175   5.447   0.449   4.017
 3759SOL    HW112176   5.445   0.438   4.117
 3759SOL    HW212177   5.510   0.383   3.978
 3760SOL     OW12178   6.729   0.714   3.905
 3760SOL    HW112179   6.673   0.655   3.847
 3760SOL    HW212180   6.820   0.724   3.865
 3761SOL     OW12181   5.468   1.183   4.591
 3761SOL    HW112182   5.419   1.136   4.664
 3761SOL    HW212183   5.486   1.277   4.618
 3762SOL     OW12184   1.003   4.055   2.747
 3762SOL    HW112185   0.912   4.048   2.704
 3762SOL    HW212186   1.048   4.138   2.714
 3763SOL     OW12187   0.003   4.292   0.359
 3763SOL    HW112188   0.031   4.297   0.263
 3763SOL    HW212189   0.084   4.294   0.417
 3764SOL     OW12190   1.904   0.507   3.162
 3764SOL    HW112191   1.999   0.477   3.175
 3764SOL    HW212192   1.889   0.527   3.065
 3765SOL     OW12193   6.123   1.821   1.369
 3765SOL    HW112194   6.136   1.732   1.412
 3765SOL    HW212195   6.174   1.825   1.283
 3766SOL     OW12196   1.796   3.569   3.805
 3766SOL    HW112197   1.873   3.509   3.826
 3766SOL    HW212198   1.823   3.665   3.817
 3767SOL     OW12199   3.222   4.561   6.219
 3767SOL    HW112200   3.313   4.595   6.195
 3767SOL    HW212201   3.230   4.467   6.253
 3768SOL     OW12202   1.457   0.232   4.989
 3768SOL    HW112203   1.514   0.152   4.969
 3768SOL    HW212204   1.463   0.297   4.913
 3769SOL     OW12205   4.562   6.056   4.798
 3769SOL    HW112206   4.582   6.005   4.882
 3769SOL    HW212207   4.485   6.013   4.751
 3770SOL     OW12208   1.284   1.348   0.645
 3770SOL    HW112209   1.273   1.250   0.661
 3770SOL    HW212210   1.265   1.368   0.549
 3771SOL     OW12211   0.223   4.635   0.677
 3771SOL    HW112212   0.228   4.545   0.633
 3771SOL    HW212213   0.274   4.702   0.622
 3772SOL     OW12214   1.146   6.301   0.589
 3772SOL    HW112215   1.069   6.359   0.613
 3772SOL    HW212216   1.192   6.270   0.672
 3773SOL     OW12217   5.924   3.189   5.971
 3773SOL    HW112218   5.893   3.097   5.947
 3773SOL    HW212219   6.024   3.194   5.966
 3774SOL     OW12220   5.382   6.117   1.472
 3774SOL    HW112221   5.422   6.206   1.494
 3774SOL    HW212222   5.387   6.101   1.374
 3775SOL     OW12223   4.043   5.059   3.323
 3775SOL    HW112224   4.128   5.012   3.348
 3775SOL    HW212225   3.967   5.017   3.372
 3776SOL     OW12226   3.410   2.941   6.729
 3776SOL    HW112227   3.340   2.982   6.789
 3776SOL    HW212228   3.445   3.011   6.667
 3777SOL     OW12229   2.807   6.288   4.561
 3777SOL    HW112230   2.727   6.287   4.622
 3777SOL    HW212231   2.859   6.204   4.573
 3778SOL     OW12232   3.086   5.383   5.012
 3778SOL    HW112233   3.006   5.434   4.981
 3778SOL    HW212234   3.120   5.326   4.937
 3779SOL     OW12235   0.182   5.035   0.469
 3779SOL    HW112236   0.187   5.088   0.554
 3779SOL    HW212237   0.216   5.090   0.394
 3780SOL     OW12238   6.598   2.950   1.404
 3780SOL    HW112239   6.508   2.924   1.371
 3780SOL    HW212240   6.648   2.998   1.332
 3781SOL     OW12241   2.015   6.368   5.233
 3781SOL    HW112242   2.016   6.357   5.332
 3781SOL    HW212243   1.977   6.285   5.191
 3782SOL     OW12244   4.969   6.182   1.606
 3782SOL    HW112245   4.908   6.185   1.685
 3782SOL    HW212246   5.062   6.206   1.635
 3783SOL     OW12247   5.460   4.967   6.093
 3783SOL    HW112248   5.472   4.882   6.041
 3783SOL    HW212249   5.456   4.946   6.191
 3784SOL     OW12250   5.239   2.467   3.662
 3784SOL    HW112251   5.308   2.397   3.645
 3784SOL    HW212252   5.223   2.519   3.578
 3785SOL     OW12253   0.999   3.455   4.641
 3785SOL    HW112254   0.950   3.382   4.592
 3785SOL    HW212255   0.945   3.539   4.637
 3786SOL     OW12256   2.482   2.448   4.578
 3786SOL    HW112257   2.514   2.474   4.487
 3786SOL    HW212258   2.419   2.371   4.570
 3787SOL     OW12259   4.144   0.130   3.439
 3787SOL    HW112260   4.196   0.045   3.432
 3787SOL    HW212261   4.048   0.109   3.461
 3788SOL     OW12262   0.471   3.233   5.220
 3788SOL    HW112263   0.540   3.267   5.283
 3788SOL    HW212264   0.381   3.267   5.247
 3789SOL     OW12265   1.709   2.629   2.639
 3789SOL    HW112266   1.800   2.669   2.640
 3789SOL    HW212267   1.685   2.601   2.732
 3790SOL     OW12268   0.652   6.948   0.816
 3790SOL    HW112269   0.665   6.964   0.914
 3790SOL    HW212270   0.610   0.003   0.775
 3791SOL     OW12271   5.714   0.855   5.914
 3791SOL    HW112272   5.700   0.947   5.877
 3791SOL    HW212273   5.626   0.806   5.913
 3792SOL     OW12274   0.601   1.027   3.895
 3792SOL    HW112275   0.691   1.001   3.929
 3792SOL    HW212276   0.593   1.003   3.798
 3793SOL     OW12277   6.398   6.487   0.510
 3793SOL    HW112278   6.478   6.434   0.483
 3793SOL    HW212279   6.420   6.539   0.592
 3794SOL     OW12280   2.108   4.248   0.873
 3794SOL    HW112281   2.050   4.330   0.879
 3794SOL    HW212282   2.196   4.267   0.918
 3795SOL     OW12283   2.535   5.717   1.006
 3795SOL    HW112284   2.470   5.791   1.021
 3795SOL    HW212285   2.525   5.649   1.079
 3796SOL     OW12286   4.319   1.924   0.147
 3796SOL    HW112287   4.320   1.924   0.247
 3796SOL    HW212288   4.264   2.001   0.114
 3797SOL     OW12289   0.811   4.360   3.138
 3797SOL    HW112290   0.872   4.351   3.060
 3797SOL    HW212291   0.859   4.408   3.212
 3798SOL     OW12292   2.365   6.270   3.081
 3798SOL    HW112293   2.372   6.192   3.020
 3798SOL    HW212294   2.270   6.281   3.111
 3799SOL     OW12295   6.639   2.265   3.063
 3799SOL    HW112296   6.725   2.315   3.066
 3799SOL    HW212297   6.588   2.291   2.981
 3800SOL     OW12298   5.451   1.756   3.167
 3800SOL    HW112299   5.419   1.695   3.095
 3800SOL    HW212300   5.516   1.707   3.225
 3801SOL     OW12301   5.695   0.085   2.273
 3801SOL    HW112302   5.717   0.019   2.345
 3801SOL    HW212303   5.780   0.128   2.240
 3802SOL     OW12304   6.311   1.997   1.868
 3802SOL    HW112305   6.353   2.041   1.788
 3802SOL    HW212306   6.357   1.910   1.887
 3803SOL     OW12307   2.873   3.605   3.997
 3803SOL    HW112308   2.858   3.602   3.899
 3803SOL    HW212309   2.938   3.678   4.020
 3804SOL     OW12310   3.799   0.132   4.838
 3804SOL    HW112311   3.768   0.221   4.805
 3804SOL    HW212312   3.804   0.068   4.761
 3805SOL     OW12313   2.185   3.308   0.104
 3805SOL    HW112314   2.132   3.284   0.022
 3805SOL    HW212315   2.203   3.226   0.157
 3806SOL     OW12316   4.344   4.450   6.539
 3806SOL    HW112317   4.393   4.414   6.618
 3806SOL    HW212318   4.362   4.391   6.460
 3807SOL     OW12319   1.139   5.261   3.909
 3807SOL    HW112320   1.184   5.315   3.980
 3807SOL    HW212321   1.197   5.184   3.885
 3808SOL     OW12322   4.935   6.714   6.178
 3808SOL    HW112323   4.865   6.680   6.241
 3808SOL    HW212324   5.019   6.732   6.229
 3809SOL     OW12325   5.306   1.903   1.486
 3809SOL    HW112326   5.243   1.979   1.472
 3809SOL    HW212327   5.280   1.827   1.427
 3810SOL     OW12328   6.540   2.338   2.349
 3810SOL    HW112329   6.505   2.253   2.311
 3810SOL    HW212330   6.486   2.364   2.429
 3811SOL     OW12331   6.970   5.320   5.175
 3811SOL    HW112332   0.013   5.251   5.152
 3811SOL    HW212333   6.918   5.344   5.093
 3812SOL     OW12334   3.808   5.962   6.905
 3812SOL    HW112335   3.745   5.937   6.978
 3812SOL    HW212336   3.901   5.934   6.931
 3813SOL     OW12337   6.660   3.589   0.930
 3813SOL    HW112338   6.607   3.532   0.993
 3813SOL    HW212339   6.626   3.574   0.837
 3814SOL     OW12340   6.716   0.213   4.514
 3814SOL    HW112341   6.665   0.160   4.581
 3814SOL    HW212342   6.779   0.275   4.561
 3815SOL     OW12343   4.785   3.123   0.476
 3815SOL    HW112344   4.713   3.104   0.544
 3815SOL    HW212345   4.861   3.060   0.490
 3816SOL     OW12346   1.276   5.923   5.599
 3816SOL    HW112347   1.305   5.828   5.610
 3816SOL    HW212348   1.332   5.966   5.529
 3817SOL     OW12349   4.901   3.318   2.515
 3817SOL    HW112350   4.895   3.234   2.462
 3817SOL    HW212351   4.901   3.396   2.453
 3818SOL     OW12352   0.521   0.946   1.851
 3818SOL    HW112353   0.450   0.878   1.868
 3818SOL    HW212354   0.506   1.026   1.909
 3819SOL     OW12355   6.527   4.626   3.294
 3819SOL    HW112356   6.553   4.558   3.363
 3819SOL    HW212357   6.605   4.686   3.276
 3820SOL     OW12358   5.624   6.582   4.457
 3820SOL    HW112359   5.603   6.487   4.434
 3820SOL    HW212360   5.581   6.643   4.390
 3821SOL     OW12361   0.395   6.942   6.882
 3821SOL    HW112362   0.361   7.017   6.826
 3821SOL    HW212363   0.492   6.928   6.864
 3822SOL     OW12364   3.716   1.080   0.048
 3822SOL    HW112365   3.680   1.120   0.132
 3822SOL    HW212366   3.683   0.987   0.038
 3823SOL     OW12367   4.866   4.734   6.033
 3823SOL    HW112368   4.911   4.724   5.945
 3823SOL    HW212369   4.866   4.830   6.060
 3824SOL     OW12370   1.482   3.436   0.324
 3824SOL    HW112371   1.527   3.382   0.396
 3824SOL    HW212372   1.478   3.532   0.353
 3825SOL     OW12373   1.497   4.236   6.861
 3825SOL    HW112374   1.588   4.240   6.902
 3825SOL    HW212375   1.503   4.193   6.771
 3826SOL     OW12376   6.192   4.202   1.965
 3826SOL    HW112377   6.133   4.123   1.947
 3826SOL    HW212378   6.135   4.283   1.982
 3827SOL     OW12379   0.810   0.849   1.474
 3827SOL    HW112380   0.881   0.819   1.411
 3827SOL    HW212381   0.806   0.787   1.553
 3828SOL     OW12382   3.687   4.164   4.545
 3828SOL    HW112383   3.647   4.137   4.633
 3828SOL    HW212384   3.786   4.148   4.548
 3829SOL     OW12385   0.122   4.821   2.321
 3829SOL    HW112386   0.191   4.813   2.393
 3829SOL    HW212387   0.059   4.743   2.327
 3830SOL     OW12388   0.530   0.404   4.933
 3830SOL    HW112389   0.560   0.473   4.868
 3830SOL    HW212390   0.608   0.346   4.957
 3831SOL     OW12391   4.693   1.525   3.294
 3831SOL    HW112392   4.699   1.625   3.303
 3831SOL    HW212393   4.668   1.501   3.201
 3832SOL     OW12394   0.397   0.430   2.419
 3832SOL    HW112395   0.420   0.527   2.426
 3832SOL    HW212396   0.481   0.376   2.412
 3833SOL     OW12397   1.381   6.572   6.199
 3833SOL    HW112398   1.346   6.500   6.260
 3833SOL    HW212399   1.331   6.570   6.113
 3834SOL     OW12400   4.471   4.165   1.116
 3834SOL    HW112401   4.544   4.234   1.113
 3834SOL    HW212402   4.431   4.155   1.025
 3835SOL     OW12403   3.381   5.802   5.566
 3835SOL    HW112404   3.296   5.831   5.523
 3835SOL    HW212405   3.458   5.835   5.512
 3836SOL     OW12406   0.541   5.476   6.520
 3836SOL    HW112407   0.498   5.492   6.431
 3836SOL    HW212408   0.623   5.533   6.527
 3837SOL     OW12409   3.974   4.792   5.131
 3837SOL    HW112410   3.946   4.745   5.215
 3837SOL    HW212411   3.893   4.823   5.082
 3838SOL     OW12412   2.039   1.182   3.231
 3838SOL    HW112413   2.131   1.148   3.210
 3838SOL    HW212414   2.032   1.200   3.329
 3839SOL     OW12415   4.484   6.945   3.368
 3839SOL    HW112416   4.428   6.972   3.289
 3839SOL    HW212417   4.426   6.937   3.449
 3840SOL     OW12418   2.538   0.435   7.025
 3840SOL    HW112419   2.564   0.373   6.951
 3840SOL    HW212420   2.468   0.498   6.992
 3841SOL     OW12421   6.853   4.862   4.350
 3841SOL    HW112422   6.773   4.923   4.349
 3841SOL    HW212423   6.888   4.854   4.443
 3842SOL     OW12424   2.313   2.659   4.609
 3842SOL    HW112425   2.228   2.609   4.597
 3842SOL    HW212426   2.391   2.598   4.597
 3843SOL     OW12427   5.069   2.805   0.842
 3843SOL    HW112428   4.976   2.771   0.850
 3843SOL    HW212429   5.089   2.867   0.917
 3844SOL     OW12430   1.442   5.101   0.397
 3844SOL    HW112431   1.531   5.117   0.354
 3844SOL    HW212432   1.390   5.036   0.341
 3845SOL     OW12433   1.886   5.855   0.339
 3845SOL    HW112434   1.828   5.841   0.419
 3845SOL    HW212435   1.950   5.930   0.356
 3846SOL     OW12436   0.701   3.130   4.618
 3846SOL    HW112437   0.740   3.067   4.552
 3846SOL    HW212438   0.688   3.083   4.706
 3847SOL     OW12439   5.591   1.544   4.901
 3847SOL    HW112440   5.547   1.607   4.965
 3847SOL    HW212441   5.552   1.453   4.912
 3848SOL     OW12442   4.870   3.007   2.579
 3848SOL    HW112443   4.873   3.002   2.479
 3848SOL    HW212444   4.811   2.935   2.614
 3849SOL     OW12445   0.697   6.497   5.893
 3849SOL    HW112446   0.666   6.417   5.842
 3849SOL    HW212447   0.684   6.579   5.838
 3850SOL     OW12448   2.702   2.657   1.577
 3850SOL    HW112449   2.683   2.641   1.481
 3850SOL    HW212450   2.636   2.724   1.613
 3851SOL     OW12451   0.114   5.212   3.595
 3851SOL    HW112452   0.035   5.274   3.584
 3851SOL    HW212453   0.141   5.211   3.691
 3852SOL     OW12454   2.743   6.817   4.384
 3852SOL    HW112455   2.712   6.751   4.452
 3852SOL    HW212456   2.721   6.783   4.292
 3853SOL     OW12457   2.151   1.566   4.102
 3853SOL    HW112458   2.218   1.524   4.163
 3853SOL    HW212459   2.096   1.495   4.058
 3854SOL     OW12460   1.609   3.056   2.763
 3854SOL    HW112461   1.554   3.136   2.787
 3854SOL    HW212462   1.566   2.974   2.801
 3855SOL     OW12463   4.403   6.426   0.397
 3855SOL    HW112464   4.459   6.385   0.325
 3855SOL    HW212465   4.461   6.482   0.456
 3856SOL     OW12466   0.564   2.071   6.310
 3856SOL    HW112467   0.588   2.110   6.399
 3856SOL    HW212468   0.645   2.068   6.251
 3857SOL     OW12469   2.457   6.627   5.707
 3857SOL    HW112470   2.379   6.621   5.644
 3857SOL    HW212471   2.424   6.629   5.801
 3858SOL     OW12472   3.925   1.435   5.694
 3858SOL    HW112473   3.854   1.504   5.710
 3858SOL    HW212474   3.941   1.384   5.778
 3859SOL     OW12475   5.737   0.932   1.130
 3859SOL    HW112476   5.690   0.993   1.066
 3859SOL    HW212477   5.671   0.874   1.177
 3860SOL     OW12478   1.932   0.563   4.637
 3860SOL    HW112479   1.965   0.514   4.556
 3860SOL    HW212480   1.999   0.634   4.662
 3861SOL     OW12481   4.013   5.845   2.885
 3861SOL    HW112482   4.053   5.936   2.881
 3861SOL    HW212483   3.988   5.824   2.980
 3862SOL     OW12484   0.706   0.477   3.724
 3862SOL    HW112485   0.734   0.446   3.633
 3862SOL    HW212486   0.613   0.512   3.720
 3863SOL     OW12487   5.469   0.905   0.118
 3863SOL    HW112488   5.382   0.947   0.144
 3863SOL    HW212489   5.543   0.971   0.126
 3864SOL     OW12490   2.548   0.760   4.950
 3864SOL    HW112491   2.455   0.793   4.935
 3864SOL    HW212492   2.555   0.664   4.923
 3865SOL     OW12493   4.723   0.807   0.447
 3865SOL    HW112494   4.716   0.829   0.350
 3865SOL    HW212495   4.803   0.748   0.462
 3866SOL     OW12496   3.665   1.603   6.816
 3866SOL    HW112497   3.656   1.523   6.758
 3866SOL    HW212498   3.758   1.606   6.854
 3867SOL     OW12499   1.209   4.812   3.082
 3867SOL    HW112500   1.296   4.840   3.042
 3867SOL    HW212501   1.207   4.712   3.091
 3868SOL     OW12502   4.028   0.467   6.797
 3868SOL    HW112503   4.040   0.557   6.755
 3868SOL    HW212504   3.982   0.477   6.886
 3869SOL     OW12505   6.739   3.150   4.009
 3869SOL    HW112506   6.683   3.224   4.048
 3869SOL    HW212507   6.683   3.097   3.945
 3870SOL     OW12508   6.522   6.907   2.568
 3870SOL    HW112509   6.500   6.840   2.498
 3870SOL    HW212510   6.511   6.999   2.530
 3871SOL     OW12511   2.868   6.761   3.456
 3871SOL    HW112512   2.951   6.808   3.426
 3871SOL    HW212513   2.879   6.729   3.550
 3872SOL     OW12514   3.254   2.926   3.789
 3872SOL    HW112515   3.197   2.935   3.871
 3872SOL    HW212516   3.205   2.965   3.710
 3873SOL     OW12517   4.974   3.993   0.751
 3873SOL    HW112518   5.011   4.029   0.665
 3873SOL    HW212519   4.927   3.907   0.732
 3874SOL     OW12520   4.451   0.538   0.389
 3874SOL    HW112521   4.377   0.491   0.341
 3874SOL    HW212522   4.538   0.493   0.369
 3875SOL     OW12523   1.995   3.074   4.137
 3875SOL    HW112524   1.968   3.114   4.225
 3875SOL    HW212525   2.091   3.046   4.141
 3876SOL     OW12526   3.577   5.699   0.815
 3876SOL    HW112527   3.532   5.655   0.893
 3876SOL    HW212528   3.518   5.691   0.734
 3877SOL     OW12529   6.198   2.352   0.695
 3877SOL    HW112530   6.137   2.343   0.616
 3877SOL    HW212531   6.219   2.262   0.732
 3878SOL     OW12532   4.894   6.899   4.713
 3878SOL    HW112533   4.967   6.835   4.736
 3878SOL    HW212534   4.820   6.849   4.668
 3879SOL     OW12535   6.047   4.815   0.222
 3879SOL    HW112536   5.974   4.831   0.156
 3879SOL    HW212537   6.007   4.786   0.309
 3880SOL     OW12538   4.949   3.894   4.650
 3880SOL    HW112539   4.904   3.897   4.560
 3880SOL    HW212540   5.048   3.897   4.639
 3881SOL     OW12541   1.342   3.786   1.207
 3881SOL    HW112542   1.419   3.815   1.263
 3881SOL    HW212543   1.366   3.701   1.159
 3882SOL     OW12544   1.531   1.458   6.959
 3882SOL    HW112545   1.533   1.542   6.904
 3882SOL    HW212546   1.623   1.420   6.963
 3883SOL     OW12547   4.477   0.788   2.809
 3883SOL    HW112548   4.380   0.766   2.800
 3883SOL    HW212549   4.508   0.838   2.728
 3884SOL     OW12550   0.678   5.841   2.614
 3884SOL    HW112551   0.737   5.787   2.673
 3884SOL    HW212552   0.623   5.904   2.670
 3885SOL     OW12553   5.862   6.358   3.398
 3885SOL    HW112554   5.952   6.392   3.370
 3885SOL    HW212555   5.872   6.299   3.479
 3886SOL     OW12556   4.349   5.935   5.480
 3886SOL    HW112557   4.314   6.007   5.540
 3886SOL    HW212558   4.276   5.868   5.462
 3887SOL     OW12559   0.844   6.651   0.120
 3887SOL    HW112560   0.918   6.706   0.160
 3887SOL    HW212561   0.867   6.554   0.125
 3888SOL     OW12562   6.145   6.434   4.808
 3888SOL    HW112563   6.070   6.375   4.838
 3888SOL    HW212564   6.230   6.381   4.804
 3889SOL     OW12565   6.543   2.503   6.880
 3889SOL    HW112566   6.499   2.571   6.939
 3889SOL    HW212567   6.532   2.412   6.921
 3890SOL     OW12568   5.499   4.423   3.741
 3890SOL    HW112569   5.543   4.409   3.653
 3890SOL    HW212570   5.525   4.513   3.777
 3891SOL     OW12571   4.932   3.757   3.593
 3891SOL    HW112572   4.941   3.688   3.521
 3891SOL    HW212573   4.926   3.848   3.552
 3892SOL     OW12574   0.643   2.869   1.200
 3892SOL    HW112575   0.648   2.909   1.109
 3892SOL    HW212576   0.727   2.819   1.220
 3893SOL     OW12577   4.106   4.014   1.502
 3893SOL    HW112578   4.094   4.024   1.403
 3893SOL    HW212579   4.109   4.105   1.545
 3894SOL     OW12580   5.590   0.654   6.553
 3894SOL    HW112581   5.613   0.600   6.633
 3894SOL    HW212582   5.490   0.657   6.542
 3895SOL     OW12583   1.710   0.153   5.322
 3895SOL    HW112584   1.685   0.223   5.389
 3895SOL    HW212585   1.743   0.072   5.371
 3896SOL     OW12586   0.803   1.206   6.541
 3896SOL    HW112587   0.826   1.117   6.580
 3896SOL    HW212588   0.855   1.278   6.588
 3897SOL     OW12589   4.187   5.623   2.589
 3897SOL    HW112590   4.166   5.610   2.492
 3897SOL    HW212591   4.277   5.666   2.598
 3898SOL     OW12592   3.322   2.128   6.978
 3898SOL    HW112593   3.329   2.043   6.925
 3898SOL    HW212594   3.269   2.111   0.035
 3899SOL     OW12595   4.633   6.701   6.032
 3899SOL    HW112596   4.689   6.711   6.115
 3899SOL    HW212597   4.539   6.678   6.058
 3900SOL     OW12598   4.823   2.838   3.833
 3900SOL    HW112599   4.742   2.829   3.891
 3900SOL    HW212600   4.845   2.749   3.793
 3901SOL     OW12601   3.398   0.599   6.248
 3901SOL    HW112602   3.320   0.573   6.306
 3901SOL    HW212603   3.473   0.632   6.305
 3902SOL     OW12604   6.457   2.867   2.012
 3902SOL    HW112605   6.369   2.849   1.968
 3902SOL    HW212606   6.451   2.950   2.067
 3903SOL     OW12607   3.585   6.712   0.214
 3903SOL    HW112608   3.654   6.725   0.285
 3903SOL    HW212609   3.568   6.614   0.202
 3904SOL     OW12610   1.849   0.592   6.707
 3904SOL    HW112611   1.798   0.676   6.685
 3904SOL    HW212612   1.786   0.514   6.706
 3905SOL     OW12613   6.683   6.652   5.764
 3905SOL    HW112614   6.742   6.688   5.692
 3905SOL    HW212615   6.706   6.694   5.851
 3906SOL     OW12616   5.794   6.511   5.974
 3906SOL    HW112617   5.751   6.560   5.898
 3906SOL    HW212618   5.806   6.574   6.051
 3907SOL     OW12619   5.872   1.067   4.086
 3907SOL    HW112620   5.857   1.003   4.161
 3907SOL    HW212621   5.920   1.147   4.120
 3908SOL     OW12622   0.548   2.649   6.981
 3908SOL    HW112623   0.644   2.676   6.985
 3908SOL    HW212624   0.540   2.560   6.935
 3909SOL     OW12625   5.885   5.849   4.534
 3909SOL    HW112626   5.875   5.784   4.609
 3909SOL    HW212627   5.903   5.940   4.572
 3910SOL     OW12628   3.468   3.460   2.146
 3910SOL    HW112629   3.448   3.558   2.144
 3910SOL    HW212630   3.456   3.426   2.239
 3911SOL     OW12631   5.919   1.498   5.149
 3911SOL    HW112632   5.885   1.507   5.055
 3911SOL    HW212633   5.946   1.403   5.166
 3912SOL     OW12634   5.820   0.126   5.374
 3912SOL    HW112635   5.874   0.059   5.426
 3912SOL    HW212636   5.879   0.178   5.314
 3913SOL     OW12637   2.572   6.403   6.282
 3913SOL    HW112638   2.656   6.365   6.243
 3913SOL    HW212639   2.497   6.339   6.269
 3914SOL     OW12640   2.739   0.685   1.362
 3914SOL    HW112641   2.761   0.592   1.390
 3914SOL    HW212642   2.817   0.724   1.313
 3915SOL     OW12643   5.361   6.322   0.961
 3915SOL    HW112644   5.361   6.405   1.016
 3915SOL    HW212645   5.418   6.253   1.006
 3916SOL     OW12646   1.048   6.892   3.938
 3916SOL    HW112647   1.046   6.991   3.923
 3916SOL    HW212648   1.000   6.870   4.022
 3917SOL     OW12649   6.876   6.563   6.805
 3917SOL    HW112650   6.835   6.519   6.885
 3917SOL    HW212651   6.822   6.540   6.724
 3918SOL     OW12652   5.739   5.591   1.228
 3918SOL    HW112653   5.779   5.649   1.300
 3918SOL    HW212654   5.647   5.564   1.255
 3919SOL     OW12655   4.659   6.744   0.287
 3919SOL    HW112656   4.691   6.650   0.298
 3919SOL    HW212657   4.719   6.807   0.336
 3920SOL     OW12658   2.895   3.566   0.401
 3920SOL    HW112659   2.876   3.637   0.334
 3920SOL    HW212660   2.971   3.509   0.369
 3921SOL     OW12661   0.134   3.334   1.164
 3921SOL    HW112662   0.127   3.272   1.242
 3921SOL    HW212663   0.230   3.346   1.139
 3922SOL     OW12664   6.726   3.851   1.988
 3922SOL    HW112665   6.822   3.876   1.994
 3922SOL    HW212666   6.672   3.932   1.963
 3923SOL     OW12667   0.654   1.349   0.349
 3923SOL    HW112668   0.584   1.385   0.411
 3923SOL    HW212669   0.612   1.329   0.260
 3924SOL     OW12670   5.461   5.161   3.762
 3924SOL    HW112671   5.479   5.242   3.818
 3924SOL    HW212672   5.490   5.179   3.668
 3925SOL     OW12673   1.936   5.289   1.156
 3925SOL    HW112674   1.987   5.375   1.165
 3925SOL    HW212675   1.984   5.216   1.205
 3926SOL     OW12676   5.667   4.880   2.120
 3926SOL    HW112677   5.627   4.838   2.039
 3926SOL    HW212678   5.598   4.884   2.192
 3927SOL     OW12679   6.118   2.569   4.968
 3927SOL    HW112680   6.080   2.659   4.946
 3927SOL    HW212681   6.154   2.527   4.885
 3928SOL     OW12682   3.840   5.879   6.618
 3928SOL    HW112683   3.815   5.907   6.711
 3928SOL    HW212684   3.940   5.876   6.610
 3929SOL     OW12685   0.312   0.495   4.576
 3929SOL    HW112686   0.242   0.486   4.647
 3929SOL    HW212687   0.271   0.539   4.495
 3930SOL     OW12688   2.928   2.125   4.254
 3930SOL    HW112689   2.872   2.191   4.304
 3930SOL    HW212690   2.940   2.043   4.309
 3931SOL     OW12691   1.680   1.650   1.517
 3931SOL    HW112692   1.726   1.561   1.515
 3931SOL    HW212693   1.622   1.656   1.598
 3932SOL     OW12694   1.116   4.298   4.037
 3932SOL    HW112695   1.109   4.223   4.102
 3932SOL    HW212696   1.034   4.300   3.979
 3933SOL     OW12697   1.816   6.311   6.868
 3933SOL    HW112698   1.754   6.262   6.807
 3933SOL    HW212699   1.904   6.325   6.823
 3934SOL     OW12700   0.322   0.992   6.975
 3934SOL    HW112701   0.332   1.051   0.029
 3934SOL    HW212702   0.237   1.016   6.927
 3935SOL     OW12703   2.767   6.923   6.694
 3935SOL    HW112704   2.830   6.865   6.745
 3935SOL    HW212705   2.800   6.935   6.601
 3936SOL     OW12706   6.645   5.158   5.463
 3936SOL    HW112707   6.652   5.164   5.363
 3936SOL    HW212708   6.643   5.061   5.490
 3937SOL     OW12709   0.329   1.663   3.080
 3937SOL    HW112710   0.392   1.725   3.033
 3937SOL    HW212711   0.376   1.621   3.157
 3938SOL     OW12712   0.215   2.181   3.126
 3938SOL    HW112713   0.181   2.226   3.043
 3938SOL    HW212714   0.138   2.166   3.189
 3939SOL     OW12715   1.802   3.235   3.012
 3939SOL    HW112716   1.715   3.285   3.020
 3939SOL    HW212717   1.861   3.260   3.089
 3940SOL     OW12718   4.926   4.517   1.162
 3940SOL    HW112719   4.944   4.587   1.093
 3940SOL    HW212720   5.012   4.488   1.204
 3941SOL     OW12721   5.303   3.544   5.388
 3941SOL    HW112722   5.397   3.577   5.375
 3941SOL    HW212723   5.246   3.619   5.421
 3942SOL     OW12724   0.313   6.773   6.456
 3942SOL    HW112725   0.228   6.749   6.410
 3942SOL    HW212726   0.364   6.689   6.479
 3943SOL     OW12727   6.978   2.614   3.037
 3943SOL    HW112728   6.892   2.606   3.087
 3943SOL    HW212729   0.027   2.627   3.102
 3944SOL     OW12730   4.711   2.428   4.985
 3944SOL    HW112731   4.698   2.490   5.063
 3944SOL    HW212732   4.671   2.339   5.006
 3945SOL     OW12733   0.645   2.127   0.125
 3945SOL    HW112734   0.654   2.202   0.190
 3945SOL    HW212735   0.605   2.048   0.170
 3946SOL     OW12736   5.166   4.810   4.580
 3946SOL    HW112737   5.099   4.836   4.650
 3946SOL    HW212738   5.136   4.843   4.491
 3947SOL     OW12739   5.300   6.326   0.047
 3947SOL    HW112740   5.352   6.318   6.988
 3947SOL    HW212741   5.348   6.387   0.110
 3948SOL     OW12742   6.970   5.061   2.443
 3948SOL    HW112743   6.963   4.966   2.475
 3948SOL    HW212744   0.033   5.075   2.398
 3949SOL     OW12745   4.981   6.986   3.264
 3949SOL    HW112746   5.000   6.948   3.355
 3949SOL    HW212747   4.899   0.017   3.268
 3950SOL     OW12748   1.877   4.446   0.595
 3950SOL    HW112749   1.845   4.507   0.667
 3950SOL    HW212750   1.820   4.459   0.513
 3951SOL     OW12751   4.426   0.345   1.350
 3951SOL    HW112752   4.365   0.315   1.423
 3951SOL    HW212753   4.490   0.413   1.386
 3952SOL     OW12754   6.847   2.316   1.881
 3952SOL    HW112755   6.867   2.336   1.785
 3952SOL    HW212756   6.898   2.379   1.940
 3953SOL     OW12757   4.047   4.913   1.195
 3953SOL    HW112758   4.120   4.851   1.168
 3953SOL    HW212759   3.975   4.862   1.241
 3954SOL     OW12760   3.933   5.274   5.303
 3954SOL    HW112761   3.930   5.269   5.204
 3954SOL    HW212762   3.967   5.364   5.331
 3955SOL     OW12763   2.812   0.017   6.100
 3955SOL    HW112764   2.780   6.997   6.017
 3955SOL    HW212765   2.887   6.990   6.141
 3956SOL     OW12766   1.138   0.922   2.919
 3956SOL    HW112767   1.081   0.885   2.846
 3956SOL    HW212768   1.232   0.892   2.907
 3957SOL     OW12769   4.957   6.746   3.778
 3957SOL    HW112770   5.048   6.712   3.802
 3957SOL    HW212771   4.897   6.738   3.858
 3958SOL     OW12772   5.578   1.422   4.637
 3958SOL    HW112773   5.584   1.470   4.725
 3958SOL    HW212774   5.659   1.365   4.625
 3959SOL     OW12775   4.544   6.349   0.187
 3959SOL    HW112776   4.635   6.386   0.202
 3959SOL    HW212777   4.550   6.257   0.149
 3960SOL     OW12778   5.193   1.005   6.479
 3960SOL    HW112779   5.186   1.001   6.579
 3960SOL    HW212780   5.279   0.965   6.450
 3961SOL     OW12781   5.546   1.322   2.601
 3961SOL    HW112782   5.592   1.247   2.554
 3961SOL    HW212783   5.537   1.400   2.539
 3962SOL     OW12784   2.609   5.032   6.469
 3962SOL    HW112785   2.617   5.131   6.478
 3962SOL    HW212786   2.516   5.008   6.443
 3963SOL     OW12787   4.619   5.441   2.928
 3963SOL    HW112788   4.527   5.480   2.937
 3963SOL    HW212789   4.651   5.454   2.835
 3964SOL     OW12790   4.307   4.948   3.381
 3964SOL    HW112791   4.315   4.968   3.479
 3964SOL    HW212792   4.395   4.962   3.337
 3965SOL     OW12793   4.796   2.989   4.377
 3965SOL    HW112794   4.814   3.078   4.420
 3965SOL    HW212795   4.851   2.918   4.423
 3966SOL     OW12796   4.097   5.906   6.620
 3966SOL    HW112797   4.110   5.907   6.719
 3966SOL    HW212798   4.179   5.870   6.576
 3967SOL     OW12799   2.123   3.984   2.176
 3967SOL    HW112800   2.156   3.892   2.197
 3967SOL    HW212801   2.042   4.004   2.230
 3968SOL     OW12802   4.630   0.813   0.861
 3968SOL    HW112803   4.645   0.883   0.791
 3968SOL    HW212804   4.703   0.745   0.856
 3969SOL     OW12805   0.704   4.524   2.306
 3969SOL    HW112806   0.732   4.528   2.211
 3969SOL    HW212807   0.760   4.457   2.355
 3970SOL     OW12808   5.453   6.511   3.181
 3970SOL    HW112809   5.384   6.540   3.248
 3970SOL    HW212810   5.409   6.499   3.091
 3971SOL     OW12811   3.054   5.182   3.978
 3971SOL    HW112812   3.132   5.194   3.916
 3971SOL    HW212813   3.042   5.085   3.998
 3972SOL     OW12814   1.530   3.959   0.568
 3972SOL    HW112815   1.500   3.891   0.636
 3972SOL    HW212816   1.544   4.047   0.613
 3973SOL     OW12817   1.664   5.495   6.243
 3973SOL    HW112818   1.731   5.568   6.226
 3973SOL    HW212819   1.618   5.472   6.157
 3974SOL     OW12820   2.108   6.622   5.190
 3974SOL    HW112821   2.207   6.618   5.188
 3974SOL    HW212822   2.073   6.540   5.236
 3975SOL     OW12823   5.407   1.334   6.068
 3975SOL    HW112824   5.393   1.368   6.161
 3975SOL    HW212825   5.485   1.272   6.067
 3976SOL     OW12826   1.671   5.997   2.279
 3976SOL    HW112827   1.718   6.064   2.338
 3976SOL    HW212828   1.579   5.980   2.315
 3977SOL     OW12829   2.156   3.384   5.960
 3977SOL    HW112830   2.198   3.403   6.049
 3977SOL    HW212831   2.066   3.428   5.957
 3978SOL     OW12832   5.977   5.560   3.260
 3978SOL    HW112833   6.001   5.542   3.164
 3978SOL    HW212834   5.987   5.476   3.313
 3979SOL     OW12835   3.926   1.231   6.925
 3979SOL    HW112836   3.833   1.233   6.961
 3979SOL    HW212837   3.948   1.138   6.894
 3980SOL     OW12838   5.762   6.174   6.646
 3980SOL    HW112839   5.669   6.141   6.632
 3980SOL    HW212840   5.824   6.130   6.581
 3981SOL     OW12841   3.543   6.750   0.531
 3981SOL    HW112842   3.635   6.767   0.497
 3981SOL    HW212843   3.530   6.652   0.546
 3982SOL     OW12844   2.495   6.588   3.381
 3982SOL    HW112845   2.490   6.616   3.285
 3982SOL    HW212846   2.576   6.531   3.394
 3983SOL     OW12847   4.968   4.848   4.376
 3983SOL    HW112848   4.902   4.840   4.450
 3983SOL    HW212849   4.925   4.892   4.297
 3984SOL     OW12850   6.769   1.030   1.926
 3984SOL    HW112851   6.756   1.017   1.827
 3984SOL    HW212852   6.855   1.078   1.942
 3985SOL     OW12853   2.857   4.770   6.762
 3985SOL    HW112854   2.909   4.689   6.787
 3985SOL    HW212855   2.763   4.745   6.740
 3986SOL     OW12856   5.071   1.343   2.613
 3986SOL    HW112857   5.155   1.397   2.607
 3986SOL    HW212858   5.053   1.299   2.524
 3987SOL     OW12859   3.849   5.019   3.783
 3987SOL    HW112860   3.899   4.933   3.777
 3987SOL    HW212861   3.910   5.090   3.819
 3988SOL     OW12862   3.031   4.946   6.946
 3988SOL    HW112863   3.004   4.929   6.851
 3988SOL    HW212864   3.023   4.862   6.998
 3989SOL     OW12865   6.713   2.453   6.683
 3989SOL    HW112866   6.722   2.541   6.635
 3989SOL    HW212867   6.659   2.466   6.767
 3990SOL     OW12868   4.387   2.216   2.541
 3990SOL    HW112869   4.470   2.192   2.592
 3990SOL    HW212870   4.406   2.295   2.483
 3991SOL     OW12871   6.835   1.289   2.186
 3991SOL    HW112872   6.748   1.243   2.170
 3991SOL    HW212873   6.892   1.280   2.104
 3992SOL     OW12874   3.368   1.293   0.135
 3992SOL    HW112875   3.389   1.358   0.061
 3992SOL    HW212876   3.453   1.268   0.182
 3993SOL     OW12877   1.302   2.998   1.875
 3993SOL    HW112878   1.344   2.942   1.803
 3993SOL    HW212879   1.373   3.035   1.934
 3994SOL     OW12880   2.448   6.794   6.231
 3994SOL    HW112881   2.349   6.780   6.228
 3994SOL    HW212882   2.468   6.891   6.246
 3995SOL     OW12883   2.186   4.178   6.046
 3995SOL    HW112884   2.273   4.135   6.022
 3995SOL    HW212885   2.111   4.117   6.020
 3996SOL     OW12886   0.404   6.399   4.982
 3996SOL    HW112887   0.357   6.473   4.935
 3996SOL    HW212888   0.443   6.433   5.067
 3997SOL     OW12889   5.779   1.895   3.049
 3997SOL    HW112890   5.779   1.976   3.107
 3997SOL    HW212891   5.747   1.816   3.102
 3998SOL     OW12892   3.864   1.133   3.833
 3998SOL    HW112893   3.960   1.161   3.842
 3998SOL    HW212894   3.844   1.064   3.903
 3999SOL     OW12895   6.114   2.321   3.900
 3999SOL    HW112896   6.154   2.368   3.822
 3999SOL    HW212897   6.114   2.382   3.979
 4000SOL     OW12898   3.127   0.159   3.524
 4000SOL    HW112899   3.194   0.213   3.575
 4000SOL    HW212900   3.117   0.195   3.432
 4001SOL     OW12901   2.583   1.743   3.992
 4001SOL    HW112902   2.497   1.770   4.035
 4001SOL    HW212903   2.656   1.803   4.025
 4002SOL     OW12904   3.334   4.134   1.279
 4002SOL    HW112905   3.336   4.222   1.325
 4002SOL    HW212906   3.277   4.140   1.197
 4003SOL     OW12907   3.125   0.211   3.935
 4003SOL    HW112908   3.028   0.189   3.936
 4003SOL    HW212909   3.138   0.310   3.929
 4004SOL     OW12910   5.670   2.101   4.406
 4004SOL    HW112911   5.632   2.137   4.492
 4004SOL    HW212912   5.747   2.040   4.427
 4005SOL     OW12913   5.046   5.316   6.723
 4005SOL    HW112914   4.954   5.301   6.687
 4005SOL    HW212915   5.096   5.230   6.725
 4006SOL     OW12916   4.351   5.266   2.273
 4006SOL    HW112917   4.289   5.197   2.236
 4006SOL    HW212918   4.443   5.250   2.237
 4007SOL     OW12919   0.254   2.883   6.850
 4007SOL    HW112920   0.250   2.793   6.808
 4007SOL    HW212921   0.178   2.939   6.817
 4008SOL     OW12922   2.607   2.102   4.764
 4008SOL    HW112923   2.564   2.111   4.854
 4008SOL    HW212924   2.637   2.192   4.732
 4009SOL     OW12925   4.653   3.097   1.385
 4009SOL    HW112926   4.617   3.187   1.361
 4009SOL    HW212927   4.631   3.076   1.481
 4010SOL     OW12928   2.535   3.038   1.364
 4010SOL    HW112929   2.634   3.045   1.353
 4010SOL    HW212930   2.502   2.952   1.324
 4011SOL     OW12931   1.247   1.630   2.047
 4011SOL    HW112932   1.264   1.601   1.953
 4011SOL    HW212933   1.333   1.661   2.088
 4012SOL     OW12934   6.681   4.311   1.992
 4012SOL    HW112935   6.723   4.221   1.998
 4012SOL    HW212936   6.724   4.373   2.057
 4013SOL     OW12937   3.689   1.860   5.030
 4013SOL    HW112938   3.636   1.814   5.100
 4013SOL    HW212939   3.786   1.836   5.039
 4014SOL     OW12940   5.783   6.398   2.291
 4014SOL    HW112941   5.697   6.434   2.254
 4014SOL    HW212942   5.785   6.299   2.282
 4015SOL     OW12943   5.070   4.418   6.113
 4015SOL    HW112944   4.979   4.447   6.142
 4015SOL    HW212945   5.136   4.491   6.131
 4016SOL     OW12946   2.450   5.966   6.116
 4016SOL    HW112947   2.371   6.019   6.085
 4016SOL    HW212948   2.481   6.000   6.204
 4017SOL     OW12949   6.875   6.265   0.683
 4017SOL    HW112950   6.776   6.262   0.689
 4017SOL    HW212951   6.906   6.200   0.613
 4018SOL     OW12952   4.034   5.951   2.280
 4018SOL    HW112953   4.004   5.860   2.249
 4018SOL    HW212954   4.133   5.957   2.274
 4019SOL     OW12955   5.467   4.520   3.139
 4019SOL    HW112956   5.476   4.520   3.239
 4019SOL    HW212957   5.387   4.467   3.113
 4020SOL     OW12958   4.551   2.062   5.493
 4020SOL    HW112959   4.600   2.128   5.549
 4020SOL    HW212960   4.463   2.100   5.466
 4021SOL     OW12961   3.323   5.164   6.768
 4021SOL    HW112962   3.403   5.207   6.809
 4021SOL    HW212963   3.242   5.220   6.784
 4022SOL     OW12964   4.737   1.775   7.007
 4022SOL    HW112965   4.714   1.811   0.072
 4022SOL    HW212966   4.791   1.691   7.018
 4023SOL     OW12967   6.573   2.197   4.642
 4023SOL    HW112968   6.648   2.141   4.608
 4023SOL    HW212969   6.538   2.158   4.727
 4024SOL     OW12970   3.813   5.767   4.486
 4024SOL    HW112971   3.720   5.801   4.468
 4024SOL    HW212972   3.807   5.685   4.543
 4025SOL     OW12973   0.794   3.598   3.279
 4025SOL    HW112974   0.890   3.617   3.260
 4025SOL    HW212975   0.786   3.509   3.324
 4026SOL     OW12976   5.400   5.998   4.102
 4026SOL    HW112977   5.446   6.059   4.166
 4026SOL    HW212978   5.460   5.978   4.025
 4027SOL     OW12979   3.575   4.309   1.715
 4027SOL    HW112980   3.617   4.288   1.803
 4027SOL    HW212981   3.586   4.232   1.653
 4028SOL     OW12982   1.854   2.025   4.181
 4028SOL    HW112983   1.911   2.094   4.224
 4028SOL    HW212984   1.827   1.957   4.249
 4029SOL     OW12985   2.113   3.840   5.428
 4029SOL    HW112986   2.144   3.765   5.369
 4029SOL    HW212987   2.181   3.913   5.426
 4030SOL     OW12988   0.416   1.835   5.677
 4030SOL    HW112989   0.497   1.892   5.687
 4030SOL    HW212990   0.338   1.878   5.723
 4031SOL     OW12991   4.397   5.574   3.861
 4031SOL    HW112992   4.423   5.483   3.893
 4031SOL    HW212993   4.306   5.569   3.819
 4032SOL     OW12994   5.628   6.898   3.742
 4032SOL    HW112995   5.601   6.808   3.706
 4032SOL    HW212996   5.567   6.968   3.704
 4033SOL     OW12997   3.000   3.322   4.270
 4033SOL    HW112998   3.030   3.236   4.313
 4033SOL    HW212999   2.964   3.303   4.179
 4034SOL     OW13000   6.521   1.486   4.500
 4034SOL    HW113001   6.484   1.537   4.578
 4034SOL    HW213002   6.526   1.388   4.524
 4035SOL     OW13003   0.539   4.141   6.638
 4035SOL    HW113004   0.637   4.123   6.638
 4035SOL    HW213005   0.521   4.230   6.679
 4036SOL     OW13006   6.190   6.364   2.902
 4036SOL    HW113007   6.140   6.341   2.818
 4036SOL    HW213008   6.138   6.332   2.981
 4037SOL     OW13009   0.869   3.541   6.499
 4037SOL    HW113010   0.951   3.597   6.484
 4037SOL    HW213011   0.897   3.448   6.525
 4038SOL     OW13012   5.380   4.425   3.417
 4038SOL    HW113013   5.285   4.446   3.440
 4038SOL    HW213014   5.438   4.504   3.439
 4039SOL     OW13015   5.608   6.237   0.287
 4039SOL    HW113016   5.695   6.216   0.331
 4039SOL    HW213017   5.537   6.246   0.358
 4040SOL     OW13018   3.344   6.944   1.187
 4040SOL    HW113019   3.349   0.015   1.210
 4040SOL    HW213020   3.435   6.903   1.191
 4041SOL     OW13021   1.045   6.277   3.483
 4041SOL    HW113022   1.043   6.184   3.522
 4041SOL    HW213023   1.033   6.344   3.556
 4042SOL     OW13024   5.710   5.377   1.790
 4042SOL    HW113025   5.691   5.280   1.780
 4042SOL    HW213026   5.725   5.418   1.699
 4043SOL     OW13027   5.449   2.024   2.361
 4043SOL    HW113028   5.405   2.027   2.450
 4043SOL    HW213029   5.402   2.086   2.298
 4044SOL     OW13030   5.991   0.077   3.502
 4044SOL    HW113031   6.062   0.050   3.437
 4044SOL    HW213032   5.980   0.176   3.501
 4045SOL     OW13033   1.519   5.248   6.505
 4045SOL    HW113034   1.537   5.152   6.485
 4045SOL    HW213035   1.599   5.303   6.479
 4046SOL     OW13036   0.823   2.884   1.609
 4046SOL    HW113037   0.773   2.929   1.683
 4046SOL    HW213038   0.877   2.951   1.559
 4047SOL     OW13039   2.941   3.734   1.676
 4047SOL    HW113040   2.941   3.643   1.636
 4047SOL    HW213041   2.921   3.728   1.774
 4048SOL     OW13042   4.955   0.174   0.984
 4048SOL    HW113043   4.971   0.175   0.885
 4048SOL    HW213044   4.858   0.163   1.002
 4049SOL     OW13045   5.365   6.634   5.467
 4049SOL    HW113046   5.367   6.537   5.446
 4049SOL    HW213047   5.374   6.687   5.382
 4050SOL     OW13048   1.567   6.424   0.821
 4050SOL    HW113049   1.652   6.477   0.832
 4050SOL    HW213050   1.556   6.400   0.725
 4051SOL     OW13051   3.164   4.299   0.772
 4051SOL    HW113052   3.239   4.235   0.790
 4051SOL    HW213053   3.122   4.326   0.858
 4052SOL     OW13054   0.530   0.722   0.487
 4052SOL    HW113055   0.617   0.771   0.499
 4052SOL    HW213056   0.496   0.738   0.394
 4053SOL     OW13057   3.565   5.039   3.831
 4053SOL    HW113058   3.660   5.067   3.844
 4053SOL    HW213059   3.530   4.998   3.916
 4054SOL     OW13060   3.497   2.349   1.073
 4054SOL    HW113061   3.399   2.352   1.055
 4054SOL    HW213062   3.526   2.434   1.117
 4055SOL     OW13063   3.769   1.919   6.068
 4055SOL    HW113064   3.742   1.920   5.972
 4055SOL    HW213065   3.770   2.013   6.103
 4056SOL     OW13066   3.762   3.449   0.095
 4056SOL    HW113067   3.754   3.538   0.050
 4056SOL    HW213068   3.675   3.400   0.087
 4057SOL     OW13069   4.545   2.881   6.601
 4057SOL    HW113070   4.456   2.923   6.586
 4057SOL    HW213071   4.572   2.829   6.520
 4058SOL     OW13072   2.195   0.960   5.615
 4058SOL    HW113073   2.142   0.875   5.614
 4058SOL    HW213074   2.188   1.004   5.704
 4059SOL     OW13075   1.285   2.010   5.469
 4059SOL    HW113076   1.267   1.938   5.402
 4059SOL    HW213077   1.265   1.977   5.561
 4060SOL     OW13078   4.267   5.079   4.327
 4060SOL    HW113079   4.341   5.142   4.306
 4060SOL    HW213080   4.275   5.048   4.422
 4061SOL     OW13081   3.055   3.638   2.092
 4061SOL    HW113082   3.070   3.732   2.120
 4061SOL    HW213083   3.032   3.582   2.171
 4062SOL     OW13084   2.947   0.808   3.119
 4062SOL    HW113085   2.911   0.894   3.156
 4062SOL    HW213086   2.962   0.817   3.021
 4063SOL     OW13087   2.875   5.085   6.081
 4063SOL    HW113088   2.803   5.029   6.120
 4063SOL    HW213089   2.849   5.181   6.085
 4064SOL     OW13090   6.575   1.102   3.545
 4064SOL    HW113091   6.568   1.196   3.577
 4064SOL    HW213092   6.574   1.040   3.624
 4065SOL     OW13093   6.720   6.900   0.204
 4065SOL    HW113094   6.746   6.896   0.301
 4065SOL    HW213095   6.802   6.896   0.147
 4066SOL     OW13096   6.018   4.455   1.552
 4066SOL    HW113097   5.989   4.360   1.542
 4066SOL    HW213098   6.108   4.467   1.511
 4067SOL     OW13099   6.137   1.508   2.660
 4067SOL    HW113100   6.162   1.601   2.687
 4067SOL    HW213101   6.065   1.512   2.591
 4068SOL     OW13102   6.003   0.313   3.736
 4068SOL    HW113103   5.999   0.412   3.750
 4068SOL    HW213104   5.911   0.275   3.746
 4069SOL     OW13105   5.473   5.139   1.032
 4069SOL    HW113106   5.512   5.201   1.100
 4069SOL    HW213107   5.505   5.046   1.049
 4070SOL     OW13108   1.695   3.920   3.736
 4070SOL    HW113109   1.752   3.925   3.654
 4070SOL    HW213110   1.729   3.984   3.805
 4071SOL     OW13111   1.081   0.129   3.923
 4071SOL    HW113112   1.024   0.209   3.935
 4071SOL    HW213113   1.171   0.157   3.887
 4072SOL     OW13114   1.613   7.012   4.988
 4072SOL    HW113115   1.579   6.928   4.947
 4072SOL    HW213116   1.712   7.007   4.998
 4073SOL     OW13117   2.280   5.947   0.196
 4073SOL    HW113118   2.354   5.952   0.129
 4073SOL    HW213119   2.216   5.874   0.170
 4074SOL     OW13120   1.372   2.802   0.792
 4074SOL    HW113121   1.373   2.899   0.816
 4074SOL    HW213122   1.466   2.770   0.779
 4075SOL     OW13123   4.691   1.803   3.246
 4075SOL    HW113124   4.753   1.823   3.321
 4075SOL    HW213125   4.743   1.787   3.162
 4076SOL     OW13126   1.783   3.569   4.345
 4076SOL    HW113127   1.708   3.615   4.297
 4076SOL    HW213128   1.862   3.562   4.284
 4077SOL     OW13129   3.785   1.150   1.098
 4077SOL    HW113130   3.728   1.111   1.025
 4077SOL    HW213131   3.775   1.249   1.098
 4078SOL     OW13132   6.323   3.823   1.276
 4078SOL    HW113133   6.279   3.782   1.356
 4078SOL    HW213134   6.383   3.897   1.306
 4079SOL     OW13135   0.365   0.819   3.708
 4079SOL    HW113136   0.308   0.796   3.786
 4079SOL    HW213137   0.315   0.882   3.648
 4080SOL     OW13138   3.328   3.764   1.914
 4080SOL    HW113139   3.415   3.746   1.868
 4080SOL    HW213140   3.258   3.702   1.879
 4081SOL     OW13141   1.938   2.054   5.635
 4081SOL    HW113142   1.906   2.109   5.712
 4081SOL    HW213143   2.034   2.030   5.648
 4082SOL     OW13144   1.362   2.763   4.665
 4082SOL    HW113145   1.381   2.665   4.658
 4082SOL    HW213146   1.363   2.803   4.574
 4083SOL     OW13147   5.333   5.190   2.760
 4083SOL    HW113148   5.248   5.178   2.708
 4083SOL    HW213149   5.400   5.237   2.704
 4084SOL     OW13150   4.420   0.865   3.523
 4084SOL    HW113151   4.434   0.804   3.445
 4084SOL    HW213152   4.333   0.914   3.511
 4085SOL     OW13153   3.041   5.228   1.980
 4085SOL    HW113154   2.980   5.170   2.034
 4085SOL    HW213155   2.991   5.262   1.899
 4086SOL     OW13156   6.320   5.471   5.895
 4086SOL    HW113157   6.239   5.414   5.913
 4086SOL    HW213158   6.373   5.430   5.821
 4087SOL     OW13159   2.929   0.110   2.475
 4087SOL    HW113160   2.842   0.061   2.467
 4087SOL    HW213161   2.990   0.059   2.536
 4088SOL     OW13162   0.408   1.570   5.677
 4088SOL    HW113163   0.412   1.669   5.686
 4088SOL    HW213164   0.493   1.537   5.637
 4089SOL     OW13165   0.303   0.146   3.849
 4089SOL    HW113166   0.216   0.114   3.812
 4089SOL    HW213167   0.315   0.243   3.827
 4090SOL     OW13168   2.914   0.430   5.914
 4090SOL    HW113169   2.817   0.442   5.892
 4090SOL    HW213170   2.966   0.415   5.830
 4091SOL     OW13171   2.010   5.646   1.425
 4091SOL    HW113172   1.931   5.593   1.397
 4091SOL    HW213173   1.988   5.698   1.508
 4092SOL     OW13174   4.921   3.232   3.931
 4092SOL    HW113175   4.920   3.188   4.021
 4092SOL    HW213176   4.871   3.319   3.937
 4093SOL     OW13177   4.007   5.334   3.043
 4093SOL    HW113178   3.993   5.411   2.980
 4093SOL    HW213179   4.102   5.304   3.038
 4094SOL     OW13180   6.701   5.862   6.682
 4094SOL    HW113181   6.680   5.880   6.586
 4094SOL    HW213182   6.769   5.789   6.688
 4095SOL     OW13183   0.492   4.978   6.960
 4095SOL    HW113184   0.592   4.978   6.955
 4095SOL    HW213185   0.459   5.070   6.979
 4096SOL     OW13186   1.686   1.778   6.535
 4096SOL    HW113187   1.619   1.704   6.539
 4096SOL    HW213188   1.643   1.863   6.564
 4097SOL     OW13189   0.076   4.680   4.818
 4097SOL    HW113190   0.062   4.679   4.917
 4097SOL    HW213191   0.171   4.659   4.797
 4098SOL     OW13192   2.071   4.823   3.253
 4098SOL    HW113193   1.972   4.829   3.262
 4098SOL    HW213194   2.097   4.846   3.159
 4099SOL     OW13195   4.621   4.630   5.982
 4099SOL    HW113196   4.714   4.644   6.017
 4099SOL    HW213197   4.572   4.716   5.982
 4100SOL     OW13198   1.222   0.213   3.700
 4100SOL    HW113199   1.220   0.131   3.642
 4100SOL    HW213200   1.154   0.278   3.666
 4101SOL     OW13201   6.150   0.284   0.519
 4101SOL    HW113202   6.153   0.321   0.612
 4101SOL    HW213203   6.195   0.349   0.457
 4102SOL     OW13204   1.311   0.953   0.168
 4102SOL    HW113205   1.367   0.922   0.244
 4102SOL    HW213206   1.369   0.975   0.090
 4103SOL     OW13207   1.411   6.658   2.550
 4103SOL    HW113208   1.369   6.729   2.607
 4103SOL    HW213209   1.345   6.626   2.482
 4104SOL     OW13210   0.535   5.893   4.325
 4104SOL    HW113211   0.633   5.898   4.309
 4104SOL    HW213212   0.487   5.956   4.263
 4105SOL     OW13213   4.904   1.149   1.131
 4105SOL    HW113214   4.854   1.115   1.210
 4105SOL    HW213215   4.854   1.124   1.047
 4106SOL     OW13216   0.080   2.414   3.763
 4106SOL    HW113217   0.047   2.482   3.697
 4106SOL    HW213218   0.016   2.338   3.766
 4107SOL     OW13219   0.152   6.523   6.573
 4107SOL    HW113220   0.118   6.611   6.604
 4107SOL    HW213221   0.098   6.450   6.614
 4108SOL     OW13222   6.415   5.335   3.965
 4108SOL    HW113223   6.434   5.379   4.052
 4108SOL    HW213224   6.495   5.342   3.906
 4109SOL     OW13225   6.021   6.671   2.863
 4109SOL    HW113226   6.097   6.660   2.928
 4109SOL    HW213227   5.968   6.586   2.859
 4110SOL     OW13228   4.460   4.048   0.229
 4110SOL    HW113229   4.420   3.988   0.160
 4110SOL    HW213230   4.493   4.131   0.184
 4111SOL     OW13231   6.566   4.036   3.904
 4111SOL    HW113232   6.564   4.134   3.922
 4111SOL    HW213233   6.559   3.986   3.991
 4112SOL     OW13234   4.921   6.617   5.402
 4112SOL    HW113235   4.982   6.653   5.472
 4112SOL    HW213236   4.837   6.671   5.399
 4113SOL     OW13237   4.165   4.801   4.834
 4113SOL    HW113238   4.130   4.735   4.900
 4113SOL    HW213239   4.264   4.813   4.847
 4114SOL     OW13240   0.281   1.473   2.142
 4114SOL    HW113241   0.238   1.424   2.066
 4114SOL    HW213242   0.373   1.501   2.116
 4115SOL     OW13243   3.806   4.923   4.295
 4115SOL    HW113244   3.725   4.959   4.341
 4115SOL    HW213245   3.792   4.925   4.196
 4116SOL     OW13246   5.647   2.693   3.389
 4116SOL    HW113247   5.570   2.725   3.333
 4116SOL    HW213248   5.624   2.703   3.486
 4117SOL     OW13249   1.224   2.262   3.050
 4117SOL    HW113250   1.126   2.246   3.043
 4117SOL    HW213251   1.273   2.185   3.008
 4118SOL     OW13252   0.021   6.519   6.076
 4118SOL    HW113253   0.060   6.541   6.165
 4118SOL    HW213254   6.994   6.597   6.042
 4119SOL     OW13255   2.178   1.487   3.720
 4119SOL    HW113256   2.167   1.442   3.808
 4119SOL    HW213257   2.137   1.431   3.648
 4120SOL     OW13258   1.861   1.127   6.477
 4120SOL    HW113259   1.770   1.145   6.515
 4120SOL    HW213260   1.927   1.118   6.551
 4121SOL     OW13261   6.582   6.812   1.635
 4121SOL    HW113262   6.667   6.761   1.644
 4121SOL    HW213263   6.591   6.880   1.562
 4122SOL     OW13264   6.550   4.998   4.138
 4122SOL    HW113265   6.621   4.959   4.079
 4122SOL    HW213266   6.577   5.091   4.165
 4123SOL     OW13267   3.929   5.041   2.376
 4123SOL    HW113268   3.907   5.077   2.467
 4123SOL    HW213269   3.983   4.958   2.385
 4124SOL     OW13270   6.889   5.696   0.169
 4124SOL    HW113271   6.950   5.745   0.106
 4124SOL    HW213272   6.794   5.720   0.148
 4125SOL     OW13273   5.563   1.696   1.992
 4125SOL    HW113274   5.650   1.746   1.987
 4125SOL    HW213275   5.564   1.622   1.926
 4126SOL     OW13276   1.427   3.566   2.442
 4126SOL    HW113277   1.365   3.492   2.469
 4126SOL    HW213278   1.374   3.650   2.426
 4127SOL     OW13279   3.929   1.748   3.975
 4127SOL    HW113280   3.918   1.847   3.989
 4127SOL    HW213281   3.966   1.731   3.884
 4128SOL     OW13282   7.018   3.271   0.725
 4128SOL    HW113283   0.071   3.324   0.756
 4128SOL    HW213284   6.999   3.198   0.790
 4129SOL     OW13285   2.270   2.490   0.489
 4129SOL    HW113286   2.291   2.582   0.522
 4129SOL    HW213287   2.291   2.483   0.392
 4130SOL     OW13288   5.309   2.869   1.270
 4130SOL    HW113289   5.334   2.778   1.303
 4130SOL    HW213290   5.357   2.888   1.185
 4131SOL     OW13291   4.640   0.589   2.846
 4131SOL    HW113292   4.572   0.660   2.826
 4131SOL    HW213293   4.594   0.510   2.887
 4132SOL     OW13294   6.822   4.367   3.972
 4132SOL    HW113295   6.901   4.413   4.013
 4132SOL    HW213296   6.851   4.311   3.895
 4133SOL     OW13297   5.761   0.289   2.554
 4133SOL    HW113298   5.750   0.309   2.651
 4133SOL    HW213299   5.708   0.355   2.500
 4134SOL     OW13300   1.969   3.146   0.873
 4134SOL    HW113301   2.060   3.107   0.891
 4134SOL    HW213302   1.958   3.160   0.775
 4135SOL     OW13303   0.153   1.569   2.564
 4135SOL    HW113304   0.181   1.649   2.510
 4135SOL    HW213305   0.132   1.493   2.503
 4136SOL     OW13306   1.664   4.669   1.857
 4136SOL    HW113307   1.682   4.767   1.855
 4136SOL    HW213308   1.750   4.619   1.839
 4137SOL     OW13309   2.023   2.395   0.125
 4137SOL    HW113310   2.112   2.433   0.148
 4137SOL    HW213311   1.975   2.369   0.209
 4138SOL     OW13312   4.886   6.565   0.553
 4138SOL    HW113313   4.982   6.545   0.568
 4138SOL    HW213314   4.874   6.663   0.537
 4139SOL     OW13315   1.941   2.775   2.674
 4139SOL    HW113316   1.976   2.789   2.581
 4139SOL    HW213317   1.930   2.863   2.720
 4140SOL     OW13318   2.441   2.484   5.538
 4140SOL    HW113319   2.351   2.521   5.561
 4140SOL    HW213320   2.475   2.428   5.614
 4141SOL     OW13321   4.882   6.764   6.598
 4141SOL    HW113322   4.872   6.766   6.697
 4141SOL    HW213323   4.912   6.854   6.565
 4142SOL     OW13324   6.887   4.457   3.053
 4142SOL    HW113325   6.789   4.473   3.066
 4142SOL    HW213326   6.914   4.376   3.105
 4143SOL     OW13327   5.912   3.034   0.353
 4143SOL    HW113328   5.849   3.008   0.280
 4143SOL    HW213329   5.988   2.969   0.356
 4144SOL     OW13330   5.710   2.209   0.907
 4144SOL    HW113331   5.756   2.289   0.944
 4144SOL    HW213332   5.644   2.175   0.974
 4145SOL     OW13333   0.237   7.014   1.666
 4145SOL    HW113334   0.299   0.067   1.656
 4145SOL    HW213335   0.259   6.945   1.598
 4146SOL     OW13336   5.256   6.577   3.348
 4146SOL    HW113337   5.222   6.671   3.343
 4146SOL    HW213338   5.183   6.514   3.323
 4147SOL     OW13339   5.064   4.138   5.911
 4147SOL    HW113340   5.056   4.231   5.874
 4147SOL    HW213341   5.004   4.129   5.991
 4148SOL     OW13342   3.133   1.144   5.947
 4148SOL    HW113343   3.069   1.217   5.971
 4148SOL    HW213344   3.120   1.067   6.010
 4149SOL     OW13345   2.032   2.691   0.251
 4149SOL    HW113346   2.049   2.762   0.183
 4149SOL    HW213347   2.109   2.627   0.254
 4150SOL     OW13348   5.863   2.143   5.840
 4150SOL    HW113349   5.946   2.163   5.892
 4150SOL    HW213350   5.786   2.190   5.882
 4151SOL     OW13351   2.401   6.604   4.321
 4151SOL    HW113352   2.324   6.541   4.327
 4151SOL    HW213353   2.478   6.558   4.277
 4152SOL     OW13354   3.019   5.077   1.178
 4152SOL    HW113355   2.959   5.028   1.115
 4152SOL    HW213356   3.003   5.044   1.271
 4153SOL     OW13357   6.712   5.041   1.470
 4153SOL    HW113358   6.800   5.071   1.432
 4153SOL    HW213359   6.727   4.959   1.526
 4154SOL     OW13360   1.183   6.111   4.388
 4154SOL    HW113361   1.263   6.057   4.364
 4154SOL    HW213362   1.121   6.056   4.445
 4155SOL     OW13363   0.706   2.154   1.492
 4155SOL    HW113364   0.694   2.081   1.425
 4155SOL    HW213365   0.800   2.153   1.526
 4156SOL     OW13366   6.726   5.112   5.210
 4156SOL    HW113367   6.795   5.185   5.205
 4156SOL    HW213368   6.643   5.140   5.162
 4157SOL     OW13369   6.617   6.146   2.174
 4157SOL    HW113370   6.596   6.190   2.262
 4157SOL    HW213371   6.715   6.152   2.156
 4158SOL     OW13372   1.273   2.890   2.353
 4158SOL    HW113373   1.338   2.816   2.367
 4158SOL    HW213374   1.181   2.852   2.341
 4159SOL     OW13375   3.097   1.373   3.853
 4159SOL    HW113376   3.007   1.334   3.873
 4159SOL    HW213377   3.156   1.362   3.933
 4160SOL     OW13378   6.512   0.020   6.376
 4160SOL    HW113379   6.432   0.028   6.316
 4160SOL    HW213380   6.486   6.999   6.460
 4161SOL     OW13381   3.067   2.441   1.379
 4161SOL    HW113382   3.159   2.478   1.370
 4161SOL    HW213383   3.014   2.498   1.441
 4162SOL     OW13384   5.908   5.941   1.479
 4162SOL    HW113385   5.940   6.026   1.523
 4162SOL    HW213386   5.808   5.939   1.482
 4163SOL     OW13387   3.828   6.632   1.353
 4163SOL    HW113388   3.774   6.577   1.289
 4163SOL    HW213389   3.827   6.728   1.324
 4164SOL     OW13390   6.730   0.041   4.758
 4164SOL    HW113391   6.731   0.081   4.850
 4164SOL    HW213392   6.811   7.009   4.747
 4165SOL     OW13393   4.783   1.291   5.395
 4165SOL    HW113394   4.717   1.322   5.463
 4165SOL    HW213395   4.781   1.350   5.315
 4166SOL     OW13396   6.088   0.919   2.231
 4166SOL    HW113397   6.079   0.981   2.309
 4166SOL    HW213398   6.180   0.880   2.230
 4167SOL     OW13399   4.206   5.233   5.632
 4167SOL    HW113400   4.287   5.183   5.663
 4167SOL    HW213401   4.142   5.170   5.588
 4168SOL     OW13402   5.151   4.334   6.827
 4168SOL    HW113403   5.159   4.255   6.765
 4168SOL    HW213404   5.122   4.414   6.774
 4169SOL     OW13405   4.946   3.802   5.148
 4169SOL    HW113406   4.928   3.705   5.132
 4169SOL    HW213407   4.948   3.850   5.061
 4170SOL     OW13408   6.144   3.806   4.579
 4170SOL    HW113409   6.139   3.905   4.590
 4170SOL    HW213410   6.052   3.769   4.562
 4171SOL     OW13411   0.999   3.635   0.834
 4171SOL    HW113412   0.932   3.668   0.767
 4171SOL    HW213413   1.039   3.713   0.883
 4172SOL     OW13414   2.612   4.183   0.705
 4172SOL    HW113415   2.572   4.244   0.773
 4172SOL    HW213416   2.548   4.170   0.630
 4173SOL     OW13417   4.957   2.826   5.091
 4173SOL    HW113418   4.887   2.775   5.042
 4173SOL    HW213419   4.991   2.900   5.032
 4174SOL     OW13420   4.236   0.514   4.326
 4174SOL    HW113421   4.316   0.466   4.291
 4174SOL    HW213422   4.174   0.535   4.250
 4175SOL     OW13423   1.825   4.577   6.458
 4175SOL    HW113424   1.803   4.549   6.551
 4175SOL    HW213425   1.841   4.496   6.402
 4176SOL     OW13426   5.029   6.569   6.468
 4176SOL    HW113427   5.031   6.644   6.534
 4176SOL    HW213428   5.122   6.540   6.447
 4177SOL     OW13429   4.541   4.445   3.528
 4177SOL    HW113430   4.506   4.403   3.444
 4177SOL    HW213431   4.515   4.542   3.530
 4178SOL     OW13432   3.627   5.778   2.229
 4178SOL    HW113433   3.558   5.713   2.263
 4178SOL    HW213434   3.619   5.786   2.130
 4179SOL     OW13435   4.855   3.243   4.485
 4179SOL    HW113436   4.872   3.267   4.581
 4179SOL    HW213437   4.919   3.292   4.426
 4180SOL     OW13438   5.151   3.480   0.023
 4180SOL    HW113439   5.237   3.463   0.072
 4180SOL    HW213440   5.098   3.396   0.019
 4181SOL     OW13441   5.056   0.013   5.535
 4181SOL    HW113442   5.026   6.998   5.448
 4181SOL    HW213443   5.052   6.969   5.607
 4182SOL     OW13444   6.895   6.365   4.132
 4182SOL    HW113445   6.810   6.316   4.116
 4182SOL    HW213446   6.876   6.457   4.167
 4183SOL     OW13447   3.076   1.531   1.885
 4183SOL    HW113448   3.144   1.499   1.951
 4183SOL    HW213449   3.001   1.465   1.880
 4184SOL     OW13450   3.085   5.863   3.640
 4184SOL    HW113451   3.097   5.958   3.668
 4184SOL    HW213452   3.018   5.858   3.566
 4185SOL     OW13453   6.323   3.691   3.515
 4185SOL    HW113454   6.324   3.643   3.427
 4185SOL    HW213455   6.413   3.682   3.557
 4186SOL     OW13456   1.337   6.014   0.261
 4186SOL    HW113457   1.393   5.933   0.278
 4186SOL    HW213458   1.393   6.085   0.218
 4187SOL     OW13459   1.677   3.557   6.949
 4187SOL    HW113460   1.656   3.653   6.968
 4187SOL    HW213461   1.596   3.501   6.971
 4188SOL     OW13462   4.715   0.160   6.666
 4188SOL    HW113463   4.683   0.082   6.721
 4188SOL    HW213464   4.801   0.193   6.703
 4189SOL     OW13465   4.679   5.768   2.986
 4189SOL    HW113466   4.671   5.762   3.086
 4189SOL    HW213467   4.769   5.736   2.958
 4190SOL     OW13468   0.371   0.188   1.050
 4190SOL    HW113469   0.343   0.097   1.020
 4190SOL    HW213470   0.337   0.256   0.985
 4191SOL     OW13471   4.444   4.458   6.123
 4191SOL    HW113472   4.377   4.417   6.061
 4191SOL    HW213473   4.517   4.501   6.070
 4192SOL     OW13474   1.469   2.426   2.116
 4192SOL    HW113475   1.540   2.400   2.052
 4192SOL    HW213476   1.379   2.406   2.077
 4193SOL     OW13477   6.591   0.608   1.088
 4193SOL    HW113478   6.597   0.612   1.187
 4193SOL    HW213479   6.501   0.640   1.058
 4194SOL     OW13480   4.544   0.979   5.526
 4194SOL    HW113481   4.641   0.978   5.501
 4194SOL    HW213482   4.503   0.891   5.502
 4195SOL     OW13483   4.610   5.945   1.739
 4195SOL    HW113484   4.642   5.967   1.646
 4195SOL    HW213485   4.687   5.952   1.803
 4196SOL     OW13486   6.922   2.250   3.138
 4196SOL    HW113487   6.964   2.282   3.223
 4196SOL    HW213488   6.974   2.286   3.060
 4197SOL     OW13489   3.526   6.655   6.391
 4197SOL    HW113490   3.501   6.609   6.306
 4197SOL    HW213491   3.445   6.665   6.449
 4198SOL     OW13492   6.659   0.785   2.273
 4198SOL    HW113493   6.641   0.794   2.371
 4198SOL    HW213494   6.657   0.876   2.231
 4199SOL     OW13495   1.287   4.086   6.251
 4199SOL    HW113496   1.293   4.183   6.275
 4199SOL    HW213497   1.371   4.058   6.204
 4200SOL     OW13498   4.731   0.582   4.737
 4200SOL    HW113499   4.732   0.507   4.671
 4200SOL    HW213500   4.732   0.669   4.689
 4201SOL     OW13501   5.680   0.339   3.762
 4201SOL    HW113502   5.667   0.264   3.826
 4201SOL    HW213503   5.662   0.308   3.669
 4202SOL     OW13504   4.251   5.670   0.318
 4202SOL    HW113505   4.263   5.662   0.417
 4202SOL    HW213506   4.214   5.583   0.282
 4203SOL     OW13507   5.903   5.523   0.082
 4203SOL    HW113508   5.821   5.571   0.114
 4203SOL    HW213509   5.922   5.549   7.013
 4204SOL     OW13510   3.379   3.662   5.842
 4204SOL    HW113511   3.314   3.590   5.820
 4204SOL    HW213512   3.396   3.664   5.940
 4205SOL     OW13513   3.668   5.556   5.292
 4205SOL    HW113514   3.691   5.506   5.209
 4205SOL    HW213515   3.617   5.497   5.355
 4206SOL     OW13516   1.966   1.992   4.868
 4206SOL    HW113517   1.880   2.009   4.917
 4206SOL    HW213518   1.989   1.895   4.874
 4207SOL     OW13519   2.019   2.274   1.615
 4207SOL    HW113520   1.974   2.185   1.620
 4207SOL    HW213521   2.095   2.269   1.551
 4208SOL     OW13522   1.790   3.886   4.849
 4208SOL    HW113523   1.879   3.878   4.895
 4208SOL    HW213524   1.795   3.841   4.760
 4209SOL     OW13525   0.396   5.993   2.965
 4209SOL    HW113526   0.439   6.010   3.054
 4209SOL    HW213527   0.309   6.042   2.961
 4210SOL     OW13528   4.140   3.407   4.706
 4210SOL    HW113529   4.114   3.324   4.755
 4210SOL    HW213530   4.155   3.386   4.610
 4211SOL     OW13531   3.635   2.155   5.316
 4211SOL    HW113532   3.573   2.225   5.350
 4211SOL    HW213533   3.585   2.068   5.306
 4212SOL     OW13534   6.724   1.551   3.388
 4212SOL    HW113535   6.765   1.631   3.431
 4212SOL    HW213536   6.762   1.468   3.429
 4213SOL     OW13537   3.283   0.649   3.041
 4213SOL    HW113538   3.226   0.605   2.971
 4213SOL    HW213539   3.379   0.635   3.019
 4214SOL     OW13540   0.888   5.087   4.310
 4214SOL    HW113541   0.983   5.088   4.279
 4214SOL    HW213542   0.845   5.175   4.288
 4215SOL     OW13543   4.704   6.360   5.006
 4215SOL    HW113544   4.627   6.305   4.974
 4215SOL    HW213545   4.770   6.301   5.051
 4216SOL     OW13546   2.252   0.172   2.554
 4216SOL    HW113547   2.168   0.167   2.607
 4216SOL    HW213548   2.325   0.209   2.610
 4217SOL     OW13549   1.103   0.595   2.057
 4217SOL    HW113550   1.195   0.619   2.088
 4217SOL    HW213551   1.096   0.496   2.046
 4218SOL     OW13552   3.300   1.449   1.232
 4218SOL    HW113553   3.336   1.370   1.181
 4218SOL    HW213554   3.374   1.490   1.286
 4219SOL     OW13555   3.980   6.467   4.096
 4219SOL    HW113556   3.949   6.372   4.105
 4219SOL    HW213557   3.936   6.523   4.166
 4220SOL     OW13558   4.668   2.254   1.652
 4220SOL    HW113559   4.755   2.265   1.699
 4220SOL    HW213560   4.652   2.157   1.633
 4221SOL     OW13561   6.416   5.620   6.323
 4221SOL    HW113562   6.318   5.607   6.312
 4221SOL    HW213563   6.445   5.585   6.412
 4222SOL     OW13564   5.251   1.901   3.658
 4222SOL    HW113565   5.315   1.932   3.728
 4222SOL    HW213566   5.301   1.874   3.576
 4223SOL     OW13567   3.904   4.261   1.643
 4223SOL    HW113568   4.000   4.250   1.671
 4223SOL    HW213569   3.876   4.356   1.655
 4224SOL     OW13570   4.953   4.187   4.872
 4224SOL    HW113571   5.034   4.130   4.856
 4224SOL    HW213572   4.967   4.241   4.954
 4225SOL     OW13573   0.881   2.280   5.242
 4225SOL    HW113574   0.920   2.372   5.242
 4225SOL    HW213575   0.786   2.284   5.211
 4226SOL     OW13576   0.988   5.644   4.609
 4226SOL    HW113577   0.937   5.723   4.643
 4226SOL    HW213578   0.950   5.560   4.648
 4227SOL     OW13579   5.068   6.010   1.913
 4227SOL    HW113580   5.128   6.079   1.954
 4227SOL    HW213581   5.121   5.928   1.892
 4228SOL     OW13582   1.164   5.843   4.560
 4228SOL    HW113583   1.101   5.767   4.574
 4228SOL    HW213584   1.131   5.923   4.610
 4229SOL     OW13585   5.760   5.204   6.411
 4229SOL    HW113586   5.824   5.191   6.487
 4229SOL    HW213587   5.812   5.225   6.327
 4230SOL     OW13588   1.552   0.258   2.571
 4230SOL    HW113589   1.646   0.234   2.595
 4230SOL    HW213590   1.516   0.189   2.507
 4231SOL     OW13591   5.517   0.813   5.563
 4231SOL    HW113592   5.422   0.784   5.558
 4231SOL    HW213593   5.575   0.733   5.581
 4232SOL     OW13594   2.089   5.338   3.643
 4232SOL    HW113595   2.033   5.414   3.610
 4232SOL    HW213596   2.130   5.363   3.731
 4233SOL     OW13597   5.832   6.354   3.803
 4233SOL    HW113598   5.778   6.413   3.864
 4233SOL    HW213599   5.929   6.368   3.820
 4234SOL     OW13600   2.131   5.545   5.549
 4234SOL    HW113601   2.188   5.490   5.609
 4234SOL    HW213602   2.180   5.627   5.522
 4235SOL     OW13603   6.593   4.575   5.662
 4235SOL    HW113604   6.515   4.544   5.717
 4235SOL    HW213605   6.589   4.533   5.572
 4236SOL     OW13606   0.511   5.201   2.386
 4236SOL    HW113607   0.568   5.248   2.319
 4236SOL    HW213608   0.549   5.213   2.477
 4237SOL     OW13609   6.534   3.862   4.125
 4237SOL    HW113610   6.622   3.892   4.163
 4237SOL    HW213611   6.530   3.762   4.126
 4238SOL     OW13612   1.664   0.865   3.017
 4238SOL    HW113613   1.642   0.929   2.943
 4238SOL    HW213614   1.598   0.876   3.092
 4239SOL     OW13615   4.216   1.027   3.138
 4239SOL    HW113616   4.300   1.073   3.110
 4239SOL    HW213617   4.137   1.078   3.103
 4240SOL     OW13618   1.298   5.201   0.624
 4240SOL    HW113619   1.350   5.170   0.545
 4240SOL    HW213620   1.202   5.179   0.612
 4241SOL     OW13621   0.019   2.006   0.437
 4241SOL    HW113622   0.047   1.944   0.364
 4241SOL    HW213623   6.963   1.970   0.482
 4242SOL     OW13624   2.621   2.055   4.420
 4242SOL    HW113625   2.532   2.052   4.465
 4242SOL    HW213626   2.663   2.145   4.433
 4243SOL     OW13627   5.108   0.762   2.888
 4243SOL    HW113628   5.070   0.854   2.900
 4243SOL    HW213629   5.034   0.698   2.870
 4244SOL     OW13630   3.712   3.662   2.137
 4244SOL    HW113631   3.621   3.652   2.178
 4244SOL    HW213632   3.705   3.659   2.037
 4245SOL     OW13633   0.164   1.925   5.846
 4245SOL    HW113634   0.071   1.905   5.812
 4245SOL    HW213635   0.183   2.023   5.833
 4246SOL     OW13636   6.366   3.608   3.179
 4246SOL    HW113637   6.334   3.525   3.133
 4246SOL    HW213638   6.331   3.688   3.131
 4247SOL     OW13639   6.952   6.191   4.878
 4247SOL    HW113640   7.020   6.259   4.851
 4247SOL    HW213641   6.997   6.105   4.901
 4248SOL     OW13642   1.579   2.429   5.713
 4248SOL    HW113643   1.540   2.433   5.621
 4248SOL    HW213644   1.678   2.419   5.708
 4249SOL     OW13645   6.541   3.108   5.608
 4249SOL    HW113646   6.501   3.179   5.549
 4249SOL    HW213647   6.603   3.151   5.673
 4250SOL     OW13648   6.827   5.054   3.667
 4250SOL    HW113649   6.895   4.982   3.653
 4250SOL    HW213650   6.809   5.100   3.581
 4251SOL     OW13651   5.638   4.043   0.492
 4251SOL    HW113652   5.630   3.996   0.580
 4251SOL    HW213653   5.734   4.048   0.465
 4252SOL     OW13654   6.570   5.933   5.016
 4252SOL    HW113655   6.596   5.845   5.056
 4252SOL    HW213656   6.581   6.005   5.085
 4253SOL     OW13657   4.602   0.983   1.507
 4253SOL    HW113658   4.569   1.077   1.497
 4253SOL    HW213659   4.587   0.952   1.601
 4254SOL     OW13660   1.660   3.169   1.400
 4254SOL    HW113661   1.583   3.214   1.445
 4254SOL    HW213662   1.675   3.210   1.310
 4255SOL     OW13663   5.873   2.631   3.763
 4255SOL    HW113664   5.885   2.587   3.674
 4255SOL    HW213665   5.926   2.582   3.832
 4256SOL     OW13666   1.382   6.857   1.447
 4256SOL    HW113667   1.294   6.872   1.491
 4256SOL    HW213668   1.452   6.913   1.491
 4257SOL     OW13669   3.111   1.658   5.240
 4257SOL    HW113670   3.109   1.591   5.314
 4257SOL    HW213671   3.204   1.664   5.203
 4258SOL     OW13672   5.758   6.754   2.263
 4258SOL    HW113673   5.721   6.827   2.320
 4258SOL    HW213674   5.808   6.689   2.320
 4259SOL     OW13675   2.529   1.520   6.805
 4259SOL    HW113676   2.484   1.497   6.892
 4259SOL    HW213677   2.468   1.579   6.751
 4260SOL     OW13678   4.207   5.779   3.555
 4260SOL    HW113679   4.140   5.830   3.501
 4260SOL    HW213680   4.299   5.800   3.522
 4261SOL     OW13681   2.493   6.657   1.695
 4261SOL    HW113682   2.427   6.730   1.713
 4261SOL    HW213683   2.455   6.570   1.728
 4262SOL     OW13684   1.844   4.998   5.880
 4262SOL    HW113685   1.840   5.014   5.782
 4262SOL    HW213686   1.782   4.924   5.904
 4263SOL     OW13687   2.303   6.135   4.712
 4263SOL    HW113688   2.216   6.119   4.760
 4263SOL    HW213689   2.347   6.048   4.694
 4264SOL     OW13690   6.781   1.984   0.521
 4264SOL    HW113691   6.767   2.034   0.435
 4264SOL    HW213692   6.726   2.025   0.593
 4265SOL     OW13693   6.413   2.111   0.239
 4265SOL    HW113694   6.432   2.112   0.140
 4265SOL    HW213695   6.426   2.019   0.274
 4266SOL     OW13696   2.857   5.803   0.107
 4266SOL    HW113697   2.942   5.854   0.097
 4266SOL    HW213698   2.866   5.738   0.183
 4267SOL     OW13699   2.059   3.835   4.949
 4267SOL    HW113700   2.111   3.919   4.934
 4267SOL    HW213701   2.104   3.780   5.021
 4268SOL     OW13702   1.446   6.477   0.371
 4268SOL    HW113703   1.398   6.552   0.417
 4268SOL    HW213704   1.520   6.515   0.315
 4269SOL     OW13705   2.705   2.462   0.133
 4269SOL    HW113706   2.611   2.427   0.138
 4269SOL    HW213707   2.714   2.542   0.192
 4270SOL     OW13708   3.564   3.100   4.408
 4270SOL    HW113709   3.634   3.041   4.368
 4270SOL    HW213710   3.554   3.182   4.352
 4271SOL     OW13711   0.222   0.131   5.484
 4271SOL    HW113712   0.262   0.171   5.566
 4271SOL    HW213713   0.293   0.117   5.415
 4272SOL     OW13714   0.059   5.109   5.081
 4272SOL    HW113715   0.147   5.088   5.039
 4272SOL    HW213716   0.009   5.024   5.097
 4273SOL     OW13717   4.506   6.319   4.763
 4273SOL    HW113718   4.407   6.324   4.753
 4273SOL    HW213719   4.535   6.223   4.756
 4274SOL     OW13720   1.198   6.669   3.394
 4274SOL    HW113721   1.238   6.659   3.303
 4274SOL    HW213722   1.135   6.748   3.394
 4275SOL     OW13723   0.110   0.799   5.926
 4275SOL    HW113724   0.055   0.880   5.943
 4275SOL    HW213725   0.053   0.717   5.936
 4276SOL     OW13726   1.738   5.080   2.697
 4276SOL    HW113727   1.743   5.016   2.621
 4276SOL    HW213728   1.647   5.074   2.739
 4277SOL     OW13729   6.847   4.862   4.082
 4277SOL    HW113730   6.865   4.859   4.180
 4277SOL    HW213731   6.896   4.938   4.041
 4278SOL     OW13732   6.876   6.519   5.054
 4278SOL    HW113733   6.801   6.503   4.989
 4278SOL    HW213734   6.840   6.564   5.136
 4279SOL     OW13735   3.652   6.603   5.370
 4279SOL    HW113736   3.709   6.678   5.406
 4279SOL    HW213737   3.566   6.600   5.421
 4280SOL     OW13738   6.379   1.427   5.173
 4280SOL    HW113739   6.339   1.393   5.258
 4280SOL    HW213740   6.332   1.384   5.095
 4281SOL     OW13741   1.740   4.689   4.644
 4281SOL    HW113742   1.656   4.711   4.594
 4281SOL    HW213743   1.813   4.750   4.614
 4282SOL     OW13744   2.823   2.633   6.977
 4282SOL    HW113745   2.839   2.728   7.003
 4282SOL    HW213746   2.759   2.591   0.015
 4283SOL     OW13747   1.534   0.221   3.706
 4283SOL    HW113748   1.551   0.285   3.781
 4283SOL    HW213749   1.436   0.202   3.700
 4284SOL     OW13750   5.507   0.182   2.675
 4284SOL    HW113751   5.513   0.257   2.740
 4284SOL    HW213752   5.599   0.160   2.641
 4285SOL     OW13753   0.124   6.959   5.872
 4285SOL    HW113754   0.075   6.893   5.929
 4285SOL    HW213755   0.142   0.016   5.925
 4286SOL     OW13756   4.765   5.569   6.940
 4286SOL    HW113757   4.795   5.475   6.958
 4286SOL    HW213758   4.692   5.593   7.004
 4287SOL     OW13759   5.811   6.985   4.922
 4287SOL    HW113760   5.903   7.022   4.936
 4287SOL    HW213761   5.755   7.000   5.004
 4288SOL     OW13762   0.582   6.908   3.939
 4288SOL    HW113763   0.499   6.862   3.973
 4288SOL    HW213764   0.591   6.891   3.841
 4289SOL     OW13765   5.233   2.217   1.882
 4289SOL    HW113766   5.314   2.168   1.851
 4289SOL    HW213767   5.155   2.153   1.887
 4290SOL     OW13768   2.299   6.839   1.703
 4290SOL    HW113769   2.226   6.814   1.767
 4290SOL    HW213770   2.265   6.910   1.641
 4291SOL     OW13771   5.076   3.001   1.048
 4291SOL    HW113772   5.053   3.097   1.035
 4291SOL    HW213773   5.014   2.961   1.116
 4292SOL     OW13774   6.532   4.430   5.356
 4292SOL    HW113775   6.628   4.449   5.377
 4292SOL    HW213776   6.514   4.449   5.260
 4293SOL     OW13777   0.118   3.679   6.431
 4293SOL    HW113778   0.095   3.583   6.448
 4293SOL    HW213779   0.110   3.698   6.333
 4294SOL     OW13780   4.100   2.612   7.014
 4294SOL    HW113781   4.032   2.677   6.979
 4294SOL    HW213782   4.187   2.658   7.026
 4295SOL     OW13783   3.359   0.186   4.686
 4295SOL    HW113784   3.401   0.266   4.730
 4295SOL    HW213785   3.409   0.104   4.712
 4296SOL     OW13786   2.729   2.170   0.287
 4296SOL    HW113787   2.771   2.187   0.198
 4296SOL    HW213788   2.742   2.074   0.312
 4297SOL     OW13789   4.635   6.591   5.111
 4297SOL    HW113790   4.644   6.497   5.077
 4297SOL    HW213791   4.586   6.646   5.044
 4298SOL     OW13792   1.377   5.699   0.931
 4298SOL    HW113793   1.436   5.712   0.851
 4298SOL    HW213794   1.384   5.779   0.991
 4299SOL     OW13795   1.245   3.484   5.995
 4299SOL    HW113796   1.188   3.425   5.939
 4299SOL    HW213797   1.196   3.569   6.015
 4300SOL     OW13798   2.805   1.115   6.223
 4300SOL    HW113799   2.749   1.112   6.306
 4300SOL    HW213800   2.850   1.026   6.210
 4301SOL     OW13801   2.345   1.872   0.447
 4301SOL    HW113802   2.361   1.799   0.381
 4301SOL    HW213803   2.346   1.960   0.401
 4302SOL     OW13804   1.459   5.827   6.031
 4302SOL    HW113805   1.463   5.768   6.112
 4302SOL    HW213806   1.405   5.909   6.052
 4303SOL     OW13807   6.206   3.993   3.269
 4303SOL    HW113808   6.301   3.978   3.241
 4303SOL    HW213809   6.145   3.977   3.190
 4304SOL     OW13810   3.332   3.725   4.381
 4304SOL    HW113811   3.328   3.691   4.475
 4304SOL    HW213812   3.260   3.793   4.367
 4305SOL     OW13813   6.176   1.332   3.253
 4305SOL    HW113814   6.268   1.309   3.222
 4305SOL    HW213815   6.123   1.248   3.265
 4306SOL     OW13816   0.129   3.987   6.323
 4306SOL    HW113817   0.165   4.029   6.240
 4306SOL    HW213818   0.195   3.998   6.397
 4307SOL     OW13819   4.838   3.985   5.606
 4307SOL    HW113820   4.741   3.965   5.590
 4307SOL    HW213821   4.870   3.933   5.685
 4308SOL     OW13822   4.675   5.817   5.632
 4308SOL    HW113823   4.590   5.778   5.669
 4308SOL    HW213824   4.701   5.896   5.686
 4309SOL     OW13825   1.278   0.630   0.364
 4309SOL    HW113826   1.265   0.544   0.413
 4309SOL    HW213827   1.190   0.673   0.348
 4310SOL     OW13828   2.003   2.791   3.499
 4310SOL    HW113829   2.013   2.765   3.594
 4310SOL    HW213830   1.908   2.781   3.471
 4311SOL     OW13831   1.229   6.044   2.977
 4311SOL    HW113832   1.142   6.091   2.989
 4311SOL    HW213833   1.303   6.100   3.015
 4312SOL     OW13834   1.514   5.243   2.029
 4312SOL    HW113835   1.456   5.281   2.101
 4312SOL    HW213836   1.514   5.303   1.950
 4313SOL     OW13837   5.775   1.275   1.534
 4313SOL    HW113838   5.743   1.224   1.454
 4313SOL    HW213839   5.874   1.286   1.529
 4314SOL     OW13840   4.699   2.819   2.710
 4314SOL    HW113841   4.737   2.789   2.797
 4314SOL    HW213842   4.635   2.750   2.676
 4315SOL     OW13843   2.709   0.744   2.167
 4315SOL    HW113844   2.760   0.819   2.211
 4315SOL    HW213845   2.634   0.782   2.113
 4316SOL     OW13846   4.770   6.721   1.038
 4316SOL    HW113847   4.840   6.790   1.056
 4316SOL    HW213848   4.689   6.764   0.998
 4317SOL     OW13849   3.368   1.237   5.482
 4317SOL    HW113850   3.444   1.172   5.480
 4317SOL    HW213851   3.308   1.215   5.559
 4318SOL     OW13852   0.928   3.803   3.986
 4318SOL    HW113853   1.025   3.800   4.011
 4318SOL    HW213854   0.872   3.791   4.068
 4319SOL     OW13855   2.504   3.600   6.747
 4319SOL    HW113856   2.486   3.693   6.715
 4319SOL    HW213857   2.427   3.569   6.803
 4320SOL     OW13858   1.499   6.356   2.471
 4320SOL    HW113859   1.480   6.451   2.496
 4320SOL    HW213860   1.424   6.298   2.501
 4321SOL     OW13861   6.156   0.720   4.728
 4321SOL    HW113862   6.154   0.820   4.731
 4321SOL    HW213863   6.166   0.689   4.634
 4322SOL     OW13864   6.817   1.183   6.438
 4322SOL    HW113865   6.840   1.280   6.424
 4322SOL    HW213866   6.876   1.144   6.508
 4323SOL     OW13867   5.589   2.814   2.006
 4323SOL    HW113868   5.575   2.841   2.101
 4323SOL    HW213869   5.668   2.863   1.968
 4324SOL     OW13870   5.892   4.040   6.242
 4324SOL    HW113871   5.971   4.090   6.278
 4324SOL    HW213872   5.891   4.045   6.143
 4325SOL     OW13873   2.155   0.503   0.203
 4325SOL    HW113874   2.170   0.525   0.107
 4325SOL    HW213875   2.199   0.415   0.225
 4326SOL     OW13876   6.585   3.244   5.019
 4326SOL    HW113877   6.672   3.208   5.053
 4326SOL    HW213878   6.525   3.168   4.995
 4327SOL     OW13879   5.304   5.243   2.192
 4327SOL    HW113880   5.337   5.185   2.266
 4327SOL    HW213881   5.212   5.276   2.214
 4328SOL     OW13882   4.531   4.885   5.974
 4328SOL    HW113883   4.481   4.961   6.016
 4328SOL    HW213884   4.586   4.920   5.898
 4329SOL     OW13885   3.404   1.619   6.055
 4329SOL    HW113886   3.503   1.626   6.051
 4329SOL    HW213887   3.378   1.527   6.086
 4330SOL     OW13888   2.698   0.240   5.740
 4330SOL    HW113889   2.792   0.225   5.711
 4330SOL    HW213890   2.649   0.289   5.668
 4331SOL     OW13891   5.161   3.251   0.414
 4331SOL    HW113892   5.068   3.281   0.392
 4331SOL    HW213893   5.157   3.173   0.477
 4332SOL     OW13894   5.199   3.462   2.385
 4332SOL    HW113895   5.296   3.456   2.362
 4332SOL    HW213896   5.165   3.371   2.409
 4333SOL     OW13897   5.285   1.523   5.364
 4333SOL    HW113898   5.283   1.444   5.303
 4333SOL    HW213899   5.372   1.525   5.413
 4334SOL     OW13900   3.013   2.132   1.881
 4334SOL    HW113901   2.984   2.166   1.970
 4334SOL    HW213902   2.935   2.131   1.818
 4335SOL     OW13903   2.872   3.541   3.723
 4335SOL    HW113904   2.794   3.480   3.735
 4335SOL    HW213905   2.925   3.514   3.643
 4336SOL     OW13906   1.446   6.054   5.449
 4336SOL    HW113907   1.457   6.012   5.359
 4336SOL    HW213908   1.422   6.150   5.439
 4337SOL     OW13909   0.802   5.150   0.281
 4337SOL    HW113910   0.786   5.244   0.249
 4337SOL    HW213911   0.781   5.086   0.207
 4338SOL     OW13912   5.467   5.326   4.908
 4338SOL    HW113913   5.430   5.417   4.924
 4338SOL    HW213914   5.556   5.318   4.953
 4339SOL     OW13915   5.587   2.733   4.615
 4339SOL    HW113916   5.639   2.754   4.698
 4339SOL    HW213917   5.560   2.637   4.615
 4340SOL     OW13918   6.548   2.960   2.427
 4340SOL    HW113919   6.502   2.876   2.399
 4340SOL    HW213920   6.627   2.977   2.369
 4341SOL     OW13921   1.599   4.052   2.246
 4341SOL    HW113922   1.602   4.025   2.150
 4341SOL    HW213923   1.621   3.974   2.304
 4342SOL     OW13924   0.179   2.673   3.214
 4342SOL    HW113925   0.217   2.621   3.289
 4342SOL    HW213926   0.173   2.770   3.240
 4343SOL     OW13927   3.896   0.806   6.996
 4343SOL    HW113928   3.804   0.775   7.022
 4343SOL    HW213929   3.932   0.865   0.042
 4344SOL     OW13930   1.604   5.084   3.176
 4344SOL    HW113931   1.526   5.141   3.204
 4344SOL    HW213932   1.668   5.140   3.123
 4345SOL     OW13933   1.841   3.283   5.435
 4345SOL    HW113934   1.894   3.272   5.351
 4345SOL    HW213935   1.756   3.332   5.415
 4346SOL     OW13936   2.428   3.105   1.685
 4346SOL    HW113937   2.503   3.171   1.685
 4346SOL    HW213938   2.352   3.142   1.631
 4347SOL     OW13939   6.829   0.925   1.641
 4347SOL    HW113940   6.820   0.827   1.659
 4347SOL    HW213941   6.925   0.951   1.642
 4348SOL     OW13942   0.456   3.744   1.908
 4348SOL    HW113943   0.525   3.758   1.837
 4348SOL    HW213944   0.465   3.815   1.978
 4349SOL     OW13945   0.530   1.609   3.289
 4349SOL    HW113946   0.607   1.601   3.353
 4349SOL    HW213947   0.453   1.652   3.336
 4350SOL     OW13948   5.110   2.088   4.616
 4350SOL    HW113949   5.071   2.162   4.560
 4350SOL    HW213950   5.036   2.041   4.665
 4351SOL     OW13951   2.605   6.337   2.004
 4351SOL    HW113952   2.511   6.306   2.010
 4351SOL    HW213953   2.665   6.260   1.983
 4352SOL     OW13954   0.515   2.393   1.745
 4352SOL    HW113955   0.607   2.428   1.730
 4352SOL    HW213956   0.518   2.294   1.753
 4353SOL     OW13957   2.104   5.557   1.067
 4353SOL    HW113958   2.096   5.612   0.983
 4353SOL    HW213959   2.155   5.474   1.047
 4354SOL     OW13960   2.165   6.617   6.978
 4354SOL    HW113961   2.132   6.583   0.040
 4354SOL    HW213962   2.257   6.582   6.962
 4355SOL     OW13963   4.066   0.724   1.500
 4355SOL    HW113964   4.042   0.717   1.403
 4355SOL    HW213965   4.165   0.720   1.510
 4356SOL     OW13966   4.503   3.968   1.667
 4356SOL    HW113967   4.466   3.965   1.574
 4356SOL    HW213968   4.469   4.049   1.714
 4357SOL     OW13969   6.106   0.758   0.335
 4357SOL    HW113970   6.011   0.739   0.361
 4357SOL    HW213971   6.109   0.842   0.280
 4358SOL     OW13972   0.259   6.701   1.080
 4358SOL    HW113973   0.251   6.679   1.177
 4358SOL    HW213974   0.226   6.624   1.026
 4359SOL     OW13975   1.508   2.531   4.667
 4359SOL    HW113976   1.525   2.572   4.756
 4359SOL    HW213977   1.575   2.564   4.601
 4360SOL     OW13978   0.487   4.044   2.425
 4360SOL    HW113979   0.580   4.010   2.411
 4360SOL    HW213980   0.475   4.069   2.521
 4361SOL     OW13981   3.915   3.105   1.822
 4361SOL    HW113982   3.967   3.136   1.742
 4361SOL    HW213983   3.905   3.005   1.818
 4362SOL     OW13984   6.006   3.243   5.298
 4362SOL    HW113985   6.059   3.258   5.214
 4362SOL    HW213986   6.023   3.319   5.361
 4363SOL     OW13987   4.588   2.235   5.728
 4363SOL    HW113988   4.679   2.238   5.769
 4363SOL    HW213989   4.542   2.151   5.755
 4364SOL     OW13990   3.166   3.928   5.275
 4364SOL    HW113991   3.076   3.938   5.319
 4364SOL    HW213992   3.238   3.944   5.342
 4365SOL     OW13993   3.440   1.911   2.480
 4365SOL    HW113994   3.485   1.997   2.454
 4365SOL    HW213995   3.509   1.839   2.487
 4366SOL     OW13996   6.144   6.391   1.207
 4366SOL    HW113997   6.183   6.300   1.190
 4366SOL    HW213998   6.135   6.439   1.119
 4367SOL     OW13999   1.046   4.751   5.386
 4367SOL    HW114000   1.009   4.839   5.416
 4367SOL    HW214001   1.142   4.761   5.362
 4368SOL     OW14002   4.411   5.447   1.284
 4368SOL    HW114003   4.481   5.502   1.239
 4368SOL    HW214004   4.347   5.412   1.215
 4369SOL     OW14005   4.921   5.261   2.259
 4369SOL    HW114006   4.929   5.232   2.163
 4369SOL    HW214007   4.969   5.348   2.272
 4370SOL     OW14008   6.037   4.763   3.007
 4370SOL    HW114009   6.027   4.737   3.103
 4370SOL    HW214010   6.135   4.773   2.986
 4371SOL     OW14011   6.389   0.943   1.820
 4371SOL    HW114012   6.297   0.961   1.786
 4371SOL    HW214013   6.455   0.963   1.747
 4372SOL     OW14014   4.591   1.009   3.207
 4372SOL    HW114015   4.544   0.939   3.261
 4372SOL    HW214016   4.588   1.097   3.256
 4373SOL     OW14017   6.549   3.067   6.404
 4373SOL    HW114018   6.472   3.131   6.404
 4373SOL    HW214019   6.538   3.003   6.328
 4374SOL     OW14020   1.362   1.892   1.859
 4374SOL    HW114021   1.280   1.903   1.916
 4374SOL    HW214022   1.429   1.961   1.883
 4375SOL     OW14023   2.473   6.980   3.756
 4375SOL    HW114024   2.517   6.924   3.686
 4375SOL    HW214025   2.543   0.005   3.807
 4376SOL     OW14026   6.346   0.293   2.539
 4376SOL    HW114027   6.269   0.352   2.562
 4376SOL    HW214028   6.354   0.285   2.439
 4377SOL     OW14029   5.511   3.538   0.127
 4377SOL    HW114030   5.457   3.616   0.095
 4377SOL    HW214031   5.450   3.466   0.160
 4378SOL     OW14032   2.285   0.450   3.670
 4378SOL    HW114033   2.207   0.392   3.646
 4378SOL    HW214034   2.284   0.532   3.613
 4379SOL     OW14035   2.680   1.157   4.820
 4379SOL    HW114036   2.684   1.124   4.914
 4379SOL    HW214037   2.730   1.095   4.759
 4380SOL     OW14038   1.257   1.099   1.365
 4380SOL    HW114039   1.239   1.189   1.405
 4380SOL    HW214040   1.347   1.099   1.323
 4381SOL     OW14041   0.986   5.372   4.767
 4381SOL    HW114042   1.063   5.332   4.716
 4381SOL    HW214043   1.022   5.431   4.839
 4382SOL     OW14044   6.514   3.325   5.385
 4382SOL    HW114045   6.436   3.266   5.370
 4382SOL    HW214046   6.523   3.389   5.309
 4383SOL     OW14047   5.815   3.230   6.237
 4383SOL    HW114048   5.760   3.148   6.250
 4383SOL    HW214049   5.864   3.224   6.150
 4384SOL     OW14050   0.058   1.190   3.390
 4384SOL    HW114051   0.007   1.107   3.412
 4384SOL    HW214052   0.080   1.239   3.474
 4385SOL     OW14053   4.797   2.055   4.710
 4385SOL    HW114054   4.752   2.128   4.658
 4385SOL    HW214055   4.801   1.972   4.655
 4386SOL     OW14056   1.072   4.099   6.050
 4386SOL    HW114057   1.090   4.185   6.002
 4386SOL    HW214058   1.150   4.076   6.108
 4387SOL     OW14059   6.077   3.130   1.037
 4387SOL    HW114060   6.027   3.043   1.028
 4387SOL    HW214061   6.133   3.127   1.120
 4388SOL     OW14062   5.516   1.898   6.407
 4388SOL    HW114063   5.534   1.943   6.319
 4388SOL    HW214064   5.599   1.899   6.463
 4389SOL     OW14065   0.055   3.190   1.684
 4389SOL    HW114066   0.044   3.130   1.763
 4389SOL    HW214067   6.992   3.228   1.658
 4390SOL     OW14068   5.575   0.036   0.742
 4390SOL    HW114069   5.495   0.043   0.802
 4390SOL    HW214070   5.658   0.047   0.796
 4391SOL     OW14071   1.766   5.356   6.471
 4391SOL    HW114072   1.735   5.422   6.403
 4391SOL    HW214073   1.855   5.383   6.507
 4392SOL     OW14074   0.775   1.615   4.104
 4392SOL    HW114075   0.873   1.625   4.086
 4392SOL    HW214076   0.737   1.702   4.135
 4393SOL     OW14077   6.342   0.498   1.727
 4393SOL    HW114078   6.357   0.399   1.727
 4393SOL    HW214079   6.269   0.520   1.662
 4394SOL     OW14080   1.063   0.535   1.478
 4394SOL    HW114081   1.132   0.493   1.419
 4394SOL    HW214082   1.025   0.466   1.540
 4395SOL     OW14083   1.984   0.105   2.133
 4395SOL    HW114084   2.076   0.114   2.092
 4395SOL    HW214085   1.971   0.011   2.163
 4396SOL     OW14086   1.666   1.412   3.658
 4396SOL    HW114087   1.595   1.450   3.599
 4396SOL    HW214088   1.753   1.412   3.609
 4397SOL     OW14089   2.275   2.568   3.684
 4397SOL    HW114090   2.216   2.546   3.607
 4397SOL    HW214091   2.298   2.484   3.733
 4398SOL     OW14092   2.393   3.669   6.305
 4398SOL    HW114093   2.358   3.750   6.257
 4398SOL    HW214094   2.489   3.685   6.331
 4399SOL     OW14095   2.060   6.525   2.060
 4399SOL    HW114096   2.130   6.458   2.084
 4399SOL    HW214097   1.970   6.491   2.088
 4400SOL     OW14098   1.226   6.700   3.887
 4400SOL    HW114099   1.312   6.751   3.874
 4400SOL    HW214100   1.153   6.764   3.911
 4401SOL     OW14101   3.780   6.275   5.335
 4401SOL    HW114102   3.702   6.216   5.353
 4401SOL    HW214103   3.839   6.233   5.266
 4402SOL     OW14104   1.441   0.872   2.829
 4402SOL    HW114105   1.478   0.890   2.920
 4402SOL    HW214106   1.492   0.796   2.787
 4403SOL     OW14107   0.660   5.495   1.215
 4403SOL    HW114108   0.726   5.483   1.289
 4403SOL    HW214109   0.571   5.460   1.243
 4404SOL     OW14110   1.302   5.325   5.601
 4404SOL    HW114111   1.298   5.313   5.502
 4404SOL    HW214112   1.397   5.336   5.630
 4405SOL     OW14113   2.794   4.711   3.260
 4405SOL    HW114114   2.803   4.622   3.304
 4405SOL    HW214115   2.709   4.713   3.207
 4406SOL     OW14116   6.199   3.210   2.062
 4406SOL    HW114117   6.193   3.261   1.977
 4406SOL    HW214118   6.291   3.170   2.070
 4407SOL     OW14119   0.145   6.019   2.227
 4407SOL    HW114120   0.240   6.037   2.253
 4407SOL    HW214121   0.127   5.921   2.232
 4408SOL     OW14122   3.614   6.633   6.705
 4408SOL    HW114123   3.702   6.674   6.728
 4408SOL    HW214124   3.626   6.536   6.686
 4409SOL     OW14125   3.801   0.633   2.806
 4409SOL    HW114126   3.792   0.689   2.888
 4409SOL    HW214127   3.822   0.691   2.728
 4410SOL     OW14128   0.208   6.334   1.169
 4410SOL    HW114129   0.127   6.277   1.151
 4410SOL    HW214130   0.280   6.277   1.209
 4411SOL     OW14131   3.494   4.705   5.854
 4411SOL    HW114132   3.556   4.631   5.827
 4411SOL    HW214133   3.438   4.732   5.776
 4412SOL     OW14134   5.024   6.522   4.157
 4412SOL    HW114135   5.077   6.574   4.089
 4412SOL    HW214136   4.993   6.436   4.117
 4413SOL     OW14137   2.937   7.011   4.442
 4413SOL    HW114138   3.030   6.978   4.424
 4413SOL    HW214139   2.871   6.940   4.415
 4414SOL     OW14140   5.080   5.259   1.762
 4414SOL    HW114141   5.004   5.195   1.771
 4414SOL    HW214142   5.083   5.295   1.669
 4415SOL     OW14143   3.165   4.035   1.459
 4415SOL    HW114144   3.164   3.944   1.501
 4415SOL    HW214145   3.231   4.036   1.384
 4416SOL     OW14146   3.962   1.373   4.417
 4416SOL    HW114147   3.960   1.339   4.323
 4416SOL    HW214148   3.911   1.458   4.423
 4417SOL     OW14149   0.076   2.687   4.165
 4417SOL    HW114150   0.112   2.660   4.076
 4417SOL    HW214151   0.084   2.787   4.176
 4418SOL     OW14152   6.400   1.223   1.826
 4418SOL    HW114153   6.424   1.135   1.866
 4418SOL    HW214154   6.483   1.273   1.803
 4419SOL     OW14155   6.668   5.978   5.467
 4419SOL    HW114156   6.640   5.988   5.562
 4419SOL    HW214157   6.768   5.974   5.462
 4420SOL     OW14158   3.839   2.346   1.556
 4420SOL    HW114159   3.804   2.257   1.583
 4420SOL    HW214160   3.900   2.336   1.478
 4421SOL     OW14161   1.509   2.891   4.867
 4421SOL    HW114162   1.436   2.891   4.935
 4421SOL    HW214163   1.474   2.857   4.780
 4422SOL     OW14164   0.857   4.874   0.192
 4422SOL    HW114165   0.801   4.819   0.253
 4422SOL    HW214166   0.907   4.815   0.129
 4423SOL     OW14167   6.400   4.513   6.000
 4423SOL    HW114168   6.327   4.454   6.033
 4423SOL    HW214169   6.488   4.469   6.014
 4424SOL     OW14170   4.784   5.694   4.291
 4424SOL    HW114171   4.825   5.629   4.356
 4424SOL    HW214172   4.832   5.781   4.296
 4425SOL     OW14173   1.988   5.029   1.245
 4425SOL    HW114174   2.053   4.996   1.314
 4425SOL    HW214175   1.904   5.059   1.290
 4426SOL     OW14176   1.143   0.159   4.258
 4426SOL    HW114177   1.063   0.108   4.287
 4426SOL    HW214178   1.144   0.165   4.158
 4427SOL     OW14179   3.360   6.638   2.918
 4427SOL    HW114180   3.441   6.630   2.860
 4427SOL    HW214181   3.365   6.572   2.992
 4428SOL     OW14182   5.349   0.400   4.305
 4428SOL    HW114183   5.447   0.381   4.316
 4428SOL    HW214184   5.310   0.425   4.394
 4429SOL     OW14185   2.870   6.355   3.220
 4429SOL    HW114186   2.862   6.447   3.181
 4429SOL    HW214187   2.780   6.312   3.222
 4430SOL     OW14188   5.573   4.712   3.717
 4430SOL    HW114189   5.640   4.704   3.790
 4430SOL    HW214190   5.505   4.781   3.740
 4431SOL     OW14191   3.642   0.519   3.806
 4431SOL    HW114192   3.575   0.468   3.860
 4431SOL    HW214193   3.709   0.455   3.768
 4432SOL     OW14194   1.838   3.891   6.620
 4432SOL    HW114195   1.755   3.838   6.633
 4432SOL    HW214196   1.857   3.900   6.522
 4433SOL     OW14197   0.872   1.835   4.649
 4433SOL    HW114198   0.872   1.747   4.600
 4433SOL    HW214199   0.967   1.864   4.665
 4434SOL     OW14200   0.149   1.748   1.506
 4434SOL    HW114201   0.179   1.807   1.581
 4434SOL    HW214202   0.219   1.679   1.489
 4435SOL     OW14203   2.703   3.764   0.732
 4435SOL    HW114204   2.704   3.861   0.754
 4435SOL    HW214205   2.789   3.740   0.685
 4436SOL     OW14206   4.388   2.348   0.695
 4436SOL    HW114207   4.347   2.423   0.747
 4436SOL    HW214208   4.425   2.280   0.759
 4437SOL     OW14209   0.211   3.712   2.384
 4437SOL    HW114210   0.113   3.695   2.374
 4437SOL    HW214211   0.227   3.811   2.389
 4438SOL     OW14212   4.431   6.655   5.573
 4438SOL    HW114213   4.452   6.646   5.670
 4438SOL    HW214214   4.508   6.620   5.520
 4439SOL     OW14215   1.580   6.938   2.993
 4439SOL    HW114216   1.569   6.927   2.895
 4439SOL    HW214217   1.532   6.864   3.041
 4440SOL     OW14218   2.055   4.948   0.738
 4440SOL    HW114219   1.984   4.968   0.670
 4440SOL    HW214220   2.016   4.894   0.812
 4441SOL     OW14221   1.193   1.826   0.589
 4441SOL    HW114222   1.257   1.896   0.620
 4441SOL    HW214223   1.169   1.766   0.666
 4442SOL     OW14224   1.500   5.047   5.712
 4442SOL    HW114225   1.530   5.134   5.673
 4442SOL    HW214226   1.538   4.972   5.658
 4443SOL     OW14227   0.821   4.424   6.500
 4443SOL    HW114228   0.797   4.479   6.420
 4443SOL    HW214229   0.738   4.381   6.537
 4444SOL     OW14230   4.752   4.483   0.843
 4444SOL    HW114231   4.763   4.386   0.868
 4444SOL    HW214232   4.721   4.535   0.922
 4445SOL     OW14233   0.395   5.713   6.566
 4445SOL    HW114234   0.475   5.769   6.587
 4445SOL    HW214235   0.419   5.616   6.575
 4446SOL     OW14236   4.769   1.565   0.810
 4446SOL    HW114237   4.762   1.609   0.900
 4446SOL    HW214238   4.857   1.518   0.803
 4447SOL     OW14239   5.263   4.394   5.080
 4447SOL    HW114240   5.315   4.464   5.129
 4447SOL    HW214241   5.316   4.362   5.002
 4448SOL     OW14242   2.898   6.547   1.365
 4448SOL    HW114243   2.889   6.506   1.456
 4448SOL    HW214244   2.850   6.635   1.363
 4449SOL     OW14245   4.626   1.344   6.214
 4449SOL    HW114246   4.539   1.391   6.199
 4449SOL    HW214247   4.647   1.343   6.312
 4450SOL     OW14248   4.197   0.972   0.074
 4450SOL    HW114249   4.237   0.928   7.019
 4450SOL    HW214250   4.099   0.987   0.059
 4451SOL     OW14251   4.921   4.988   3.693
 4451SOL    HW114252   4.898   4.948   3.605
 4451SOL    HW214253   4.975   4.923   3.746
 4452SOL     OW14254   5.306   6.255   4.657
 4452SOL    HW114255   5.403   6.280   4.658
 4452SOL    HW214256   5.272   6.258   4.563
 4453SOL     OW14257   0.411   3.444   1.159
 4453SOL    HW114258   0.496   3.491   1.136
 4453SOL    HW214259   0.430   3.349   1.183
 4454SOL     OW14260   0.771   1.563   0.088
 4454SOL    HW114261   0.683   1.530   0.055
 4454SOL    HW214262   0.760   1.655   0.125
 4455SOL     OW14263   5.957   5.412   4.875
 4455SOL    HW114264   5.971   5.421   4.777
 4455SOL    HW214265   5.962   5.316   4.901
 4456SOL     OW14266   1.733   6.746   3.787
 4456SOL    HW114267   1.816   6.698   3.760
 4456SOL    HW214268   1.728   6.834   3.739
 4457SOL     OW14269   1.353   2.189   4.850
 4457SOL    HW114270   1.361   2.234   4.761
 4457SOL    HW214271   1.356   2.258   4.922
 4458SOL     OW14272   2.243   3.744   1.736
 4458SOL    HW114273   2.211   3.810   1.804
 4458SOL    HW214274   2.283   3.665   1.782
 4459SOL     OW14275   1.386   2.276   4.603
 4459SOL    HW114276   1.441   2.233   4.532
 4459SOL    HW214277   1.409   2.373   4.609
 4460SOL     OW14278   0.319   3.137   4.132
 4460SOL    HW114279   0.239   3.078   4.119
 4460SOL    HW214280   0.312   3.216   4.070
 4461SOL     OW14281   2.550   0.745   1.655
 4461SOL    HW114282   2.520   0.840   1.645
 4461SOL    HW214283   2.635   0.731   1.605
 4462SOL     OW14284   6.568   3.625   1.880
 4462SOL    HW114285   6.602   3.715   1.909
 4462SOL    HW214286   6.520   3.582   1.956
 4463SOL     OW14287   5.615   1.376   1.000
 4463SOL    HW114288   5.617   1.292   1.054
 4463SOL    HW214289   5.561   1.361   0.917
 4464SOL     OW14290   0.366   5.458   0.488
 4464SOL    HW114291   0.407   5.545   0.516
 4464SOL    HW214292   0.318   5.418   0.566
 4465SOL     OW14293   2.244   6.314   0.583
 4465SOL    HW114294   2.253   6.252   0.660
 4465SOL    HW214295   2.262   6.265   0.498
 4466SOL     OW14296   2.096   1.963   4.046
 4466SOL    HW114297   2.002   1.938   4.070
 4466SOL    HW214298   2.095   2.041   3.985
 4467SOL     OW14299   2.879   5.878   3.842
 4467SOL    HW114300   2.829   5.963   3.824
 4467SOL    HW214301   2.966   5.879   3.792
 4468SOL     OW14302   1.196   3.242   1.623
 4468SOL    HW114303   1.277   3.263   1.567
 4468SOL    HW214304   1.224   3.225   1.717
 4469SOL     OW14305   2.894   6.793   1.518
 4469SOL    HW114306   2.805   6.822   1.552
 4469SOL    HW214307   2.944   6.872   1.483
 4470SOL     OW14308   1.070   0.606   2.506
 4470SOL    HW114309   1.007   0.617   2.429
 4470SOL    HW214310   1.137   0.536   2.484
 4471SOL     OW14311   2.202   2.260   6.434
 4471SOL    HW114312   2.217   2.308   6.520
 4471SOL    HW214313   2.289   2.220   6.403
 4472SOL     OW14314   1.866   3.209   1.133
 4472SOL    HW114315   1.920   3.278   1.182
 4472SOL    HW214316   1.912   3.186   1.047
 4473SOL     OW14317   0.204   2.778   3.704
 4473SOL    HW114318   0.160   2.857   3.747
 4473SOL    HW214319   0.294   2.804   3.670
 4474SOL     OW14320   3.374   0.991   2.030
 4474SOL    HW114321   3.376   1.087   2.060
 4474SOL    HW214322   3.467   0.960   2.011
 4475SOL     OW14323   1.071   3.705   2.181
 4475SOL    HW114324   0.991   3.765   2.189
 4475SOL    HW214325   1.040   3.612   2.162
 4476SOL     OW14326   5.339   1.346   4.291
 4476SOL    HW114327   5.294   1.376   4.207
 4476SOL    HW214328   5.348   1.424   4.353
 4477SOL     OW14329   3.276   6.987   5.634
 4477SOL    HW114330   3.196   6.926   5.634
 4477SOL    HW214331   3.274   0.017   5.550
 4478SOL     OW14332   1.212   0.134   0.492
 4478SOL    HW114333   1.234   0.096   0.581
 4478SOL    HW214334   1.263   0.084   0.421
 4479SOL     OW14335   0.700   2.255   6.916
 4479SOL    HW114336   0.675   2.220   7.006
 4479SOL    HW214337   0.786   2.306   6.923
 4480SOL     OW14338   6.900   5.190   4.781
 4480SOL    HW114339   6.953   5.117   4.823
 4480SOL    HW214340   6.917   5.277   4.828
 4481SOL     OW14341   2.296   4.806   5.669
 4481SOL    HW114342   2.383   4.837   5.707
 4481SOL    HW214343   2.277   4.713   5.701
 4482SOL     OW14344   2.795   5.464   6.240
 4482SOL    HW114345   2.847   5.482   6.156
 4482SOL    HW214346   2.839   5.392   6.292
 4483SOL     OW14347   0.626   3.189   2.112
 4483SOL    HW114348   0.656   3.264   2.171
 4483SOL    HW214349   0.575   3.226   2.034
 4484SOL     OW14350   2.353   3.514   0.185
 4484SOL    HW114351   2.277   3.458   0.152
 4484SOL    HW214352   2.353   3.602   0.138
 4485SOL     OW14353   4.566   2.460   4.739
 4485SOL    HW114354   4.604   2.520   4.669
 4485SOL    HW214355   4.625   2.460   4.819
 4486SOL     OW14356   5.547   4.426   5.342
 4486SOL    HW114357   5.498   4.488   5.281
 4486SOL    HW214358   5.609   4.369   5.289
 4487SOL     OW14359   1.750   2.713   0.201
 4487SOL    HW114360   1.848   2.721   0.222
 4487SOL    HW214361   1.739   2.667   0.113
 4488SOL     OW14362   0.812   4.618   4.251
 4488SOL    HW114363   0.878   4.555   4.291
 4488SOL    HW214364   0.789   4.587   4.159
 4489SOL     OW14365   4.349   5.413   5.452
 4489SOL    HW114366   4.271   5.363   5.488
 4489SOL    HW214367   4.343   5.509   5.481
 4490SOL     OW14368   5.530   2.096   1.146
 4490SOL    HW114369   5.445   2.117   1.098
 4490SOL    HW214370   5.518   2.110   1.244
 4491SOL     OW14371   1.165   2.933   2.801
 4491SOL    HW114372   1.081   2.892   2.834
 4491SOL    HW214373   1.241   2.869   2.815
 4492SOL     OW14374   5.641   0.682   1.826
 4492SOL    HW114375   5.708   0.747   1.790
 4492SOL    HW214376   5.551   0.703   1.790
 4493SOL     OW14377   5.202   0.196   4.982
 4493SOL    HW114378   5.291   0.181   4.939
 4493SOL    HW214379   5.214   0.249   5.066
 4494SOL     OW14380   0.517   0.563   6.697
 4494SOL    HW114381   0.468   0.557   6.610
 4494SOL    HW214382   0.547   0.657   6.712
 4495SOL     OW14383   3.782   6.053   1.981
 4495SOL    HW114384   3.777   6.150   2.005
 4495SOL    HW214385   3.877   6.026   1.969
 4496SOL     OW14386   4.350   6.453   6.191
 4496SOL    HW114387   4.431   6.408   6.229
 4496SOL    HW214388   4.273   6.389   6.192
 4497SOL     OW14389   3.979   1.911   6.795
 4497SOL    HW114390   4.076   1.907   6.821
 4497SOL    HW214391   3.969   1.968   6.714
 4498SOL     OW14392   0.137   5.116   5.779
 4498SOL    HW114393   0.218   5.162   5.744
 4498SOL    HW214394   0.133   5.126   5.879
 4499SOL     OW14395   6.426   1.752   2.792
 4499SOL    HW114396   6.426   1.711   2.701
 4499SOL    HW214397   6.519   1.749   2.830
 4500SOL     OW14398   3.785   5.314   0.479
 4500SOL    HW114399   3.803   5.216   0.472
 4500SOL    HW214400   3.869   5.362   0.508
 4501SOL     OW14401   6.188   1.669   1.793
 4501SOL    HW114402   6.256   1.697   1.725
 4501SOL    HW214403   6.220   1.695   1.884
 4502SOL     OW14404   0.970   3.375   6.889
 4502SOL    HW114405   1.014   3.462   6.913
 4502SOL    HW214406   0.888   3.394   6.835
 4503SOL     OW14407   3.083   0.337   2.437
 4503SOL    HW114408   3.040   0.424   2.413
 4503SOL    HW214409   3.014   0.264   2.433
 4504SOL     OW14410   0.172   2.125   3.415
 4504SOL    HW114411   0.264   2.092   3.394
 4504SOL    HW214412   0.145   2.092   3.506
 4505SOL     OW14413   6.437   4.221   2.504
 4505SOL    HW114414   6.388   4.280   2.440
 4505SOL    HW214415   6.426   4.258   2.597
 4506SOL     OW14416   5.051   2.510   4.564
 4506SOL    HW114417   5.009   2.491   4.653
 4506SOL    HW214418   4.981   2.508   4.493
 4507SOL     OW14419   6.425   3.261   3.653
 4507SOL    HW114420   6.445   3.352   3.690
 4507SOL    HW214421   6.328   3.255   3.633
 4508SOL     OW14422   0.417   5.131   0.873
 4508SOL    HW114423   0.325   5.091   0.869
 4508SOL    HW214424   0.475   5.088   0.804
 4509SOL     OW14425   4.278   1.657   2.386
 4509SOL    HW114426   4.273   1.749   2.426
 4509SOL    HW214427   4.358   1.652   2.326
 4510SOL     OW14428   4.709   1.713   4.286
 4510SOL    HW114429   4.807   1.719   4.265
 4510SOL    HW214430   4.683   1.616   4.294
 4511SOL     OW14431   0.108   4.683   1.147
 4511SOL    HW114432   0.062   4.709   1.062
 4511SOL    HW214433   0.051   4.708   1.225
 4512SOL     OW14434   3.821   2.092   5.574
 4512SOL    HW114435   3.778   2.104   5.484
 4512SOL    HW214436   3.857   2.180   5.606
 4513SOL     OW14437   1.398   5.981   6.417
 4513SOL    HW114438   1.433   6.074   6.407
 4513SOL    HW214439   1.463   5.916   6.378
 4514SOL     OW14440   3.260   3.327   6.303
 4514SOL    HW114441   3.342   3.291   6.348
 4514SOL    HW214442   3.199   3.368   6.370
 4515SOL     OW14443   5.421   6.944   4.960
 4515SOL    HW114444   5.395   6.848   4.951
 4515SOL    HW214445   5.507   6.951   5.011
 4516SOL     OW14446   3.276   1.806   5.885
 4516SOL    HW114447   3.306   1.722   5.931
 4516SOL    HW214448   3.336   1.881   5.912
 4517SOL     OW14449   4.458   0.649   5.998
 4517SOL    HW114450   4.491   0.632   6.091
 4517SOL    HW214451   4.532   0.689   5.943
 4518SOL     OW14452   1.935   0.096   1.279
 4518SOL    HW114453   1.965   0.029   1.347
 4518SOL    HW214454   1.876   0.050   1.212
 4519SOL     OW14455   5.715   6.710   0.181
 4519SOL    HW114456   5.693   6.694   0.277
 4519SOL    HW214457   5.655   6.781   0.145
 4520SOL     OW14458   4.298   6.426   5.086
 4520SOL    HW114459   4.321   6.518   5.054
 4520SOL    HW214460   4.330   6.359   5.020
 4521SOL     OW14461   5.020   2.454   5.199
 4521SOL    HW114462   4.933   2.423   5.238
 4521SOL    HW214463   5.077   2.376   5.176
 4522SOL     OW14464   5.250   3.314   3.348
 4522SOL    HW114465   5.174   3.305   3.413
 4522SOL    HW214466   5.316   3.379   3.384
 4523SOL     OW14467   0.382   3.427   6.389
 4523SOL    HW114468   0.416   3.498   6.450
 4523SOL    HW214469   0.285   3.411   6.408
 4524SOL     OW14470   0.397   3.103   2.645
 4524SOL    HW114471   0.327   3.109   2.717
 4524SOL    HW214472   0.383   3.176   2.579
 4525SOL     OW14473   2.497   2.610   5.792
 4525SOL    HW114474   2.402   2.580   5.787
 4525SOL    HW214475   2.509   2.694   5.738
 4526SOL     OW14476   0.703   0.106   6.015
 4526SOL    HW114477   0.692   0.007   6.019
 4526SOL    HW214478   0.779   0.134   6.073
 4527SOL     OW14479   6.521   0.039   3.021
 4527SOL    HW114480   6.574   6.997   2.971
 4527SOL    HW214481   6.579   0.082   3.091
 4528SOL     OW14482   4.472   1.193   5.706
 4528SOL    HW114483   4.522   1.271   5.670
 4528SOL    HW214484   4.489   1.113   5.648
 4529SOL     OW14485   2.758   0.788   5.379
 4529SOL    HW114486   2.680   0.751   5.429
 4529SOL    HW214487   2.732   0.804   5.284
 4530SOL     OW14488   2.605   6.227   5.194
 4530SOL    HW114489   2.555   6.311   5.217
 4530SOL    HW214490   2.549   6.147   5.215
 4531SOL     OW14491   1.122   4.934   6.438
 4531SOL    HW114492   1.029   4.930   6.400
 4531SOL    HW214493   1.188   4.935   6.363
 4532SOL     OW14494   5.491   0.433   2.815
 4532SOL    HW114495   5.476   0.531   2.800
 4532SOL    HW214496   5.576   0.420   2.865
 4533SOL     OW14497   2.354   0.586   2.243
 4533SOL    HW114498   2.275   0.604   2.302
 4533SOL    HW214499   2.388   0.672   2.205
 4534SOL     OW14500   4.626   1.806   4.745
 4534SOL    HW114501   4.651   1.902   4.758
 4534SOL    HW214502   4.540   1.801   4.694
 4535SOL     OW14503   3.117   2.005   1.086
 4535SOL    HW114504   3.145   1.990   0.992
 4535SOL    HW214505   3.017   2.013   1.091
 4536SOL     OW14506   2.716   1.665   5.940
 4536SOL    HW114507   2.737   1.751   5.894
 4536SOL    HW214508   2.745   1.588   5.883
 4537SOL     OW14509   3.371   3.953   4.584
 4537SOL    HW114510   3.276   3.927   4.598
 4537SOL    HW214511   3.376   4.050   4.558
 4538SOL     OW14512   6.838   2.533   1.317
 4538SOL    HW114513   6.755   2.567   1.361
 4538SOL    HW214514   6.829   2.434   1.302
 4539SOL     OW14515   1.527   5.511   5.289
 4539SOL    HW114516   1.528   5.605   5.324
 4539SOL    HW214517   1.604   5.460   5.327
 4540SOL     OW14518   0.041   1.135   0.792
 4540SOL    HW114519   6.978   1.164   0.756
 4540SOL    HW214520   0.026   1.073   0.869
 4541SOL     OW14521   4.116   1.749   6.277
 4541SOL    HW114522   4.215   1.762   6.285
 4541SOL    HW214523   4.096   1.702   6.191
 4542SOL     OW14524   6.920   2.713   1.112
 4542SOL    HW114525   6.894   2.669   1.197
 4542SOL    HW214526   6.984   2.655   1.062
 4543SOL     OW14527   3.674   2.131   0.065
 4543SOL    HW114528   3.635   2.170   0.149
 4543SOL    HW214529   3.633   2.177   7.012
 4544SOL     OW14530   5.715   4.944   0.451
 4544SOL    HW114531   5.655   4.932   0.371
 4544SOL    HW214532   5.782   4.870   0.453
 4545SOL     OW14533   1.113   3.959   4.899
 4545SOL    HW114534   1.128   3.959   4.800
 4545SOL    HW214535   1.201   3.961   4.946
 4546SOL     OW14536   2.562   0.894   5.763
 4546SOL    HW114537   2.548   0.979   5.712
 4546SOL    HW214538   2.626   0.910   5.838
 4547SOL     OW14539   6.234   0.467   0.331
 4547SOL    HW114540   6.196   0.559   0.341
 4547SOL    HW214541   6.322   0.472   0.284
 4548SOL     OW14542   2.157   3.260   2.718
 4548SOL    HW114543   2.155   3.179   2.777
 4548SOL    HW214544   2.063   3.292   2.702
 4549SOL     OW14545   5.802   4.429   2.233
 4549SOL    HW114546   5.901   4.413   2.238
 4549SOL    HW214547   5.764   4.435   2.325
 4550SOL     OW14548   0.437   4.323   2.897
 4550SOL    HW114549   0.353   4.289   2.941
 4550SOL    HW214550   0.513   4.317   2.961
 4551SOL     OW14551   1.743   3.565   5.255
 4551SOL    HW114552   1.781   3.571   5.348
 4551SOL    HW214553   1.732   3.657   5.217
 4552SOL     OW14554   6.049   1.351   1.546
 4552SOL    HW114555   6.029   1.448   1.539
 4552SOL    HW214556   6.148   1.336   1.538
 4553SOL     OW14557   5.486   4.739   6.299
 4553SOL    HW114558   5.462   4.825   6.344
 4553SOL    HW214559   5.542   4.683   6.360
 4554SOL     OW14560   0.652   6.537   1.721
 4554SOL    HW114561   0.676   6.451   1.767
 4554SOL    HW214562   0.620   6.603   1.789
 4555SOL     OW14563   1.276   1.280   6.515
 4555SOL    HW114564   1.212   1.263   6.440
 4555SOL    HW214565   1.356   1.328   6.481
 4556SOL     OW14566   6.192   3.180   5.922
 4556SOL    HW114567   6.288   3.181   5.948
 4556SOL    HW214568   6.171   3.096   5.872
 4557SOL     OW14569   6.029   5.323   3.438
 4557SOL    HW114570   6.125   5.297   3.443
 4557SOL    HW214571   5.975   5.246   3.404
 4558SOL     OW14572   6.405   2.909   5.253
 4558SOL    HW114573   6.373   2.976   5.320
 4558SOL    HW214574   6.462   2.841   5.298
 4559SOL     OW14575   0.795   2.930   2.821
 4559SOL    HW114576   0.794   3.026   2.849
 4559SOL    HW214577   0.751   2.920   2.732
 4560SOL     OW14578   6.478   4.937   1.978
 4560SOL    HW114579   6.555   4.928   1.915
 4560SOL    HW214580   6.500   5.004   2.049
 4561SOL     OW14581   3.237   2.164   4.384
 4561SOL    HW114582   3.149   2.199   4.351
 4561SOL    HW214583   3.275   2.101   4.316
 4562SOL     OW14584   1.637   0.283   1.076
 4562SOL    HW114585   1.553   0.227   1.079
 4562SOL    HW214586   1.708   0.233   1.025
 4563SOL     OW14587   0.499   2.949   1.613
 4563SOL    HW114588   0.444   3.032   1.612
 4563SOL    HW214589   0.556   2.947   1.696
 4564SOL     OW14590   0.193   4.442   2.082
 4564SOL    HW114591   0.200   4.358   2.027
 4564SOL    HW214592   0.237   4.428   2.170
 4565SOL     OW14593   2.106   6.899   4.946
 4565SOL    HW114594   2.188   6.887   4.890
 4565SOL    HW214595   2.053   6.814   4.944
 4566SOL     OW14596   6.858   4.227   1.485
 4566SOL    HW114597   6.870   4.314   1.436
 4566SOL    HW214598   6.864   4.151   1.421
 4567SOL     OW14599   6.999   6.847   6.135
 4567SOL    HW114600   0.063   6.835   6.177
 4567SOL    HW214601   6.974   6.943   6.136
 4568SOL     OW14602   0.858   4.843   3.989
 4568SOL    HW114603   0.840   4.899   4.070
 4568SOL    HW214604   0.771   4.816   3.947
 4569SOL     OW14605   2.893   1.402   3.277
 4569SOL    HW114606   2.818   1.396   3.344
 4569SOL    HW214607   2.867   1.465   3.204
 4570SOL     OW14608   6.598   5.619   1.082
 4570SOL    HW114609   6.603   5.576   1.172
 4570SOL    HW214610   6.608   5.718   1.092
 4571SOL     OW14611   4.051   3.075   6.558
 4571SOL    HW114612   4.004   3.010   6.498
 4571SOL    HW214613   3.990   3.103   6.632
 4572SOL     OW14614   2.482   2.848   0.327
 4572SOL    HW114615   2.539   2.892   0.396
 4572SOL    HW214616   2.386   2.872   0.343
 4573SOL     OW14617   0.810   6.677   1.205
 4573SOL    HW114618   0.732   6.622   1.175
 4573SOL    HW214619   0.822   6.666   1.303
 4574SOL     OW14620   6.390   3.253   0.363
 4574SOL    HW114621   6.294   3.269   0.385
 4574SOL    HW214622   6.438   3.217   0.443
 4575SOL     OW14623   6.164   0.934   4.262
 4575SOL    HW114624   6.178   1.012   4.323
 4575SOL    HW214625   6.147   0.967   4.169
 4576SOL     OW14626   2.684   5.261   4.860
 4576SOL    HW114627   2.673   5.235   4.956
 4576SOL    HW214628   2.605   5.229   4.807
 4577SOL     OW14629   2.108   1.952   3.156
 4577SOL    HW114630   2.047   2.031   3.159
 4577SOL    HW214631   2.195   1.978   3.116
 4578SOL     OW14632   1.833   0.563   2.566
 4578SOL    HW114633   1.837   0.522   2.657
 4578SOL    HW214634   1.852   0.493   2.497
 4579SOL     OW14635   4.086   0.132   1.883
 4579SOL    HW114636   4.024   0.183   1.942
 4579SOL    HW214637   4.160   0.093   1.937
 4580SOL     OW14638   6.486   3.428   0.130
 4580SOL    HW114639   6.566   3.485   0.150
 4580SOL    HW214640   6.468   3.368   0.209
 4581SOL     OW14641   3.379   6.710   2.173
 4581SOL    HW114642   3.302   6.747   2.121
 4581SOL    HW214643   3.460   6.765   2.156
 4582SOL     OW14644   5.366   0.712   2.862
 4582SOL    HW114645   5.386   0.714   2.960
 4582SOL    HW214646   5.267   0.703   2.849
 4583SOL     OW14647   1.928   0.197   6.523
 4583SOL    HW114648   1.908   0.121   6.585
 4583SOL    HW214649   1.946   0.280   6.576
 4584SOL     OW14650   1.957   6.954   6.134
 4584SOL    HW114651   1.880   7.015   6.153
 4584SOL    HW214652   2.041   7.007   6.128
 4585SOL     OW14653   1.124   4.388   3.429
 4585SOL    HW114654   1.054   4.457   3.409
 4585SOL    HW214655   1.205   4.433   3.467
 4586SOL     OW14656   5.084   4.153   0.105
 4586SOL    HW114657   5.025   4.076   0.128
 4586SOL    HW214658   5.037   4.214   0.042
 4587SOL     OW14659   3.244   3.608   4.625
 4587SOL    HW114660   3.209   3.699   4.643
 4587SOL    HW214661   3.192   3.541   4.678
 4588SOL     OW14662   2.749   4.011   5.946
 4588SOL    HW114663   2.677   4.079   5.932
 4588SOL    HW214664   2.766   4.000   6.044
 4589SOL     OW14665   5.532   6.083   2.493
 4589SOL    HW114666   5.610   6.067   2.553
 4589SOL    HW214667   5.481   5.998   2.480
 4590SOL     OW14668   3.460   5.525   2.001
 4590SOL    HW114669   3.432   5.598   2.063
 4590SOL    HW214670   3.379   5.487   1.956
 4591SOL     OW14671   2.613   0.004   5.194
 4591SOL    HW114672   2.686   6.976   5.237
 4591SOL    HW214673   2.544   0.027   5.262
 4592SOL     OW14674   2.507   1.327   4.736
 4592SOL    HW114675   2.504   1.409   4.793
 4592SOL    HW214676   2.576   1.264   4.772
 4593SOL     OW14677   0.148   5.978   3.450
 4593SOL    HW114678   0.109   6.021   3.369
 4593SOL    HW214679   0.093   6.000   3.530
 4594SOL     OW14680   2.359   0.187   3.151
 4594SOL    HW114681   2.455   0.209   3.134
 4594SOL    HW214682   2.351   0.089   3.171
 4595SOL     OW14683   5.298   1.524   6.279
 4595SOL    HW114684   5.245   1.463   6.338
 4595SOL    HW214685   5.284   1.619   6.309
 4596SOL     OW14686   0.809   1.006   2.359
 4596SOL    HW114687   0.893   0.982   2.310
 4596SOL    HW214688   0.741   1.041   2.294
 4597SOL     OW14689   2.231   5.489   0.118
 4597SOL    HW114690   2.271   5.399   0.102
 4597SOL    HW214691   2.292   5.544   0.176
 4598SOL     OW14692   1.857   5.180   0.234
 4598SOL    HW114693   1.913   5.261   0.217
 4598SOL    HW214694   1.906   5.098   0.204
 4599SOL     OW14695   1.368   4.186   2.967
 4599SOL    HW114696   1.377   4.089   2.990
 4599SOL    HW214697   1.458   4.223   2.944
 4600SOL     OW14698   0.472   6.493   5.620
 4600SOL    HW114699   0.536   6.551   5.571
 4600SOL    HW214700   0.393   6.547   5.648
 4601SOL     OW14701   0.380   0.950   4.350
 4601SOL    HW114702   0.325   0.874   4.383
 4601SOL    HW214703   0.426   0.924   4.265
 4602SOL     OW14704   3.059   0.456   6.625
 4602SOL    HW114705   3.094   0.538   6.671
 4602SOL    HW214706   3.025   0.391   6.693
 4603SOL     OW14707   4.658   6.028   1.480
 4603SOL    HW114708   4.747   6.010   1.437
 4603SOL    HW214709   4.586   6.012   1.414
 4604SOL     OW14710   4.978   6.761   5.914
 4604SOL    HW114711   4.905   6.807   5.864
 4604SOL    HW214712   4.944   6.732   6.003
 4605SOL     OW14713   2.731   0.104   1.774
 4605SOL    HW114714   2.803   0.035   1.773
 4605SOL    HW214715   2.648   0.066   1.816
 4606SOL     OW14716   0.130   6.569   2.868
 4606SOL    HW114717   0.226   6.593   2.882
 4606SOL    HW214718   0.074   6.653   2.865
 4607SOL     OW14719   1.654   3.826   3.199
 4607SOL    HW114720   1.663   3.736   3.244
 4607SOL    HW214721   1.741   3.875   3.205
 4608SOL     OW14722   0.022   3.176   4.800
 4608SOL    HW114723   6.993   3.135   4.727
 4608SOL    HW214724   0.048   3.269   4.772
 4609SOL     OW14725   4.186   6.421   6.494
 4609SOL    HW114726   4.260   6.423   6.561
 4609SOL    HW214727   4.155   6.514   6.474
 4610SOL     OW14728   5.410   2.022   0.601
 4610SOL    HW114729   5.416   1.949   0.670
 4610SOL    HW214730   5.496   2.072   0.597
 4611SOL     OW14731   0.931   0.856   5.854
 4611SOL    HW114732   0.881   0.883   5.936
 4611SOL    HW214733   0.886   0.893   5.773
 4612SOL     OW14734   2.273   6.486   2.326
 4612SOL    HW114735   2.354   6.534   2.358
 4612SOL    HW214736   2.289   6.387   2.331
 4613SOL     OW14737   1.919   4.538   1.807
 4613SOL    HW114738   1.972   4.498   1.882
 4613SOL    HW214739   1.925   4.478   1.727
 4614SOL     OW14740   5.810   3.215   4.503
 4614SOL    HW114741   5.829   3.154   4.426
 4614SOL    HW214742   5.887   3.214   4.567
 4615SOL     OW14743   1.077   1.409   1.237
 4615SOL    HW114744   1.060   1.453   1.149
 4615SOL    HW214745   1.175   1.403   1.253
 4616SOL     OW14746   6.293   2.855   4.751
 4616SOL    HW114747   6.316   2.818   4.661
 4616SOL    HW214748   6.204   2.819   4.780
 4617SOL     OW14749   0.342   2.747   1.950
 4617SOL    HW114750   0.353   2.691   1.868
 4617SOL    HW214751   0.257   2.722   1.996
 4618SOL     OW14752   2.412   3.960   5.682
 4618SOL    HW114753   2.459   3.873   5.663
 4618SOL    HW214754   2.467   4.035   5.646
 4619SOL     OW14755   2.909   6.004   4.622
 4619SOL    HW114756   2.990   5.989   4.678
 4619SOL    HW214757   2.918   5.953   4.536
 4620SOL     OW14758   0.793   5.465   1.942
 4620SOL    HW114759   0.878   5.517   1.939
 4620SOL    HW214760   0.814   5.367   1.936
 4621SOL     OW14761   5.154   0.519   2.670
 4621SOL    HW114762   5.204   0.526   2.756
 4621SOL    HW214763   5.080   0.586   2.668
 4622SOL     OW14764   4.207   5.811   1.271
 4622SOL    HW114765   4.133   5.862   1.229
 4622SOL    HW214766   4.198   5.714   1.248
 4623SOL     OW14767   3.349   5.198   1.320
 4623SOL    HW114768   3.436   5.234   1.287
 4623SOL    HW214769   3.317   5.126   1.259
 4624SOL     OW14770   3.656   1.234   3.317
 4624SOL    HW114771   3.586   1.243   3.246
 4624SOL    HW214772   3.741   1.274   3.284
 4625SOL     OW14773   1.753   5.140   1.602
 4625SOL    HW114774   1.801   5.068   1.653
 4625SOL    HW214775   1.674   5.171   1.655
 4626SOL     OW14776   3.825   4.022   1.768
 4626SOL    HW114777   3.826   4.122   1.765
 4626SOL    HW214778   3.907   3.990   1.816
 4627SOL     OW14779   6.685   6.290   4.787
 4627SOL    HW114780   6.752   6.241   4.843
 4627SOL    HW214781   6.663   6.377   4.831
 4628SOL     OW14782   4.848   5.217   3.574
 4628SOL    HW114783   4.750   5.236   3.581
 4628SOL    HW214784   4.871   5.138   3.631
 4629SOL     OW14785   1.675   5.548   6.739
 4629SOL    HW114786   1.646   5.465   6.691
 4629SOL    HW214787   1.714   5.523   6.827
 4630SOL     OW14788   1.440   4.636   2.560
 4630SOL    HW114789   1.457   4.606   2.466
 4630SOL    HW214790   1.349   4.606   2.589
 4631SOL     OW14791   6.944   0.417   3.747
 4631SOL    HW114792   6.868   0.351   3.746
 4631SOL    HW214793   6.972   0.434   3.841
 4632SOL     OW14794   3.024   5.156   2.641
 4632SOL    HW114795   3.084   5.199   2.574
 4632SOL    HW214796   3.065   5.070   2.672
 4633SOL     OW14797   5.001   1.243   4.125
 4633SOL    HW114798   5.055   1.183   4.185
 4633SOL    HW214799   4.910   1.257   4.165
 4634SOL     OW14800   2.867   3.602   4.764
 4634SOL    HW114801   2.878   3.504   4.748
 4634SOL    HW214802   2.925   3.630   4.840
 4635SOL     OW14803   5.432   5.583   0.690
 4635SOL    HW114804   5.346   5.620   0.726
 4635SOL    HW214805   5.427   5.483   0.690
 4636SOL     OW14806   2.357   5.118   0.327
 4636SOL    HW114807   2.382   5.035   0.378
 4636SOL    HW214808   2.324   5.187   0.391
 4637SOL     OW14809   1.781   0.079   2.305
 4637SOL    HW114810   1.835   0.113   2.229
 4637SOL    HW214811   1.708   0.019   2.271
 4638SOL     OW14812   3.848   4.928   0.982
 4638SOL    HW114813   3.942   4.936   0.948
 4638SOL    HW214814   3.847   4.942   1.081
 4639SOL     OW14815   2.051   2.420   0.668
 4639SOL    HW114816   2.139   2.426   0.621
 4639SOL    HW214817   2.014   2.512   0.682
 4640SOL     OW14818   6.158   2.690   5.570
 4640SOL    HW114819   6.071   2.653   5.604
 4640SOL    HW214820   6.156   2.693   5.470
 4641SOL     OW14821   0.576   5.983   3.716
 4641SOL    HW114822   0.636   5.916   3.760
 4641SOL    HW214823   0.615   6.074   3.727
 4642SOL     OW14824   1.788   1.775   3.483
 4642SOL    HW114825   1.830   1.742   3.568
 4642SOL    HW214826   1.799   1.707   3.412
 4643SOL     OW14827   6.909   2.357   0.002
 4643SOL    HW114828   6.930   2.453   7.014
 4643SOL    HW214829   6.963   2.322   0.079
 4644SOL     OW14830   1.759   1.297   0.027
 4644SOL    HW114831   1.852   1.300   7.017
 4644SOL    HW214832   1.737   1.203   0.056
 4645SOL     OW14833   0.937   1.047   3.716
 4645SOL    HW114834   0.863   1.098   3.673
 4645SOL    HW214835   0.922   0.949   3.704
 4646SOL     OW14836   1.944   5.504   4.034
 4646SOL    HW114837   1.961   5.410   4.062
 4646SOL    HW214838   1.909   5.556   4.112
 4647SOL     OW14839   1.934   6.291   2.895
 4647SOL    HW114840   1.855   6.236   2.867
 4647SOL    HW214841   1.949   6.281   2.993
 4648SOL     OW14842   3.312   1.181   4.016
 4648SOL    HW114843   3.274   1.091   3.994
 4648SOL    HW214844   3.274   1.213   4.103
 4649SOL     OW14845   5.930   0.562   0.738
 4649SOL    HW114846   5.901   0.612   0.819
 4649SOL    HW214847   5.978   0.478   0.766
 4650SOL     OW14848   5.152   6.319   1.310
 4650SOL    HW114849   5.124   6.305   1.405
 4650SOL    HW214850   5.207   6.403   1.304
 4651SOL     OW14851   6.852   3.601   6.213
 4651SOL    HW114852   6.952   3.607   6.210
 4651SOL    HW214853   6.814   3.652   6.136
 4652SOL     OW14854   0.110   6.374   4.736
 4652SOL    HW114855   0.066   6.393   4.649
 4652SOL    HW214856   0.186   6.309   4.722
 4653SOL     OW14857   5.202   5.723   0.768
 4653SOL    HW114858   5.252   5.808   0.754
 4653SOL    HW214859   5.110   5.743   0.800
 4654SOL     OW14860   7.020   6.621   4.829
 4654SOL    HW114861   0.054   6.560   4.777
 4654SOL    HW214862   6.990   6.575   4.913
 4655SOL     OW14863   4.686   2.369   0.984
 4655SOL    HW114864   4.711   2.317   1.066
 4655SOL    HW214865   4.745   2.342   0.908
 4656SOL     OW14866   0.752   1.027   1.707
 4656SOL    HW114867   0.779   1.006   1.613
 4656SOL    HW214868   0.665   0.982   1.727
 4657SOL     OW14869   5.287   6.596   2.248
 4657SOL    HW114870   5.281   6.695   2.235
 4657SOL    HW214871   5.264   6.573   2.343
 4658SOL     OW14872   2.544   2.702   5.419
 4658SOL    HW114873   2.483   2.735   5.347
 4658SOL    HW214874   2.500   2.627   5.469
 4659SOL     OW14875   3.457   4.588   0.965
 4659SOL    HW114876   3.519   4.643   0.909
 4659SOL    HW214877   3.363   4.597   0.931
 4660SOL     OW14878   0.963   6.366   4.113
 4660SOL    HW114879   1.017   6.283   4.129
 4660SOL    HW214880   1.009   6.444   4.154
 4661SOL     OW14881   2.163   3.931   5.788
 4661SOL    HW114882   2.226   3.961   5.717
 4661SOL    HW214883   2.069   3.955   5.762
 4662SOL     OW14884   3.046   6.357   4.678
 4662SOL    HW114885   2.953   6.377   4.648
 4662SOL    HW214886   3.111   6.414   4.628
 4663SOL     OW14887   1.165   0.228   6.832
 4663SOL    HW114888   1.071   0.261   6.821
 4663SOL    HW214889   1.205   0.267   6.914
 4664SOL     OW14890   6.461   6.965   0.633
 4664SOL    HW114891   6.484   7.006   0.721
 4664SOL    HW214892   6.545   6.946   0.582
 4665SOL     OW14893   2.413   0.499   5.642
 4665SOL    HW114894   2.421   0.565   5.717
 4665SOL    HW214895   2.343   0.529   5.578
 4666SOL     OW14896   1.992   2.454   6.584
 4666SOL    HW114897   2.026   2.547   6.598
 4666SOL    HW214898   1.896   2.449   6.610
 4667SOL     OW14899   6.681   3.291   1.921
 4667SOL    HW114900   6.711   3.364   1.861
 4667SOL    HW214901   6.605   3.241   1.879
 4668SOL     OW14902   4.012   2.204   4.815
 4668SOL    HW114903   4.023   2.145   4.735
 4668SOL    HW214904   3.950   2.279   4.792
 4669SOL     OW14905   5.553   7.014   0.229
 4669SOL    HW114906   5.507   7.008   0.318
 4669SOL    HW214907   5.650   0.007   0.242
 4670SOL     OW14908   1.262   3.312   0.233
 4670SOL    HW114909   1.198   3.389   0.230
 4670SOL    HW214910   1.342   3.337   0.287
 4671SOL     OW14911   0.825   3.536   0.267
 4671SOL    HW114912   0.901   3.500   0.321
 4671SOL    HW214913   0.860   3.604   0.202
 4672SOL     OW14914   3.584   4.223   5.882
 4672SOL    HW114915   3.609   4.265   5.970
 4672SOL    HW214916   3.563   4.126   5.897
 4673SOL     OW14917   5.309   0.683   6.921
 4673SOL    HW114918   5.330   0.659   7.015
 4673SOL    HW214919   5.394   0.700   6.871
 4674SOL     OW14920   0.399   1.636   0.267
 4674SOL    HW114921   0.318   1.685   0.296
 4674SOL    HW214922   0.471   1.647   0.335
 4675SOL     OW14923   3.387   6.152   0.307
 4675SOL    HW114924   3.413   6.209   0.385
 4675SOL    HW214925   3.385   6.209   0.224
 4676SOL     OW14926   0.805   6.408   4.554
 4676SOL    HW114927   0.712   6.444   4.551
 4676SOL    HW214928   0.869   6.481   4.578
 4677SOL     OW14929   3.758   0.060   6.916
 4677SOL    HW114930   3.773   0.015   7.004
 4677SOL    HW214931   3.683   0.016   6.868
 4678SOL     OW14932   1.805   4.894   1.083
 4678SOL    HW114933   1.806   4.992   1.062
 4678SOL    HW214934   1.898   4.863   1.104
 4679SOL     OW14935   2.506   0.651   6.456
 4679SOL    HW114936   2.550   0.601   6.531
 4679SOL    HW214937   2.492   0.746   6.483
 4680SOL     OW14938   1.691   4.674   1.236
 4680SOL    HW114939   1.726   4.710   1.149
 4680SOL    HW214940   1.599   4.710   1.252
 4681SOL     OW14941   0.527   5.094   5.631
 4681SOL    HW114942   0.579   5.156   5.690
 4681SOL    HW214943   0.542   5.118   5.535
 4682SOL     OW14944   3.778   6.461   7.022
 4682SOL    HW114945   3.691   6.483   0.041
 4682SOL    HW214946   3.800   6.531   6.955
 4683SOL     OW14947   6.163   3.861   2.488
 4683SOL    HW114948   6.239   3.818   2.440
 4683SOL    HW214949   6.164   3.832   2.584
 4684SOL     OW14950   1.371   2.444   5.019
 4684SOL    HW114951   1.398   2.439   5.115
 4684SOL    HW214952   1.410   2.527   4.978
 4685SOL     OW14953   5.622   5.248   4.037
 4685SOL    HW114954   5.658   5.241   4.130
 4685SOL    HW214955   5.695   5.278   3.976
 4686SOL     OW14956   5.133   5.478   6.958
 4686SOL    HW114957   5.143   5.427   6.872
 4686SOL    HW214958   5.066   5.551   6.946
 4687SOL     OW14959   6.669   4.195   4.499
 4687SOL    HW114960   6.612   4.214   4.419
 4687SOL    HW214961   6.661   4.271   4.564
 4688SOL     OW14962   0.387   3.490   7.011
 4688SOL    HW114963   0.436   3.407   0.012
 4688SOL    HW214964   0.412   3.565   0.046
 4689SOL     OW14965   0.026   6.516   5.666
 4689SOL    HW114966   7.015   6.473   5.583
 4689SOL    HW214967   0.055   6.445   5.730
 4690SOL     OW14968   1.557   1.717   6.891
 4690SOL    HW114969   1.581   1.758   6.803
 4690SOL    HW214970   1.582   1.779   6.965
 4691SOL     OW14971   2.435   4.414   0.802
 4691SOL    HW114972   2.406   4.362   0.883
 4691SOL    HW214973   2.472   4.502   0.830
 4692SOL     OW14974   0.320   4.752   3.180
 4692SOL    HW114975   0.337   4.655   3.196
 4692SOL    HW214976   0.363   4.780   3.094
 4693SOL     OW14977   0.660   1.160   4.584
 4693SOL    HW114978   0.689   1.195   4.495
 4693SOL    HW214979   0.562   1.176   4.596
 4694SOL     OW14980   2.187   1.667   0.057
 4694SOL    HW114981   2.258   1.691   0.124
 4694SOL    HW214982   2.121   1.741   0.050
 4695SOL     OW14983   4.035   3.238   1.607
 4695SOL    HW114984   4.122   3.281   1.631
 4695SOL    HW214985   3.985   3.297   1.544
 4696SOL     OW14986   0.482   3.627   6.076
 4696SOL    HW114987   0.430   3.678   6.144
 4696SOL    HW214988   0.421   3.565   6.027
 4697SOL     OW14989   1.599   4.086   0.149
 4697SOL    HW114990   1.624   4.134   0.233
 4697SOL    HW214991   1.624   4.141   0.070
 4698SOL     OW14992   5.438   4.395   1.591
 4698SOL    HW114993   5.500   4.433   1.660
 4698SOL    HW214994   5.364   4.346   1.637
 4699SOL     OW14995   0.257   0.369   2.640
 4699SOL    HW114996   0.298   0.406   2.557
 4699SOL    HW214997   0.262   0.437   2.713
 4700SOL     OW14998   5.142   1.760   1.283
 4700SOL    HW114999   5.214   1.695   1.307
 4700SOL    HW215000   5.069   1.755   1.350
 4701SOL     OW15001   1.090   1.539   0.267
 4701SOL    HW115002   1.093   1.605   0.191
 4701SOL    HW215003   1.040   1.579   0.343
 4702SOL     OW15004   3.552   4.077   6.818
 4702SOL    HW115005   3.474   4.047   6.873
 4702SOL    HW215006   3.569   4.010   6.746
 4703SOL     OW15007   1.966   1.224   2.928
 4703SOL    HW115008   2.001   1.140   2.887
 4703SOL    HW215009   2.034   1.259   2.994
 4704SOL     OW15010   0.670   0.234   1.011
 4704SOL    HW115011   0.690   0.328   0.983
 4704SOL    HW215012   0.572   0.218   1.005
 4705SOL     OW15013   3.680   2.977   4.061
 4705SOL    HW115014   3.693   3.069   4.024
 4705SOL    HW215015   3.767   2.943   4.097
 4706SOL     OW15016   3.737   6.211   6.862
 4706SOL    HW115017   3.787   6.125   6.877
 4706SOL    HW215018   3.760   6.276   6.934
 4707SOL     OW15019   1.763   5.538   1.330
 4707SOL    HW115020   1.758   5.594   1.248
 4707SOL    HW215021   1.715   5.452   1.315
 4708SOL     OW15022   3.421   2.795   1.050
 4708SOL    HW115023   3.515   2.817   1.076
 4708SOL    HW215024   3.419   2.705   1.007
 4709SOL     OW15025   4.210   4.852   5.537
 4709SOL    HW115026   4.205   4.934   5.480
 4709SOL    HW215027   4.121   4.834   5.578
 4710SOL     OW15028   5.153   1.005   0.123
 4710SOL    HW115029   5.135   0.909   0.104
 4710SOL    HW215030   5.134   1.060   0.042
 4711SOL     OW15031   3.107   6.997   2.648
 4711SOL    HW115032   3.134   6.904   2.673
 4711SOL    HW215033   3.187   0.030   2.642
 4712SOL     OW15034   1.786   4.729   0.859
 4712SOL    HW115035   1.798   4.797   0.932
 4712SOL    HW215036   1.716   4.762   0.795
 4713SOL     OW15037   2.264   5.513   1.429
 4713SOL    HW115038   2.178   5.562   1.422
 4713SOL    HW215039   2.246   5.414   1.432
 4714SOL     OW15040   2.773   1.532   1.654
 4714SOL    HW115041   2.749   1.481   1.571
 4714SOL    HW215042   2.791   1.627   1.629
 4715SOL     OW15043   6.473   2.910   2.692
 4715SOL    HW115044   6.440   2.816   2.691
 4715SOL    HW215045   6.487   2.941   2.598
 4716SOL     OW15046   3.445   5.721   0.192
 4716SOL    HW115047   3.367   5.676   0.235
 4716SOL    HW215048   3.487   5.658   0.126
 4717SOL     OW15049   1.245   5.686   2.666
 4717SOL    HW115050   1.316   5.677   2.596
 4717SOL    HW215051   1.280   5.653   2.754
 4718SOL     OW15052   5.597   1.455   6.435
 4718SOL    HW115053   5.583   1.514   6.515
 4718SOL    HW215054   5.694   1.432   6.427
 4719SOL     OW15055   5.480   3.501   2.258
 4719SOL    HW115056   5.530   3.465   2.179
 4719SOL    HW215057   5.544   3.541   2.323
 4720SOL     OW15058   2.694   6.715   5.605
 4720SOL    HW115059   2.622   6.695   5.671
 4720SOL    HW215060   2.782   6.684   5.642
 4721SOL     OW15061   1.500   2.206   0.965
 4721SOL    HW115062   1.521   2.218   0.869
 4721SOL    HW215063   1.403   2.182   0.976
 4722SOL     OW15064   1.486   6.640   0.669
 4722SOL    HW115065   1.492   6.738   0.688
 4722SOL    HW215066   1.522   6.588   0.746
 4723SOL     OW15067   2.645   6.570   6.707
 4723SOL    HW115068   2.590   6.613   6.779
 4723SOL    HW215069   2.638   6.623   6.623
 4724SOL     OW15070   3.819   6.592   2.420
 4724SOL    HW115071   3.862   6.675   2.385
 4724SOL    HW215072   3.761   6.551   2.349
 4725SOL     OW15073   5.285   6.409   2.939
 4725SOL    HW115074   5.274   6.507   2.925
 4725SOL    HW215075   5.236   6.381   3.022
 4726SOL     OW15076   1.234   3.880   6.830
 4726SOL    HW115077   1.226   3.956   6.895
 4726SOL    HW215078   1.200   3.796   6.873
 4727SOL     OW15079   0.169   5.774   0.409
 4727SOL    HW115080   0.160   5.692   0.466
 4727SOL    HW215081   0.097   5.839   0.434
 4728SOL     OW15082   6.600   0.782   6.590
 4728SOL    HW115083   6.570   0.872   6.557
 4728SOL    HW215084   6.652   0.793   6.675
 4729SOL     OW15085   2.953   6.989   2.109
 4729SOL    HW115086   3.002   0.003   2.186
 4729SOL    HW215087   2.870   0.016   2.091
 4730SOL     OW15088   2.570   6.055   5.710
 4730SOL    HW115089   2.600   6.127   5.648
 4730SOL    HW215090   2.641   5.986   5.719
 4731SOL     OW15091   5.727   0.859   5.107
 4731SOL    HW115092   5.686   0.892   5.022
 4731SOL    HW215093   5.658   0.859   5.180
 4732SOL     OW15094   6.832   3.194   6.708
 4732SOL    HW115095   6.770   3.202   6.786
 4732SOL    HW215096   6.830   3.100   6.674
 4733SOL     OW15097   6.925   3.251   3.493
 4733SOL    HW115098   6.831   3.283   3.508
 4733SOL    HW215099   6.931   3.210   3.402
 4734SOL     OW15100   4.471   3.574   0.144
 4734SOL    HW115101   4.534   3.497   0.147
 4734SOL    HW215102   4.506   3.643   0.081
 4735SOL     OW15103   0.746   4.500   4.015
 4735SOL    HW115104   0.683   4.542   3.949
 4735SOL    HW215105   0.801   4.431   3.969
 4736SOL     OW15106   1.050   1.197   6.919
 4736SOL    HW115107   1.122   1.193   6.850
 4736SOL    HW215108   1.087   1.173   7.009
 4737SOL     OW15109   2.508   4.907   1.952
 4737SOL    HW115110   2.572   4.849   2.002
 4737SOL    HW215111   2.551   4.996   1.934
 4738SOL     OW15112   6.950   6.686   1.749
 4738SOL    HW115113   6.890   6.728   1.817
 4738SOL    HW215114   6.895   6.642   1.678
 4739SOL     OW15115   4.282   0.537   2.572
 4739SOL    HW115116   4.274   0.468   2.500
 4739SOL    HW215117   4.278   0.628   2.531
 4740SOL     OW15118   0.898   2.025   2.763
 4740SOL    HW115119   0.921   1.943   2.711
 4740SOL    HW215120   0.818   2.007   2.820
 4741SOL     OW15121   4.482   3.356   1.586
 4741SOL    HW115122   4.497   3.354   1.487
 4741SOL    HW215123   4.545   3.421   1.628
 4742SOL     OW15124   2.912   6.902   0.446
 4742SOL    HW115125   2.975   6.916   0.522
 4742SOL    HW215126   2.829   6.956   0.461
 4743SOL     OW15127   2.125   4.878   1.426
 4743SOL    HW115128   2.052   4.813   1.407
 4743SOL    HW215129   2.209   4.847   1.381
 4744SOL     OW15130   2.018   6.710   0.944
 4744SOL    HW115131   1.965   6.786   0.909
 4744SOL    HW215132   1.958   6.643   0.987
 4745SOL     OW15133   1.858   4.161   0.595
 4745SOL    HW115134   1.875   4.259   0.600
 4745SOL    HW215135   1.939   4.111   0.626
 4746SOL     OW15136   4.675   5.380   4.270
 4746SOL    HW115137   4.769   5.368   4.238
 4746SOL    HW215138   4.669   5.360   4.367
 4747SOL     OW15139   1.650   2.708   0.621
 4747SOL    HW115140   1.743   2.717   0.585
 4747SOL    HW215141   1.584   2.721   0.548
 4748SOL     OW15142   2.196   6.524   3.247
 4748SOL    HW115143   2.147   6.449   3.204
 4748SOL    HW215144   2.202   6.509   3.345
 4749SOL     OW15145   1.755   0.293   0.407
 4749SOL    HW115146   1.672   0.306   0.354
 4749SOL    HW215147   1.778   0.195   0.409
 4750SOL     OW15148   5.529   3.920   5.317
 4750SOL    HW115149   5.585   3.849   5.274
 4750SOL    HW215150   5.555   3.929   5.413
 4751SOL     OW15151   4.955   0.986   2.881
 4751SOL    HW115152   4.887   0.970   2.953
 4751SOL    HW215153   4.944   1.078   2.845
 4752SOL     OW15154   4.213   2.123   7.025
 4752SOL    HW115155   4.130   2.109   6.971
 4752SOL    HW215156   4.252   2.213   7.002
 4753SOL     OW15157   2.817   6.048   4.893
 4753SOL    HW115158   2.782   6.132   4.852
 4753SOL    HW215159   2.779   5.969   4.844
 4754SOL     OW15160   4.522   4.755   6.631
 4754SOL    HW115161   4.593   4.824   6.633
 4754SOL    HW215162   4.559   4.667   6.661
 4755SOL     OW15163   1.073   0.913   1.592
 4755SOL    HW115164   1.005   0.842   1.611
 4755SOL    HW215165   1.072   0.936   1.495
 4756SOL     OW15166   6.441   4.490   6.415
 4756SOL    HW115167   6.510   4.430   6.456
 4756SOL    HW215168   6.431   4.572   6.471
 4757SOL     OW15169   2.036   3.172   1.364
 4757SOL    HW115170   1.996   3.263   1.372
 4757SOL    HW215171   2.135   3.178   1.377
 4758SOL     OW15172   2.235   6.868   2.749
 4758SOL    HW115173   2.246   6.959   2.790
 4758SOL    HW215174   2.298   6.804   2.794
 4759SOL     OW15175   1.039   5.059   1.616
 4759SOL    HW115176   1.045   4.987   1.685
 4759SOL    HW215177   1.036   5.017   1.525
 4760SOL     OW15178   1.842   6.660   1.192
 4760SOL    HW115179   1.941   6.661   1.206
 4760SOL    HW215180   1.797   6.634   1.277
 4761SOL     OW15181   0.617   6.877   1.105
 4761SOL    HW115182   0.555   6.830   1.043
 4761SOL    HW215183   0.620   6.827   1.192
 4762SOL     OW15184   2.123   5.409   2.232
 4762SOL    HW115185   2.167   5.408   2.322
 4762SOL    HW215186   2.157   5.333   2.177
 4763SOL     OW15187   4.814   5.971   1.905
 4763SOL    HW115188   4.784   5.890   1.957
 4763SOL    HW215189   4.912   5.985   1.920
 4764SOL     OW15190   4.270   3.883   5.973
 4764SOL    HW115191   4.356   3.924   5.944
 4764SOL    HW215192   4.289   3.809   6.038
 4765SOL     OW15193   3.864   1.574   5.171
 4765SOL    HW115194   3.881   1.653   5.111
 4765SOL    HW215195   3.845   1.606   5.264
 4766SOL     OW15196   6.859   0.035   4.365
 4766SOL    HW115197   6.801   0.110   4.395
 4766SOL    HW215198   6.937   0.027   4.428
 4767SOL     OW15199   2.373   5.460   4.733
 4767SOL    HW115200   2.334   5.393   4.670
 4767SOL    HW215201   2.440   5.517   4.684
 4768SOL     OW15202   4.474   2.470   0.148
 4768SOL    HW115203   4.548   2.410   0.178
 4768SOL    HW215204   4.501   2.518   0.065
 4769SOL     OW15205   3.374   5.856   1.166
 4769SOL    HW115206   3.386   5.951   1.135
 4769SOL    HW215207   3.293   5.851   1.224
 4770SOL     OW15208   0.619   1.322   5.408
 4770SOL    HW115209   0.621   1.404   5.465
 4770SOL    HW215210   0.534   1.322   5.354
 4771SOL     OW15211   2.386   6.437   4.983
 4771SOL    HW115212   2.382   6.453   5.082
 4771SOL    HW215213   2.475   6.467   4.948
 4772SOL     OW15214   2.058   6.127   0.961
 4772SOL    HW115215   2.078   6.221   0.989
 4772SOL    HW215216   2.125   6.098   0.892
 4773SOL     OW15217   2.363   5.242   5.059
 4773SOL    HW115218   2.369   5.342   5.061
 4773SOL    HW215219   2.445   5.203   5.100
 4774SOL     OW15220   1.667   3.821   0.125
 4774SOL    HW115221   1.643   3.917   0.116
 4774SOL    HW215222   1.601   3.775   0.184
 4775SOL     OW15223   5.725   6.716   5.219
 4775SOL    HW115224   5.653   6.775   5.182
 4775SOL    HW215225   5.723   6.719   5.319
 4776SOL     OW15226   1.074   0.567   6.160
 4776SOL    HW115227   1.107   0.613   6.077
 4776SOL    HW215228   0.998   0.507   6.136
 4777SOL     OW15229   0.666   6.245   1.119
 4777SOL    HW115230   0.640   6.342   1.123
 4777SOL    HW215231   0.605   6.192   1.178
 4778SOL     OW15232   1.348   2.772   5.472
 4778SOL    HW115233   1.258   2.815   5.471
 4778SOL    HW215234   1.409   2.822   5.533
 4779SOL     OW15235   5.487   1.100   3.633
 4779SOL    HW115236   5.548   1.032   3.594
 4779SOL    HW215237   5.412   1.054   3.681
 4780SOL     OW15238   6.452   2.241   5.100
 4780SOL    HW115239   6.367   2.292   5.105
 4780SOL    HW215240   6.520   2.293   5.048
 4781SOL     OW15241   2.090   5.683   2.731
 4781SOL    HW115242   2.173   5.737   2.744
 4781SOL    HW215243   2.114   5.598   2.683
 4782SOL     OW15244   5.701   4.841   4.732
 4782SOL    HW115245   5.615   4.817   4.778
 4782SOL    HW215246   5.747   4.913   4.785
 4783SOL     OW15247   6.490   2.708   1.146
 4783SOL    HW115248   6.544   2.673   1.222
 4783SOL    HW215249   6.414   2.763   1.183
 4784SOL     OW15250   5.570   2.244   6.457
 4784SOL    HW115251   5.521   2.213   6.538
 4784SOL    HW215252   5.650   2.297   6.486
 4785SOL     OW15253   0.722   6.201   3.462
 4785SOL    HW115254   0.756   6.277   3.406
 4785SOL    HW215255   0.799   6.156   3.507
 4786SOL     OW15256   2.626   6.579   0.701
 4786SOL    HW115257   2.615   6.528   0.787
 4786SOL    HW215258   2.563   6.656   0.701
 4787SOL     OW15259   3.696   1.586   4.737
 4787SOL    HW115260   3.679   1.682   4.713
 4787SOL    HW215261   3.674   1.571   4.833
 4788SOL     OW15262   6.362   6.226   6.563
 4788SOL    HW115263   6.433   6.255   6.627
 4788SOL    HW215264   6.285   6.187   6.613
 4789SOL     OW15265   5.119   0.375   2.432
 4789SOL    HW115266   5.138   0.410   2.524
 4789SOL    HW215267   5.123   0.450   2.366
 4790SOL     OW15268   5.728   2.282   5.051
 4790SOL    HW115269   5.727   2.184   5.030
 4790SOL    HW215270   5.820   2.318   5.039
 4791SOL     OW15271   6.781   2.755   0.601
 4791SOL    HW115272   6.693   2.728   0.564
 4791SOL    HW215273   6.853   2.699   0.560
 4792SOL     OW15274   2.122   3.428   4.084
 4792SOL    HW115275   2.187   3.458   4.014
 4792SOL    HW215276   2.029   3.444   4.052
 4793SOL     OW15277   0.915   3.487   6.023
 4793SOL    HW115278   0.991   3.547   5.998
 4793SOL    HW215279   0.859   3.531   6.093
 4794SOL     OW15280   4.426   0.869   4.300
 4794SOL    HW115281   4.397   0.964   4.310
 4794SOL    HW215282   4.353   0.816   4.257
 4795SOL     OW15283   0.874   0.896   5.526
 4795SOL    HW115284   0.857   0.995   5.517
 4795SOL    HW215285   0.813   0.846   5.464
 4796SOL     OW15286   3.676   1.563   5.715
 4796SOL    HW115287   3.607   1.602   5.654
 4796SOL    HW215288   3.700   1.629   5.786
 4797SOL     OW15289   0.755   5.441   4.544
 4797SOL    HW115290   0.741   5.364   4.482
 4797SOL    HW215291   0.762   5.408   4.637
 4798SOL     OW15292   5.125   4.840   6.323
 4798SOL    HW115293   5.174   4.789   6.253
 4798SOL    HW215294   5.051   4.893   6.280
 4799SOL     OW15295   3.528   3.249   0.072
 4799SOL    HW115296   3.464   3.252   0.149
 4799SOL    HW215297   3.574   3.161   0.071
 4800SOL     OW15298   1.526   4.707   0.005
 4800SOL    HW115299   1.557   4.789   6.983
 4800SOL    HW215300   1.435   4.723   0.044
 4801SOL     OW15301   4.865   2.553   1.718
 4801SOL    HW115302   4.841   2.599   1.632
 4801SOL    HW215303   4.964   2.555   1.731
 4802SOL     OW15304   6.872   6.979   2.225
 4802SOL    HW115305   6.816   0.014   2.169
 4802SOL    HW215306   6.908   6.905   2.168
 4803SOL     OW15307   5.835   4.117   5.975
 4803SOL    HW115308   5.836   4.111   5.875
 4803SOL    HW215309   5.741   4.103   6.007
 4804SOL     OW15310   5.447   1.283   0.811
 4804SOL    HW115311   5.357   1.296   0.853
 4804SOL    HW215312   5.439   1.294   0.712
 4805SOL     OW15313   6.170   2.217   1.135
 4805SOL    HW115314   6.186   2.311   1.166
 4805SOL    HW215315   6.106   2.172   1.198
 4806SOL     OW15316   1.036   2.408   3.313
 4806SOL    HW115317   1.018   2.315   3.282
 4806SOL    HW215318   1.044   2.468   3.234
 4807SOL     OW15319   1.526   2.941   6.470
 4807SOL    HW115320   1.442   2.895   6.438
 4807SOL    HW215321   1.515   2.965   6.566
 4808SOL     OW15322   4.328   5.992   0.681
 4808SOL    HW115323   4.293   5.989   0.588
 4808SOL    HW215324   4.271   5.934   0.740
 4809SOL     OW15325   3.642   5.071   1.719
 4809SOL    HW115326   3.579   5.121   1.779
 4809SOL    HW215327   3.596   5.050   1.633
 4810SOL     OW15328   1.073   4.656   3.911
 4810SOL    HW115329   0.996   4.714   3.938
 4810SOL    HW215330   1.050   4.608   3.826
 4811SOL     OW15331   2.954   3.706   4.517
 4811SOL    HW115332   2.921   3.656   4.597
 4811SOL    HW215333   2.916   3.665   4.434
 4812SOL     OW15334   0.298   0.049   2.294
 4812SOL    HW115335   0.371   0.109   2.261
 4812SOL    HW215336   0.338   6.994   2.337
 4813SOL     OW15337   6.177   1.579   6.973
 4813SOL    HW115338   6.179   1.481   6.991
 4813SOL    HW215339   6.262   1.621   7.005
 4814SOL     OW15340   0.092   3.577   1.344
 4814SOL    HW115341   0.145   3.595   1.427
 4814SOL    HW215342   0.134   3.626   1.267
 4815SOL     OW15343   5.871   5.007   2.659
 4815SOL    HW115344   5.945   4.940   2.648
 4815SOL    HW215345   5.848   5.015   2.756
 4816SOL     OW15346   1.527   0.294   2.132
 4816SOL    HW115347   1.555   0.272   2.039
 4816SOL    HW215348   1.539   0.214   2.190
 4817SOL     OW15349   4.148   1.196   1.295
 4817SOL    HW115350   4.188   1.278   1.254
 4817SOL    HW215351   4.186   1.115   1.250
 4818SOL     OW15352   3.254   0.582   4.852
 4818SOL    HW115353   3.159   0.613   4.854
 4818SOL    HW215354   3.311   0.651   4.808
 4819SOL     OW15355   3.682   0.843   1.019
 4819SOL    HW115356   3.741   0.854   1.099
 4819SOL    HW215357   3.603   0.787   1.043
 4820SOL     OW15358   6.713   4.127   2.263
 4820SOL    HW115359   6.624   4.085   2.282
 4820SOL    HW215360   6.786   4.062   2.286
 4821SOL     OW15361   6.496   5.200   1.581
 4821SOL    HW115362   6.417   5.138   1.585
 4821SOL    HW215363   6.578   5.148   1.556
 4822SOL     OW15364   1.786   4.253   3.344
 4822SOL    HW115365   1.866   4.247   3.284
 4822SOL    HW215366   1.706   4.216   3.297
 4823SOL     OW15367   0.960   0.472   4.576
 4823SOL    HW115368   0.914   0.454   4.664
 4823SOL    HW215369   0.903   0.437   4.502
 4824SOL     OW15370   5.107   2.190   2.615
 4824SOL    HW115371   5.187   2.238   2.578
 4824SOL    HW215372   5.096   2.103   2.566
 4825SOL     OW15373   1.675   3.518   3.283
 4825SOL    HW115374   1.622   3.472   3.212
 4825SOL    HW215375   1.658   3.473   3.371
 4826SOL     OW15376   0.220   6.580   0.438
 4826SOL    HW115377   0.314   6.570   0.406
 4826SOL    HW215378   0.157   6.546   0.368
 4827SOL     OW15379   4.757   1.118   0.888
 4827SOL    HW115380   4.790   1.073   0.805
 4827SOL    HW215381   4.659   1.102   0.898
 4828SOL     OW15382   4.928   3.366   1.782
 4828SOL    HW115383   5.017   3.397   1.749
 4828SOL    HW215384   4.942   3.304   1.860
 4829SOL     OW15385   3.167   0.889   6.097
 4829SOL    HW115386   3.255   0.931   6.120
 4829SOL    HW215387   3.181   0.793   6.071
 4830SOL     OW15388   4.917   6.595   3.569
 4830SOL    HW115389   4.986   6.528   3.596
 4830SOL    HW215390   4.902   6.660   3.643
 4831SOL     OW15391   6.794   4.461   5.453
 4831SOL    HW115392   6.842   4.497   5.533
 4831SOL    HW215393   6.779   4.363   5.464
 4832SOL     OW15394   3.155   2.940   5.942
 4832SOL    HW115395   3.105   2.894   5.868
 4832SOL    HW215396   3.107   2.925   6.029
 4833SOL     OW15397   4.237   1.315   3.527
 4833SOL    HW115398   4.138   1.307   3.540
 4833SOL    HW215399   4.257   1.345   3.434
 4834SOL     OW15400   4.497   1.499   1.748
 4834SOL    HW115401   4.410   1.521   1.704
 4834SOL    HW215402   4.497   1.535   1.841
 4835SOL     OW15403   2.294   0.223   6.937
 4835SOL    HW115404   2.300   0.193   6.842
 4835SOL    HW215405   2.253   0.313   6.942
 4836SOL     OW15406   5.041   1.986   4.047
 4836SOL    HW115407   4.992   1.938   4.120
 4836SOL    HW215408   5.137   1.993   4.071
 4837SOL     OW15409   2.508   2.547   0.900
 4837SOL    HW115410   2.534   2.496   0.982
 4837SOL    HW215411   2.435   2.498   0.852
 4838SOL     OW15412   3.712   4.891   2.206
 4838SOL    HW115413   3.806   4.926   2.203
 4838SOL    HW215414   3.688   4.854   2.117
 4839SOL     OW15415   0.296   5.355   5.711
 4839SOL    HW115416   0.395   5.363   5.701
 4839SOL    HW215417   0.258   5.307   5.632
 4840SOL     OW15418   6.228   6.298   0.132
 4840SOL    HW115419   6.285   6.254   0.062
 4840SOL    HW215420   6.258   6.392   0.146
 4841SOL     OW15421   3.195   5.648   2.061
 4841SOL    HW115422   3.197   5.740   2.022
 4841SOL    HW215423   3.195   5.581   1.988
 4842SOL     OW15424   4.133   6.168   1.695
 4842SOL    HW115425   4.227   6.202   1.696
 4842SOL    HW215426   4.121   6.101   1.769
 4843SOL     OW15427   6.875   3.825   0.120
 4843SOL    HW115428   6.861   3.800   0.024
 4843SOL    HW215429   6.971   3.814   0.144
 4844SOL     OW15430   6.602   2.666   6.394
 4844SOL    HW115431   6.579   2.571   6.371
 4844SOL    HW215432   6.550   2.695   6.474
 4845SOL     OW15433   5.817   5.416   3.906
 4845SOL    HW115434   5.787   5.493   3.961
 4845SOL    HW215435   5.868   5.449   3.826
 4846SOL     OW15436   1.575   3.007   1.032
 4846SOL    HW115437   1.503   3.036   0.969
 4846SOL    HW215438   1.663   3.007   0.983
 4847SOL     OW15439   3.442   1.942   5.347
 4847SOL    HW115440   3.419   1.951   5.444
 4847SOL    HW215441   3.375   1.992   5.292
 4848SOL     OW15442   2.083   1.475   3.159
 4848SOL    HW115443   2.098   1.539   3.083
 4848SOL    HW215444   2.064   1.384   3.123
 4849SOL     OW15445   1.518   0.318   0.261
 4849SOL    HW115446   1.523   0.367   0.174
 4849SOL    HW215447   1.425   0.324   0.298
 4850SOL     OW15448   4.341   0.700   1.479
 4850SOL    HW115449   4.357   0.648   1.562
 4850SOL    HW215450   4.424   0.750   1.453
 4851SOL     OW15451   4.046   6.250   5.606
 4851SOL    HW115452   3.999   6.162   5.602
 4851SOL    HW215453   4.141   6.239   5.576
 4852SOL     OW15454   2.177   0.795   0.016
 4852SOL    HW115455   2.208   0.795   0.111
 4852SOL    HW215456   2.105   0.726   0.005
 4853SOL     OW15457   3.517   1.518   2.990
 4853SOL    HW115458   3.437   1.490   3.043
 4853SOL    HW215459   3.490   1.583   2.920
 4854SOL     OW15460   4.719   5.812   2.131
 4854SOL    HW115461   4.765   5.734   2.173
 4854SOL    HW215462   4.734   5.894   2.187
 4855SOL     OW15463   5.974   1.493   1.959
 4855SOL    HW115464   5.965   1.530   1.866
 4855SOL    HW215465   6.064   1.452   1.970
 4856SOL     OW15466   2.760   4.806   3.934
 4856SOL    HW115467   2.678   4.761   3.969
 4856SOL    HW215468   2.767   4.790   3.835
 4857SOL     OW15469   0.991   2.168   5.980
 4857SOL    HW115470   0.996   2.267   5.964
 4857SOL    HW215471   0.925   2.127   5.917
 4858SOL     OW15472   1.796   2.260   4.513
 4858SOL    HW115473   1.746   2.263   4.600
 4858SOL    HW215474   1.734   2.283   4.438
 4859SOL     OW15475   1.759   5.940   5.041
 4859SOL    HW115476   1.837   5.928   4.980
 4859SOL    HW215477   1.762   5.869   5.112
 4860SOL     OW15478   4.637   5.487   1.604
 4860SOL    HW115479   4.556   5.435   1.634
 4860SOL    HW215480   4.683   5.525   1.685
 4861SOL     OW15481   4.892   4.582   6.295
 4861SOL    HW115482   4.892   4.654   6.226
 4861SOL    HW215483   4.972   4.592   6.353
 4862SOL     OW15484   1.307   5.212   2.742
 4862SOL    HW115485   1.296   5.286   2.676
 4862SOL    HW215486   1.231   5.148   2.734
 4863SOL     OW15487   5.663   4.122   0.214
 4863SOL    HW115488   5.654   4.109   0.313
 4863SOL    HW215489   5.574   4.107   0.171
 4864SOL     OW15490   2.765   1.151   3.452
 4864SOL    HW115491   2.794   1.223   3.514
 4864SOL    HW215492   2.782   1.061   3.494
 4865SOL     OW15493   2.650   5.653   4.984
 4865SOL    HW115494   2.559   5.647   5.025
 4865SOL    HW215495   2.642   5.667   4.885
 4866SOL     OW15496   0.431   3.745   0.965
 4866SOL    HW115497   0.354   3.798   0.931
 4866SOL    HW215498   0.438   3.756   1.065
 4867SOL     OW15499   4.481   5.807   2.498
 4867SOL    HW115500   4.543   5.815   2.576
 4867SOL    HW215501   4.474   5.895   2.451
 4868SOL     OW15502   6.314   4.175   1.729
 4868SOL    HW115503   6.267   4.208   1.811
 4868SOL    HW215504   6.386   4.238   1.703
 4869SOL     OW15505   1.173   1.806   6.399
 4869SOL    HW115506   1.105   1.877   6.382
 4869SOL    HW215507   1.128   1.717   6.409
 4870SOL     OW15508   0.555   6.417   2.109
 4870SOL    HW115509   0.615   6.369   2.046
 4870SOL    HW215510   0.543   6.362   2.192
 4871SOL     OW15511   1.488   0.927   4.443
 4871SOL    HW115512   1.442   1.012   4.468
 4871SOL    HW215513   1.478   0.911   4.345
 4872SOL     OW15514   6.899   6.314   3.300
 4872SOL    HW115515   6.882   6.287   3.395
 4872SOL    HW215516   6.955   6.396   3.297
 4873SOL     OW15517   6.584   5.986   4.735
 4873SOL    HW115518   6.658   5.953   4.677
 4873SOL    HW215519   6.606   5.967   4.831
 4874SOL     OW15520   4.795   2.397   3.397
 4874SOL    HW115521   4.864   2.328   3.417
 4874SOL    HW215522   4.704   2.354   3.396
 4875SOL     OW15523   5.013   6.673   6.913
 4875SOL    HW115524   5.008   6.573   6.915
 4875SOL    HW215525   5.066   6.705   6.991
 4876SOL     OW15526   1.612   1.661   3.112
 4876SOL    HW115527   1.662   1.675   3.026
 4876SOL    HW215528   1.572   1.748   3.141
 4877SOL     OW15529   0.385   2.020   4.822
 4877SOL    HW115530   0.415   2.000   4.916
 4877SOL    HW215531   0.294   2.061   4.824
 4878SOL     OW15532   6.827   1.935   1.845
 4878SOL    HW115533   6.892   1.975   1.781
 4878SOL    HW215534   6.770   2.007   1.884
 4879SOL     OW15535   4.845   1.517   2.546
 4879SOL    HW115536   4.924   1.459   2.569
 4879SOL    HW215537   4.761   1.467   2.565
 4880SOL     OW15538   6.227   3.082   6.668
 4880SOL    HW115539   6.234   3.156   6.601
 4880SOL    HW215540   6.317   3.063   6.705
 4881SOL     OW15541   1.583   2.598   1.672
 4881SOL    HW115542   1.582   2.601   1.572
 4881SOL    HW215543   1.490   2.595   1.706
 4882SOL     OW15544   4.083   2.006   5.048
 4882SOL    HW115545   4.114   1.934   4.985
 4882SOL    HW215546   4.029   1.965   5.121
 4883SOL     OW15547   5.471   3.816   1.226
 4883SOL    HW115548   5.504   3.798   1.133
 4883SOL    HW215549   5.379   3.778   1.236
 4884SOL     OW15550   1.197   5.921   1.306
 4884SOL    HW115551   1.130   5.960   1.243
 4884SOL    HW215552   1.189   5.966   1.395
 4885SOL     OW15553   2.611   5.010   1.565
 4885SOL    HW115554   2.515   5.034   1.577
 4885SOL    HW215555   2.620   4.912   1.552
 4886SOL     OW15556   3.378   0.360   2.392
 4886SOL    HW115557   3.419   0.441   2.433
 4886SOL    HW215558   3.288   0.344   2.433
 4887SOL     OW15559   1.469   6.710   1.681
 4887SOL    HW115560   1.441   6.720   1.585
 4887SOL    HW215561   1.388   6.707   1.739
 4888SOL     OW15562   2.754   6.567   3.033
 4888SOL    HW115563   2.698   6.614   3.101
 4888SOL    HW215564   2.816   6.633   2.990
 4889SOL     OW15565   6.622   2.012   3.948
 4889SOL    HW115566   6.602   2.011   4.046
 4889SOL    HW215567   6.537   2.030   3.897
 4890SOL     OW15568   1.103   0.756   5.502
 4890SOL    HW115569   1.179   0.819   5.490
 4890SOL    HW215570   1.019   0.808   5.521
 4891SOL     OW15571   2.391   5.252   6.180
 4891SOL    HW115572   2.458   5.245   6.254
 4891SOL    HW215573   2.424   5.200   6.101
 4892SOL     OW15574   5.751   6.966   2.484
 4892SOL    HW115575   5.677   6.933   2.543
 4892SOL    HW215576   5.838   6.930   2.515
 4893SOL     OW15577   0.354   3.481   1.962
 4893SOL    HW115578   0.273   3.478   1.904
 4893SOL    HW215579   0.397   3.571   1.956
 4894SOL     OW15580   3.561   0.245   2.180
 4894SOL    HW115581   3.533   0.266   2.274
 4894SOL    HW215582   3.527   0.154   2.155
 4895SOL     OW15583   0.024   4.766   3.278
 4895SOL    HW115584   0.087   4.760   3.356
 4895SOL    HW215585   0.061   4.831   3.211
 4896SOL     OW15586   1.337   5.404   3.728
 4896SOL    HW115587   1.339   5.424   3.826
 4896SOL    HW215588   1.317   5.488   3.678
 4897SOL     OW15589   1.868   5.792   5.578
 4897SOL    HW115590   1.782   5.839   5.599
 4897SOL    HW215591   1.936   5.818   5.646
 4898SOL     OW15592   4.091   1.079   4.873
 4898SOL    HW115593   4.150   1.010   4.831
 4898SOL    HW215594   4.139   1.122   4.949
 4899SOL     OW15595   6.210   5.396   2.060
 4899SOL    HW115596   6.236   5.307   2.097
 4899SOL    HW215597   6.171   5.384   1.969
 4900SOL     OW15598   4.307   6.217   5.542
 4900SOL    HW115599   4.340   6.264   5.460
 4900SOL    HW215600   4.385   6.198   5.603
 4901SOL     OW15601   0.970   2.461   5.903
 4901SOL    HW115602   1.061   2.473   5.942
 4901SOL    HW215603   0.950   2.536   5.841
 4902SOL     OW15604   2.069   0.422   6.620
 4902SOL    HW115605   2.002   0.480   6.667
 4902SOL    HW215606   2.146   0.404   6.680
 4903SOL     OW15607   4.840   5.411   1.225
 4903SOL    HW115608   4.917   5.401   1.288
 4903SOL    HW215609   4.820   5.508   1.212
 4904SOL     OW15610   2.146   0.760   6.571
 4904SOL    HW115611   2.099   0.690   6.624
 4904SOL    HW215612   2.093   0.782   6.490
 4905SOL     OW15613   2.971   0.075   2.856
 4905SOL    HW115614   3.015   0.040   2.773
 4905SOL    HW215615   3.029   0.144   2.898
 4906SOL     OW15616   4.778   3.388   5.311
 4906SOL    HW115617   4.704   3.334   5.351
 4906SOL    HW215618   4.739   3.456   5.249
 4907SOL     OW15619   4.513   1.564   0.149
 4907SOL    HW115620   4.599   1.522   0.120
 4907SOL    HW215621   4.447   1.559   0.073
 4908SOL     OW15622   4.876   0.143   0.115
 4908SOL    HW115623   4.858   0.080   0.040
 4908SOL    HW215624   4.789   0.178   0.151
 4909SOL     OW15625   6.219   4.301   3.403
 4909SOL    HW115626   6.140   4.243   3.384
 4909SOL    HW215627   6.303   4.247   3.396
 4910SOL     OW15628   5.546   0.899   4.881
 4910SOL    HW115629   5.448   0.884   4.894
 4910SOL    HW215630   5.575   0.854   4.797
 4911SOL     OW15631   1.825   2.390   2.520
 4911SOL    HW115632   1.809   2.402   2.423
 4911SOL    HW215633   1.782   2.465   2.571
 4912SOL     OW15634   5.554   1.967   5.858
 4912SOL    HW115635   5.546   1.904   5.781
 4912SOL    HW215636   5.604   2.049   5.830
 4913SOL     OW15637   5.436   2.393   5.430
 4913SOL    HW115638   5.361   2.451   5.398
 4913SOL    HW215639   5.443   2.400   5.529
 4914SOL     OW15640   4.770   0.333   4.611
 4914SOL    HW115641   4.850   0.289   4.652
 4914SOL    HW215642   4.786   0.348   4.514
 4915SOL     OW15643   3.035   5.547   5.248
 4915SOL    HW115644   3.058   5.477   5.180
 4915SOL    HW215645   3.029   5.636   5.202
 4916SOL     OW15646   6.185   0.690   4.446
 4916SOL    HW115647   6.105   0.635   4.469
 4916SOL    HW215648   6.162   0.756   4.374
 4917SOL     OW15649   3.589   6.219   0.867
 4917SOL    HW115650   3.595   6.314   0.897
 4917SOL    HW215651   3.656   6.203   0.794
 4918SOL     OW15652   6.331   5.753   1.918
 4918SOL    HW115653   6.354   5.659   1.893
 4918SOL    HW215654   6.413   5.798   1.955
 4919SOL     OW15655   4.242   3.383   1.732
 4919SOL    HW115656   4.312   3.360   1.664
 4919SOL    HW215657   4.275   3.457   1.791
 4920SOL     OW15658   5.811   0.086   5.676
 4920SOL    HW115659   5.826   0.090   5.775
 4920SOL    HW215660   5.812   7.016   5.646
 4921SOL     OW15661   0.467   6.696   0.915
 4921SOL    HW115662   0.450   6.717   0.818
 4921SOL    HW215663   0.382   6.709   0.966
 4922SOL     OW15664   2.977   2.041   5.147
 4922SOL    HW115665   3.020   2.131   5.139
 4922SOL    HW215666   2.906   2.031   5.078
 4923SOL     OW15667   3.193   2.011   3.158
 4923SOL    HW115668   3.231   2.057   3.239
 4923SOL    HW215669   3.256   1.939   3.129
 4924SOL     OW15670   2.788   1.457   5.767
 4924SOL    HW115671   2.758   1.362   5.769
 4924SOL    HW215672   2.887   1.461   5.773
 4925SOL     OW15673   4.336   6.596   3.482
 4925SOL    HW115674   4.299   6.688   3.496
 4925SOL    HW215675   4.435   6.597   3.497
 4926SOL     OW15676   5.588   1.574   1.537
 4926SOL    HW115677   5.554   1.518   1.612
 4926SOL    HW215678   5.512   1.618   1.490
 4927SOL     OW15679   2.973   1.992   6.570
 4927SOL    HW115680   2.966   1.897   6.541
 4927SOL    HW215681   2.977   1.997   6.669
 4928SOL     OW15682   1.290   1.642   1.030
 4928SOL    HW115683   1.307   1.666   1.126
 4928SOL    HW215684   1.307   1.545   1.016
 4929SOL     OW15685   0.118   0.452   3.549
 4929SOL    HW115686   0.033   0.437   3.601
 4929SOL    HW215687   0.174   0.520   3.596
 4930SOL     OW15688   6.003   0.063   1.872
 4930SOL    HW115689   5.985   0.030   1.964
 4930SOL    HW215690   5.972   0.158   1.864
 4931SOL     OW15691   6.432   6.681   1.827
 4931SOL    HW115692   6.341   6.712   1.799
 4931SOL    HW215693   6.499   6.709   1.758
 4932SOL     OW15694   3.162   3.995   3.062
 4932SOL    HW115695   3.092   3.965   3.127
 4932SOL    HW215696   3.192   3.916   3.008
 4933SOL     OW15697   2.470   5.942   4.599
 4933SOL    HW115698   2.418   5.857   4.589
 4933SOL    HW215699   2.471   5.991   4.512
 4934SOL     OW15700   3.213   6.017   2.942
 4934SOL    HW115701   3.134   6.048   2.995
 4934SOL    HW215702   3.296   6.059   2.979
 4935SOL     OW15703   1.325   1.930   6.754
 4935SOL    HW115704   1.249   1.922   6.690
 4935SOL    HW215705   1.291   1.964   6.842
 4936SOL     OW15706   2.016   4.098   1.388
 4936SOL    HW115707   1.960   4.166   1.340
 4936SOL    HW215708   1.998   4.007   1.351
 4937SOL     OW15709   4.893   3.192   5.058
 4937SOL    HW115710   4.803   3.233   5.067
 4937SOL    HW215711   4.902   3.116   5.123
 4938SOL     OW15712   3.788   5.505   5.789
 4938SOL    HW115713   3.886   5.485   5.796
 4938SOL    HW215714   3.744   5.433   5.736
 4939SOL     OW15715   4.740   3.012   5.762
 4939SOL    HW115716   4.774   2.928   5.804
 4939SOL    HW215717   4.714   2.993   5.667
 4940SOL     OW15718   1.957   6.664   4.959
 4940SOL    HW115719   2.016   6.653   5.039
 4940SOL    HW215720   1.953   6.577   4.909
 4941SOL     OW15721   4.708   1.198   6.677
 4941SOL    HW115722   4.755   1.120   6.719
 4941SOL    HW215723   4.666   1.169   6.591
 4942SOL     OW15724   5.136   3.728   5.486
 4942SOL    HW115725   5.183   3.739   5.573
 4942SOL    HW215726   5.068   3.655   5.495
 4943SOL     OW15727   3.930   2.374   0.887
 4943SOL    HW115728   3.844   2.338   0.853
 4943SOL    HW215729   3.974   2.306   0.946
 4944SOL     OW15730   2.170   4.546   3.154
 4944SOL    HW115731   2.222   4.541   3.069
 4944SOL    HW215732   2.120   4.633   3.158
 4945SOL     OW15733   0.372   6.784   4.022
 4945SOL    HW115734   0.394   6.686   4.017
 4945SOL    HW215735   0.274   6.795   4.039
 4946SOL     OW15736   1.638   3.295   1.940
 4946SOL    HW115737   1.632   3.392   1.966
 4946SOL    HW215738   1.727   3.259   1.967
 4947SOL     OW15739   0.935   0.040   0.498
 4947SOL    HW115740   1.024   0.086   0.496
 4947SOL    HW215741   0.949   6.966   0.494
 4948SOL     OW15742   2.571   1.121   2.413
 4948SOL    HW115743   2.587   1.210   2.455
 4948SOL    HW215744   2.551   1.054   2.485
 4949SOL     OW15745   5.716   0.306   4.950
 4949SOL    HW115746   5.764   0.257   5.023
 4949SOL    HW215747   5.687   0.395   4.984
 4950SOL     OW15748   2.713   5.785   5.200
 4950SOL    HW115749   2.680   5.744   5.115
 4950SOL    HW215750   2.718   5.716   5.271
 4951SOL     OW15751   4.336   1.785   4.642
 4951SOL    HW115752   4.248   1.749   4.610
 4951SOL    HW215753   4.336   1.885   4.634
 4952SOL     OW15754   0.333   6.818   5.372
 4952SOL    HW115755   0.289   6.769   5.297
 4952SOL    HW215756   0.358   6.910   5.343
 4953SOL     OW15757   1.699   5.781   1.552
 4953SOL    HW115758   1.696   5.686   1.521
 4953SOL    HW215759   1.662   5.788   1.645
 4954SOL     OW15760   5.449   5.374   0.193
 4954SOL    HW115761   5.416   5.333   0.108
 4954SOL    HW215762   5.514   5.312   0.236
 4955SOL     OW15763   1.211   6.418   1.359
 4955SOL    HW115764   1.157   6.430   1.276
 4955SOL    HW215765   1.296   6.470   1.352
 4956SOL     OW15766   4.117   7.022   4.687
 4956SOL    HW115767   4.153   6.999   4.777
 4956SOL    HW215768   4.185   6.999   4.617
 4957SOL     OW15769   0.879   1.065   3.983
 4957SOL    HW115770   0.862   0.970   4.009
 4957SOL    HW215771   0.919   1.068   3.891
 4958SOL     OW15772   0.479   6.446   6.192
 4958SOL    HW115773   0.444   6.474   6.282
 4958SOL    HW215774   0.505   6.527   6.140
 4959SOL     OW15775   0.797   0.814   0.564
 4959SOL    HW115776   0.810   0.893   0.504
 4959SOL    HW215777   0.871   0.808   0.630
 4960SOL     OW15778   3.494   5.867   4.183
 4960SOL    HW115779   3.449   5.831   4.265
 4960SOL    HW215780   3.568   5.805   4.156
 4961SOL     OW15781   4.987   0.303   4.773
 4961SOL    HW115782   4.999   0.263   4.864
 4961SOL    HW215783   5.004   0.233   4.704
 4962SOL     OW15784   6.023   2.552   1.640
 4962SOL    HW115785   6.090   2.480   1.651
 4962SOL    HW215786   6.042   2.626   1.704
 4963SOL     OW15787   0.814   5.265   1.578
 4963SOL    HW115788   0.869   5.181   1.582
 4963SOL    HW215789   0.864   5.335   1.526
 4964SOL     OW15790   3.293   6.572   3.291
 4964SOL    HW115791   3.367   6.639   3.295
 4964SOL    HW215792   3.305   6.513   3.212
 4965SOL     OW15793   0.069   7.014   4.535
 4965SOL    HW115794   0.009   6.983   4.609
 4965SOL    HW215795   0.159   0.012   4.572
 4966SOL     OW15796   2.993   5.622   5.505
 4966SOL    HW115797   3.006   5.719   5.524
 4966SOL    HW215798   3.033   5.600   5.416
 4967SOL     OW15799   3.815   2.482   6.909
 4967SOL    HW115800   3.738   2.427   6.878
 4967SOL    HW215801   3.841   2.453   7.001
 4968SOL     OW15802   5.089   2.737   3.915
 4968SOL    HW115803   5.066   2.743   3.818
 4968SOL    HW215804   5.029   2.798   3.967
 4969SOL     OW15805   1.808   1.319   1.338
 4969SOL    HW115806   1.760   1.376   1.271
 4969SOL    HW215807   1.845   1.238   1.292
 4970SOL     OW15808   1.229   1.974   5.019
 4970SOL    HW115809   1.267   2.048   4.963
 4970SOL    HW215810   1.270   1.887   4.992
 4971SOL     OW15811   6.407   6.491   3.003
 4971SOL    HW115812   6.413   6.447   3.092
 4971SOL    HW215813   6.334   6.448   2.949
 4972SOL     OW15814   1.758   3.821   0.520
 4972SOL    HW115815   1.677   3.879   0.514
 4972SOL    HW215816   1.730   3.725   0.523
 4973SOL     OW15817   6.192   6.010   2.416
 4973SOL    HW115818   6.279   5.970   2.387
 4973SOL    HW215819   6.119   5.944   2.404
 4974SOL     OW15820   5.696   6.048   2.717
 4974SOL    HW115821   5.680   6.147   2.721
 4974SOL    HW215822   5.783   6.026   2.761
 4975SOL     OW15823   6.230   6.287   0.447
 4975SOL    HW115824   6.295   6.363   0.450
 4975SOL    HW215825   6.185   6.286   0.357
 4976SOL     OW15826   3.494   1.095   5.143
 4976SOL    HW115827   3.446   1.132   5.064
 4976SOL    HW215828   3.508   0.997   5.131
 4977SOL     OW15829   4.073   3.719   0.885
 4977SOL    HW115830   4.062   3.748   0.790
 4977SOL    HW215831   3.984   3.722   0.931
 4978SOL     OW15832   5.726   3.300   5.635
 4978SOL    HW115833   5.738   3.359   5.714
 4978SOL    HW215834   5.800   3.232   5.632
 4979SOL     OW15835   0.845   0.443   6.071
 4979SOL    HW115836   0.787   0.366   6.044
 4979SOL    HW215837   0.790   0.526   6.077
 4980SOL     OW15838   3.742   5.475   2.329
 4980SOL    HW115839   3.806   5.517   2.393
 4980SOL    HW215840   3.651   5.515   2.340
 4981SOL     OW15841   4.477   6.980   5.409
 4981SOL    HW115842   4.507   0.044   5.440
 4981SOL    HW215843   4.378   6.973   5.418
 4982SOL     OW15844   2.385   2.294   0.013
 4982SOL    HW115845   2.471   2.313   6.991
 4982SOL    HW215846   2.377   2.196   0.031
 4983SOL     OW15847   5.458   2.491   4.091
 4983SOL    HW115848   5.556   2.504   4.105
 4983SOL    HW215849   5.407   2.533   4.165
 4984SOL     OW15850   5.055   4.177   4.408
 4984SOL    HW115851   5.006   4.090   4.416
 4984SOL    HW215852   5.100   4.198   4.495
 4985SOL     OW15853   5.098   5.076   2.607
 4985SOL    HW115854   5.095   4.983   2.643
 4985SOL    HW215855   5.015   5.093   2.554
 4986SOL     OW15856   5.591   4.646   3.453
 4986SOL    HW115857   5.673   4.687   3.413
 4986SOL    HW215858   5.575   4.685   3.544
 4987SOL     OW15859   0.123   3.168   1.375
 4987SOL    HW115860   0.140   3.170   1.473
 4987SOL    HW215861   0.045   3.108   1.356
 4988SOL     OW15862   0.282   1.207   4.240
 4988SOL    HW115863   0.327   1.118   4.245
 4988SOL    HW215864   0.274   1.236   4.145
 4989SOL     OW15865   0.065   1.372   0.504
 4989SOL    HW115866   0.033   1.466   0.498
 4989SOL    HW215867   7.024   1.317   0.555
 4990SOL     OW15868   0.428   2.686   5.248
 4990SOL    HW115869   0.455   2.780   5.265
 4990SOL    HW215870   0.480   2.625   5.307
 4991SOL     OW15871   0.867   2.865   4.321
 4991SOL    HW115872   0.898   2.776   4.289
 4991SOL    HW215873   0.768   2.865   4.330
 4992SOL     OW15874   3.563   1.047   5.430
 4992SOL    HW115875   3.657   1.013   5.426
 4992SOL    HW215876   3.533   1.073   5.338
 4993SOL     OW15877   2.787   5.977   4.261
 4993SOL    HW115878   2.789   5.928   4.174
 4993SOL    HW215879   2.831   5.920   4.332
 4994SOL     OW15880   0.517   0.031   2.926
 4994SOL    HW115881   0.500   0.099   2.855
 4994SOL    HW215882   0.614   0.007   2.927
 4995SOL     OW15883   6.576   2.888   6.198
 4995SOL    HW115884   6.595   2.818   6.266
 4995SOL    HW215885   6.648   2.888   6.128
 4996SOL     OW15886   0.944   1.970   2.386
 4996SOL    HW115887   0.957   1.898   2.317
 4996SOL    HW215888   0.888   2.043   2.347
 4997SOL     OW15889   6.734   2.561   3.186
 4997SOL    HW115890   6.640   2.590   3.171
 4997SOL    HW215891   6.736   2.482   3.248
 4998SOL     OW15892   1.212   5.284   4.615
 4998SOL    HW115893   1.294   5.341   4.618
 4998SOL    HW215894   1.185   5.271   4.519
 4999SOL     OW15895   5.806   5.651   0.981
 4999SOL    HW115896   5.795   5.567   0.929
 4999SOL    HW215897   5.793   5.633   1.079
 5000SOL     OW15898   0.645   0.745   4.382
 5000SOL    HW115899   0.576   0.731   4.453
 5000SOL    HW215900   0.705   0.821   4.408
 5001SOL     OW15901   3.016   4.325   5.375
 5001SOL    HW115902   3.009   4.397   5.444
 5001SOL    HW215903   2.990   4.361   5.286
 5002SOL     OW15904   2.328   1.131   2.291
 5002SOL    HW115905   2.334   1.203   2.222
 5002SOL    HW215906   2.417   1.120   2.335
 5003SOL     OW15907   6.824   6.323   2.386
 5003SOL    HW115908   6.816   6.369   2.297
 5003SOL    HW215909   6.735   6.325   2.432
 5004SOL     OW15910   2.213   5.960   6.481
 5004SOL    HW115911   2.294   5.931   6.533
 5004SOL    HW215912   2.233   6.045   6.432
 5005SOL     OW15913   4.327   3.014   0.249
 5005SOL    HW115914   4.400   2.994   0.184
 5005SOL    HW215915   4.296   2.929   0.292
 5006SOL     OW15916   5.316   6.453   5.075
 5006SOL    HW115917   5.220   6.432   5.093
 5006SOL    HW215918   5.373   6.420   5.150
 5007SOL     OW15919   4.417   1.040   5.912
 5007SOL    HW115920   4.457   1.090   5.836
 5007SOL    HW215921   4.459   1.070   5.998
 5008SOL     OW15922   5.906   1.097   3.414
 5008SOL    HW115923   5.858   1.017   3.448
 5008SOL    HW215924   5.991   1.069   3.369
 5009SOL     OW15925   0.698   6.854   2.433
 5009SOL    HW115926   0.725   6.767   2.393
 5009SOL    HW215927   0.735   6.861   2.526
 5010SOL     OW15928   4.041   3.828   3.782
 5010SOL    HW115929   4.020   3.860   3.875
 5010SOL    HW215930   4.030   3.904   3.718
 5011SOL     OW15931   1.216   3.146   2.245
 5011SOL    HW115932   1.121   3.126   2.219
 5011SOL    HW215933   1.270   3.062   2.242
 5012SOL     OW15934   6.649   2.484   6.073
 5012SOL    HW115935   6.715   2.559   6.064
 5012SOL    HW215936   6.633   2.443   5.982
 5013SOL     OW15937   4.559   1.411   5.907
 5013SOL    HW115938   4.492   1.357   5.856
 5013SOL    HW215939   4.514   1.492   5.945
 5014SOL     OW15940   6.057   6.344   0.670
 5014SOL    HW115941   6.118   6.344   0.592
 5014SOL    HW215942   6.038   6.250   0.699
 5015SOL     OW15943   4.239   2.214   3.712
 5015SOL    HW115944   4.265   2.292   3.655
 5015SOL    HW215945   4.272   2.228   3.805
 5016SOL     OW15946   2.227   0.561   2.692
 5016SOL    HW115947   2.317   0.577   2.733
 5016SOL    HW215948   2.232   0.573   2.593
 5017SOL     OW15949   2.569   2.066   0.666
 5017SOL    HW115950   2.589   2.068   0.568
 5017SOL    HW215951   2.472   2.082   0.681
 5018SOL     OW15952   6.399   4.967   3.460
 5018SOL    HW115953   6.465   4.924   3.521
 5018SOL    HW215954   6.307   4.935   3.482
 5019SOL     OW15955   2.055   4.177   0.258
 5019SOL    HW115956   1.998   4.108   0.214
 5019SOL    HW215957   2.076   4.148   0.351
 5020SOL     OW15958   4.145   5.001   6.758
 5020SOL    HW115959   4.186   5.011   6.849
 5020SOL    HW215960   4.146   5.089   6.711
 5021SOL     OW15961   1.917   4.825   5.555
 5021SOL    HW115962   1.981   4.792   5.624
 5021SOL    HW215963   1.965   4.843   5.469
 5022SOL     OW15964   1.813   6.266   0.687
 5022SOL    HW115965   1.793   6.240   0.781
 5022SOL    HW215966   1.732   6.310   0.647
 5023SOL     OW15967   5.995   2.868   0.816
 5023SOL    HW115968   5.935   2.864   0.896
 5023SOL    HW215969   6.085   2.831   0.839
 5024SOL     OW15970   6.212   3.542   3.943
 5024SOL    HW115971   6.138   3.609   3.942
 5024SOL    HW215972   6.278   3.566   4.014
 5025SOL     OW15973   5.100   2.202   3.410
 5025SOL    HW115974   5.077   2.185   3.506
 5025SOL    HW215975   5.118   2.115   3.364
 5026SOL     OW15976   6.530   5.864   4.360
 5026SOL    HW115977   6.465   5.867   4.284
 5026SOL    HW215978   6.580   5.778   4.359
 5027SOL     OW15979   0.638   6.915   3.660
 5027SOL    HW115980   0.599   7.000   3.626
 5027SOL    HW215981   0.612   6.840   3.599
 5028SOL     OW15982   0.577   6.852   3.152
 5028SOL    HW115983   0.562   6.911   3.073
 5028SOL    HW215984   0.670   6.814   3.148
 5029SOL     OW15985   0.281   2.102   1.487
 5029SOL    HW115986   0.323   2.081   1.575
 5029SOL    HW215987   0.341   2.161   1.434
 5030SOL     OW15988   6.886   0.513   6.879
 5030SOL    HW115989   6.983   0.508   6.902
 5030SOL    HW215990   6.864   0.442   6.811
 5031SOL     OW15991   5.788   0.520   4.308
 5031SOL    HW115992   5.868   0.464   4.330
 5031SOL    HW215993   5.793   0.548   4.212
 5032SOL     OW15994   1.547   4.920   0.931
 5032SOL    HW115995   1.497   5.007   0.932
 5032SOL    HW215996   1.628   4.926   0.989
 5033SOL     OW15997   2.436   4.405   5.445
 5033SOL    HW115998   2.372   4.338   5.408
 5033SOL    HW215999   2.514   4.413   5.383
 5034SOL     OW16000   6.349   2.352   1.960
 5034SOL    HW116001   6.400   2.281   2.010
 5034SOL    HW216002   6.349   2.436   2.013
 5035SOL     OW16003   5.463   5.610   0.403
 5035SOL    HW116004   5.445   5.594   0.500
 5035SOL    HW216005   5.448   5.526   0.352
 5036SOL     OW16006   1.350   0.193   1.351
 5036SOL    HW116007   1.308   0.279   1.323
 5036SOL    HW216008   1.384   0.201   1.445
 5037SOL     OW16009   4.640   1.630   3.707
 5037SOL    HW116010   4.681   1.676   3.786
 5037SOL    HW216011   4.564   1.685   3.672
 5038SOL     OW16012   0.967   5.825   5.652
 5038SOL    HW116013   0.939   5.831   5.748
 5038SOL    HW216014   1.043   5.761   5.644
 5039SOL     OW16015   2.358   2.797   5.246
 5039SOL    HW116016   2.300   2.738   5.190
 5039SOL    HW216017   2.375   2.883   5.199
 5040SOL     OW16018   3.291   4.125   5.960
 5040SOL    HW116019   3.216   4.148   5.898
 5040SOL    HW216020   3.302   4.199   6.027
 5041SOL     OW16021   1.059   3.575   1.769
 5041SOL    HW116022   1.027   3.534   1.855
 5041SOL    HW216023   1.020   3.525   1.692
 5042SOL     OW16024   5.651   3.016   6.294
 5042SOL    HW116025   5.553   2.999   6.305
 5042SOL    HW216026   5.684   2.971   6.211
 5043SOL     OW16027   3.785   0.387   3.567
 5043SOL    HW116028   3.772   0.329   3.487
 5043SOL    HW216029   3.850   0.460   3.546
 5044SOL     OW16030   6.208   5.662   2.966
 5044SOL    HW116031   6.241   5.597   3.035
 5044SOL    HW216032   6.152   5.613   2.899
 5045SOL     OW16033   6.237   2.609   6.948
 5045SOL    HW116034   6.226   2.666   0.004
 5045SOL    HW216035   6.198   2.657   6.869
 5046SOL     OW16036   3.554   3.163   5.088
 5046SOL    HW116037   3.592   3.255   5.081
 5046SOL    HW216038   3.604   3.101   5.027
 5047SOL     OW16039   6.919   0.889   2.509
 5047SOL    HW116040   6.952   0.975   2.470
 5047SOL    HW216041   6.941   0.885   2.606
 5048SOL     OW16042   0.140   2.340   1.502
 5048SOL    HW116043   0.163   2.397   1.423
 5048SOL    HW216044   0.145   2.244   1.477
 5049SOL     OW16045   1.218   2.345   1.973
 5049SOL    HW116046   1.259   2.298   1.895
 5049SOL    HW216047   1.139   2.293   2.006
 5050SOL     OW16048   0.671   3.069   1.413
 5050SOL    HW116049   0.639   3.036   1.501
 5050SOL    HW216050   0.696   2.991   1.355
 5051SOL     OW16051   2.941   4.646   0.716
 5051SOL    HW116052   2.860   4.703   0.735
 5051SOL    HW216053   2.913   4.550   0.710
 5052SOL     OW16054   4.930   4.996   1.103
 5052SOL    HW116055   4.891   5.083   1.073
 5052SOL    HW216056   5.027   5.008   1.124
 5053SOL     OW16057   2.505   4.001   1.267
 5053SOL    HW116058   2.583   3.978   1.209
 5053SOL    HW216059   2.537   4.018   1.361
 5054SOL     OW16060   3.801   5.717   4.935
 5054SOL    HW116061   3.868   5.714   5.009
 5054SOL    HW216062   3.733   5.646   4.949
 5055SOL     OW16063   1.204   1.862   5.265
 5055SOL    HW116064   1.201   1.879   5.166
 5055SOL    HW216065   1.226   1.766   5.281
 5056SOL     OW16066   0.668   3.097   5.668
 5056SOL    HW116067   0.678   3.151   5.752
 5056SOL    HW216068   0.578   3.056   5.665
 5057SOL     OW16069   0.385   5.967   3.918
 5057SOL    HW116070   0.375   5.871   3.946
 5057SOL    HW216071   0.445   5.972   3.838
 5058SOL     OW16072   4.709   4.346   6.017
 5058SOL    HW116073   4.738   4.424   5.961
 5058SOL    HW216074   4.628   4.305   5.976
 5059SOL     OW16075   3.511   2.071   4.968
 5059SOL    HW116076   3.544   2.083   4.874
 5059SOL    HW216077   3.552   1.989   5.007
 5060SOL     OW16078   0.517   2.963   5.289
 5060SOL    HW116079   0.517   3.056   5.253
 5060SOL    HW216080   0.596   2.950   5.349
 5061SOL     OW16081   3.766   2.878   4.710
 5061SOL    HW116082   3.790   2.919   4.622
 5061SOL    HW216083   3.684   2.822   4.699
 5062SOL     OW16084   4.798   0.715   3.283
 5062SOL    HW116085   4.786   0.788   3.215
 5062SOL    HW216086   4.831   0.754   3.368
 5063SOL     OW16087   1.428   0.002   2.442
 5063SOL    HW116088   1.336   0.010   2.403
 5063SOL    HW216089   1.487   6.981   2.377
 5064SOL     OW16090   4.770   5.495   0.749
 5064SOL    HW116091   4.768   5.567   0.680
 5064SOL    HW216092   4.864   5.469   0.767
 5065SOL     OW16093   2.744   0.143   3.352
 5065SOL    HW116094   2.794   0.066   3.313
 5065SOL    HW216095   2.730   0.212   3.281
 5066SOL     OW16096   1.925   4.339   1.596
 5066SOL    HW116097   1.972   4.354   1.509
 5066SOL    HW216098   1.832   4.307   1.579
 5067SOL     OW16099   4.361   2.863   1.626
 5067SOL    HW116100   4.397   2.797   1.692
 5067SOL    HW216101   4.407   2.951   1.637
 5068SOL     OW16102   3.638   6.492   0.887
 5068SOL    HW116103   3.548   6.502   0.844
 5068SOL    HW216104   3.708   6.491   0.816
 5069SOL     OW16105   3.029   4.750   6.151
 5069SOL    HW116106   2.999   4.726   6.058
 5069SOL    HW216107   3.113   4.700   6.172
 5070SOL     OW16108   5.936   3.337   4.076
 5070SOL    HW116109   5.853   3.289   4.106
 5070SOL    HW216110   5.974   3.388   4.153
 5071SOL     OW16111   3.572   0.962   3.708
 5071SOL    HW116112   3.563   1.051   3.753
 5071SOL    HW216113   3.577   0.975   3.609
 5072SOL     OW16114   1.715   1.266   0.940
 5072SOL    HW116115   1.638   1.216   0.981
 5072SOL    HW216116   1.800   1.220   0.961
 5073SOL     OW16117   2.477   6.599   2.449
 5073SOL    HW116118   2.531   6.669   2.402
 5073SOL    HW216119   2.538   6.527   2.482
 5074SOL     OW16120   3.817   2.121   1.753
 5074SOL    HW116121   3.782   2.050   1.814
 5074SOL    HW216122   3.792   2.211   1.788
 5075SOL     OW16123   1.639   3.313   6.610
 5075SOL    HW116124   1.555   3.357   6.579
 5075SOL    HW216125   1.622   3.264   6.696
 5076SOL     OW16126   5.625   0.403   0.684
 5076SOL    HW116127   5.680   0.413   0.600
 5076SOL    HW216128   5.676   0.440   0.761
 5077SOL     OW16129   0.830   4.997   3.743
 5077SOL    HW116130   0.833   4.902   3.774
 5077SOL    HW216131   0.909   5.015   3.684
 5078SOL     OW16132   7.005   0.966   3.735
 5078SOL    HW116133   6.981   0.869   3.741
 5078SOL    HW216134   6.924   1.022   3.754
 5079SOL     OW16135   2.137   2.293   5.992
 5079SOL    HW116136   2.059   2.267   5.936
 5079SOL    HW216137   2.110   2.298   6.088
 5080SOL     OW16138   6.219   5.189   6.040
 5080SOL    HW116139   6.292   5.135   5.998
 5080SOL    HW216140   6.144   5.200   5.976
 5081SOL     OW16141   3.562   6.149   5.693
 5081SOL    HW116142   3.628   6.224   5.703
 5081SOL    HW216143   3.469   6.186   5.692
 5082SOL     OW16144   5.049   6.566   1.520
 5082SOL    HW116145   5.149   6.563   1.517
 5082SOL    HW216146   5.016   6.637   1.458
 5083SOL     OW16147   2.564   0.662   3.037
 5083SOL    HW116148   2.512   0.668   3.123
 5083SOL    HW216149   2.596   0.753   3.011
 5084SOL     OW16150   0.899   4.917   5.173
 5084SOL    HW116151   0.889   5.014   5.196
 5084SOL    HW216152   0.892   4.863   5.257
 5085SOL     OW16153   1.068   3.724   6.470
 5085SOL    HW116154   1.146   3.680   6.425
 5085SOL    HW216155   1.043   3.807   6.420
 5086SOL     OW16156   1.339   4.499   2.336
 5086SOL    HW116157   1.285   4.550   2.269
 5086SOL    HW216158   1.420   4.460   2.292
 5087SOL     OW16159   6.661   5.167   2.845
 5087SOL    HW116160   6.689   5.177   2.941
 5087SOL    HW216161   6.727   5.214   2.786
 5088SOL     OW16162   4.034   6.273   2.554
 5088SOL    HW116163   4.043   6.269   2.454
 5088SOL    HW216164   4.078   6.356   2.588
 5089SOL     OW16165   5.390   4.681   4.492
 5089SOL    HW116166   5.349   4.619   4.426
 5089SOL    HW216167   5.326   4.755   4.513
 5090SOL     OW16168   2.402   0.128   4.661
 5090SOL    HW116169   2.423   0.041   4.616
 5090SOL    HW216170   2.304   0.131   4.682
 5091SOL     OW16171   6.266   0.046   0.459
 5091SOL    HW116172   6.306   0.009   0.543
 5091SOL    HW216173   6.222   0.134   0.478
 5092SOL     OW16174   3.647   4.052   4.869
 5092SOL    HW116175   3.733   4.056   4.818
 5092SOL    HW216176   3.632   3.960   4.903
 5093SOL     OW16177   2.104   1.725   3.020
 5093SOL    HW116178   2.089   1.817   3.055
 5093SOL    HW216179   2.081   1.722   2.922
 5094SOL     OW16180   2.181   5.552   6.712
 5094SOL    HW116181   2.134   5.492   6.647
 5094SOL    HW216182   2.269   5.580   6.673
 5095SOL     OW16183   0.299   1.301   2.941
 5095SOL    HW116184   0.310   1.392   2.901
 5095SOL    HW216185   0.355   1.235   2.891
 5096SOL     OW16186   5.205   2.894   6.125
 5096SOL    HW116187   5.174   2.813   6.075
 5096SOL    HW216188   5.125   2.946   6.157
 5097SOL     OW16189   6.823   6.353   6.100
 5097SOL    HW116190   6.798   6.352   6.004
 5097SOL    HW216191   6.907   6.407   6.112
 5098SOL     OW16192   3.497   1.995   1.981
 5098SOL    HW116193   3.413   2.005   1.927
 5098SOL    HW216194   3.539   2.084   1.995
 5099SOL     OW16195   0.788   6.028   1.920
 5099SOL    HW116196   0.749   5.948   1.875
 5099SOL    HW216197   0.791   6.012   2.019
 5100SOL     OW16198   5.114   4.358   2.677
 5100SOL    HW116199   5.211   4.380   2.686
 5100SOL    HW216200   5.081   4.389   2.588
 5101SOL     OW16201   4.423   0.318   5.430
 5101SOL    HW116202   4.388   0.392   5.372
 5101SOL    HW216203   4.523   0.325   5.436
 5102SOL     OW16204   5.350   5.275   4.090
 5102SOL    HW116205   5.443   5.239   4.078
 5102SOL    HW216206   5.354   5.362   4.138
 5103SOL     OW16207   0.813   0.443   5.594
 5103SOL    HW116208   0.898   0.465   5.642
 5103SOL    HW216209   0.748   0.402   5.658
 5104SOL     OW16210   4.027   5.174   1.261
 5104SOL    HW116211   4.080   5.240   1.209
 5104SOL    HW216212   4.039   5.083   1.220
 5105SOL     OW16213   3.420   3.467   6.964
 5105SOL    HW116214   3.450   3.373   6.984
 5105SOL    HW216215   3.387   3.510   0.022
 5106SOL     OW16216   3.931   2.875   0.707
 5106SOL    HW116217   3.873   2.933   0.765
 5106SOL    HW216218   3.874   2.828   0.640
 5107SOL     OW16219   4.882   2.440   1.307
 5107SOL    HW116220   4.975   2.432   1.345
 5107SOL    HW216221   4.829   2.359   1.333
 5108SOL     OW16222   4.511   3.444   6.847
 5108SOL    HW116223   4.424   3.437   6.894
 5108SOL    HW216224   4.573   3.501   6.900
 5109SOL     OW16225   1.665   3.025   0.668
 5109SOL    HW116226   1.745   2.997   0.615
 5109SOL    HW216227   1.657   2.967   0.750
 5110SOL     OW16228   5.947   0.159   5.936
 5110SOL    HW116229   5.893   0.243   5.928
 5110SOL    HW216230   6.010   0.168   6.012
 5111SOL     OW16231   1.483   6.078   5.143
 5111SOL    HW116232   1.528   6.016   5.078
 5111SOL    HW216233   1.450   6.159   5.094
 5112SOL     OW16234   0.070   0.874   3.393
 5112SOL    HW116235   0.107   0.881   3.301
 5112SOL    HW216236   7.002   0.838   3.389
 5113SOL     OW16237   2.217   5.340   0.952
 5113SOL    HW116238   2.181   5.295   0.870
 5113SOL    HW216239   2.309   5.375   0.932
 5114SOL     OW16240   3.977   6.602   0.451
 5114SOL    HW116241   3.965   6.594   0.550
 5114SOL    HW216242   4.057   6.660   0.432
 5115SOL     OW16243   1.820   3.972   1.803
 5115SOL    HW116244   1.769   3.961   1.888
 5115SOL    HW216245   1.869   3.888   1.782
 5116SOL     OW16246   2.572   6.981   6.862
 5116SOL    HW116247   2.637   6.960   6.789
 5116SOL    HW216248   2.505   6.907   6.869
 5117SOL     OW16249   1.618   2.585   4.214
 5117SOL    HW116250   1.667   2.615   4.296
 5117SOL    HW216251   1.521   2.574   4.236
 5118SOL     OW16252   6.322   6.569   0.190
 5118SOL    HW116253   6.421   6.582   0.194
 5118SOL    HW216254   6.281   6.595   0.277
 5119SOL     OW16255   5.233   2.077   0.397
 5119SOL    HW116256   5.284   2.059   0.481
 5119SOL    HW216257   5.210   1.990   0.353
 5120SOL     OW16258   5.589   0.240   4.611
 5120SOL    HW116259   5.667   0.290   4.649
 5120SOL    HW216260   5.530   0.209   4.685
 5121SOL     OW16261   3.049   3.952   6.867
 5121SOL    HW116262   2.962   3.903   6.870
 5121SOL    HW216263   3.068   3.983   6.774
 5122SOL     OW16264   4.503   5.427   3.348
 5122SOL    HW116265   4.589   5.450   3.303
 5122SOL    HW216266   4.431   5.417   3.280
 5123SOL     OW16267   4.329   2.002   2.218
 5123SOL    HW116268   4.243   2.028   2.174
 5123SOL    HW216269   4.394   2.078   2.211
 5124SOL     OW16270   1.791   6.248   3.609
 5124SOL    HW116271   1.723   6.272   3.677
 5124SOL    HW216272   1.755   6.177   3.549
 5125SOL     OW16273   0.674   2.390   4.106
 5125SOL    HW116274   0.609   2.461   4.133
 5125SOL    HW216275   0.710   2.345   4.188
 5126SOL     OW16276   1.788   6.931   1.123
 5126SOL    HW116277   1.834   6.846   1.149
 5126SOL    HW216278   1.699   6.936   1.169
 5127SOL     OW16279   2.041   5.384   0.282
 5127SOL    HW116280   2.111   5.439   0.237
 5127SOL    HW216281   2.078   5.344   0.366
 5128SOL     OW16282   6.521   6.233   1.930
 5128SOL    HW116283   6.561   6.214   2.020
 5128SOL    HW216284   6.429   6.193   1.926
 5129SOL     OW16285   4.648   6.800   1.490
 5129SOL    HW116286   4.554   6.765   1.491
 5129SOL    HW216287   4.700   6.752   1.419
 5130SOL     OW16288   6.349   4.637   3.616
 5130SOL    HW116289   6.399   4.586   3.685
 5130SOL    HW216290   6.413   4.676   3.550
 5131SOL     OW16291   1.377   2.887   3.393
 5131SOL    HW116292   1.454   2.876   3.457
 5131SOL    HW216293   1.368   2.805   3.337
 5132SOL     OW16294   3.409   4.867   6.802
 5132SOL    HW116295   3.369   4.958   6.799
 5132SOL    HW216296   3.342   4.800   6.770
 5133SOL     OW16297   3.575   6.006   6.599
 5133SOL    HW116298   3.663   5.958   6.593
 5133SOL    HW216299   3.563   6.041   6.692
 5134SOL     OW16300   0.774   3.992   1.306
 5134SOL    HW116301   0.851   4.035   1.354
 5134SOL    HW216302   0.777   3.893   1.320
 5135SOL     OW16303   0.040   1.737   4.802
 5135SOL    HW116304   0.123   1.741   4.748
 5135SOL    HW216305   0.055   1.782   4.890
 5136SOL     OW16306   5.218   0.203   4.136
 5136SOL    HW116307   5.275   0.277   4.171
 5136SOL    HW216308   5.121   0.229   4.143
 5137SOL     OW16309   4.874   4.007   6.350
 5137SOL    HW116310   4.812   3.944   6.396
 5137SOL    HW216311   4.857   4.100   6.382
 5138SOL     OW16312   2.829   3.785   6.440
 5138SOL    HW116313   2.867   3.703   6.398
 5138SOL    HW216314   2.856   3.787   6.537
 5139SOL     OW16315   1.203   6.674   4.240
 5139SOL    HW116316   1.260   6.596   4.215
 5139SOL    HW216317   1.205   6.686   4.339
 5140SOL     OW16318   3.273   2.977   0.895
 5140SOL    HW116319   3.339   2.912   0.932
 5140SOL    HW216320   3.199   2.927   0.849
 5141SOL     OW16321   5.548   3.346   0.543
 5141SOL    HW116322   5.596   3.377   0.462
 5141SOL    HW216323   5.587   3.259   0.574
 5142SOL     OW16324   5.550   3.198   4.465
 5142SOL    HW116325   5.518   3.107   4.491
 5142SOL    HW216326   5.648   3.206   4.482
 5143SOL     OW16327   0.159   4.853   4.163
 5143SOL    HW116328   0.131   4.845   4.067
 5143SOL    HW216329   0.104   4.789   4.218
 5144SOL     OW16330   1.617   6.980   6.401
 5144SOL    HW116331   1.716   6.969   6.413
 5144SOL    HW216332   1.588   6.930   6.320
 5145SOL     OW16333   2.423   4.923   5.437
 5145SOL    HW116334   2.376   4.994   5.384
 5145SOL    HW216335   2.360   4.885   5.505
 5146SOL     OW16336   3.655   3.786   6.815
 5146SOL    HW116337   3.732   3.837   6.778
 5146SOL    HW216338   3.578   3.791   6.752
 5147SOL     OW16339   6.786   4.170   0.661
 5147SOL    HW116340   6.702   4.136   0.703
 5147SOL    HW216341   6.765   4.211   0.572
 5148SOL     OW16342   0.083   6.220   1.535
 5148SOL    HW116343   0.023   6.158   1.484
 5148SOL    HW216344   0.120   6.289   1.474
 5149SOL     OW16345   6.013   1.036   3.004
 5149SOL    HW116346   5.996   1.125   3.046
 5149SOL    HW216347   6.091   1.043   2.942
 5150SOL     OW16348   1.373   6.086   3.629
 5150SOL    HW116349   1.330   6.144   3.560
 5150SOL    HW216350   1.304   6.024   3.667
 5151SOL     OW16351   5.010   1.188   6.228
 5151SOL    HW116352   5.075   1.216   6.157
 5151SOL    HW216353   4.957   1.109   6.196
 5152SOL     OW16354   1.252   4.612   0.076
 5152SOL    HW116355   1.259   4.566   0.165
 5152SOL    HW216356   1.316   4.569   0.012
 5153SOL     OW16357   1.903   2.207   0.763
 5153SOL    HW116358   1.942   2.290   0.721
 5153SOL    HW216359   1.955   2.127   0.733
 5154SOL     OW16360   1.918   3.540   5.939
 5154SOL    HW116361   1.961   3.623   5.974
 5154SOL    HW216362   1.819   3.551   5.940
 5155SOL     OW16363   4.158   6.470   2.240
 5155SOL    HW116364   4.248   6.428   2.225
 5155SOL    HW216365   4.091   6.399   2.259
 5156SOL     OW16366   6.818   2.480   5.815
 5156SOL    HW116367   6.746   2.451   5.752
 5156SOL    HW216368   6.868   2.399   5.847
 5157SOL     OW16369   5.023   2.793   3.623
 5157SOL    HW116370   5.020   2.763   3.527
 5157SOL    HW216371   5.040   2.891   3.626
 5158SOL     OW16372   3.831   1.015   1.334
 5158SOL    HW116373   3.829   1.078   1.257
 5158SOL    HW216374   3.849   0.923   1.302
 5159SOL     OW16375   0.644   2.893   3.759
 5159SOL    HW116376   0.721   2.949   3.729
 5159SOL    HW216377   0.633   2.902   3.858
 5160SOL     OW16378   1.385   3.736   4.739
 5160SOL    HW116379   1.315   3.796   4.700
 5160SOL    HW216380   1.354   3.641   4.736
 5161SOL     OW16381   0.974   3.675   5.601
 5161SOL    HW116382   1.064   3.681   5.558
 5161SOL    HW216383   0.967   3.746   5.672
 5162SOL     OW16384   6.881   5.754   4.108
 5162SOL    HW116385   6.928   5.666   4.093
 5162SOL    HW216386   6.822   5.774   4.030
 5163SOL     OW16387   5.601   5.145   0.614
 5163SOL    HW116388   5.554   5.120   0.699
 5163SOL    HW216389   5.611   5.064   0.556
 5164SOL     OW16390   5.959   2.786   5.350
 5164SOL    HW116391   5.898   2.708   5.360
 5164SOL    HW216392   5.906   2.870   5.349
 5165SOL     OW16393   6.340   4.692   4.418
 5165SOL    HW116394   6.283   4.691   4.336
 5165SOL    HW216395   6.385   4.781   4.427
 5166SOL     OW16396   1.209   4.700   2.168
 5166SOL    HW116397   1.161   4.626   2.120
 5166SOL    HW216398   1.143   4.752   2.222
 5167SOL     OW16399   6.757   6.669   6.032
 5167SOL    HW116400   6.688   6.631   6.095
 5167SOL    HW216401   6.808   6.741   6.078
 5168SOL     OW16402   4.126   2.263   3.100
 5168SOL    HW116403   4.168   2.299   3.017
 5168SOL    HW216404   4.161   2.313   3.180
 5169SOL     OW16405   3.324   3.980   6.301
 5169SOL    HW116406   3.406   4.036   6.304
 5169SOL    HW216407   3.293   3.972   6.207
 5170SOL     OW16408   6.352   4.325   4.885
 5170SOL    HW116409   6.269   4.350   4.836
 5170SOL    HW216410   6.368   4.227   4.874
 5171SOL     OW16411   2.436   4.911   4.098
 5171SOL    HW116412   2.492   4.828   4.103
 5171SOL    HW216413   2.488   4.988   4.134
 5172SOL     OW16414   0.529   4.052   1.819
 5172SOL    HW116415   0.456   4.096   1.871
 5172SOL    HW216416   0.556   4.111   1.743
 5173SOL     OW16417   5.331   3.273   6.163
 5173SOL    HW116418   5.257   3.237   6.106
 5173SOL    HW216419   5.354   3.206   6.234
 5174SOL     OW16420   1.784   4.589   5.307
 5174SOL    HW116421   1.848   4.634   5.245
 5174SOL    HW216422   1.758   4.500   5.268
 5175SOL     OW16423   1.783   4.455   0.106
 5175SOL    HW116424   1.700   4.477   0.158
 5175SOL    HW216425   1.812   4.536   0.056
 5176SOL     OW16426   4.060   4.040   1.212
 5176SOL    HW116427   4.122   3.985   1.157
 5176SOL    HW216428   4.085   4.137   1.205
 5177SOL     OW16429   4.487   6.359   5.925
 5177SOL    HW116430   4.554   6.297   5.966
 5177SOL    HW216431   4.398   6.344   5.967
 5178SOL     OW16432   2.970   2.684   1.489
 5178SOL    HW116433   2.878   2.724   1.485
 5178SOL    HW216434   3.038   2.758   1.486
 5179SOL     OW16435   4.131   6.622   5.805
 5179SOL    HW116436   4.140   6.609   5.706
 5179SOL    HW216437   4.090   6.711   5.823
 5180SOL     OW16438   3.527   1.867   0.175
 5180SOL    HW116439   3.591   1.832   0.243
 5180SOL    HW216440   3.577   1.914   0.103
 5181SOL     OW16441   4.312   0.209   2.672
 5181SOL    HW116442   4.406   0.219   2.705
 5181SOL    HW216443   4.254   0.276   2.718
 5182SOL     OW16444   5.822   4.463   1.759
 5182SOL    HW116445   5.736   4.513   1.751
 5182SOL    HW216446   5.849   4.428   1.669
 5183SOL     OW16447   4.466   0.011   2.339
 5183SOL    HW116448   4.559   7.001   2.347
 5183SOL    HW216449   4.450   0.079   2.411
 5184SOL     OW16450   1.018   1.501   3.393
 5184SOL    HW116451   1.041   1.597   3.376
 5184SOL    HW216452   1.068   1.443   3.329
 5185SOL     OW16453   3.543   0.109   2.522
 5185SOL    HW116454   3.560   0.010   2.514
 5185SOL    HW216455   3.447   0.123   2.549
 5186SOL     OW16456   6.814   4.094   1.084
 5186SOL    HW116457   6.825   3.998   1.108
 5186SOL    HW216458   6.896   4.127   1.036
 5187SOL     OW16459   6.263   2.094   3.318
 5187SOL    HW116460   6.257   2.150   3.400
 5187SOL    HW216461   6.331   2.022   3.331
 5188SOL     OW16462   0.629   5.118   6.591
 5188SOL    HW116463   0.610   5.173   6.510
 5188SOL    HW216464   0.675   5.174   6.660
 5189SOL     OW16465   5.320   4.720   6.682
 5189SOL    HW116466   5.238   4.769   6.655
 5189SOL    HW216467   5.297   4.654   6.754
 5190SOL     OW16468   0.972   2.432   3.970
 5190SOL    HW116469   0.919   2.347   3.970
 5190SOL    HW216470   0.909   2.509   3.963
 5191SOL     OW16471   3.451   1.239   2.002
 5191SOL    HW116472   3.542   1.282   2.003
 5191SOL    HW216473   3.419   1.230   1.908
 5192SOL     OW16474   5.617   5.709   2.348
 5192SOL    HW116475   5.556   5.713   2.427
 5192SOL    HW216476   5.568   5.670   2.270
 5193SOL     OW16477   4.681   4.614   3.826
 5193SOL    HW116478   4.721   4.523   3.838
 5193SOL    HW216479   4.582   4.609   3.838
 5194SOL     OW16480   5.483   0.737   5.879
 5194SOL    HW116481   5.400   0.766   5.831
 5194SOL    HW216482   5.470   0.646   5.917
 5195SOL     OW16483   6.477   6.626   5.331
 5195SOL    HW116484   6.442   6.647   5.422
 5195SOL    HW216485   6.420   6.671   5.262
 5196SOL     OW16486   0.584   4.486   1.780
 5196SOL    HW116487   0.537   4.412   1.732
 5196SOL    HW216488   0.518   4.540   1.832
 5197SOL     OW16489   2.093   6.296   4.627
 5197SOL    HW116490   2.055   6.224   4.568
 5197SOL    HW216491   2.191   6.280   4.639
 5198SOL     OW16492   3.673   5.985   5.194
 5198SOL    HW116493   3.766   6.024   5.198
 5198SOL    HW216494   3.613   6.049   5.146
 5199SOL     OW16495   1.952   5.856   1.600
 5199SOL    HW116496   1.854   5.856   1.581
 5199SOL    HW216497   1.998   5.922   1.540
 5200SOL     OW16498   0.781   1.544   4.586
 5200SOL    HW116499   0.836   1.506   4.512
 5200SOL    HW216500   0.768   1.475   4.657
 5201SOL     OW16501   5.390   4.909   3.820
 5201SOL    HW116502   5.436   4.997   3.833
 5201SOL    HW216503   5.336   4.911   3.736
 5202SOL     OW16504   4.253   3.192   6.380
 5202SOL    HW116505   4.190   3.126   6.421
 5202SOL    HW216506   4.344   3.152   6.374
 5203SOL     OW16507   1.941   0.596   0.637
 5203SOL    HW116508   1.959   0.554   0.548
 5203SOL    HW216509   1.963   0.530   0.709
 5204SOL     OW16510   3.284   0.773   6.581
 5204SOL    HW116511   3.365   0.764   6.638
 5204SOL    HW216512   3.242   0.863   6.596
 5205SOL     OW16513   0.075   6.100   1.125
 5205SOL    HW116514   0.172   6.084   1.144
 5205SOL    HW216515   0.056   6.076   1.029
 5206SOL     OW16516   0.595   4.644   5.144
 5206SOL    HW116517   0.581   4.557   5.095
 5206SOL    HW216518   0.634   4.626   5.234
 5207SOL     OW16519   0.471   0.720   4.621
 5207SOL    HW116520   0.395   0.771   4.660
 5207SOL    HW216521   0.440   0.629   4.592
 5208SOL     OW16522   4.697   2.337   0.270
 5208SOL    HW116523   4.796   2.329   0.264
 5208SOL    HW216524   4.655   2.246   0.259
 5209SOL     OW16525   4.725   6.277   2.793
 5209SOL    HW116526   4.771   6.366   2.782
 5209SOL    HW216527   4.628   6.287   2.771
 5210SOL     OW16528   5.026   4.105   0.497
 5210SOL    HW116529   5.102   4.096   0.433
 5210SOL    HW216530   5.003   4.202   0.508
 5211SOL     OW16531   4.552   2.587   3.974
 5211SOL    HW116532   4.646   2.557   3.954
 5211SOL    HW216533   4.555   2.656   4.046
 5212SOL     OW16534   1.112   3.433   0.699
 5212SOL    HW116535   1.108   3.343   0.742
 5212SOL    HW216536   1.061   3.499   0.755
 5213SOL     OW16537   4.109   3.336   2.520
 5213SOL    HW116538   4.093   3.344   2.619
 5213SOL    HW216539   4.088   3.243   2.490
 5214SOL     OW16540   5.570   4.011   6.247
 5214SOL    HW116541   5.559   3.977   6.340
 5214SOL    HW216542   5.665   3.998   6.218
 5215SOL     OW16543   6.749   3.664   4.877
 5215SOL    HW116544   6.805   3.583   4.894
 5215SOL    HW216545   6.796   3.745   4.910
 5216SOL     OW16546   5.692   4.672   0.633
 5216SOL    HW116547   5.608   4.618   0.647
 5216SOL    HW216548   5.668   4.768   0.622
 5217SOL     OW16549   3.983   5.627   4.134
 5217SOL    HW116550   4.041   5.670   4.202
 5217SOL    HW216551   4.040   5.592   4.059
 5218SOL     OW16552   0.768   0.542   0.622
 5218SOL    HW116553   0.670   0.529   0.604
 5218SOL    HW216554   0.792   0.638   0.605
 5219SOL     OW16555   2.183   2.108   4.991
 5219SOL    HW116556   2.139   2.157   5.067
 5219SOL    HW216557   2.114   2.054   4.943
 5220SOL     OW16558   1.677   4.587   3.247
 5220SOL    HW116559   1.731   4.506   3.274
 5220SOL    HW216560   1.739   4.663   3.231
 5221SOL     OW16561   6.851   0.552   1.739
 5221SOL    HW116562   6.899   0.607   1.671
 5221SOL    HW216563   6.869   0.589   1.830
 5222SOL     OW16564   4.755   4.809   1.678
 5222SOL    HW116565   4.841   4.777   1.719
 5222SOL    HW216566   4.678   4.781   1.736
 5223SOL     OW16567   0.590   3.002   0.772
 5223SOL    HW116568   0.563   3.086   0.818
 5223SOL    HW216569   0.673   3.018   0.719
 5224SOL     OW16570   0.654   2.301   3.819
 5224SOL    HW116571   0.636   2.337   3.910
 5224SOL    HW216572   0.699   2.370   3.763
 5225SOL     OW16573   0.384   1.432   5.246
 5225SOL    HW116574   0.409   1.463   5.155
 5225SOL    HW216575   0.370   1.510   5.306
 5226SOL     OW16576   0.082   6.249   4.054
 5226SOL    HW116577   0.164   6.306   4.062
 5226SOL    HW216578   0.006   6.292   4.103
 5227SOL     OW16579   6.890   2.653   5.152
 5227SOL    HW116580   6.947   2.571   5.142
 5227SOL    HW216581   6.949   2.734   5.157
 5228SOL     OW16582   1.853   3.215   5.688
 5228SOL    HW116583   1.855   3.260   5.599
 5228SOL    HW216584   1.940   3.170   5.705
 5229SOL     OW16585   4.217   0.650   6.636
 5229SOL    HW116586   4.227   0.744   6.604
 5229SOL    HW216587   4.222   0.587   6.559
 5230SOL     OW16588   6.960   0.328   1.872
 5230SOL    HW116589   6.924   0.388   1.800
 5230SOL    HW216590   6.960   0.377   1.959
 5231SOL     OW16591   6.226   1.646   2.348
 5231SOL    HW116592   6.150   1.624   2.288
 5231SOL    HW216593   6.209   1.733   2.393
 5232SOL     OW16594   1.801   3.733   5.761
 5232SOL    HW116595   1.867   3.693   5.825
 5232SOL    HW216596   1.824   3.705   5.668
 5233SOL     OW16597   3.207   0.440   2.710
 5233SOL    HW116598   3.146   0.432   2.632
 5233SOL    HW216599   3.279   0.507   2.690
 5234SOL     OW16600   2.160   2.475   1.279
 5234SOL    HW116601   2.082   2.536   1.267
 5234SOL    HW216602   2.128   2.380   1.286
 5235SOL     OW16603   2.794   2.203   1.179
 5235SOL    HW116604   2.775   2.117   1.134
 5235SOL    HW216605   2.837   2.186   1.268
 5236SOL     OW16606   3.153   5.567   2.318
 5236SOL    HW116607   3.063   5.599   2.348
 5236SOL    HW216608   3.180   5.617   2.236
 5237SOL     OW16609   1.983   2.216   4.293
 5237SOL    HW116610   2.007   2.311   4.272
 5237SOL    HW216611   1.927   2.213   4.375
 5238SOL     OW16612   0.995   5.716   2.781
 5238SOL    HW116613   0.983   5.815   2.792
 5238SOL    HW216614   1.062   5.698   2.709
 5239SOL     OW16615   3.156   3.422   1.408
 5239SOL    HW116616   3.096   3.346   1.432
 5239SOL    HW216617   3.191   3.464   1.491
 5240SOL     OW16618   2.729   3.153   5.847
 5240SOL    HW116619   2.727   3.053   5.853
 5240SOL    HW216620   2.672   3.183   5.770
 5241SOL     OW16621   1.053   6.125   2.316
 5241SOL    HW116622   1.066   6.130   2.415
 5241SOL    HW216623   0.971   6.072   2.295
 5242SOL     OW16624   5.053   0.778   6.932
 5242SOL    HW116625   5.087   0.838   6.859
 5242SOL    HW216626   5.125   0.715   6.960
 5243SOL     OW16627   1.958   6.175   2.053
 5243SOL    HW116628   2.017   6.220   2.120
 5243SOL    HW216629   1.901   6.244   2.007
 5244SOL     OW16630   4.656   3.401   0.148
 5244SOL    HW116631   4.627   3.318   0.100
 5244SOL    HW216632   4.742   3.384   0.195
 5245SOL     OW16633   3.784   4.299   1.083
 5245SOL    HW116634   3.796   4.278   1.180
 5245SOL    HW216635   3.863   4.350   1.050
 5246SOL     OW16636   5.700   2.950   1.260
 5246SOL    HW116637   5.610   2.991   1.276
 5246SOL    HW216638   5.762   2.979   1.333
 5247SOL     OW16639   3.912   2.306   5.918
 5247SOL    HW116640   3.892   2.259   6.005
 5247SOL    HW216641   3.856   2.388   5.910
 5248SOL     OW16642   6.076   1.679   3.228
 5248SOL    HW116643   6.150   1.674   3.161
 5248SOL    HW216644   5.993   1.639   3.190
 5249SOL     OW16645   0.268   4.962   6.385
 5249SOL    HW116646   0.221   5.032   6.440
 5249SOL    HW216647   0.256   4.873   6.429
 5250SOL     OW16648   1.974   5.936   0.727
 5250SOL    HW116649   1.927   5.941   0.815
 5250SOL    HW216650   2.051   6.000   0.726
 5251SOL     OW16651   0.701   4.309   0.923
 5251SOL    HW116652   0.761   4.387   0.906
 5251SOL    HW216653   0.632   4.334   0.991
 5252SOL     OW16654   3.745   0.291   2.540
 5252SOL    HW116655   3.789   0.297   2.450
 5252SOL    HW216656   3.655   0.249   2.530
 5253SOL     OW16657   6.087   4.651   4.553
 5253SOL    HW116658   6.163   4.673   4.492
 5253SOL    HW216659   6.026   4.587   4.507
 5254SOL     OW16660   5.938   0.374   2.787
 5254SOL    HW116661   5.943   0.404   2.883
 5254SOL    HW216662   5.948   0.275   2.784
 5255SOL     OW16663   6.183   1.073   4.921
 5255SOL    HW116664   6.280   1.057   4.934
 5255SOL    HW216665   6.154   1.037   4.832
 5256SOL     OW16666   5.763   0.641   3.255
 5256SOL    HW116667   5.862   0.659   3.259
 5256SOL    HW216668   5.714   0.728   3.248
 5257SOL     OW16669   4.480   0.481   6.384
 5257SOL    HW116670   4.509   0.390   6.414
 5257SOL    HW216671   4.383   0.493   6.405
 5258SOL     OW16672   4.526   1.819   2.229
 5258SOL    HW116673   4.593   1.836   2.302
 5258SOL    HW216674   4.450   1.883   2.239
 5259SOL     OW16675   5.205   5.024   3.464
 5259SOL    HW116676   5.226   4.944   3.520
 5259SOL    HW216677   5.269   5.028   3.387
 5260SOL     OW16678   2.333   0.298   0.272
 5260SOL    HW116679   2.344   0.219   0.211
 5260SOL    HW216680   2.416   0.354   0.270
 5261SOL     OW16681   6.576   4.667   0.084
 5261SOL    HW116682   6.493   4.662   0.028
 5261SOL    HW216683   6.605   4.762   0.093
 5262SOL     OW16684   2.614   0.801   2.502
 5262SOL    HW116685   2.519   0.828   2.491
 5262SOL    HW216686   2.624   0.704   2.483
 5263SOL     OW16687   1.895   1.417   3.499
 5263SOL    HW116688   1.893   1.465   3.412
 5263SOL    HW216689   1.934   1.326   3.486
 5264SOL     OW16690   0.341   2.594   1.722
 5264SOL    HW116691   0.367   2.646   1.640
 5264SOL    HW216692   0.396   2.511   1.728
 5265SOL     OW16693   5.651   3.355   4.702
 5265SOL    HW116694   5.745   3.334   4.727
 5265SOL    HW216695   5.622   3.296   4.627
 5266SOL     OW16696   2.434   0.086   0.601
 5266SOL    HW116697   2.457   0.172   0.555
 5266SOL    HW216698   2.504   0.064   0.668
 5267SOL     OW16699   4.230   2.334   4.460
 5267SOL    HW116700   4.297   2.404   4.434
 5267SOL    HW216701   4.222   2.332   4.560
 5268SOL     OW16702   5.767   0.857   6.494
 5268SOL    HW116703   5.701   0.790   6.527
 5268SOL    HW216704   5.717   0.936   6.455
 5269SOL     OW16705   0.385   6.623   2.942
 5269SOL    HW116706   0.484   6.616   2.957
 5269SOL    HW216707   0.358   6.719   2.943
 5270SOL     OW16708   0.118   1.841   6.625
 5270SOL    HW116709   0.081   1.780   6.554
 5270SOL    HW216710   0.217   1.845   6.617
 5271SOL     OW16711   6.201   5.623   3.900
 5271SOL    HW116712   6.121   5.674   3.869
 5271SOL    HW216713   6.278   5.642   3.840
 5272SOL     OW16714   4.252   0.158   0.148
 5272SOL    HW116715   4.308   0.215   0.088
 5272SOL    HW216716   4.308   0.122   0.223
 5273SOL     OW16717   0.992   3.117   2.463
 5273SOL    HW116718   1.088   3.111   2.490
 5273SOL    HW216719   0.985   3.108   2.363
 5274SOL     OW16720   4.522   6.077   2.399
 5274SOL    HW116721   4.539   6.143   2.327
 5274SOL    HW216722   4.608   6.036   2.429
 5275SOL     OW16723   3.421   0.828   6.983
 5275SOL    HW116724   3.373   0.916   6.981
 5275SOL    HW216725   3.355   0.754   6.979
 5276SOL     OW16726   3.071   6.328   2.150
 5276SOL    HW116727   3.090   6.294   2.059
 5276SOL    HW216728   3.090   6.426   2.154
 5277SOL     OW16729   2.105   1.340   1.963
 5277SOL    HW116730   2.050   1.313   2.042
 5277SOL    HW216731   2.199   1.307   1.976
 5278SOL     OW16732   4.371   5.378   1.763
 5278SOL    HW116733   4.365   5.476   1.783
 5278SOL    HW216734   4.331   5.361   1.672
 5279SOL     OW16735   2.961   4.967   1.418
 5279SOL    HW116736   2.940   5.025   1.497
 5279SOL    HW216737   2.943   4.872   1.441
 5280SOL     OW16738   3.644   5.854   4.748
 5280SOL    HW116739   3.610   5.781   4.688
 5280SOL    HW216740   3.663   5.817   4.838
 5281SOL     OW16741   1.101   1.800   1.859
 5281SOL    HW116742   1.092   1.722   1.922
 5281SOL    HW216743   1.102   1.885   1.911
 5282SOL     OW16744   3.380   1.832   3.902
 5282SOL    HW116745   3.310   1.807   3.835
 5282SOL    HW216746   3.380   1.766   3.977
 5283SOL     OW16747   5.256   5.740   6.751
 5283SOL    HW116748   5.198   5.719   6.830
 5283SOL    HW216749   5.230   5.680   6.675
 5284SOL     OW16750   5.791   3.274   2.741
 5284SOL    HW116751   5.821   3.261   2.647
 5284SOL    HW216752   5.806   3.190   2.793
 5285SOL     OW16753   3.216   4.882   3.347
 5285SOL    HW116754   3.303   4.856   3.305
 5285SOL    HW216755   3.234   4.922   3.437
 5286SOL     OW16756   1.700   4.172   1.621
 5286SOL    HW116757   1.620   4.210   1.669
 5286SOL    HW216758   1.732   4.091   1.670
 5287SOL     OW16759   2.540   2.340   0.368
 5287SOL    HW116760   2.615   2.276   0.349
 5287SOL    HW216761   2.540   2.364   0.464
 5288SOL     OW16762   3.528   0.201   1.157
 5288SOL    HW116763   3.523   0.275   1.224
 5288SOL    HW216764   3.447   0.205   1.097
 5289SOL     OW16765   1.086   5.407   1.691
 5289SOL    HW116766   1.050   5.344   1.760
 5289SOL    HW216767   1.102   5.356   1.606
 5290SOL     OW16768   4.594   5.878   0.732
 5290SOL    HW116769   4.590   5.840   0.640
 5290SOL    HW216770   4.524   5.948   0.742
 5291SOL     OW16771   1.867   5.125   5.627
 5291SOL    HW116772   1.900   5.122   5.532
 5291SOL    HW216773   1.892   5.212   5.669
 5292SOL     OW16774   4.777   2.647   5.800
 5292SOL    HW116775   4.820   2.712   5.863
 5292SOL    HW216776   4.677   2.654   5.808
 5293SOL     OW16777   0.532   0.574   4.187
 5293SOL    HW116778   0.573   0.554   4.098
 5293SOL    HW216779   0.585   0.646   4.232
 5294SOL     OW16780   6.353   2.686   6.117
 5294SOL    HW116781   6.351   2.786   6.120
 5294SOL    HW216782   6.299   2.649   6.193
 5295SOL     OW16783   6.589   1.072   2.422
 5295SOL    HW116784   6.631   1.092   2.333
 5295SOL    HW216785   6.658   1.032   2.482
 5296SOL     OW16786   0.352   4.703   1.266
 5296SOL    HW116787   0.269   4.703   1.210
 5296SOL    HW216788   0.430   4.731   1.211
 5297SOL     OW16789   2.179   2.035   1.306
 5297SOL    HW116790   2.097   2.077   1.267
 5297SOL    HW216791   2.227   2.102   1.363
 5298SOL     OW16792   0.718   5.650   1.556
 5298SOL    HW116793   0.679   5.675   1.644
 5298SOL    HW216794   0.646   5.619   1.495
 5299SOL     OW16795   3.035   0.490   2.078
 5299SOL    HW116796   2.990   0.407   2.046
 5299SOL    HW216797   3.132   0.471   2.094
 5300SOL     OW16798   6.425   5.712   3.666
 5300SOL    HW116799   6.442   5.614   3.657
 5300SOL    HW216800   6.502   5.763   3.627
 5301SOL     OW16801   3.865   1.510   7.014
 5301SOL    HW116802   3.941   1.453   0.019
 5301SOL    HW216803   3.779   1.458   7.019
 5302SOL     OW16804   5.856   4.247   2.557
 5302SOL    HW116805   5.826   4.327   2.609
 5302SOL    HW216806   5.776   4.192   2.531
 5303SOL     OW16807   6.661   4.151   3.196
 5303SOL    HW116808   6.633   4.166   3.102
 5303SOL    HW216809   6.694   4.238   3.235
 5304SOL     OW16810   5.432   1.600   5.925
 5304SOL    HW116811   5.375   1.522   5.949
 5304SOL    HW216812   5.486   1.629   6.005
 5305SOL     OW16813   2.396   0.906   3.060
 5305SOL    HW116814   2.495   0.910   3.075
 5305SOL    HW216815   2.355   0.841   3.123
 5306SOL     OW16816   2.947   0.202   5.665
 5306SOL    HW116817   2.993   0.225   5.579
 5306SOL    HW216818   2.998   0.131   5.712
 5307SOL     OW16819   4.654   6.805   0.013
 5307SOL    HW116820   4.738   6.855   7.020
 5307SOL    HW216821   4.655   6.773   0.108
 5308SOL     OW16822   0.424   1.766   2.623
 5308SOL    HW116823   0.419   1.811   2.534
 5308SOL    HW216824   0.520   1.748   2.645
 5309SOL     OW16825   3.613   3.982   3.548
 5309SOL    HW116826   3.583   4.023   3.634
 5309SOL    HW216827   3.609   4.050   3.474
 5310SOL     OW16828   4.957   2.239   0.582
 5310SOL    HW116829   4.969   2.249   0.484
 5310SOL    HW216830   4.864   2.267   0.608
 5311SOL     OW16831   1.246   5.742   6.634
 5311SOL    HW116832   1.215   5.831   6.599
 5311SOL    HW216833   1.257   5.679   6.558
 5312SOL     OW16834   0.395   3.891   3.083
 5312SOL    HW116835   0.475   3.848   3.041
 5312SOL    HW216836   0.362   3.833   3.158
 5313SOL     OW16837   1.089   5.916   0.287
 5313SOL    HW116838   1.025   5.993   0.277
 5313SOL    HW216839   1.183   5.950   0.286
 5314SOL     OW16840   3.888   5.443   0.976
 5314SOL    HW116841   3.858   5.353   1.007
 5314SOL    HW216842   3.809   5.497   0.945
 5315SOL     OW16843   5.402   2.642   1.749
 5315SOL    HW116844   5.466   2.707   1.790
 5315SOL    HW216845   5.315   2.687   1.729
 5316SOL     OW16846   6.559   4.557   3.751
 5316SOL    HW116847   6.627   4.628   3.773
 5316SOL    HW216848   6.591   4.505   3.672
 5317SOL     OW16849   5.575   6.552   2.649
 5317SOL    HW116850   5.653   6.607   2.620
 5317SOL    HW216851   5.547   6.492   2.574
 5318SOL     OW16852   0.774   2.457   4.626
 5318SOL    HW116853   0.712   2.453   4.548
 5318SOL    HW216854   0.730   2.414   4.705
 5319SOL     OW16855   5.013   0.636   0.707
 5319SOL    HW116856   5.078   0.561   0.693
 5319SOL    HW216857   4.956   0.616   0.786
 5320SOL     OW16858   5.907   2.865   5.912
 5320SOL    HW116859   5.977   2.795   5.902
 5320SOL    HW216860   5.821   2.831   5.874
 5321SOL     OW16861   2.440   5.380   5.534
 5321SOL    HW116862   2.412   5.467   5.493
 5321SOL    HW216863   2.367   5.346   5.594
 5322SOL     OW16864   3.295   6.321   0.095
 5322SOL    HW116865   3.272   6.417   0.111
 5322SOL    HW216866   3.274   6.297   0.001
 5323SOL     OW16867   5.442   2.744   0.986
 5323SOL    HW116868   5.479   2.756   0.894
 5323SOL    HW216869   5.459   2.650   1.017
 5324SOL     OW16870   3.816   3.387   1.442
 5324SOL    HW116871   3.731   3.335   1.432
 5324SOL    HW216872   3.867   3.385   1.356
 5325SOL     OW16873   5.190   5.745   2.977
 5325SOL    HW116874   5.251   5.716   3.050
 5325SOL    HW216875   5.159   5.839   2.994
 5326SOL     OW16876   6.882   6.354   1.672
 5326SOL    HW116877   6.960   6.302   1.637
 5326SOL    HW216878   6.886   6.358   1.771
 5327SOL     OW16879   6.538   0.911   3.831
 5327SOL    HW116880   6.474   0.867   3.769
 5327SOL    HW216881   6.601   0.842   3.869
 5328SOL     OW16882   4.007   4.563   0.433
 5328SOL    HW116883   3.943   4.495   0.469
 5328SOL    HW216884   3.970   4.655   0.450
 5329SOL     OW16885   0.152   4.868   0.126
 5329SOL    HW116886   0.153   4.773   0.159
 5329SOL    HW216887   0.246   4.903   0.125
 5330SOL     OW16888   5.005   4.171   1.172
 5330SOL    HW116889   4.987   4.211   1.083
 5330SOL    HW216890   5.032   4.242   1.236
 5331SOL     OW16891   4.684   3.725   6.967
 5331SOL    HW116892   4.760   3.696   7.025
 5331SOL    HW216893   4.708   3.712   6.871
 5332SOL     OW16894   6.149   3.394   0.156
 5332SOL    HW116895   6.166   3.311   0.103
 5332SOL    HW216896   6.168   3.474   0.099
 5333SOL     OW16897   2.022   1.393   3.921
 5333SOL    HW116898   1.998   1.296   3.915
 5333SOL    HW216899   1.939   1.447   3.927
 5334SOL     OW16900   4.179   5.077   2.186
 5334SOL    HW116901   4.108   5.035   2.242
 5334SOL    HW216902   4.223   5.006   2.130
 5335SOL     OW16903   6.700   4.721   1.545
 5335SOL    HW116904   6.716   4.643   1.484
 5335SOL    HW216905   6.760   4.715   1.624
 5336SOL     OW16906   1.099   3.359   4.218
 5336SOL    HW116907   1.002   3.383   4.221
 5336SOL    HW216908   1.149   3.415   4.285
 5337SOL     OW16909   6.727   4.325   0.431
 5337SOL    HW116910   6.697   4.410   0.390
 5337SOL    HW216911   6.816   4.299   0.393
 5338SOL     OW16912   6.826   3.279   0.932
 5338SOL    HW116913   6.836   3.351   1.001
 5338SOL    HW216914   6.775   3.315   0.854
 5339SOL     OW16915   5.808   3.010   3.115
 5339SOL    HW116916   5.831   2.995   3.212
 5339SOL    HW216917   5.714   3.043   3.108
 5340SOL     OW16918   5.375   2.441   2.137
 5340SOL    HW116919   5.320   2.511   2.182
 5340SOL    HW216920   5.472   2.457   2.157
 5341SOL     OW16921   4.206   5.527   3.674
 5341SOL    HW116922   4.112   5.492   3.680
 5341SOL    HW216923   4.204   5.621   3.640
 5342SOL     OW16924   5.904   6.744   4.108
 5342SOL    HW116925   5.939   6.711   4.020
 5342SOL    HW216926   5.826   6.804   4.093
 5343SOL     OW16927   4.080   3.844   6.857
 5343SOL    HW116928   4.104   3.747   6.851
 5343SOL    HW216929   4.092   3.875   6.952
 5344SOL     OW16930   1.441   1.549   6.003
 5344SOL    HW116931   1.499   1.490   6.059
 5344SOL    HW216932   1.499   1.605   5.943
 5345SOL     OW16933   5.006   2.597   0.313
 5345SOL    HW116934   4.995   2.661   0.236
 5345SOL    HW216935   4.940   2.619   0.384
 5346SOL     OW16936   3.118   5.623   3.813
 5346SOL    HW116937   3.105   5.703   3.755
 5346SOL    HW216938   3.199   5.636   3.870
 5347SOL     OW16939   5.701   1.380   3.955
 5347SOL    HW116940   5.657   1.293   3.978
 5347SOL    HW216941   5.800   1.367   3.953
 5348SOL     OW16942   5.081   1.837   3.136
 5348SOL    HW116943   5.073   1.751   3.086
 5348SOL    HW216944   5.168   1.881   3.111
 5349SOL     OW16945   6.732   3.568   2.687
 5349SOL    HW116946   6.803   3.543   2.753
 5349SOL    HW216947   6.651   3.600   2.734
 5350SOL     OW16948   1.514   6.242   0.179
 5350SOL    HW116949   1.541   6.240   0.083
 5350SOL    HW216950   1.538   6.331   0.218
 5351SOL     OW16951   0.020   5.900   1.965
 5351SOL    HW116952   0.019   5.801   1.984
 5351SOL    HW216953   6.980   5.920   1.892
 5352SOL     OW16954   1.630   3.409   5.060
 5352SOL    HW116955   1.606   3.460   4.978
 5352SOL    HW216956   1.702   3.459   5.110
 5353SOL     OW16957   3.971   5.369   3.639
 5353SOL    HW116958   3.991   5.284   3.688
 5353SOL    HW216959   4.012   5.364   3.547
 5354SOL     OW16960   4.561   6.053   1.124
 5354SOL    HW116961   4.513   5.989   1.184
 5354SOL    HW216962   4.630   6.004   1.071
 5355SOL     OW16963   5.027   4.573   5.316
 5355SOL    HW116964   4.984   4.616   5.237
 5355SOL    HW216965   5.104   4.628   5.346
 5356SOL     OW16966   0.602   5.118   1.442
 5356SOL    HW116967   0.582   5.040   1.501
 5356SOL    HW216968   0.682   5.167   1.477
 5357SOL     OW16969   5.588   3.854   2.208
 5357SOL    HW116970   5.608   3.944   2.167
 5357SOL    HW216971   5.492   3.852   2.236
 5358SOL     OW16972   4.567   1.990   0.433
 5358SOL    HW116973   4.585   1.954   0.342
 5358SOL    HW216974   4.495   2.059   0.428
 5359SOL     OW16975   2.980   1.660   6.806
 5359SOL    HW116976   3.061   1.654   6.747
 5359SOL    HW216977   2.984   1.746   6.858
 5360SOL     OW16978   5.121   4.217   3.569
 5360SOL    HW116979   5.077   4.255   3.651
 5360SOL    HW216980   5.215   4.190   3.592
 5361SOL     OW16981   2.906   5.662   2.080
 5361SOL    HW116982   2.913   5.753   2.038
 5361SOL    HW216983   2.997   5.628   2.101
 5362SOL     OW16984   6.007   0.614   1.851
 5362SOL    HW116985   6.045   0.540   1.907
 5362SOL    HW216986   6.004   0.698   1.906
 5363SOL     OW16987   5.843   5.448   3.592
 5363SOL    HW116988   5.920   5.417   3.535
 5363SOL    HW216989   5.757   5.428   3.545
 5364SOL     OW16990   4.442   1.108   3.003
 5364SOL    HW116991   4.511   1.078   3.069
 5364SOL    HW216992   4.488   1.148   2.924
 5365SOL     OW16993   3.791   2.946   3.569
 5365SOL    HW116994   3.815   2.893   3.487
 5365SOL    HW216995   3.699   2.922   3.599
 5366SOL     OW16996   6.479   6.469   2.208
 5366SOL    HW116997   6.433   6.545   2.162
 5366SOL    HW216998   6.576   6.469   2.184
 5367SOL     OW16999   6.533   5.589   1.379
 5367SOL    HW117000   6.565   5.603   1.473
 5367SOL    HW217001   6.469   5.513   1.377
 5368SOL     OW17002   6.710   5.879   3.930
 5368SOL    HW117003   6.642   5.904   3.998
 5368SOL    HW217004   6.768   5.958   3.909
 5369SOL     OW17005   2.622   6.022   2.446
 5369SOL    HW117006   2.717   6.052   2.445
 5369SOL    HW217007   2.574   6.065   2.523
 5370SOL     OW17008   1.939   3.443   1.294
 5370SOL    HW117009   1.852   3.491   1.301
 5370SOL    HW217010   2.012   3.499   1.333
 5371SOL     OW17011   5.468   5.739   4.794
 5371SOL    HW117012   5.524   5.728   4.876
 5371SOL    HW217013   5.497   5.821   4.745
 5372SOL     OW17014   0.999   0.082   3.135
 5372SOL    HW117015   1.011   0.167   3.083
 5372SOL    HW217016   1.084   0.060   3.183
 5373SOL     OW17017   3.565   0.930   6.480
 5373SOL    HW117018   3.591   0.840   6.444
 5373SOL    HW217019   3.549   0.923   6.579
 5374SOL     OW17020   2.142   4.495   2.593
 5374SOL    HW117021   2.079   4.424   2.560
 5374SOL    HW217022   2.102   4.585   2.579
 5375SOL     OW17023   1.318   5.080   3.801
 5375SOL    HW117024   1.257   5.012   3.842
 5375SOL    HW217025   1.407   5.038   3.782
 5376SOL     OW17026   0.542   0.558   6.387
 5376SOL    HW117027   0.512   0.464   6.404
 5376SOL    HW217028   0.642   0.561   6.391
 5377SOL     OW17029   2.328   0.632   3.208
 5377SOL    HW117030   2.287   0.663   3.294
 5377SOL    HW217031   2.257   0.592   3.150
 5378SOL     OW17032   5.164   1.024   2.146
 5378SOL    HW117033   5.132   0.964   2.072
 5378SOL    HW217034   5.235   1.085   2.110
 5379SOL     OW17035   1.740   1.988   6.238
 5379SOL    HW117036   1.702   1.898   6.217
 5379SOL    HW217037   1.826   1.976   6.288
 5380SOL     OW17038   4.190   6.546   1.281
 5380SOL    HW117039   4.118   6.503   1.335
 5380SOL    HW217040   4.179   6.521   1.185
 5381SOL     OW17041   4.822   6.661   4.018
 5381SOL    HW117042   4.798   6.594   3.948
 5381SOL    HW217043   4.855   6.614   4.100
 5382SOL     OW17044   3.943   1.386   1.704
 5382SOL    HW117045   3.984   1.428   1.785
 5382SOL    HW217046   3.951   1.448   1.626
 5383SOL     OW17047   1.932   2.411   4.817
 5383SOL    HW117048   1.939   2.417   4.917
 5383SOL    HW217049   1.840   2.381   4.792
 5384SOL     OW17050   5.543   5.703   4.326
 5384SOL    HW117051   5.616   5.636   4.338
 5384SOL    HW217052   5.580   5.795   4.342
 5385SOL     OW17053   3.914   2.595   5.588
 5385SOL    HW117054   3.931   2.638   5.500
 5385SOL    HW217055   3.828   2.630   5.626
 5386SOL     OW17056   6.057   4.599   3.931
 5386SOL    HW117057   6.142   4.605   3.878
 5386SOL    HW217058   6.022   4.691   3.947
 5387SOL     OW17059   1.219   1.103   3.386
 5387SOL    HW117060   1.315   1.107   3.361
 5387SOL    HW217061   1.187   1.008   3.385
 5388SOL     OW17062   1.016   6.382   2.282
 5388SOL    HW117063   1.033   6.288   2.310
 5388SOL    HW217064   0.972   6.382   2.192
 5389SOL     OW17065   4.706   2.019   4.134
 5389SOL    HW117066   4.778   1.966   4.178
 5389SOL    HW217067   4.639   2.047   4.203
 5390SOL     OW17068   0.223   2.596   2.603
 5390SOL    HW117069   0.312   2.559   2.630
 5390SOL    HW217070   0.211   2.688   2.641
 5391SOL     OW17071   2.501   3.696   0.545
 5391SOL    HW117072   2.555   3.727   0.624
 5391SOL    HW217073   2.538   3.609   0.512
 5392SOL     OW17074   5.752   1.970   3.497
 5392SOL    HW117075   5.701   1.977   3.412
 5392SOL    HW217076   5.731   2.048   3.556
 5393SOL     OW17077   3.608   1.730   5.260
 5393SOL    HW117078   3.543   1.788   5.309
 5393SOL    HW217079   3.670   1.687   5.325
 5394SOL     OW17080   1.353   1.419   1.179
 5394SOL    HW117081   1.339   1.343   1.116
 5394SOL    HW217082   1.429   1.398   1.240
 5395SOL     OW17083   6.568   1.815   1.035
 5395SOL    HW117084   6.667   1.799   1.039
 5395SOL    HW217085   6.521   1.729   1.017
 5396SOL     OW17086   5.481   4.664   2.064
 5396SOL    HW117087   5.432   4.646   2.150
 5396SOL    HW217088   5.566   4.611   2.063
 5397SOL     OW17089   0.686   1.722   2.629
 5397SOL    HW117090   0.662   1.673   2.545
 5397SOL    HW217091   0.774   1.768   2.617
 5398SOL     OW17092   5.256   1.879   2.758
 5398SOL    HW117093   5.310   1.954   2.798
 5398SOL    HW217094   5.307   1.794   2.765
 5399SOL     OW17095   2.401   0.874   6.600
 5399SOL    HW117096   2.306   0.843   6.602
 5399SOL    HW217097   2.416   0.939   6.675
 5400SOL     OW17098   4.700   3.480   1.698
 5400SOL    HW117099   4.775   3.426   1.736
 5400SOL    HW217100   4.714   3.577   1.720
 5401SOL     OW17101   5.789   3.508   1.291
 5401SOL    HW117102   5.739   3.499   1.204
 5401SOL    HW217103   5.735   3.564   1.354
 5402SOL     OW17104   1.192   6.035   1.556
 5402SOL    HW117105   1.252   5.961   1.586
 5402SOL    HW217106   1.117   6.046   1.622
 5403SOL     OW17107   4.822   3.431   6.840
 5403SOL    HW117108   4.733   3.474   6.853
 5403SOL    HW217109   4.852   3.443   6.746
 5404SOL     OW17110   6.868   1.264   0.640
 5404SOL    HW117111   6.802   1.317   0.693
 5404SOL    HW217112   6.821   1.188   0.596
 5405SOL     OW17113   6.253   5.154   6.942
 5405SOL    HW117114   6.270   5.253   6.939
 5405SOL    HW217115   6.189   5.133   7.016
 5406SOL     OW17116   2.837   0.324   5.256
 5406SOL    HW117117   2.913   0.263   5.233
 5406SOL    HW217118   2.753   0.271   5.266
 5407SOL     OW17119   1.858   6.941   2.960
 5407SOL    HW117120   1.895   0.007   2.946
 5407SOL    HW217121   1.758   6.947   2.972
 5408SOL     OW17122   3.381   1.975   4.211
 5408SOL    HW117123   3.471   1.983   4.168
 5408SOL    HW217124   3.363   1.880   4.236
 5409SOL     OW17125   1.322   2.600   1.169
 5409SOL    HW117126   1.316   2.623   1.266
 5409SOL    HW217127   1.303   2.681   1.114
 5410SOL     OW17128   1.242   2.417   0.398
 5410SOL    HW117129   1.231   2.378   0.489
 5410SOL    HW217130   1.338   2.410   0.369
 5411SOL     OW17131   3.349   5.330   0.164
 5411SOL    HW117132   3.424   5.349   0.101
 5411SOL    HW217133   3.286   5.264   0.122
 5412SOL     OW17134   0.130   1.781   6.335
 5412SOL    HW117135   0.200   1.848   6.311
 5412SOL    HW217136   0.040   1.818   6.312
 5413SOL     OW17137   6.858   6.196   5.124
 5413SOL    HW117138   6.825   6.288   5.150
 5413SOL    HW217139   6.868   6.191   5.025
 5414SOL     OW17140   5.906   4.097   5.090
 5414SOL    HW117141   5.948   4.022   5.140
 5414SOL    HW217142   5.844   4.061   5.020
 5415SOL     OW17143   4.334   0.603   0.012
 5415SOL    HW117144   4.412   0.562   0.059
 5415SOL    HW217145   4.320   0.559   6.950
 5416SOL     OW17146   3.030   6.151   6.912
 5416SOL    HW117147   2.970   6.224   6.946
 5416SOL    HW217148   3.055   6.090   6.987
 5417SOL     OW17149   4.542   6.427   4.244
 5417SOL    HW117150   4.451   6.404   4.278
 5417SOL    HW217151   4.559   6.381   4.158
 5418SOL     OW17152   6.149   3.132   4.175
 5418SOL    HW117153   6.079   3.202   4.160
 5418SOL    HW217154   6.191   3.108   4.088
 5419SOL     OW17155   5.093   6.180   6.630
 5419SOL    HW117156   5.178   6.205   6.584
 5419SOL    HW217157   5.020   6.241   6.600
 5420SOL     OW17158   1.065   1.173   1.709
 5420SOL    HW117159   1.156   1.175   1.751
 5420SOL    HW217160   1.053   1.086   1.660
 5421SOL     OW17161   4.086   4.829   2.316
 5421SOL    HW117162   3.997   4.785   2.316
 5421SOL    HW217163   4.157   4.760   2.298
 5422SOL     OW17164   2.937   5.459   3.690
 5422SOL    HW117165   2.883   5.414   3.761
 5422SOL    HW217166   3.009   5.515   3.733
 5423SOL     OW17167   5.674   6.207   1.746
 5423SOL    HW117168   5.601   6.276   1.748
 5423SOL    HW217169   5.653   6.138   1.676
 5424SOL     OW17170   4.143   3.909   5.747
 5424SOL    HW117171   4.191   3.910   5.835
 5424SOL    HW217172   4.133   4.003   5.714
 5425SOL     OW17173   1.355   4.128   5.887
 5425SOL    HW117174   1.432   4.097   5.942
 5425SOL    HW217175   1.325   4.053   5.827
 5426SOL     OW17176   5.861   4.969   1.400
 5426SOL    HW117177   5.850   5.068   1.404
 5426SOL    HW217178   5.826   4.927   1.483
 5427SOL     OW17179   4.849   2.031   6.384
 5427SOL    HW117180   4.783   2.084   6.436
 5427SOL    HW217181   4.942   2.062   6.407
 5428SOL     OW17182   6.405   5.864   2.646
 5428SOL    HW117183   6.479   5.870   2.712
 5428SOL    HW217184   6.443   5.849   2.555
 5429SOL     OW17185   3.454   0.372   4.837
 5429SOL    HW117186   3.390   0.440   4.874
 5429SOL    HW217187   3.547   0.408   4.843
 5430SOL     OW17188   2.916   3.751   5.817
 5430SOL    HW117189   2.849   3.825   5.821
 5430SOL    HW217190   2.949   3.742   5.723
 5431SOL     OW17191   3.169   4.415   0.095
 5431SOL    HW117192   3.167   4.334   0.036
 5431SOL    HW217193   3.263   4.446   0.106
 5432SOL     OW17194   6.666   5.304   0.028
 5432SOL    HW117195   6.624   5.333   0.114
 5432SOL    HW217196   6.668   5.204   0.024
 5433SOL     OW17197   1.539   0.446   1.705
 5433SOL    HW117198   1.620   0.458   1.763
 5433SOL    HW217199   1.548   0.502   1.623
 5434SOL     OW17200   6.082   6.846   5.170
 5434SOL    HW117201   6.045   6.783   5.102
 5434SOL    HW217202   6.048   6.939   5.151
 5435SOL     OW17203   6.872   4.419   0.944
 5435SOL    HW117204   6.920   4.331   0.947
 5435SOL    HW217205   6.836   4.433   0.852
 5436SOL     OW17206   1.214   5.278   2.377
 5436SOL    HW117207   1.288   5.342   2.354
 5436SOL    HW217208   1.250   5.185   2.379
 5437SOL     OW17209   3.693   5.516   1.337
 5437SOL    HW117210   3.661   5.610   1.327
 5437SOL    HW217211   3.634   5.454   1.286
 5438SOL     OW17212   4.160   5.594   2.324
 5438SOL    HW117213   4.258   5.578   2.331
 5438SOL    HW217214   4.131   5.585   2.228
 5439SOL     OW17215   1.058   4.919   1.864
 5439SOL    HW117216   0.971   4.948   1.903
 5439SOL    HW217217   1.130   4.983   1.892
 5440SOL     OW17218   6.337   6.700   3.528
 5440SOL    HW117219   6.323   6.703   3.627
 5440SOL    HW217220   6.256   6.736   3.483
 5441SOL     OW17221   5.874   2.849   3.920
 5441SOL    HW117222   5.848   2.770   3.864
 5441SOL    HW217223   5.919   2.917   3.862
 5442SOL     OW17224   4.303   0.485   5.836
 5442SOL    HW117225   4.354   0.539   5.903
 5442SOL    HW217226   4.208   0.477   5.865
 5443SOL     OW17227   4.348   0.256   4.110
 5443SOL    HW117228   4.345   0.224   4.205
 5443SOL    HW217229   4.255   0.272   4.077
 5444SOL     OW17230   6.104   0.991   4.673
 5444SOL    HW117231   6.025   1.046   4.645
 5444SOL    HW217232   6.179   1.004   4.608
 5445SOL     OW17233   5.788   5.884   4.268
 5445SOL    HW117234   5.862   5.886   4.201
 5445SOL    HW217235   5.824   5.854   4.357
 5446SOL     OW17236   0.211   4.552   5.881
 5446SOL    HW117237   0.172   4.642   5.866
 5446SOL    HW217238   0.192   4.494   5.802
 5447SOL     OW17239   1.161   2.488   0.686
 5447SOL    HW117240   1.177   2.555   0.613
 5447SOL    HW217241   1.245   2.476   0.738
 5448SOL     OW17242   4.272   5.224   3.026
 5448SOL    HW117243   4.298   5.208   2.931
 5448SOL    HW217244   4.247   5.137   3.069
 5449SOL     OW17245   3.134   1.515   1.628
 5449SOL    HW117246   3.108   1.516   1.725
 5449SOL    HW217247   3.135   1.421   1.595
 5450SOL     OW17248   4.046   5.702   1.581
 5450SOL    HW117249   4.139   5.740   1.586
 5450SOL    HW217250   4.039   5.643   1.501
 5451SOL     OW17251   6.816   0.228   2.716
 5451SOL    HW117252   6.849   0.164   2.646
 5451SOL    HW217253   6.802   0.318   2.674
 5452SOL     OW17254   2.189   4.236   2.020
 5452SOL    HW117255   2.172   4.179   2.100
 5452SOL    HW217256   2.103   4.254   1.972
 5453SOL     OW17257   5.729   4.146   2.935
 5453SOL    HW117258   5.730   4.083   2.857
 5453SOL    HW217259   5.656   4.118   2.998
 5454SOL     OW17260   5.616   5.019   2.538
 5454SOL    HW117261   5.703   5.017   2.588
 5454SOL    HW217262   5.613   4.941   2.474
 5455SOL     OW17263   1.727   1.509   3.908
 5455SOL    HW117264   1.660   1.470   3.973
 5455SOL    HW217265   1.707   1.475   3.816
 5456SOL     OW17266   6.122   1.385   0.567
 5456SOL    HW117267   6.079   1.427   0.487
 5456SOL    HW217268   6.142   1.289   0.546
 5457SOL     OW17269   5.583   1.549   6.692
 5457SOL    HW117270   5.650   1.508   6.754
 5457SOL    HW217271   5.492   1.543   6.732
 5458SOL     OW17272   6.187   3.738   0.070
 5458SOL    HW117273   6.263   3.774   0.016
 5458SOL    HW217274   6.213   3.733   0.166
 5459SOL     OW17275   1.585   3.921   5.765
 5459SOL    HW117276   1.584   3.981   5.685
 5459SOL    HW217277   1.635   3.837   5.742
 5460SOL     OW17278   1.682   0.664   1.299
 5460SOL    HW117279   1.710   0.760   1.303
 5460SOL    HW217280   1.674   0.636   1.203
 5461SOL     OW17281   6.688   1.076   5.239
 5461SOL    HW117282   6.700   1.037   5.148
 5461SOL    HW217283   6.766   1.135   5.260
 5462SOL     OW17284   4.762   4.757   6.450
 5462SOL    HW117285   4.691   4.787   6.387
 5462SOL    HW217286   4.804   4.673   6.416
 5463SOL     OW17287   1.600   3.149   6.816
 5463SOL    HW117288   1.541   3.189   6.886
 5463SOL    HW217289   1.552   3.072   6.773
 5464SOL     OW17290   0.523   5.987   5.767
 5464SOL    HW117291   0.530   6.087   5.762
 5464SOL    HW217292   0.445   5.957   5.712
 5465SOL     OW17293   6.654   6.444   3.844
 5465SOL    HW117294   6.624   6.538   3.862
 5465SOL    HW217295   6.640   6.389   3.926
 5466SOL     OW17296   5.822   2.048   5.330
 5466SOL    HW117297   5.772   2.129   5.300
 5466SOL    HW217298   5.773   2.005   5.406
 5467SOL     OW17299   4.917   3.154   4.184
 5467SOL    HW117300   4.856   3.105   4.246
 5467SOL    HW217301   4.977   3.213   4.237
 5468SOL     OW17302   0.577   1.805   1.668
 5468SOL    HW117303   0.590   1.707   1.653
 5468SOL    HW217304   0.650   1.838   1.729
 5469SOL     OW17305   2.974   0.570   4.997
 5469SOL    HW117306   3.008   0.476   5.001
 5469SOL    HW217307   2.911   0.586   5.073
 5470SOL     OW17308   3.560   5.983   3.666
 5470SOL    HW117309   3.503   6.065   3.666
 5470SOL    HW217310   3.534   5.923   3.590
 5471SOL     OW17311   4.871   0.862   3.490
 5471SOL    HW117312   4.900   0.958   3.497
 5471SOL    HW217313   4.830   0.834   3.577
 5472SOL     OW17314   2.677   2.093   6.713
 5472SOL    HW117315   2.774   2.067   6.713
 5472SOL    HW217316   2.663   2.171   6.653
 5473SOL     OW17317   2.686   4.306   1.512
 5473SOL    HW117318   2.647   4.214   1.503
 5473SOL    HW217319   2.785   4.301   1.498
 5474SOL     OW17320   0.843   5.447   3.696
 5474SOL    HW117321   0.792   5.378   3.747
 5474SOL    HW217322   0.930   5.465   3.743
 5475SOL     OW17323   6.897   2.026   5.339
 5475SOL    HW117324   6.985   1.978   5.330
 5475SOL    HW217325   6.825   1.959   5.357
 5476SOL     OW17326   2.562   6.797   5.944
 5476SOL    HW117327   2.525   6.789   6.036
 5476SOL    HW217328   2.503   6.856   5.889
 5477SOL     OW17329   1.742   4.556   3.682
 5477SOL    HW117330   1.682   4.620   3.633
 5477SOL    HW217331   1.826   4.603   3.708
 5478SOL     OW17332   5.625   4.566   5.643
 5478SOL    HW117333   5.646   4.587   5.547
 5478SOL    HW217334   5.633   4.649   5.698
 5479SOL     OW17335   3.375   1.654   4.633
 5479SOL    HW117336   3.442   1.707   4.684
 5479SOL    HW217337   3.284   1.694   4.646
 5480SOL     OW17338   6.987   3.726   4.362
 5480SOL    HW117339   0.021   3.805   4.349
 5480SOL    HW217340   6.957   3.722   4.457
 5481SOL     OW17341   4.995   0.782   6.610
 5481SOL    HW117342   5.059   0.806   6.682
 5481SOL    HW217343   5.037   0.801   6.521
 5482SOL     OW17344   4.843   2.932   1.207
 5482SOL    HW117345   4.783   2.993   1.258
 5482SOL    HW217346   4.808   2.839   1.212
 5483SOL     OW17347   0.198   3.241   5.494
 5483SOL    HW117348   0.168   3.146   5.485
 5483SOL    HW217349   0.271   3.245   5.563
 5484SOL     OW17350   6.264   6.265   3.694
 5484SOL    HW117351   6.356   6.296   3.671
 5484SOL    HW217352   6.234   6.196   3.628
 5485SOL     OW17353   3.835   6.816   5.462
 5485SOL    HW117354   3.838   6.866   5.548
 5485SOL    HW217355   3.771   6.861   5.399
 5486SOL     OW17356   0.623   0.914   3.657
 5486SOL    HW117357   0.540   0.858   3.649
 5486SOL    HW217358   0.702   0.861   3.628
 5487SOL     OW17359   6.126   4.583   0.089
 5487SOL    HW117360   6.125   4.661   0.151
 5487SOL    HW217361   6.076   4.507   0.131
 5488SOL     OW17362   4.952   1.996   6.688
 5488SOL    HW117363   4.984   2.025   6.778
 5488SOL    HW217364   5.000   2.048   6.617
 5489SOL     OW17365   1.293   4.493   3.012
 5489SOL    HW117366   1.220   4.528   2.952
 5489SOL    HW217367   1.366   4.455   2.955
 5490SOL     OW17368   2.193   2.051   1.001
 5490SOL    HW117369   2.178   2.059   1.099
 5490SOL    HW217370   2.207   1.955   0.977
 5491SOL     OW17371   1.283   4.538   0.714
 5491SOL    HW117372   1.371   4.492   0.723
 5491SOL    HW217373   1.287   4.627   0.759
 5492SOL     OW17374   1.071   1.573   6.396
 5492SOL    HW117375   1.027   1.574   6.306
 5492SOL    HW217376   1.023   1.509   6.456
 5493SOL     OW17377   3.669   3.758   0.050
 5493SOL    HW117378   3.740   3.828   0.043
 5493SOL    HW217379   3.643   3.727   6.984
 5494SOL     OW17380   5.511   3.127   1.273
 5494SOL    HW117381   5.510   3.226   1.284
 5494SOL    HW217382   5.428   3.097   1.226
 5495SOL     OW17383   4.113   3.604   2.629
 5495SOL    HW117384   4.119   3.552   2.543
 5495SOL    HW217385   4.110   3.540   2.705
 5496SOL     OW17386   3.797   6.252   1.279
 5496SOL    HW117387   3.777   6.187   1.206
 5496SOL    HW217388   3.860   6.210   1.345
 5497SOL     OW17389   6.989   1.166   1.977
 5497SOL    HW117390   6.966   1.246   1.922
 5497SOL    HW217391   0.050   1.127   1.945
 5498SOL     OW17392   4.793   1.281   5.976
 5498SOL    HW117393   4.726   1.352   5.954
 5498SOL    HW217394   4.775   1.246   6.068
 5499SOL     OW17395   6.974   1.749   3.161
 5499SOL    HW117396   7.021   1.735   3.249
 5499SOL    HW217397   6.928   1.837   3.161
 5500SOL     OW17398   1.727   5.870   0.598
 5500SOL    HW117399   1.692   5.964   0.603
 5500SOL    HW217400   1.818   5.866   0.639
 5501SOL     OW17401   2.863   0.705   1.939
 5501SOL    HW117402   2.924   0.647   1.992
 5501SOL    HW217403   2.771   0.703   1.980
 5502SOL     OW17404   5.940   4.018   5.709
 5502SOL    HW117405   6.037   4.041   5.716
 5502SOL    HW217406   5.928   3.920   5.724
 5503SOL     OW17407   1.051   5.310   3.298
 5503SOL    HW117408   1.119   5.246   3.261
 5503SOL    HW217409   1.057   5.311   3.398
 5504SOL     OW17410   3.112   1.772   4.439
 5504SOL    HW117411   3.107   1.752   4.536
 5504SOL    HW217412   3.035   1.830   4.413
 5505SOL     OW17413   3.642   5.356   6.023
 5505SOL    HW117414   3.684   5.293   5.957
 5505SOL    HW217415   3.645   5.449   5.987
 5506SOL     OW17416   5.982   0.781   5.887
 5506SOL    HW117417   5.890   0.820   5.881
 5506SOL    HW217418   5.977   0.681   5.885
 5507SOL     OW17419   2.320   6.828   3.968
 5507SOL    HW117420   2.381   6.862   3.897
 5507SOL    HW217421   2.313   6.896   4.042
 5508SOL     OW17422   2.821   0.499   6.501
 5508SOL    HW117423   2.910   0.500   6.546
 5508SOL    HW217424   2.824   0.559   6.421
 5509SOL     OW17425   6.079   6.466   6.954
 5509SOL    HW117426   6.136   6.409   7.013
 5509SOL    HW217427   6.127   6.486   6.869
 5510SOL     OW17428   5.370   0.223   5.914
 5510SOL    HW117429   5.411   0.186   5.998
 5510SOL    HW217430   5.371   0.153   5.843
 5511SOL     OW17431   1.008   1.109   2.528
 5511SOL    HW117432   0.924   1.088   2.478
 5511SOL    HW217433   1.035   1.029   2.582
 5512SOL     OW17434   1.085   0.808   6.796
 5512SOL    HW117435   1.114   0.780   6.705
 5512SOL    HW217436   1.158   0.789   6.862
 5513SOL     OW17437   4.859   3.915   4.926
 5513SOL    HW117438   4.903   3.882   4.843
 5513SOL    HW217439   4.829   4.010   4.911
 5514SOL     OW17440   5.156   4.926   1.876
 5514SOL    HW117441   5.090   5.002   1.873
 5514SOL    HW217442   5.185   4.912   1.970
 5515SOL     OW17443   6.607   2.158   1.861
 5515SOL    HW117444   6.566   2.144   1.771
 5515SOL    HW217445   6.676   2.230   1.857
 5516SOL     OW17446   1.275   3.691   6.631
 5516SOL    HW117447   1.184   3.697   6.590
 5516SOL    HW217448   1.287   3.768   6.695
 5517SOL     OW17449   2.752   1.713   1.199
 5517SOL    HW117450   2.744   1.746   1.105
 5517SOL    HW217451   2.837   1.660   1.209
 5518SOL     OW17452   5.770   4.819   5.527
 5518SOL    HW117453   5.775   4.757   5.449
 5518SOL    HW217454   5.674   4.829   5.555
 5519SOL     OW17455   5.807   3.526   3.884
 5519SOL    HW117456   5.854   3.480   3.959
 5519SOL    HW217457   5.852   3.612   3.863
 5520SOL     OW17458   0.804   4.020   2.393
 5520SOL    HW117459   0.898   4.054   2.395
 5520SOL    HW217460   0.746   4.085   2.344
 5521SOL     OW17461   5.950   5.658   1.441
 5521SOL    HW117462   6.040   5.616   1.455
 5521SOL    HW217463   5.961   5.756   1.427
 5522SOL     OW17464   2.500   3.513   1.638
 5522SOL    HW117465   2.471   3.585   1.575
 5522SOL    HW217466   2.464   3.532   1.730
 5523SOL     OW17467   3.311   0.142   2.689
 5523SOL    HW117468   3.340   0.237   2.680
 5523SOL    HW217469   3.323   0.112   2.784
 5524SOL     OW17470   0.199   4.863   6.147
 5524SOL    HW117471   0.259   4.878   6.226
 5524SOL    HW217472   0.252   4.825   6.072
 5525SOL     OW17473   6.525   5.493   6.080
 5525SOL    HW117474   6.489   5.569   6.134
 5525SOL    HW217475   6.461   5.471   6.006
 5526SOL     OW17476   6.529   3.374   4.060
 5526SOL    HW117477   6.521   3.383   3.961
 5526SOL    HW217478   6.452   3.322   4.095
 5527SOL     OW17479   1.853   2.872   1.518
 5527SOL    HW117480   1.840   2.822   1.604
 5527SOL    HW217481   1.854   2.808   1.442
 5528SOL     OW17482   0.431   2.766   4.524
 5528SOL    HW117483   0.434   2.724   4.615
 5528SOL    HW217484   0.340   2.753   4.484
 5529SOL     OW17485   2.470   0.600   4.438
 5529SOL    HW117486   2.451   0.553   4.352
 5529SOL    HW217487   2.384   0.638   4.474
 5530SOL     OW17488   0.588   1.896   0.418
 5530SOL    HW117489   0.625   1.960   0.486
 5530SOL    HW217490   0.492   1.917   0.402
 5531SOL     OW17491   4.202   2.690   5.583
 5531SOL    HW117492   4.148   2.710   5.665
 5531SOL    HW217493   4.146   2.707   5.502
 5532SOL     OW17494   2.216   1.750   0.926
 5532SOL    HW117495   2.231   1.755   0.827
 5532SOL    HW217496   2.286   1.692   0.967
 5533SOL     OW17497   4.108   0.883   2.074
 5533SOL    HW117498   4.148   0.793   2.091
 5533SOL    HW217499   4.020   0.873   2.028
 5534SOL     OW17500   0.808   4.060   6.562
 5534SOL    HW117501   0.808   4.074   6.463
 5534SOL    HW217502   0.830   3.964   6.582
 5535SOL     OW17503   6.214   2.956   3.036
 5535SOL    HW117504   6.156   3.037   3.041
 5535SOL    HW217505   6.301   2.975   3.082
 5536SOL     OW17506   2.049   0.866   4.421
 5536SOL    HW117507   2.091   0.949   4.384
 5536SOL    HW217508   1.988   0.827   4.351
 5537SOL     OW17509   4.613   0.258   5.097
 5537SOL    HW117510   4.519   0.225   5.110
 5537SOL    HW217511   4.610   0.346   5.051
 5538SOL     OW17512   3.890   1.448   6.283
 5538SOL    HW117513   3.825   1.504   6.334
 5538SOL    HW217514   3.912   1.366   6.336
 5539SOL     OW17515   2.234   0.618   1.921
 5539SOL    HW117516   2.319   0.586   1.879
 5539SOL    HW217517   2.226   0.717   1.910
 5540SOL     OW17518   4.718   2.571   6.722
 5540SOL    HW117519   4.730   2.473   6.735
 5540SOL    HW217520   4.783   2.620   6.780
 5541SOL     OW17521   4.555   3.785   6.186
 5541SOL    HW117522   4.469   3.751   6.150
 5541SOL    HW217523   4.586   3.726   6.260
 5542SOL     OW17524   5.423   4.274   6.263
 5542SOL    HW117525   5.456   4.336   6.191
 5542SOL    HW217526   5.485   4.196   6.269
 5543SOL     OW17527   2.029   0.192   1.036
 5543SOL    HW117528   2.079   0.120   0.989
 5543SOL    HW217529   2.005   0.162   1.128
 5544SOL     OW17530   4.614   5.415   6.421
 5544SOL    HW117531   4.706   5.396   6.386
 5544SOL    HW217532   4.577   5.332   6.462
 5545SOL     OW17533   4.164   0.749   2.834
 5545SOL    HW117534   4.203   0.836   2.804
 5545SOL    HW217535   4.091   0.722   2.770
 5546SOL     OW17536   0.485   6.150   4.985
 5546SOL    HW117537   0.444   6.241   4.991
 5546SOL    HW217538   0.422   6.083   5.024
 5547SOL     OW17539   5.138   1.818   5.971
 5547SOL    HW117540   5.107   1.844   6.063
 5547SOL    HW217541   5.130   1.719   5.960
 5548SOL     OW17542   6.991   3.692   5.549
 5548SOL    HW117543   6.999   3.593   5.552
 5548SOL    HW217544   6.972   3.721   5.455
 5549SOL     OW17545   4.297   3.794   1.754
 5549SOL    HW117546   4.259   3.773   1.664
 5549SOL    HW217547   4.379   3.850   1.744
 5550SOL     OW17548   1.752   4.365   3.006
 5550SOL    HW117549   1.723   4.273   2.983
 5550SOL    HW217550   1.815   4.363   3.084
 5551SOL     OW17551   2.264   5.394   2.914
 5551SOL    HW117552   2.350   5.443   2.929
 5551SOL    HW217553   2.281   5.295   2.921
 5552SOL     OW17554   6.814   6.526   6.508
 5552SOL    HW117555   6.852   6.443   6.468
 5552SOL    HW217556   6.848   6.606   6.459
 5553SOL     OW17557   4.699   0.484   6.674
 5553SOL    HW117558   4.667   0.389   6.681
 5553SOL    HW217559   4.632   0.545   6.716
 5554SOL     OW17560   5.081   2.563   0.740
 5554SOL    HW117561   5.090   2.508   0.823
 5554SOL    HW217562   5.115   2.656   0.757
 5555SOL     OW17563   0.877   4.202   3.439
 5555SOL    HW117564   0.902   4.115   3.396
 5555SOL    HW217565   0.955   4.265   3.434
 5556SOL     OW17566   5.850   0.884   4.312
 5556SOL    HW117567   5.838   0.786   4.327
 5556SOL    HW217568   5.867   0.930   4.399
 5557SOL     OW17569   3.247   5.793   1.676
 5557SOL    HW117570   3.238   5.845   1.761
 5557SOL    HW217571   3.339   5.755   1.670
 5558SOL     OW17572   3.445   4.523   0.346
 5558SOL    HW117573   3.381   4.456   0.311
 5558SOL    HW217574   3.407   4.615   0.335
 5559SOL     OW17575   1.004   0.291   2.955
 5559SOL    HW117576   1.039   0.308   2.862
 5559SOL    HW217577   0.909   0.324   2.960
 5560SOL     OW17578   0.114   5.594   2.927
 5560SOL    HW117579   0.191   5.626   2.982
 5560SOL    HW217580   0.034   5.583   2.986
 5561SOL     OW17581   2.998   0.914   4.860
 5561SOL    HW117582   3.014   0.904   4.958
 5561SOL    HW217583   2.913   0.868   4.835
 5562SOL     OW17584   4.478   4.506   6.863
 5562SOL    HW117585   4.471   4.601   6.894
 5562SOL    HW217586   4.392   4.459   6.883
 5563SOL     OW17587   3.155   4.936   2.694
 5563SOL    HW117588   3.253   4.920   2.692
 5563SOL    HW217589   3.115   4.885   2.770
 5564SOL     OW17590   4.803   6.447   6.169
 5564SOL    HW117591   4.800   6.414   6.074
 5564SOL    HW217592   4.889   6.495   6.185
 5565SOL     OW17593   4.023   3.525   0.516
 5565SOL    HW117594   4.118   3.494   0.527
 5565SOL    HW217595   3.982   3.480   0.437
 5566SOL     OW17596   1.551   4.454   0.279
 5566SOL    HW117597   1.461   4.438   0.238
 5566SOL    HW217598   1.574   4.379   0.341
 5567SOL     OW17599   6.864   3.070   1.965
 5567SOL    HW117600   6.795   3.142   1.958
 5567SOL    HW217601   6.823   2.981   1.943
 5568SOL     OW17602   4.470   6.330   2.732
 5568SOL    HW117603   4.403   6.324   2.805
 5568SOL    HW217604   4.428   6.302   2.645
 5569SOL     OW17605   2.806   1.678   3.636
 5569SOL    HW117606   2.800   1.582   3.662
 5569SOL    HW217607   2.715   1.718   3.633
 5570SOL     OW17608   5.951   3.241   3.479
 5570SOL    HW117609   5.900   3.162   3.444
 5570SOL    HW217610   5.943   3.244   3.579
 5571SOL     OW17611   6.255   5.089   2.099
 5571SOL    HW117612   6.188   5.114   2.170
 5571SOL    HW217613   6.342   5.065   2.143
 5572SOL     OW17614   1.724   4.300   4.739
 5572SOL    HW117615   1.713   4.345   4.651
 5572SOL    HW217616   1.786   4.222   4.729
 5573SOL     OW17617   1.506   5.140   5.191
 5573SOL    HW117618   1.484   5.206   5.120
 5573SOL    HW217619   1.545   5.058   5.150
 5574SOL     OW17620   1.009   3.294   6.568
 5574SOL    HW117621   1.102   3.302   6.604
 5574SOL    HW217622   0.980   3.198   6.573
 5575SOL     OW17623   0.554   0.026   1.824
 5575SOL    HW117624   0.575   0.024   1.922
 5575SOL    HW217625   0.558   6.958   1.788
 5576SOL     OW17626   1.557   4.133   3.240
 5576SOL    HW117627   1.519   4.224   3.226
 5576SOL    HW217628   1.509   4.068   3.181
 5577SOL     OW17629   1.774   3.161   0.186
 5577SOL    HW117630   1.743   3.186   0.094
 5577SOL    HW217631   1.695   3.128   0.239
 5578SOL     OW17632   3.763   3.969   2.388
 5578SOL    HW117633   3.738   3.880   2.425
 5578SOL    HW217634   3.747   4.040   2.457
 5579SOL     OW17635   0.442   3.226   0.848
 5579SOL    HW117636   0.449   3.315   0.893
 5579SOL    HW217637   0.360   3.178   0.880
 5580SOL     OW17638   5.001   1.867   6.228
 5580SOL    HW117639   4.955   1.921   6.299
 5580SOL    HW217640   4.941   1.793   6.199
 5581SOL     OW17641   1.335   1.815   1.295
 5581SOL    HW117642   1.354   1.914   1.294
 5581SOL    HW217643   1.311   1.787   1.388
 5582SOL     OW17644   2.720   4.223   6.717
 5582SOL    HW117645   2.626   4.197   6.739
 5582SOL    HW217646   2.745   4.304   6.769
 5583SOL     OW17647   4.474   0.654   2.265
 5583SOL    HW117648   4.435   0.715   2.334
 5583SOL    HW217649   4.489   0.564   2.307
 5584SOL     OW17650   6.525   4.125   4.282
 5584SOL    HW117651   6.568   4.155   4.197
 5584SOL    HW217652   6.435   4.087   4.263
 5585SOL     OW17653   5.021   5.041   3.167
 5585SOL    HW117654   5.008   5.092   3.253
 5585SOL    HW217655   5.047   5.105   3.095
 5586SOL     OW17656   6.682   3.381   5.591
 5586SOL    HW117657   6.616   3.358   5.520
 5586SOL    HW217658   6.737   3.301   5.614
 5587SOL     OW17659   4.428   0.216   6.973
 5587SOL    HW117660   4.426   0.128   6.926
 5587SOL    HW217661   4.397   0.288   6.912
 5588SOL     OW17662   2.215   6.315   2.721
 5588SOL    HW117663   2.183   6.221   2.732
 5588SOL    HW217664   2.135   6.376   2.713
 5589SOL     OW17665   6.293   4.219   6.514
 5589SOL    HW117666   6.246   4.208   6.601
 5589SOL    HW217667   6.279   4.312   6.479
 5590SOL     OW17668   5.850   6.158   3.610
 5590SOL    HW117669   5.839   6.219   3.689
 5590SOL    HW217670   5.760   6.132   3.576
 5591SOL     OW17671   0.593   1.873   1.401
 5591SOL    HW117672   0.558   1.847   1.490
 5591SOL    HW217673   0.581   1.797   1.336
 5592SOL     OW17674   1.443   5.231   3.346
 5592SOL    HW117675   1.435   5.218   3.444
 5592SOL    HW217676   1.357   5.206   3.301
 5593SOL     OW17677   0.035   2.778   6.623
 5593SOL    HW117678   7.009   2.816   6.700
 5593SOL    HW217679   7.001   2.771   6.543
 5594SOL     OW17680   5.075   0.614   4.844
 5594SOL    HW117681   5.050   0.604   4.748
 5594SOL    HW217682   5.021   0.550   4.899
 5595SOL     OW17683   1.386   1.657   5.536
 5595SOL    HW117684   1.373   1.647   5.438
 5595SOL    HW217685   1.467   1.714   5.554
 5596SOL     OW17686   4.048   6.203   2.845
 5596SOL    HW117687   3.963   6.242   2.880
 5596SOL    HW217688   4.038   6.183   2.747
 5597SOL     OW17689   5.153   2.182   4.303
 5597SOL    HW117690   5.217   2.243   4.348
 5597SOL    HW217691   5.097   2.234   4.237
 5598SOL     OW17692   4.955   3.607   3.987
 5598SOL    HW117693   4.864   3.611   3.946
 5598SOL    HW217694   5.022   3.644   3.923
 5599SOL     OW17695   1.167   0.946   4.049
 5599SOL    HW117696   1.197   0.855   4.077
 5599SOL    HW217697   1.075   0.964   4.085
 5600SOL     OW17698   0.863   2.231   2.555
 5600SOL    HW117699   0.860   2.138   2.592
 5600SOL    HW217700   0.784   2.282   2.587
 5601SOL     OW17701   3.041   6.986   5.797
 5601SOL    HW117702   2.948   6.959   5.821
 5601SOL    HW217703   3.104   6.962   5.871
 5602SOL     OW17704   0.765   1.789   0.897
 5602SOL    HW117705   0.811   1.743   0.972
 5602SOL    HW217706   0.668   1.768   0.899
 5603SOL     OW17707   5.001   2.098   6.927
 5603SOL    HW117708   5.036   2.188   6.955
 5603SOL    HW217709   4.954   2.055   7.004
 5604SOL     OW17710   6.898   1.953   5.810
 5604SOL    HW117711   6.803   1.936   5.832
 5604SOL    HW217712   6.904   2.012   5.729
 5605SOL     OW17713   0.787   0.916   4.529
 5605SOL    HW117714   0.757   1.010   4.545
 5605SOL    HW217715   0.798   0.869   4.616
 5606SOL     OW17716   5.651   6.507   1.173
 5606SOL    HW117717   5.684   6.424   1.219
 5606SOL    HW217718   5.697   6.516   1.085
 5607SOL     OW17719   5.505   0.414   2.245
 5607SOL    HW117720   5.462   0.327   2.222
 5607SOL    HW217721   5.469   0.448   2.332
 5608SOL     OW17722   4.509   0.334   4.701
 5608SOL    HW117723   4.606   0.318   4.683
 5608SOL    HW217724   4.459   0.247   4.693
 5609SOL     OW17725   2.610   5.204   0.816
 5609SOL    HW117726   2.600   5.281   0.753
 5609SOL    HW217727   2.560   5.223   0.900
 5610SOL     OW17728   4.897   6.853   0.533
 5610SOL    HW117729   4.830   6.922   0.506
 5610SOL    HW217730   4.938   6.879   0.621
 5611SOL     OW17731   1.774   4.882   2.522
 5611SOL    HW117732   1.854   4.824   2.535
 5611SOL    HW217733   1.714   4.841   2.453
 5612SOL     OW17734   3.956   2.043   6.569
 5612SOL    HW117735   3.936   1.963   6.513
 5612SOL    HW217736   4.003   2.111   6.513
 5613SOL     OW17737   4.834   3.966   2.745
 5613SOL    HW117738   4.913   3.989   2.689
 5613SOL    HW217739   4.836   3.868   2.766
 5614SOL     OW17740   4.455   2.476   4.404
 5614SOL    HW117741   4.515   2.530   4.462
 5614SOL    HW217742   4.502   2.453   4.318
 5615SOL     OW17743   0.813   0.554   6.390
 5615SOL    HW117744   0.905   0.514   6.390
 5615SOL    HW217745   0.820   0.654   6.391
 5616SOL     OW17746   1.901   1.041   5.353
 5616SOL    HW117747   1.931   1.021   5.446
 5616SOL    HW217748   1.805   1.070   5.354
 5617SOL     OW17749   2.568   6.650   6.439
 5617SOL    HW117750   2.584   6.557   6.405
 5617SOL    HW217751   2.533   6.707   6.364
 5618SOL     OW17752   6.389   3.222   4.252
 5618SOL    HW117753   6.378   3.279   4.334
 5618SOL    HW217754   6.298   3.192   4.221
 5619SOL     OW17755   2.860   4.244   6.294
 5619SOL    HW117756   2.875   4.172   6.226
 5619SOL    HW217757   2.806   4.207   6.370
 5620SOL     OW17758   3.611   3.363   0.792
 5620SOL    HW117759   3.566   3.433   0.846
 5620SOL    HW217760   3.709   3.383   0.786
 5621SOL     OW17761   1.428   2.221   6.008
 5621SOL    HW117762   1.350   2.159   6.011
 5621SOL    HW217763   1.446   2.249   5.914
 5622SOL     OW17764   4.291   0.037   5.846
 5622SOL    HW117765   4.287   0.122   5.792
 5622SOL    HW217766   4.254   6.988   5.792
 5623SOL     OW17767   2.019   5.920   6.108
 5623SOL    HW117768   1.964   5.860   6.166
 5623SOL    HW217769   2.115   5.917   6.139
 5624SOL     OW17770   0.904   4.570   3.324
 5624SOL    HW117771   0.904   4.619   3.411
 5624SOL    HW217772   0.918   4.636   3.249
 5625SOL     OW17773   6.192   2.062   4.031
 5625SOL    HW117774   6.162   2.053   4.126
 5625SOL    HW217775   6.148   2.141   3.990
 5626SOL     OW17776   2.588   6.244   4.748
 5626SOL    HW117777   2.602   6.318   4.814
 5626SOL    HW217778   2.502   6.198   4.769
 5627SOL     OW17779   1.043   5.902   0.566
 5627SOL    HW117780   1.055   5.893   0.467
 5627SOL    HW217781   0.969   5.841   0.596
 5628SOL     OW17782   1.610   2.258   6.225
 5628SOL    HW117783   1.658   2.175   6.251
 5628SOL    HW217784   1.553   2.240   6.145
 5629SOL     OW17785   3.236   4.006   1.882
 5629SOL    HW117786   3.285   3.919   1.876
 5629SOL    HW217787   3.258   4.062   1.802
 5630SOL     OW17788   1.467   5.161   0.826
 5630SOL    HW117789   1.405   5.184   0.751
 5630SOL    HW217790   1.561   5.183   0.800
 5631SOL     OW17791   4.352   1.553   6.975
 5631SOL    HW117792   4.422   1.544   6.905
 5631SOL    HW217793   4.273   1.496   6.952
 5632SOL     OW17794   4.005   3.203   6.019
 5632SOL    HW117795   4.002   3.247   5.929
 5632SOL    HW217796   3.923   3.228   6.071
 5633SOL     OW17797   6.545   2.094   3.636
 5633SOL    HW117798   6.613   2.153   3.593
 5633SOL    HW217799   6.453   2.122   3.606
 5634SOL     OW17800   3.013   5.887   5.587
 5634SOL    HW117801   2.939   5.947   5.618
 5634SOL    HW217802   3.079   5.875   5.662
 5635SOL     OW17803   2.093   3.320   4.799
 5635SOL    HW117804   2.013   3.294   4.745
 5635SOL    HW217805   2.147   3.239   4.820
 5636SOL     OW17806   3.501   6.163   2.748
 5636SOL    HW117807   3.418   6.217   2.764
 5636SOL    HW217808   3.567   6.217   2.697
 5637SOL     OW17809   5.416   0.097   3.936
 5637SOL    HW117810   5.385   0.022   3.878
 5637SOL    HW217811   5.341   0.127   3.995
 5638SOL     OW17812   5.387   3.475   1.058
 5638SOL    HW117813   5.326   3.460   0.979
 5638SOL    HW217814   5.373   3.567   1.093
 5639SOL     OW17815   0.580   1.072   0.592
 5639SOL    HW117816   0.608   1.168   0.588
 5639SOL    HW217817   0.630   1.020   0.522
 5640SOL     OW17818   2.689   0.605   4.113
 5640SOL    HW117819   2.645   0.519   4.141
 5640SOL    HW217820   2.783   0.606   4.148
 5641SOL     OW17821   0.402   4.579   6.078
 5641SOL    HW117822   0.345   4.587   5.996
 5641SOL    HW217823   0.492   4.619   6.060
 5642SOL     OW17824   1.881   6.626   0.320
 5642SOL    HW117825   1.886   6.605   0.417
 5642SOL    HW217826   1.849   6.720   0.307
 5643SOL     OW17827   4.892   1.623   5.106
 5643SOL    HW117828   4.903   1.629   5.007
 5643SOL    HW217829   4.936   1.540   5.139
 5644SOL     OW17830   2.970   6.664   5.298
 5644SOL    HW117831   2.955   6.630   5.390
 5644SOL    HW217832   2.981   6.763   5.301
 5645SOL     OW17833   6.429   3.990   3.693
 5645SOL    HW117834   6.474   3.990   3.782
 5645SOL    HW217835   6.378   4.075   3.681
 5646SOL     OW17836   1.978   4.945   2.803
 5646SOL    HW117837   1.910   4.984   2.741
 5646SOL    HW217838   2.050   5.013   2.820
 5647SOL     OW17839   5.475   6.373   1.784
 5647SOL    HW117840   5.447   6.398   1.877
 5647SOL    HW217841   5.426   6.290   1.757
 5648SOL     OW17842   2.372   5.739   2.816
 5648SOL    HW117843   2.406   5.768   2.906
 5648SOL    HW217844   2.449   5.729   2.753
 5649SOL     OW17845   0.935   6.737   4.154
 5649SOL    HW117846   0.870   6.722   4.228
 5649SOL    HW217847   1.028   6.727   4.189
 5650SOL     OW17848   0.595   4.787   0.654
 5650SOL    HW117849   0.578   4.720   0.726
 5650SOL    HW217850   0.634   4.741   0.574
 5651SOL     OW17851   1.652   0.356   0.659
 5651SOL    HW117852   1.697   0.294   0.723
 5651SOL    HW217853   1.694   0.347   0.569
 5652SOL     OW17854   0.060   5.619   1.972
 5652SOL    HW117855   0.071   5.582   1.880
 5652SOL    HW217856   0.006   5.555   2.028
 5653SOL     OW17857   0.333   6.282   6.941
 5653SOL    HW117858   0.406   6.290   7.009
 5653SOL    HW217859   0.272   6.361   6.948
 5654SOL     OW17860   0.997   6.106   4.601
 5654SOL    HW117861   1.006   6.189   4.546
 5654SOL    HW217862   1.000   6.130   4.698
 5655SOL     OW17863   6.556   2.823   3.953
 5655SOL    HW117864   6.535   2.913   3.914
 5655SOL    HW217865   6.614   2.834   4.033
 5656SOL     OW17866   6.841   3.361   6.338
 5656SOL    HW117867   6.784   3.358   6.419
 5656SOL    HW217868   6.834   3.452   6.296
 5657SOL     OW17869   4.602   4.609   4.861
 5657SOL    HW117870   4.642   4.543   4.924
 5657SOL    HW217871   4.509   4.632   4.891
 5658SOL     OW17872   1.892   2.987   6.087
 5658SOL    HW117873   1.890   3.083   6.115
 5658SOL    HW217874   1.918   2.930   6.164
 5659SOL     OW17875   3.271   3.603   6.204
 5659SOL    HW117876   3.260   3.555   6.291
 5659SOL    HW217877   3.202   3.572   6.139
 5660SOL     OW17878   4.528   6.851   6.538
 5660SOL    HW117879   4.470   6.787   6.487
 5660SOL    HW217880   4.571   6.915   6.473
 5661SOL     OW17881   0.758   5.410   5.997
 5661SOL    HW117882   0.803   5.467   5.928
 5661SOL    HW217883   0.821   5.338   6.027
 5662SOL     OW17884   2.556   6.720   2.881
 5662SOL    HW117885   2.630   6.713   2.814
 5662SOL    HW217886   2.472   6.684   2.842
 5663SOL     OW17887   1.259   2.768   0.523
 5663SOL    HW117888   1.264   2.802   0.617
 5663SOL    HW217889   1.329   2.813   0.467
 5664SOL     OW17890   5.117   4.277   4.670
 5664SOL    HW117891   5.090   4.373   4.661
 5664SOL    HW217892   5.077   4.240   4.754
 5665SOL     OW17893   1.114   6.753   0.175
 5665SOL    HW117894   1.155   6.784   0.261
 5665SOL    HW217895   1.177   6.691   0.129
 5666SOL     OW17896   5.615   0.786   4.079
 5666SOL    HW117897   5.641   0.695   4.048
 5666SOL    HW217898   5.685   0.822   4.141
 5667SOL     OW17899   1.715   4.791   4.256
 5667SOL    HW117900   1.691   4.771   4.161
 5667SOL    HW217901   1.636   4.773   4.314
 5668SOL     OW17902   6.109   2.858   2.551
 5668SOL    HW117903   6.047   2.936   2.546
 5668SOL    HW217904   6.107   2.819   2.644
 5669SOL     OW17905   6.320   4.197   6.829
 5669SOL    HW117906   6.350   4.235   6.917
 5669SOL    HW217907   6.222   4.211   6.818
 5670SOL     OW17908   1.182   3.791   3.101
 5670SOL    HW117909   1.102   3.834   3.058
 5670SOL    HW217910   1.191   3.824   3.195
 5671SOL     OW17911   6.384   5.721   4.108
 5671SOL    HW117912   6.318   5.686   4.042
 5671SOL    HW217913   6.419   5.645   4.164
 5672SOL     OW17914   4.759   4.239   5.331
 5672SOL    HW117915   4.841   4.247   5.387
 5672SOL    HW217916   4.762   4.153   5.280
 5673SOL     OW17917   0.882   0.028   1.523
 5673SOL    HW117918   0.952   0.041   1.453
 5673SOL    HW217919   0.860   0.116   1.565
 5674SOL     OW17920   2.083   4.863   4.530
 5674SOL    HW117921   2.061   4.842   4.625
 5674SOL    HW217922   2.080   4.779   4.476
 5675SOL     OW17923   3.344   1.257   0.482
 5675SOL    HW117924   3.345   1.169   0.436
 5675SOL    HW217925   3.293   1.323   0.428
 5676SOL     OW17926   2.874   2.428   1.616
 5676SOL    HW117927   2.835   2.519   1.601
 5676SOL    HW217928   2.903   2.419   1.711
 5677SOL     OW17929   6.742   0.703   0.863
 5677SOL    HW117930   6.679   0.751   0.801
 5677SOL    HW217931   6.691   0.668   0.942
 5678SOL     OW17932   3.372   1.532   2.299
 5678SOL    HW117933   3.469   1.521   2.324
 5678SOL    HW217934   3.317   1.540   2.381
 5679SOL     OW17935   6.134   2.177   4.861
 5679SOL    HW117936   6.140   2.094   4.915
 5679SOL    HW217937   6.062   2.236   4.899
 5680SOL     OW17938   1.632   4.840   5.314
 5680SOL    HW117939   1.692   4.761   5.305
 5680SOL    HW217940   1.661   4.895   5.392
 5681SOL     OW17941   0.485   3.473   2.699
 5681SOL    HW117942   0.447   3.551   2.748
 5681SOL    HW217943   0.527   3.504   2.614
 5682SOL     OW17944   2.791   5.601   2.533
 5682SOL    HW117945   2.801   5.561   2.442
 5682SOL    HW217946   2.784   5.528   2.601
 5683SOL     OW17947   4.130   2.729   6.585
 5683SOL    HW117948   4.057   2.675   6.626
 5683SOL    HW217949   4.093   2.811   6.543
 5684SOL     OW17950   2.281   3.398   6.199
 5684SOL    HW117951   2.335   3.479   6.222
 5684SOL    HW217952   2.342   3.318   6.192
 5685SOL     OW17953   2.028   2.712   4.057
 5685SOL    HW117954   2.123   2.732   4.031
 5685SOL    HW217955   2.020   2.711   4.156
 5686SOL     OW17956   3.156   0.676   5.911
 5686SOL    HW117957   3.241   0.624   5.905
 5686SOL    HW217958   3.167   0.763   5.863
 5687SOL     OW17959   0.702   6.225   5.193
 5687SOL    HW117960   0.634   6.229   5.120
 5687SOL    HW217961   0.788   6.189   5.156
 5688SOL     OW17962   2.024   3.412   3.812
 5688SOL    HW117963   2.091   3.400   3.739
 5688SOL    HW217964   1.981   3.324   3.832
 5689SOL     OW17965   1.281   0.829   1.400
 5689SOL    HW117966   1.283   0.929   1.398
 5689SOL    HW217967   1.253   0.798   1.490
 5690SOL     OW17968   0.751   5.518   6.766
 5690SOL    HW117969   0.824   5.557   6.823
 5690SOL    HW217970   0.719   5.587   6.701
 5691SOL     OW17971   3.179   1.205   2.271
 5691SOL    HW117972   3.193   1.293   2.224
 5691SOL    HW217973   3.215   1.212   2.364
 5692SOL     OW17974   4.973   5.170   0.691
 5692SOL    HW117975   4.998   5.246   0.632
 5692SOL    HW217976   4.955   5.204   0.783
 5693SOL     OW17977   3.955   0.969   0.563
 5693SOL    HW117978   3.937   0.944   0.658
 5693SOL    HW217979   4.048   0.941   0.539
 5694SOL     OW17980   0.539   0.521   2.784
 5694SOL    HW117981   0.506   0.551   2.874
 5694SOL    HW217982   0.541   0.598   2.721
 5695SOL     OW17983   1.048   1.114   2.075
 5695SOL    HW117984   1.067   1.211   2.087
 5695SOL    HW217985   1.134   1.065   2.057
 5696SOL     OW17986   1.502   0.595   4.057
 5696SOL    HW117987   1.515   0.502   4.021
 5696SOL    HW217988   1.589   0.644   4.054
 5697SOL     OW17989   6.280   2.849   1.704
 5697SOL    HW117990   6.346   2.774   1.708
 5697SOL    HW217991   6.275   2.894   1.794
 5698SOL     OW17992   1.700   3.435   3.577
 5698SOL    HW117993   1.718   3.486   3.661
 5698SOL    HW217994   1.611   3.391   3.583
 5699SOL     OW17995   1.988   2.589   3.261
 5699SOL    HW117996   2.032   2.635   3.184
 5699SOL    HW217997   1.925   2.652   3.307
 5700SOL     OW17998   0.138   0.669   2.145
 5700SOL    HW117999   0.142   0.580   2.189
 5700SOL    HW218000   0.159   0.740   2.212
 5701SOL     OW18001   6.636   1.101   0.936
 5701SOL    HW118002   6.700   1.165   0.979
 5701SOL    HW218003   6.598   1.041   1.006
 5702SOL     OW18004   1.702   6.595   4.086
 5702SOL    HW118005   1.654   6.529   4.028
 5702SOL    HW218006   1.640   6.671   4.107
 5703SOL     OW18007   0.164   3.781   5.977
 5703SOL    HW118008   0.179   3.738   5.888
 5703SOL    HW218009   0.092   3.850   5.969
 5704SOL     OW18010   5.338   3.597   3.694
 5704SOL    HW118011   5.424   3.641   3.717
 5704SOL    HW218012   5.262   3.653   3.727
 5705SOL     OW18013   6.090   5.953   6.468
 5705SOL    HW118014   6.148   5.887   6.419
 5705SOL    HW218015   6.137   5.982   6.552
 5706SOL     OW18016   5.808   2.743   0.587
 5706SOL    HW118017   5.898   2.786   0.594
 5706SOL    HW218018   5.765   2.770   0.501
 5707SOL     OW18019   5.253   6.773   1.252
 5707SOL    HW118020   5.317   6.823   1.310
 5707SOL    HW218021   5.162   6.775   1.293
 5708SOL     OW18022   4.833   5.783   3.506
 5708SOL    HW118023   4.885   5.699   3.521
 5708SOL    HW218024   4.811   5.825   3.594
 5709SOL     OW18025   1.724   1.103   1.934
 5709SOL    HW118026   1.757   1.028   1.990
 5709SOL    HW218027   1.659   1.068   1.866
 5710SOL     OW18028   2.727   2.696   0.718
 5710SOL    HW118029   2.803   2.665   0.774
 5710SOL    HW218030   2.660   2.622   0.709
 5711SOL     OW18031   5.044   0.543   1.521
 5711SOL    HW118032   4.963   0.523   1.467
 5711SOL    HW218033   5.040   0.494   1.608
 5712SOL     OW18034   6.841   6.324   1.380
 5712SOL    HW118035   6.926   6.372   1.403
 5712SOL    HW218036   6.852   6.227   1.401
 5713SOL     OW18037   2.344   5.498   0.639
 5713SOL    HW118038   2.426   5.477   0.586
 5713SOL    HW218039   2.353   5.459   0.731
 5714SOL     OW18040   6.394   5.913   1.501
 5714SOL    HW118041   6.441   5.858   1.570
 5714SOL    HW218042   6.405   6.010   1.523
 5715SOL     OW18043   0.756   6.529   1.467
 5715SOL    HW118044   0.792   6.439   1.440
 5715SOL    HW218045   0.705   6.520   1.552
 5716SOL     OW18046   0.811   4.650   6.330
 5716SOL    HW118047   0.770   4.708   6.260
 5716SOL    HW218048   0.776   4.676   6.420
 5717SOL     OW18049   2.046   4.755   2.577
 5717SOL    HW118050   2.036   4.807   2.662
 5717SOL    HW218051   2.136   4.771   2.538
 5718SOL     OW18052   0.662   2.775   0.883
 5718SOL    HW118053   0.760   2.753   0.890
 5718SOL    HW218054   0.652   2.870   0.854
 5719SOL     OW18055   3.103   3.116   1.240
 5719SOL    HW118056   3.165   3.171   1.185
 5719SOL    HW218057   3.088   3.160   1.328
 5720SOL     OW18058   2.330   5.761   5.667
 5720SOL    HW118059   2.377   5.834   5.717
 5720SOL    HW218060   2.248   5.734   5.717
 5721SOL     OW18061   5.325   4.330   0.144
 5721SOL    HW118062   5.314   4.387   0.226
 5721SOL    HW218063   5.236   4.292   0.118
 5722SOL     OW18064   0.740   1.029   5.208
 5722SOL    HW118065   0.791   1.104   5.251
 5722SOL    HW218066   0.729   0.955   5.275
 5723SOL     OW18067   4.173   3.595   0.178
 5723SOL    HW118068   4.114   3.592   0.097
 5723SOL    HW218069   4.268   3.587   0.150
 5724SOL     OW18070   5.880   2.448   2.993
 5724SOL    HW118071   5.783   2.468   2.987
 5724SOL    HW218072   5.896   2.352   2.969
 5725SOL     OW18073   5.346   4.925   3.254
 5725SOL    HW118074   5.437   4.901   3.219
 5725SOL    HW218075   5.276   4.891   3.191
 5726SOL     OW18076   4.863   3.982   3.225
 5726SOL    HW118077   4.831   4.021   3.139
 5726SOL    HW218078   4.860   3.883   3.221
 5727SOL     OW18079   0.928   2.631   4.205
 5727SOL    HW118080   0.929   2.547   4.259
 5727SOL    HW218081   0.857   2.624   4.135
 5728SOL     OW18082   4.572   6.037   5.357
 5728SOL    HW118083   4.506   5.984   5.410
 5728SOL    HW218084   4.542   6.044   5.262
 5729SOL     OW18085   2.535   2.322   6.139
 5729SOL    HW118086   2.491   2.269   6.211
 5729SOL    HW218087   2.504   2.417   6.143
 5730SOL     OW18088   6.894   3.909   5.665
 5730SOL    HW118089   6.932   3.823   5.631
 5730SOL    HW218090   6.796   3.913   5.643
 5731SOL     OW18091   0.176   6.592   1.698
 5731SOL    HW118092   0.079   6.616   1.706
 5731SOL    HW218093   0.190   6.499   1.732
 5732SOL     OW18094   1.218   6.683   4.493
 5732SOL    HW118095   1.269   6.739   4.558
 5732SOL    HW218096   1.121   6.687   4.514
 5733SOL     OW18097   3.944   6.720   4.976
 5733SOL    HW118098   3.866   6.776   4.947
 5733SOL    HW218099   4.023   6.741   4.919
 5734SOL     OW18100   1.579   6.359   4.029
 5734SOL    HW118101   1.577   6.284   4.096
 5734SOL    HW218102   1.544   6.325   3.941
 5735SOL     OW18103   3.323   1.108   1.365
 5735SOL    HW118104   3.290   1.169   1.293
 5735SOL    HW218105   3.276   1.131   1.451
 5736SOL     OW18106   1.071   5.401   6.708
 5736SOL    HW118107   1.029   5.457   6.636
 5736SOL    HW218108   1.124   5.459   6.769
 5737SOL     OW18109   5.090   4.826   6.588
 5737SOL    HW118110   5.119   4.832   6.492
 5737SOL    HW218111   5.016   4.891   6.604
 5738SOL     OW18112   1.842   3.464   6.731
 5738SOL    HW118113   1.794   3.511   6.806
 5738SOL    HW218114   1.775   3.428   6.666
 5739SOL     OW18115   1.729   1.467   0.757
 5739SOL    HW118116   1.638   1.482   0.718
 5739SOL    HW218117   1.723   1.402   0.832
 5740SOL     OW18118   4.101   5.621   6.732
 5740SOL    HW118119   4.141   5.711   6.751
 5740SOL    HW218120   4.028   5.602   6.798
 5741SOL     OW18121   6.367   5.449   4.916
 5741SOL    HW118122   6.387   5.402   5.001
 5741SOL    HW218123   6.451   5.491   4.881
 5742SOL     OW18124   6.192   0.126   2.727
 5742SOL    HW118125   6.099   0.112   2.693
 5742SOL    HW218126   6.248   0.167   2.654
 5743SOL     OW18127   2.335   6.903   4.809
 5743SOL    HW118128   2.346   6.891   4.710
 5743SOL    HW218129   2.381   6.987   4.838
 5744SOL     OW18130   5.782   0.892   0.152
 5744SOL    HW118131   5.832   0.976   0.130
 5744SOL    HW218132   5.835   0.813   0.121
 5745SOL     OW18133   2.032   2.140   4.611
 5745SOL    HW118134   1.972   2.190   4.547
 5745SOL    HW218135   1.983   2.126   4.697
 5746SOL     OW18136   4.629   2.078   0.145
 5746SOL    HW118137   4.559   2.007   0.136
 5746SOL    HW218138   4.643   2.122   0.057
 5747SOL     OW18139   0.247   5.454   3.364
 5747SOL    HW118140   0.220   5.359   3.345
 5747SOL    HW218141   0.175   5.498   3.418
 5748SOL     OW18142   2.049   5.710   1.802
 5748SOL    HW118143   2.038   5.759   1.889
 5748SOL    HW218144   2.013   5.767   1.727
 5749SOL     OW18145   2.240   2.340   3.201
 5749SOL    HW118146   2.153   2.388   3.201
 5749SOL    HW218147   2.244   2.276   3.125
 5750SOL     OW18148   6.122   5.789   3.325
 5750SOL    HW118149   6.120   5.843   3.240
 5750SOL    HW218150   6.083   5.699   3.309
 5751SOL     OW18151   2.546   3.259   5.672
 5751SOL    HW118152   2.471   3.254   5.738
 5751SOL    HW218153   2.510   3.257   5.579
 5752SOL     OW18154   6.909   6.772   6.436
 5752SOL    HW118155   6.844   6.798   6.507
 5752SOL    HW218156   6.887   6.819   6.351
 5753SOL     OW18157   3.226   2.829   0.029
 5753SOL    HW118158   3.308   2.835   0.085
 5753SOL    HW218159   3.228   2.900   6.984
 5754SOL     OW18160   5.879   5.235   1.458
 5754SOL    HW118161   5.902   5.289   1.377
 5754SOL    HW218162   5.800   5.275   1.504
 5755SOL     OW18163   3.173   4.334   6.686
 5755SOL    HW118164   3.126   4.351   6.599
 5755SOL    HW218165   3.265   4.372   6.681
 5756SOL     OW18166   6.664   5.042   3.872
 5756SOL    HW118167   6.571   5.064   3.842
 5756SOL    HW218168   6.723   5.035   3.792
 5757SOL     OW18169   6.778   5.197   0.546
 5757SOL    HW118170   6.729   5.268   0.597
 5757SOL    HW218171   6.793   5.228   0.452
 5758SOL     OW18172   1.771   2.481   5.445
 5758SOL    HW118173   1.779   2.389   5.407
 5758SOL    HW218174   1.682   2.520   5.420
 5759SOL     OW18175   5.287   1.761   6.613
 5759SOL    HW118176   5.207   1.701   6.615
 5759SOL    HW218177   5.304   1.791   6.519
 5760SOL     OW18178   1.725   5.354   2.299
 5760SOL    HW118179   1.753   5.293   2.225
 5760SOL    HW218180   1.786   5.340   2.378
 5761SOL     OW18181   4.686   6.747   4.650
 5761SOL    HW118182   4.636   6.742   4.563
 5761SOL    HW218183   4.687   6.657   4.693
 5762SOL     OW18184   6.016   6.508   1.659
 5762SOL    HW118185   5.923   6.528   1.690
 5762SOL    HW218186   6.013   6.463   1.570
 5763SOL     OW18187   1.456   0.795   0.958
 5763SOL    HW118188   1.535   0.749   1.000
 5763SOL    HW218189   1.488   0.859   0.888
 5764SOL     OW18190   5.245   3.786   5.732
 5764SOL    HW118191   5.311   3.719   5.765
 5764SOL    HW218192   5.274   3.878   5.760
 5765SOL     OW18193   5.642   4.330   6.709
 5765SOL    HW118194   5.727   4.326   6.656
 5765SOL    HW218195   5.629   4.244   6.757
 5766SOL     OW18196   2.878   1.930   2.474
 5766SOL    HW118197   2.909   2.023   2.453
 5766SOL    HW218198   2.779   1.926   2.470
 5767SOL     OW18199   0.478   0.012   1.360
 5767SOL    HW118200   0.557   0.050   1.312
 5767SOL    HW218201   0.472   0.051   1.452
 5768SOL     OW18202   6.980   1.745   2.666
 5768SOL    HW118203   0.028   1.680   2.650
 5768SOL    HW218204   7.005   1.804   2.744
 5769SOL     OW18205   2.545   5.822   4.103
 5769SOL    HW118206   2.490   5.880   4.043
 5769SOL    HW218207   2.603   5.762   4.047
 5770SOL     OW18208   6.829   0.339   1.485
 5770SOL    HW118209   6.796   0.262   1.539
 5770SOL    HW218210   6.845   0.418   1.544
 5771SOL     OW18211   1.475   0.994   1.254
 5771SOL    HW118212   1.445   0.901   1.235
 5771SOL    HW218213   1.574   0.994   1.271
 5772SOL     OW18214   5.343   3.329   0.183
 5772SOL    HW118215   5.374   3.248   0.133
 5772SOL    HW218216   5.289   3.300   0.262
 5773SOL     OW18217   5.400   6.010   4.483
 5773SOL    HW118218   5.349   6.095   4.498
 5773SOL    HW218219   5.338   5.938   4.454
 5774SOL     OW18220   1.521   5.680   3.798
 5774SOL    HW118221   1.434   5.695   3.751
 5774SOL    HW218222   1.597   5.708   3.738
 5775SOL     OW18223   0.402   6.974   6.001
 5775SOL    HW118224   0.457   6.972   6.084
 5775SOL    HW218225   0.334   0.021   6.007
 5776SOL     OW18226   4.729   6.864   5.841
 5776SOL    HW118227   4.694   6.803   5.913
 5776SOL    HW218228   4.683   6.953   5.848
 5777SOL     OW18229   0.387   1.135   4.566
 5777SOL    HW118230   0.396   1.058   4.502
 5777SOL    HW218231   0.297   1.177   4.555
 5778SOL     OW18232   1.179   7.011   3.545
 5778SOL    HW118233   1.087   6.988   3.576
 5778SOL    HW218234   1.242   6.936   3.568
 5779SOL     OW18235   3.639   0.937   2.040
 5779SOL    HW118236   3.650   0.947   2.139
 5779SOL    HW218237   3.728   0.920   1.998
 5780SOL     OW18238   6.586   4.028   1.603
 5780SOL    HW118239   6.637   4.109   1.575
 5780SOL    HW218240   6.549   4.042   1.695
 5781SOL     OW18241   1.610   5.098   4.877
 5781SOL    HW118242   1.603   5.015   4.932
 5781SOL    HW218243   1.692   5.093   4.819
 5782SOL     OW18244   3.012   1.365   2.526
 5782SOL    HW118245   2.932   1.424   2.538
 5782SOL    HW218246   3.095   1.419   2.540
 5783SOL     OW18247   1.286   0.447   1.294
 5783SOL    HW118248   1.346   0.493   1.360
 5783SOL    HW218249   1.273   0.507   1.215
 5784SOL     OW18250   0.600   6.488   0.554
 5784SOL    HW118251   0.536   6.531   0.491
 5784SOL    HW218252   0.651   6.558   0.604
 5785SOL     OW18253   1.807   2.193   6.933
 5785SOL    HW118254   1.862   2.248   6.870
 5785SOL    HW218255   1.830   2.096   6.922
 5786SOL     OW18256   1.453   3.293   1.533
 5786SOL    HW118257   1.480   3.312   1.627
 5786SOL    HW218258   1.463   3.376   1.478
 5787SOL     OW18259   6.019   2.817   4.890
 5787SOL    HW118260   6.020   2.895   4.952
 5787SOL    HW218261   5.925   2.792   4.869
 5788SOL     OW18262   2.761   1.542   2.237
 5788SOL    HW118263   2.761   1.447   2.205
 5788SOL    HW218264   2.854   1.578   2.236
 5789SOL     OW18265   4.301   4.125   6.765
 5789SOL    HW118266   4.228   4.163   6.822
 5789SOL    HW218267   4.261   4.080   6.685
 5790SOL     OW18268   5.432   5.538   4.582
 5790SOL    HW118269   5.456   5.593   4.663
 5790SOL    HW218270   5.339   5.504   4.591
 5791SOL     OW18271   4.031   1.171   3.010
 5791SOL    HW118272   4.085   1.249   2.980
 5791SOL    HW218273   3.960   1.202   3.073
 5792SOL     OW18274   4.879   3.127   2.826
 5792SOL    HW118275   4.795   3.088   2.865
 5792SOL    HW218276   4.879   3.113   2.727
 5793SOL     OW18277   5.133   2.025   5.782
 5793SOL    HW118278   5.147   1.945   5.841
 5793SOL    HW218279   5.041   2.061   5.795
 5794SOL     OW18280   3.972   0.495   0.048
 5794SOL    HW118281   4.053   0.481   0.104
 5794SOL    HW218282   3.918   0.571   0.086
 5795SOL     OW18283   1.352   5.505   1.668
 5795SOL    HW118284   1.257   5.485   1.692
 5795SOL    HW218285   1.368   5.484   1.572
 5796SOL     OW18286   4.362   2.571   6.496
 5796SOL    HW118287   4.436   2.628   6.461
 5796SOL    HW218288   4.283   2.627   6.517
 5797SOL     OW18289   4.654   2.446   0.514
 5797SOL    HW118290   4.681   2.434   0.419
 5797SOL    HW218291   4.612   2.362   0.548
 5798SOL     OW18292   1.421   3.567   5.523
 5798SOL    HW118293   1.412   3.536   5.618
 5798SOL    HW218294   1.357   3.641   5.505
 5799SOL     OW18295   2.149   6.746   3.545
 5799SOL    HW118296   2.182   6.685   3.617
 5799SOL    HW218297   2.102   6.824   3.587
 5800SOL     OW18298   1.020   6.925   0.817
 5800SOL    HW118299   0.974   7.011   0.838
 5800SOL    HW218300   0.968   6.849   0.856
 5801SOL     OW18301   1.762   1.636   2.577
 5801SOL    HW118302   1.802   1.544   2.572
 5801SOL    HW218303   1.715   1.656   2.491
 5802SOL     OW18304   0.279   1.569   1.769
 5802SOL    HW118305   0.306   1.516   1.689
 5802SOL    HW218306   0.270   1.665   1.744
 5803SOL     OW18307   0.472   5.119   3.992
 5803SOL    HW118308   0.476   5.092   4.088
 5803SOL    HW218309   0.377   5.141   3.968
 5804SOL     OW18310   6.471   1.336   3.667
 5804SOL    HW118311   6.517   1.423   3.687
 5804SOL    HW218312   6.387   1.354   3.617
 5805SOL     OW18313   2.378   2.813   1.311
 5805SOL    HW118314   2.456   2.750   1.317
 5805SOL    HW218315   2.315   2.796   1.387
 5806SOL     OW18316   0.243   3.982   2.312
 5806SOL    HW118317   0.331   4.024   2.336
 5806SOL    HW218318   0.202   4.031   2.236
 5807SOL     OW18319   0.853   0.119   0.822
 5807SOL    HW118320   0.782   0.169   0.872
 5807SOL    HW218321   0.834   0.122   0.724
 5808SOL     OW18322   6.419   0.154   5.302
 5808SOL    HW118323   6.380   0.128   5.390
 5808SOL    HW218324   6.457   0.073   5.257
 5809SOL     OW18325   0.592   2.326   5.226
 5809SOL    HW118326   0.597   2.369   5.316
 5809SOL    HW218327   0.551   2.390   5.160
 5810SOL     OW18328   4.151   6.650   5.512
 5810SOL    HW118329   4.247   6.629   5.497
 5810SOL    HW218330   4.103   6.654   5.424
 5811SOL     OW18331   3.168   3.885   6.048
 5811SOL    HW118332   3.208   3.920   5.964
 5811SOL    HW218333   3.170   3.785   6.048
 5812SOL     OW18334   5.670   2.377   0.298
 5812SOL    HW118335   5.751   2.327   0.268
 5812SOL    HW218336   5.602   2.313   0.332
 5813SOL     OW18337   5.324   6.546   1.536
 5813SOL    HW118338   5.407   6.496   1.511
 5813SOL    HW218339   5.349   6.628   1.588
 5814SOL     OW18340   4.904   1.746   1.806
 5814SOL    HW118341   4.929   1.697   1.890
 5814SOL    HW218342   4.816   1.792   1.820
 5815SOL     OW18343   6.191   1.563   4.226
 5815SOL    HW118344   6.138   1.517   4.154
 5815SOL    HW218345   6.285   1.530   4.223
 5816SOL     OW18346   0.051   3.748   2.709
 5816SOL    HW118347   6.997   3.741   2.649
 5816SOL    HW218348   0.129   3.783   2.657
 5817SOL     OW18349   5.792   3.824   3.695
 5817SOL    HW118350   5.868   3.888   3.685
 5817SOL    HW218351   5.729   3.834   3.618
 5818SOL     OW18352   2.162   6.677   5.510
 5818SOL    HW118353   2.108   6.741   5.565
 5818SOL    HW218354   2.193   6.723   5.427
 5819SOL     OW18355   4.209   5.109   0.416
 5819SOL    HW118356   4.291   5.068   0.375
 5819SOL    HW218357   4.128   5.064   0.379
 5820SOL     OW18358   6.335   5.407   2.390
 5820SOL    HW118359   6.376   5.397   2.300
 5820SOL    HW218360   6.242   5.444   2.380
 5821SOL     OW18361   6.891   0.593   1.225
 5821SOL    HW118362   6.970   0.612   1.168
 5821SOL    HW218363   6.832   0.526   1.180
 5822SOL     OW18364   1.651   2.984   2.435
 5822SOL    HW118365   1.588   3.054   2.402
 5822SOL    HW218366   1.605   2.929   2.505
 5823SOL     OW18367   1.826   6.063   4.046
 5823SOL    HW118368   1.910   6.010   4.058
 5823SOL    HW218369   1.849   6.160   4.039
 5824SOL     OW18370   0.460   0.205   2.166
 5824SOL    HW118371   0.434   0.264   2.090
 5824SOL    HW218372   0.523   0.134   2.134
 5825SOL     OW18373   5.942   0.284   4.305
 5825SOL    HW118374   5.925   0.202   4.360
 5825SOL    HW218375   6.031   0.276   4.261
 5826SOL     OW18376   0.317   0.072   4.612
 5826SOL    HW118377   0.287   0.013   4.686
 5826SOL    HW218378   0.362   0.153   4.649
 5827SOL     OW18379   2.431   4.509   4.896
 5827SOL    HW118380   2.384   4.463   4.821
 5827SOL    HW218381   2.483   4.442   4.950
 5828SOL     OW18382   4.351   6.839   4.468
 5828SOL    HW118383   4.396   6.877   4.387
 5828SOL    HW218384   4.261   6.804   4.443
 5829SOL     OW18385   2.372   1.307   4.025
 5829SOL    HW118386   2.426   1.308   4.109
 5829SOL    HW218387   2.285   1.260   4.043
 5830SOL     OW18388   3.457   5.217   4.669
 5830SOL    HW118389   3.373   5.232   4.721
 5830SOL    HW218390   3.472   5.119   4.658
 5831SOL     OW18391   1.530   2.361   5.208
 5831SOL    HW118392   1.626   2.340   5.223
 5831SOL    HW218393   1.475   2.277   5.219
 5832SOL     OW18394   2.882   4.727   1.056
 5832SOL    HW118395   2.902   4.806   0.999
 5832SOL    HW218396   2.843   4.757   1.143
 5833SOL     OW18397   3.862   4.182   6.566
 5833SOL    HW118398   3.780   4.228   6.534
 5833SOL    HW218399   3.940   4.210   6.510
 5834SOL     OW18400   5.773   2.838   6.137
 5834SOL    HW118401   5.832   2.854   6.058
 5834SOL    HW218402   5.757   2.740   6.147
 5835SOL     OW18403   5.537   0.880   1.983
 5835SOL    HW118404   5.572   0.791   1.953
 5835SOL    HW218405   5.612   0.946   1.988
 5836SOL     OW18406   4.584   0.225   2.776
 5836SOL    HW118407   4.655   0.210   2.845
 5836SOL    HW218408   4.626   0.244   2.688
 5837SOL     OW18409   3.042   4.703   0.055
 5837SOL    HW118410   3.107   4.708   0.130
 5837SOL    HW218411   2.970   4.637   0.077
 5838SOL     OW18412   3.004   2.067   0.752
 5838SOL    HW118413   2.999   1.971   0.780
 5838SOL    HW218414   3.098   2.099   0.757
 5839SOL     OW18415   1.801   1.857   0.945
 5839SOL    HW118416   1.714   1.815   0.919
 5839SOL    HW218417   1.784   1.931   1.009
 5840SOL     OW18418   1.255   3.408   3.057
 5840SOL    HW118419   1.255   3.312   3.027
 5840SOL    HW218420   1.163   3.445   3.050
 5841SOL     OW18421   4.869   2.632   0.571
 5841SOL    HW118422   4.827   2.550   0.531
 5841SOL    HW218423   4.925   2.605   0.649
 5842SOL     OW18424   2.695   1.741   0.902
 5842SOL    HW118425   2.595   1.731   0.910
 5842SOL    HW218426   2.729   1.675   0.835
 5843SOL     OW18427   2.096   3.647   1.461
 5843SOL    HW118428   2.185   3.685   1.488
 5843SOL    HW218429   2.042   3.718   1.416
 5844SOL     OW18430   1.101   0.048   5.038
 5844SOL    HW118431   1.108   0.146   5.055
 5844SOL    HW218432   1.048   0.005   5.111
 5845SOL     OW18433   1.151   6.848   1.625
 5845SOL    HW118434   1.194   6.767   1.664
 5845SOL    HW218435   1.069   6.821   1.573
 5846SOL     OW18436   6.790   3.788   6.016
 5846SOL    HW118437   6.746   3.738   5.941
 5846SOL    HW218438   6.743   3.875   6.030
 5847SOL     OW18439   2.605   3.515   0.964
 5847SOL    HW118440   2.608   3.533   1.062
 5847SOL    HW218441   2.537   3.575   0.921
 5848SOL     OW18442   2.279   4.860   2.449
 5848SOL    HW118443   2.330   4.881   2.366
 5848SOL    HW218444   2.341   4.829   2.520
 5849SOL     OW18445   3.513   5.517   5.601
 5849SOL    HW118446   3.608   5.497   5.624
 5849SOL    HW218447   3.498   5.616   5.608
 5850SOL     OW18448   1.503   1.444   2.174
 5850SOL    HW118449   1.582   1.420   2.230
 5850SOL    HW218450   1.504   1.542   2.154
 5851SOL     OW18451   5.984   3.893   4.790
 5851SOL    HW118452   6.018   3.970   4.735
 5851SOL    HW218453   5.886   3.882   4.772
 5852SOL     OW18454   4.984   4.853   2.290
 5852SOL    HW118455   4.954   4.758   2.280
 5852SOL    HW218456   4.942   4.893   2.371
 5853SOL     OW18457   3.410   4.513   5.347
 5853SOL    HW118458   3.367   4.578   5.285
 5853SOL    HW218459   3.508   4.508   5.326
 5854SOL     OW18460   3.013   4.974   5.639
 5854SOL    HW118461   3.002   5.001   5.544
 5854SOL    HW218462   3.075   4.895   5.644
 5855SOL     OW18463   2.144   3.314   3.590
 5855SOL    HW118464   2.189   3.227   3.609
 5855SOL    HW218465   2.057   3.297   3.545
 5856SOL     OW18466   1.374   6.846   3.590
 5856SOL    HW118467   1.400   6.856   3.686
 5856SOL    HW218468   1.443   6.790   3.543
 5857SOL     OW18469   6.873   4.276   6.050
 5857SOL    HW118470   6.957   4.310   6.092
 5857SOL    HW218471   6.896   4.230   5.963
 5858SOL     OW18472   1.888   0.712   3.640
 5858SOL    HW118473   1.886   0.692   3.542
 5858SOL    HW218474   1.898   0.626   3.691
 5859SOL     OW18475   6.120   0.473   2.079
 5859SOL    HW118476   6.204   0.488   2.130
 5859SOL    HW218477   6.124   0.384   2.034
 5860SOL     OW18478   0.214   3.585   3.549
 5860SOL    HW118479   0.201   3.489   3.573
 5860SOL    HW218480   0.151   3.610   3.475
 5861SOL     OW18481   5.115   0.531   5.492
 5861SOL    HW118482   5.123   0.627   5.519
 5861SOL    HW218483   5.121   0.525   5.392
 5862SOL     OW18484   0.321   5.491   2.754
 5862SOL    HW118485   0.243   5.521   2.808
 5862SOL    HW218486   0.288   5.439   2.675
 5863SOL     OW18487   3.799   0.391   5.633
 5863SOL    HW118488   3.797   0.453   5.712
 5863SOL    HW218489   3.717   0.407   5.577
 5864SOL     OW18490   3.060   3.895   2.188
 5864SOL    HW118491   3.149   3.939   2.181
 5864SOL    HW218492   2.993   3.960   2.225
 5865SOL     OW18493   6.185   0.941   5.843
 5865SOL    HW118494   6.239   0.934   5.759
 5865SOL    HW218495   6.119   0.866   5.847
 5866SOL     OW18496   3.693   2.852   3.013
 5866SOL    HW118497   3.686   2.766   3.062
 5866SOL    HW218498   3.630   2.919   3.053
 5867SOL     OW18499   3.526   1.694   2.069
 5867SOL    HW118500   3.473   1.650   2.141
 5867SOL    HW218501   3.470   1.699   1.985
 5868SOL     OW18502   1.473   1.195   5.967
 5868SOL    HW118503   1.424   1.110   5.952
 5868SOL    HW218504   1.542   1.182   6.039
 5869SOL     OW18505   0.824   5.948   4.332
 5869SOL    HW118506   0.796   6.042   4.316
 5869SOL    HW218507   0.859   5.939   4.425
 5870SOL     OW18508   4.435   4.613   4.516
 5870SOL    HW118509   4.492   4.535   4.541
 5870SOL    HW218510   4.435   4.624   4.416
 5871SOL     OW18511   3.163   3.440   3.859
 5871SOL    HW118512   3.090   3.487   3.809
 5871SOL    HW218513   3.247   3.495   3.855
 5872SOL     OW18514   4.097   6.063   1.948
 5872SOL    HW118515   4.143   6.039   2.034
 5872SOL    HW218516   4.057   5.980   1.908
 5873SOL     OW18517   3.649   5.200   1.987
 5873SOL    HW118518   3.703   5.197   2.071
 5873SOL    HW218519   3.561   5.154   2.003
 5874SOL     OW18520   3.104   4.482   5.632
 5874SOL    HW118521   3.071   4.547   5.564
 5874SOL    HW218522   3.123   4.530   5.718
 5875SOL     OW18523   3.115   1.297   0.647
 5875SOL    HW118524   3.047   1.224   0.650
 5875SOL    HW218525   3.194   1.267   0.593
 5876SOL     OW18526   3.811   3.403   1.771
 5876SOL    HW118527   3.845   3.340   1.841
 5876SOL    HW218528   3.815   3.359   1.681
 5877SOL     OW18529   5.648   4.627   0.175
 5877SOL    HW118530   5.683   4.571   0.251
 5877SOL    HW218531   5.588   4.571   0.118
 5878SOL     OW18532   2.494   4.892   2.262
 5878SOL    HW118533   2.503   4.884   2.163
 5878SOL    HW218534   2.582   4.874   2.305
 5879SOL     OW18535   6.962   4.122   5.819
 5879SOL    HW118536   0.035   4.137   5.807
 5879SOL    HW218537   6.938   4.031   5.786
 5880SOL     OW18538   2.037   6.489   1.401
 5880SOL    HW118539   2.072   6.519   1.490
 5880SOL    HW218540   1.953   6.436   1.414
 5881SOL     OW18541   0.355   5.478   4.422
 5881SOL    HW118542   0.295   5.408   4.461
 5881SOL    HW218543   0.309   5.522   4.345
 5882SOL     OW18544   4.785   0.522   1.446
 5882SOL    HW118545   4.750   0.434   1.478
 5882SOL    HW218546   4.712   0.590   1.448
 5883SOL     OW18547   0.098   3.287   5.909
 5883SOL    HW118548   0.008   3.311   5.947
 5883SOL    HW218549   0.168   3.297   5.980
 5884SOL     OW18550   0.985   1.357   3.079
 5884SOL    HW118551   1.010   1.375   2.983
 5884SOL    HW218552   1.064   1.375   3.138
 5885SOL     OW18553   6.728   6.112   0.950
 5885SOL    HW118554   6.709   6.045   1.022
 5885SOL    HW218555   6.775   6.066   0.874
 5886SOL     OW18556   1.007   2.087   5.567
 5886SOL    HW118557   0.999   2.024   5.489
 5886SOL    HW218558   1.079   2.054   5.628
 5887SOL     OW18559   3.721   0.431   4.840
 5887SOL    HW118560   3.718   0.406   4.936
 5887SOL    HW218561   3.806   0.481   4.821
 5888SOL     OW18562   2.095   0.108   3.358
 5888SOL    HW118563   2.182   0.067   3.387
 5888SOL    HW218564   2.043   0.042   3.305
 5889SOL     OW18565   2.723   0.535   1.034
 5889SOL    HW118566   2.794   0.515   1.101
 5889SOL    HW218567   2.757   0.604   0.970
 5890SOL     OW18568   2.621   5.141   5.698
 5890SOL    HW118569   2.702   5.101   5.656
 5890SOL    HW218570   2.606   5.232   5.661
 5891SOL     OW18571   3.290   3.567   0.154
 5891SOL    HW118572   3.233   3.509   0.213
 5891SOL    HW218573   3.353   3.621   0.211
 5892SOL     OW18574   0.500   6.787   1.341
 5892SOL    HW118575   0.479   6.885   1.341
 5892SOL    HW218576   0.463   6.746   1.425
 5893SOL     OW18577   1.014   1.721   3.997
 5893SOL    HW118578   1.054   1.638   3.959
 5893SOL    HW218579   1.087   1.778   4.036
 5894SOL     OW18580   0.994   3.477   3.084
 5894SOL    HW118581   0.931   3.490   3.008
 5894SOL    HW218582   0.963   3.399   3.139
 5895SOL     OW18583   5.546   3.702   3.827
 5895SOL    HW118584   5.632   3.747   3.802
 5895SOL    HW218585   5.561   3.647   3.910
 5896SOL     OW18586   3.505   2.388   6.954
 5896SOL    HW118587   3.448   2.306   6.948
 5896SOL    HW218588   3.527   2.420   6.862
 5897SOL     OW18589   3.854   6.912   1.261
 5897SOL    HW118590   3.848   6.934   1.359
 5897SOL    HW218591   3.801   6.978   1.209
 5898SOL     OW18592   1.929   0.351   2.381
 5898SOL    HW118593   2.024   0.372   2.355
 5898SOL    HW218594   1.922   0.254   2.402
 5899SOL     OW18595   5.969   6.790   4.795
 5899SOL    HW118596   5.969   6.713   4.859
 5899SOL    HW218597   5.902   6.858   4.826
 5900SOL     OW18598   5.164   4.837   3.084
 5900SOL    HW118599   5.090   4.897   3.113
 5900SOL    HW218600   5.127   4.765   3.024
 5901SOL     OW18601   3.092   6.655   5.910
 5901SOL    HW118602   3.170   6.659   5.849
 5901SOL    HW218603   3.121   6.680   6.003
 5902SOL     OW18604   6.624   2.075   6.848
 5902SOL    HW118605   6.694   2.003   6.853
 5902SOL    HW218606   6.609   2.100   6.753
 5903SOL     OW18607   5.959   3.620   6.870
 5903SOL    HW118608   6.016   3.586   6.795
 5903SOL    HW218609   6.008   3.695   6.917
 5904SOL     OW18610   0.034   3.588   2.140
 5904SOL    HW118611   0.014   3.641   2.222
 5904SOL    HW218612   0.068   3.498   2.166
 5905SOL     OW18613   6.992   6.155   2.561
 5905SOL    HW118614   6.929   6.195   2.494
 5905SOL    HW218615   0.007   6.228   2.616
 5906SOL     OW18616   5.319   1.157   3.949
 5906SOL    HW118617   5.414   1.137   3.970
 5906SOL    HW218618   5.311   1.249   3.912
 5907SOL     OW18619   0.983   5.964   1.738
 5907SOL    HW118620   1.032   5.877   1.738
 5907SOL    HW218621   0.918   5.965   1.814
 5908SOL     OW18622   0.204   2.914   5.297
 5908SOL    HW118623   0.179   2.937   5.391
 5908SOL    HW218624   0.303   2.918   5.287
 5909SOL     OW18625   0.399   6.102   0.775
 5909SOL    HW118626   0.472   6.170   0.768
 5909SOL    HW218627   0.427   6.028   0.836
 5910SOL     OW18628   2.164   2.654   3.054
 5910SOL    HW118629   2.253   2.687   3.085
 5910SOL    HW218630   2.176   2.601   2.970
 5911SOL     OW18631   6.841   5.934   6.186
 5911SOL    HW118632   6.940   5.938   6.174
 5911SOL    HW218633   6.800   5.889   6.106
 5912SOL     OW18634   6.456   1.498   4.239
 5912SOL    HW118635   6.455   1.514   4.338
 5912SOL    HW218636   6.545   1.526   4.203
 5913SOL     OW18637   5.390   2.246   0.255
 5913SOL    HW118638   5.335   2.177   0.301
 5913SOL    HW218639   5.336   2.330   0.244
 5914SOL     OW18640   0.252   6.205   6.478
 5914SOL    HW118641   0.234   6.239   6.570
 5914SOL    HW218642   0.332   6.145   6.480
 5915SOL     OW18643   4.194   0.511   6.389
 5915SOL    HW118644   4.180   0.424   6.342
 5915SOL    HW218645   4.112   0.568   6.380
 5916SOL     OW18646   1.185   6.612   2.330
 5916SOL    HW118647   1.166   6.514   2.326
 5916SOL    HW218648   1.118   6.661   2.274
 5917SOL     OW18649   3.012   4.557   6.853
 5917SOL    HW118650   3.049   4.598   6.937
 5917SOL    HW218651   3.046   4.464   6.845
 5918SOL     OW18652   3.203   6.630   6.222
 5918SOL    HW118653   3.244   6.553   6.174
 5918SOL    HW218654   3.230   6.627   6.319
 5919SOL     OW18655   3.576   2.836   3.330
 5919SOL    HW118656   3.539   2.856   3.420
 5919SOL    HW218657   3.636   2.910   3.300
 5920SOL     OW18658   6.614   0.211   6.007
 5920SOL    HW118659   6.698   0.218   6.062
 5920SOL    HW218660   6.621   0.273   5.929
 5921SOL     OW18661   3.214   4.658   6.697
 5921SOL    HW118662   3.137   4.620   6.748
 5921SOL    HW218663   3.269   4.583   6.659
 5922SOL     OW18664   5.584   3.774   2.849
 5922SOL    HW118665   5.500   3.760   2.797
 5922SOL    HW218666   5.564   3.769   2.947
 5923SOL     OW18667   6.995   1.292   1.235
 5923SOL    HW118668   7.013   1.195   1.247
 5923SOL    HW218669   6.913   1.305   1.181
 5924SOL     OW18670   6.208   0.327   3.388
 5924SOL    HW118671   6.197   0.338   3.289
 5924SOL    HW218672   6.293   0.277   3.406
 5925SOL     OW18673   4.897   5.988   1.343
 5925SOL    HW118674   4.917   6.008   1.246
 5925SOL    HW218675   4.982   5.990   1.395
 5926SOL     OW18676   4.058   4.893   2.728
 5926SOL    HW118677   4.083   4.896   2.825
 5926SOL    HW218678   3.959   4.884   2.719
 5927SOL     OW18679   0.660   4.116   2.184
 5927SOL    HW118680   0.713   4.103   2.100
 5927SOL    HW218681   0.604   4.198   2.175
 5928SOL     OW18682   3.614   0.199   0.518
 5928SOL    HW118683   3.652   0.210   0.610
 5928SOL    HW218684   3.607   0.288   0.474
 5929SOL     OW18685   0.558   1.118   5.873
 5929SOL    HW118686   0.514   1.081   5.791
 5929SOL    HW218687   0.498   1.187   5.914
 5930SOL     OW18688   1.703   3.626   2.358
 5930SOL    HW118689   1.605   3.617   2.376
 5930SOL    HW218690   1.748   3.539   2.376
 5931SOL     OW18691   5.795   5.775   3.307
 5931SOL    HW118692   5.828   5.865   3.335
 5931SOL    HW218693   5.872   5.713   3.299
 5932SOL     OW18694   2.995   1.152   6.453
 5932SOL    HW118695   2.999   1.251   6.459
 5932SOL    HW218696   2.931   1.126   6.381
 5933SOL     OW18697   6.490   5.964   4.075
 5933SOL    HW118698   6.428   6.021   4.021
 5933SOL    HW218699   6.457   5.870   4.074
 5934SOL     OW18700   3.300   3.804   5.595
 5934SOL    HW118701   3.322   3.772   5.687
 5934SOL    HW218702   3.206   3.778   5.572
 5935SOL     OW18703   0.092   6.680   5.189
 5935SOL    HW118704   0.149   6.606   5.225
 5935SOL    HW218705   0.002   6.676   5.232
 5936SOL     OW18706   2.990   3.194   2.453
 5936SOL    HW118707   3.081   3.161   2.475
 5936SOL    HW218708   2.968   3.171   2.358
 5937SOL     OW18709   6.946   2.963   1.232
 5937SOL    HW118710   6.847   2.974   1.241
 5937SOL    HW218711   6.966   2.884   1.175
 5938SOL     OW18712   6.563   4.781   4.960
 5938SOL    HW118713   6.602   4.737   5.041
 5938SOL    HW218714   6.635   4.797   4.893
 5939SOL     OW18715   3.522   0.193   4.369
 5939SOL    HW118716   3.607   0.245   4.374
 5939SOL    HW218717   3.531   0.110   4.424
 5940SOL     OW18718   4.807   5.618   2.325
 5940SOL    HW118719   4.854   5.695   2.370
 5940SOL    HW218720   4.819   5.536   2.381
 5941SOL     OW18721   0.155   2.365   1.813
 5941SOL    HW118722   0.183   2.380   1.718
 5941SOL    HW218723   0.234   2.334   1.867
 5942SOL     OW18724   5.932   3.579   5.935
 5942SOL    HW118725   5.861   3.513   5.912
 5942SOL    HW218726   5.931   3.653   5.868
 5943SOL     OW18727   3.814   3.928   0.918
 5943SOL    HW118728   3.800   3.845   0.971
 5943SOL    HW218729   3.872   3.991   0.969
 5944SOL     OW18730   0.748   3.672   6.225
 5944SOL    HW118731   0.658   3.652   6.185
 5944SOL    HW218732   0.755   3.626   6.313
 5945SOL     OW18733   0.080   5.722   5.149
 5945SOL    HW118734   0.086   5.644   5.086
 5945SOL    HW218735   0.099   5.692   5.242
 5946SOL     OW18736   3.633   4.799   0.277
 5946SOL    HW118737   3.565   4.833   0.342
 5946SOL    HW218738   3.645   4.701   0.290
 5947SOL     OW18739   3.176   3.005   4.600
 5947SOL    HW118740   3.225   3.008   4.687
 5947SOL    HW218741   3.119   2.922   4.597
 5948SOL     OW18742   4.976   3.891   2.313
 5948SOL    HW118743   4.967   3.843   2.226
 5948SOL    HW218744   5.049   3.959   2.306
 5949SOL     OW18745   6.775   5.356   1.569
 5949SOL    HW118746   6.803   5.344   1.474
 5949SOL    HW218747   6.678   5.336   1.578
 5950SOL     OW18748   4.828   1.665   6.123
 5950SOL    HW118749   4.777   1.675   6.038
 5950SOL    HW218750   4.898   1.595   6.113
 5951SOL     OW18751   1.175   4.627   6.162
 5951SOL    HW118752   1.248   4.618   6.094
 5951SOL    HW218753   1.214   4.643   6.252
 5952SOL     OW18754   4.090   5.402   1.524
 5952SOL    HW118755   4.043   5.400   1.436
 5952SOL    HW218756   4.186   5.376   1.511
 5953SOL     OW18757   6.263   2.381   5.492
 5953SOL    HW118758   6.200   2.410   5.419
 5953SOL    HW218759   6.324   2.456   5.516
 5954SOL     OW18760   0.570   6.152   4.725
 5954SOL    HW118761   0.662   6.190   4.731
 5954SOL    HW218762   0.528   6.153   4.816
 5955SOL     OW18763   5.867   4.145   0.798
 5955SOL    HW118764   5.787   4.093   0.768
 5955SOL    HW218765   5.872   4.145   0.898
 5956SOL     OW18766   4.824   2.514   4.388
 5956SOL    HW118767   4.861   2.543   4.300
 5956SOL    HW218768   4.771   2.589   4.428
 5957SOL     OW18769   1.631   0.760   2.627
 5957SOL    HW118770   1.726   0.733   2.644
 5957SOL    HW218771   1.625   0.859   2.621
 5958SOL     OW18772   3.575   6.708   2.765
 5958SOL    HW118773   3.544   6.800   2.791
 5958SOL    HW218774   3.659   6.686   2.815
 5959SOL     OW18775   4.603   2.146   5.023
 5959SOL    HW118776   4.522   2.157   4.964
 5959SOL    HW218777   4.585   2.076   5.092
 5960SOL     OW18778   3.646   6.922   6.466
 5960SOL    HW118779   3.619   6.828   6.485
 5960SOL    HW218780   3.564   6.979   6.458
 5961SOL     OW18781   2.810   1.604   3.080
 5961SOL    HW118782   2.766   1.693   3.085
 5961SOL    HW218783   2.879   1.605   3.008
 5962SOL     OW18784   5.647   6.255   0.015
 5962SOL    HW118785   5.660   6.263   0.114
 5962SOL    HW218786   5.677   6.339   6.996
 5963SOL     OW18787   3.387   4.832   0.438
 5963SOL    HW118788   3.364   4.814   0.533
 5963SOL    HW218789   3.363   4.927   0.415
 5964SOL     OW18790   1.982   6.445   2.445
 5964SOL    HW118791   2.005   6.486   2.534
 5964SOL    HW218792   2.043   6.482   2.375
 5965SOL     OW18793   2.099   6.456   0.205
 5965SOL    HW118794   2.138   6.383   0.259
 5965SOL    HW218795   2.006   6.475   0.236
 5966SOL     OW18796   2.249   0.523   5.429
 5966SOL    HW118797   2.322   0.518   5.361
 5966SOL    HW218798   2.162   0.541   5.383
 5967SOL     OW18799   2.131   1.625   4.690
 5967SOL    HW118800   2.099   1.595   4.780
 5967SOL    HW218801   2.123   1.724   4.684
 5968SOL     OW18802   5.611   2.192   0.623
 5968SOL    HW118803   5.695   2.220   0.576
 5968SOL    HW218804   5.622   2.205   0.721
 5969SOL     OW18805   5.786   0.774   6.844
 5969SOL    HW118806   5.734   0.694   6.815
 5969SOL    HW218807   5.830   0.756   6.932
 5970SOL     OW18808   0.245   3.059   0.953
 5970SOL    HW118809   0.148   3.064   0.929
 5970SOL    HW218810   0.259   2.988   1.022
 5971SOL     OW18811   6.542   0.364   3.569
 5971SOL    HW118812   6.485   0.362   3.652
 5971SOL    HW218813   6.519   0.286   3.511
 5972SOL     OW18814   5.064   5.382   0.546
 5972SOL    HW118815   5.050   5.480   0.534
 5972SOL    HW218816   5.160   5.365   0.569
 5973SOL     OW18817   1.772   3.210   2.597
 5973SOL    HW118818   1.726   3.127   2.629
 5973SOL    HW218819   1.799   3.199   2.501
 5974SOL     OW18820   4.542   1.099   6.154
 5974SOL    HW118821   4.477   1.059   6.219
 5974SOL    HW218822   4.549   1.198   6.171
 5975SOL     OW18823   5.811   4.305   0.115
 5975SOL    HW118824   5.898   4.264   0.143
 5975SOL    HW218825   5.737   4.241   0.133
 5976SOL     OW18826   3.527   3.947   5.965
 5976SOL    HW118827   3.517   3.860   6.014
 5976SOL    HW218828   3.437   3.991   5.958
 5977SOL     OW18829   6.956   5.120   0.279
 5977SOL    HW118830   6.943   5.042   0.341
 5977SOL    HW218831   0.028   5.135   0.266
 5978SOL     OW18832   3.239   5.672   0.335
 5978SOL    HW118833   3.168   5.627   0.389
 5978SOL    HW218834   3.219   5.770   0.331
 5979SOL     OW18835   6.563   0.616   1.624
 5979SOL    HW118836   6.635   0.580   1.683
 5979SOL    HW218837   6.474   0.591   1.661
 5980SOL     OW18838   3.804   3.041   1.319
 5980SOL    HW118839   3.903   3.029   1.333
 5980SOL    HW218840   3.754   2.993   1.391
 5981SOL     OW18841   3.985   1.964   0.287
 5981SOL    HW118842   4.035   1.879   0.274
 5981SOL    HW218843   3.976   2.012   0.200
 5982SOL     OW18844   5.966   1.840   1.764
 5982SOL    HW118845   6.054   1.799   1.786
 5982SOL    HW218846   5.900   1.818   1.835
 5983SOL     OW18847   0.022   0.917   4.605
 5983SOL    HW118848   0.059   0.975   4.678
 5983SOL    HW218849   6.962   0.956   4.571
 5984SOL     OW18850   6.440   6.691   2.420
 5984SOL    HW118851   6.429   6.660   2.515
 5984SOL    HW218852   6.465   6.614   2.362
 5985SOL     OW18853   6.125   2.212   2.560
 5985SOL    HW118854   6.110   2.311   2.547
 5985SOL    HW218855   6.051   2.162   2.517
 5986SOL     OW18856   4.161   3.709   5.371
 5986SOL    HW118857   4.214   3.785   5.335
 5986SOL    HW218858   4.159   3.635   5.303
 5987SOL     OW18859   6.424   0.996   5.070
 5987SOL    HW118860   6.413   1.048   5.154
 5987SOL    HW218861   6.363   0.916   5.071
 5988SOL     OW18862   2.636   2.048   6.991
 5988SOL    HW118863   2.626   2.040   6.891
 5988SOL    HW218864   2.727   2.084   7.012
 5989SOL     OW18865   0.426   5.993   6.728
 5989SOL    HW118866   0.490   6.067   6.708
 5989SOL    HW218867   0.341   6.031   6.765
 5990SOL     OW18868   3.834   4.538   1.672
 5990SOL    HW118869   3.818   4.543   1.574
 5990SOL    HW218870   3.754   4.574   1.720
 5991SOL     OW18871   5.567   6.136   0.988
 5991SOL    HW118872   5.661   6.161   0.962
 5991SOL    HW218873   5.566   6.109   1.084
 5992SOL     OW18874   3.433   0.037   2.082
 5992SOL    HW118875   3.337   0.027   2.106
 5992SOL    HW218876   3.443   0.056   1.985
 5993SOL     OW18877   6.033   2.435   0.088
 5993SOL    HW118878   5.982   2.495   0.149
 5993SOL    HW218879   6.075   2.489   0.015
 5994SOL     OW18880   6.878   3.034   0.586
 5994SOL    HW118881   6.829   2.966   0.640
 5994SOL    HW218882   6.866   3.124   0.629
 5995SOL     OW18883   5.144   3.459   1.634
 5995SOL    HW118884   5.119   3.553   1.608
 5995SOL    HW218885   5.131   3.399   1.555
 5996SOL     OW18886   2.565   5.820   1.413
 5996SOL    HW118887   2.656   5.854   1.390
 5996SOL    HW218888   2.496   5.868   1.358
 5997SOL     OW18889   6.817   6.779   3.254
 5997SOL    HW118890   6.847   6.738   3.168
 5997SOL    HW218891   6.717   6.780   3.257
 5998SOL     OW18892   6.553   0.914   1.614
 5998SOL    HW118893   6.650   0.937   1.622
 5998SOL    HW218894   6.541   0.815   1.621
 5999SOL     OW18895   3.877   3.685   1.077
 5999SOL    HW118896   3.943   3.669   1.151
 5999SOL    HW218897   3.802   3.620   1.084
 6000SOL     OW18898   6.843   5.043   0.016
 6000SOL    HW118899   6.888   5.119   0.063
 6000SOL    HW218900   6.909   4.998   6.981
 6001SOL     OW18901   4.941   5.836   5.181
 6001SOL    HW118902   4.932   5.877   5.272
 6001SOL    HW218903   5.009   5.886   5.128
 6002SOL     OW18904   6.433   6.731   4.879
 6002SOL    HW118905   6.393   6.678   4.804
 6002SOL    HW218906   6.420   6.828   4.862
 6003SOL     OW18907   6.712   2.795   4.177
 6003SOL    HW118908   6.702   2.737   4.257
 6003SOL    HW218909   6.772   2.750   4.110
 6004SOL     OW18910   4.869   2.539   3.665
 6004SOL    HW118911   4.792   2.530   3.602
 6004SOL    HW218912   4.943   2.590   3.621
 6005SOL     OW18913   3.908   4.461   5.961
 6005SOL    HW118914   3.981   4.501   5.906
 6005SOL    HW218915   3.928   4.474   6.058
 6006SOL     OW18916   3.749   6.558   5.918
 6006SOL    HW118917   3.684   6.565   5.994
 6006SOL    HW218918   3.840   6.584   5.950
 6007SOL     OW18919   1.058   4.424   5.672
 6007SOL    HW118920   1.081   4.508   5.720
 6007SOL    HW218921   1.044   4.444   5.575
 6008SOL     OW18922   2.072   4.887   5.306
 6008SOL    HW118923   2.112   4.807   5.351
 6008SOL    HW218924   2.027   4.859   5.222
 6009SOL     OW18925   4.085   5.331   3.396
 6009SOL    HW118926   4.089   5.241   3.352
 6009SOL    HW218927   4.097   5.402   3.326
 6010SOL     OW18928   6.874   4.340   5.061
 6010SOL    HW118929   6.920   4.307   5.144
 6010SOL    HW218930   6.793   4.285   5.044
 6011SOL     OW18931   5.869   1.538   2.557
 6011SOL    HW118932   5.846   1.472   2.486
 6011SOL    HW218933   5.853   1.496   2.647
 6012SOL     OW18934   6.741   0.559   6.319
 6012SOL    HW118935   6.696   0.645   6.297
 6012SOL    HW218936   6.819   0.576   6.379
 6013SOL     OW18937   5.254   1.242   2.782
 6013SOL    HW118938   5.317   1.280   2.714
 6013SOL    HW218939   5.161   1.275   2.763
 6014SOL     OW18940   3.626   3.351   4.261
 6014SOL    HW118941   3.598   3.350   4.165
 6014SOL    HW218942   3.600   3.439   4.302
 6015SOL     OW18943   6.318   2.065   4.587
 6015SOL    HW118944   6.388   2.106   4.645
 6015SOL    HW218945   6.362   2.011   4.515
 6016SOL     OW18946   4.934   1.655   4.823
 6016SOL    HW118947   4.998   1.580   4.805
 6016SOL    HW218948   4.861   1.653   4.754
 6017SOL     OW18949   6.881   3.138   5.003
 6017SOL    HW118950   6.934   3.125   4.919
 6017SOL    HW218951   6.847   3.049   5.035
 6018SOL     OW18952   3.517   1.330   5.827
 6018SOL    HW118953   3.579   1.379   5.767
 6018SOL    HW218954   3.545   1.343   5.922
 6019SOL     OW18955   0.422   3.779   6.289
 6019SOL    HW118956   0.426   3.720   6.369
 6019SOL    HW218957   0.402   3.873   6.318
 6020SOL     OW18958   0.927   4.805   0.604
 6020SOL    HW118959   0.873   4.795   0.520
 6020SOL    HW218960   0.937   4.902   0.625
 6021SOL     OW18961   3.960   0.805   3.118
 6021SOL    HW118962   4.046   0.822   3.071
 6021SOL    HW218963   3.975   0.808   3.217
 6022SOL     OW18964   6.655   1.514   2.609
 6022SOL    HW118965   6.705   1.433   2.640
 6022SOL    HW218966   6.696   1.596   2.649
 6023SOL     OW18967   5.035   0.837   0.972
 6023SOL    HW118968   4.997   0.886   0.893
 6023SOL    HW218969   5.133   0.858   0.980
 6024SOL     OW18970   0.576   5.061   0.655
 6024SOL    HW118971   0.664   5.107   0.639
 6024SOL    HW218972   0.592   4.963   0.671
 6025SOL     OW18973   2.256   0.883   4.134
 6025SOL    HW118974   2.306   0.942   4.196
 6025SOL    HW218975   2.279   0.787   4.152
 6026SOL     OW18976   6.229   4.124   4.205
 6026SOL    HW118977   6.236   4.035   4.160
 6026SOL    HW218978   6.188   4.190   4.141
 6027SOL     OW18979   5.926   3.102   5.662
 6027SOL    HW118980   5.853   3.041   5.632
 6027SOL    HW218981   6.005   3.048   5.692
 6028SOL     OW18982   5.555   4.940   6.673
 6028SOL    HW118983   5.521   4.848   6.686
 6028SOL    HW218984   5.479   5.005   6.678
 6029SOL     OW18985   2.604   0.862   3.387
 6029SOL    HW118986   2.676   0.798   3.358
 6029SOL    HW218987   2.646   0.943   3.428
 6030SOL     OW18988   4.907   3.619   4.796
 6030SOL    HW118989   4.850   3.683   4.744
 6030SOL    HW218990   4.858   3.590   4.878
 6031SOL     OW18991   0.467   5.905   4.720
 6031SOL    HW118992   0.502   5.829   4.665
 6031SOL    HW218993   0.534   5.979   4.722
 6032SOL     OW18994   2.858   6.509   3.696
 6032SOL    HW118995   2.847   6.447   3.774
 6032SOL    HW218996   2.947   6.554   3.702
 6033SOL     OW18997   2.227   2.244   2.414
 6033SOL    HW118998   2.221   2.280   2.507
 6033SOL    HW218999   2.190   2.311   2.349
 6034SOL     OW19000   1.563   0.467   0.019
 6034SOL    HW119001   1.594   0.562   0.012
 6034SOL    HW219002   1.585   0.418   6.961
 6035SOL     OW19003   1.231   1.170   2.981
 6035SOL    HW119004   1.200   1.077   2.960
 6035SOL    HW219005   1.178   1.206   3.058
 6036SOL     OW19006   5.608   3.533   0.758
 6036SOL    HW119007   5.681   3.517   0.823
 6036SOL    HW219008   5.614   3.467   0.683
 6037SOL     OW19009   3.972   1.824   0.754
 6037SOL    HW119010   4.030   1.746   0.774
 6037SOL    HW219011   3.934   1.860   0.840
 6038SOL     OW19012   0.590   2.349   6.259
 6038SOL    HW119013   0.521   2.402   6.309
 6038SOL    HW219014   0.551   2.261   6.232
 6039SOL     OW19015   3.501   4.068   3.892
 6039SOL    HW119016   3.498   4.075   3.991
 6039SOL    HW219017   3.438   3.996   3.862
 6040SOL     OW19018   1.406   1.687   6.636
 6040SOL    HW119019   1.346   1.608   6.648
 6040SOL    HW219020   1.356   1.770   6.662
 6041SOL     OW19021   3.419   2.464   5.893
 6041SOL    HW119022   3.496   2.471   5.957
 6041SOL    HW219023   3.439   2.518   5.811
 6042SOL     OW19024   2.835   6.256   4.218
 6042SOL    HW119025   2.908   6.302   4.269
 6042SOL    HW219026   2.834   6.159   4.240
 6043SOL     OW19027   1.751   0.698   4.020
 6043SOL    HW119028   1.844   0.736   4.020
 6043SOL    HW219029   1.685   0.771   4.004
 6044SOL     OW19030   1.826   2.200   1.417
 6044SOL    HW119031   1.820   2.294   1.450
 6044SOL    HW219032   1.868   2.200   1.326
 6045SOL     OW19033   5.436   2.780   3.226
 6045SOL    HW119034   5.433   2.805   3.129
 6045SOL    HW219035   5.435   2.863   3.281
 6046SOL     OW19036   3.677   2.537   1.681
 6046SOL    HW119037   3.724   2.500   1.601
 6046SOL    HW219038   3.666   2.465   1.749
 6047SOL     OW19039   6.024   1.774   0.829
 6047SOL    HW119040   6.123   1.787   0.818
 6047SOL    HW219041   5.977   1.857   0.796
 6048SOL     OW19042   5.161   5.722   4.850
 6048SOL    HW119043   5.250   5.760   4.823
 6048SOL    HW219044   5.175   5.646   4.913
 6049SOL     OW19045   5.264   4.696   5.409
 6049SOL    HW119046   5.300   4.789   5.405
 6049SOL    HW219047   5.258   4.666   5.505
 6050SOL     OW19048   3.060   5.659   1.046
 6050SOL    HW119049   3.079   5.676   1.142
 6050SOL    HW219050   3.088   5.566   1.022
 6051SOL     OW19051   0.770   1.557   2.880
 6051SOL    HW119052   0.725   1.573   2.968
 6051SOL    HW219053   0.712   1.593   2.806
 6052SOL     OW19054   5.739   6.577   0.905
 6052SOL    HW119055   5.662   6.640   0.897
 6052SOL    HW219056   5.824   6.629   0.917
 6053SOL     OW19057   4.381   1.783   6.295
 6053SOL    HW119058   4.453   1.806   6.230
 6053SOL    HW219059   4.419   1.786   6.388
 6054SOL     OW19060   4.333   5.155   0.973
 6054SOL    HW119061   4.264   5.085   0.956
 6054SOL    HW219062   4.407   5.116   1.027
 6055SOL     OW19063   3.206   5.353   0.394
 6055SOL    HW119064   3.279   5.346   0.326
 6055SOL    HW219065   3.245   5.375   0.483
 6056SOL     OW19066   6.057   3.925   5.265
 6056SOL    HW119067   6.125   3.984   5.310
 6056SOL    HW219068   6.032   3.850   5.326
 6057SOL     OW19069   5.266   0.398   2.954
 6057SOL    HW119070   5.268   0.450   3.039
 6057SOL    HW219071   5.350   0.415   2.903
 6058SOL     OW19072   5.693   2.669   6.867
 6058SOL    HW119073   5.620   2.713   6.815
 6058SOL    HW219074   5.747   2.738   6.914
 6059SOL     OW19075   5.011   4.563   5.691
 6059SOL    HW119076   4.994   4.652   5.732
 6059SOL    HW219077   4.930   4.505   5.702
 6060SOL     OW19078   2.941   3.368   6.718
 6060SOL    HW119079   2.844   3.387   6.702
 6060SOL    HW219080   2.990   3.367   6.630
 6061SOL     OW19081   4.741   4.871   0.790
 6061SOL    HW119082   4.834   4.844   0.767
 6061SOL    HW219083   4.709   4.939   0.725
 6062SOL     OW19084   2.719   2.687   0.298
 6062SOL    HW119085   2.793   2.724   0.353
 6062SOL    HW219086   2.634   2.737   0.318
 6063SOL     OW19087   4.058   4.878   5.922
 6063SOL    HW119088   4.151   4.860   5.891
 6063SOL    HW219089   3.993   4.825   5.868
 6064SOL     OW19090   0.132   0.518   1.095
 6064SOL    HW119091   0.187   0.450   1.143
 6064SOL    HW219092   0.190   0.596   1.070
 6065SOL     OW19093   0.608   4.932   2.221
 6065SOL    HW119094   0.600   4.971   2.313
 6065SOL    HW219095   0.697   4.887   2.212
 6066SOL     OW19096   4.847   0.810   3.779
 6066SOL    HW119097   4.881   0.732   3.830
 6066SOL    HW219098   4.760   0.840   3.819
 6067SOL     OW19099   6.069   6.770   5.897
 6067SOL    HW119100   6.142   6.701   5.895
 6067SOL    HW219101   6.109   6.860   5.917
 6068SOL     OW19102   5.077   1.340   5.477
 6068SOL    HW119103   4.992   1.361   5.428
 6068SOL    HW219104   5.148   1.405   5.450
 6069SOL     OW19105   0.246   2.707   5.673
 6069SOL    HW119106   0.153   2.720   5.707
 6069SOL    HW219107   0.277   2.614   5.694
 6070SOL     OW19108   3.558   1.989   1.581
 6070SOL    HW119109   3.599   1.932   1.653
 6070SOL    HW219110   3.524   2.074   1.621
 6071SOL     OW19111   6.381   6.272   4.800
 6071SOL    HW119112   6.471   6.301   4.768
 6071SOL    HW219113   6.381   6.173   4.814
 6072SOL     OW19114   0.484   2.406   0.905
 6072SOL    HW119115   0.477   2.429   0.808
 6072SOL    HW219116   0.566   2.351   0.921
 6073SOL     OW19117   4.629   2.810   0.691
 6073SOL    HW119118   4.713   2.784   0.738
 6073SOL    HW219119   4.626   2.766   0.601
 6074SOL     OW19120   1.307   6.214   2.617
 6074SOL    HW119121   1.355   6.142   2.668
 6074SOL    HW219122   1.213   6.185   2.598
 6075SOL     OW19123   4.353   6.647   6.406
 6075SOL    HW119124   4.351   6.601   6.318
 6075SOL    HW219125   4.385   6.583   6.476
 6076SOL     OW19126   2.566   4.588   3.582
 6076SOL    HW119127   2.534   4.679   3.607
 6076SOL    HW219128   2.666   4.590   3.569
 6077SOL     OW19129   6.268   6.696   0.934
 6077SOL    HW119130   6.350   6.641   0.951
 6077SOL    HW219131   6.276   6.783   0.983
 6078SOL     OW19132   4.646   4.062   0.435
 6078SOL    HW119133   4.732   4.106   0.411
 6078SOL    HW219134   4.578   4.081   0.364
 6079SOL     OW19135   4.414   4.266   6.335
 6079SOL    HW119136   4.437   4.184   6.281
 6079SOL    HW219137   4.405   4.344   6.273
 6080SOL     OW19138   1.348   4.441   1.046
 6080SOL    HW119139   1.269   4.406   0.996
 6080SOL    HW219140   1.348   4.541   1.042
 6081SOL     OW19141   0.430   3.527   4.933
 6081SOL    HW119142   0.494   3.562   5.001
 6081SOL    HW219143   0.401   3.601   4.873
 6082SOL     OW19144   4.620   0.705   1.118
 6082SOL    HW119145   4.632   0.751   1.030
 6082SOL    HW219146   4.548   0.636   1.109
 6083SOL     OW19147   5.132   5.995   0.019
 6083SOL    HW119148   5.207   6.046   7.005
 6083SOL    HW219149   5.168   5.924   0.080
 6084SOL     OW19150   0.436   6.851   2.474
 6084SOL    HW119151   0.426   6.784   2.400
 6084SOL    HW219152   0.533   6.870   2.488
 6085SOL     OW19153   6.967   6.375   0.352
 6085SOL    HW119154   6.906   6.437   0.401
 6085SOL    HW219155   6.940   6.371   0.256
 6086SOL     OW19156   3.882   3.734   6.505
 6086SOL    HW119157   3.870   3.813   6.566
 6086SOL    HW219158   3.919   3.658   6.558
 6087SOL     OW19159   4.771   6.486   0.312
 6087SOL    HW119160   4.831   6.435   0.250
 6087SOL    HW219161   4.818   6.500   0.399
 6088SOL     OW19162   5.239   6.250   4.392
 6088SOL    HW119163   5.294   6.286   4.316
 6088SOL    HW219164   5.142   6.265   4.372
 6089SOL     OW19165   5.941   2.353   1.881
 6089SOL    HW119166   5.911   2.448   1.869
 6089SOL    HW219167   5.948   2.332   1.979
 6090SOL     OW19168   3.761   5.232   4.276
 6090SOL    HW119169   3.830   5.191   4.216
 6090SOL    HW219170   3.731   5.164   4.342
 6091SOL     OW19171   2.678   0.918   1.112
 6091SOL    HW119172   2.630   1.001   1.142
 6091SOL    HW219173   2.619   0.839   1.126
 6092SOL     OW19174   4.135   6.784   1.926
 6092SOL    HW119175   4.061   6.762   1.862
 6092SOL    HW219176   4.109   6.754   2.017
 6093SOL     OW19177   2.526   1.562   2.338
 6093SOL    HW119178   2.609   1.537   2.289
 6093SOL    HW219179   2.446   1.545   2.279
 6094SOL     OW19180   0.453   6.784   4.316
 6094SOL    HW119181   0.408   6.805   4.229
 6094SOL    HW219182   0.389   6.800   4.391
 6095SOL     OW19183   4.072   6.004   0.217
 6095SOL    HW119184   4.143   5.935   0.203
 6095SOL    HW219185   4.073   6.068   0.140
 6096SOL     OW19186   5.957   6.553   2.431
 6096SOL    HW119187   5.899   6.480   2.394
 6096SOL    HW219188   6.051   6.541   2.399
 6097SOL     OW19189   1.868   5.629   2.224
 6097SOL    HW119190   1.808   5.575   2.283
 6097SOL    HW219191   1.941   5.571   2.188
 6098SOL     OW19192   6.763   0.743   4.733
 6098SOL    HW119193   6.850   0.697   4.753
 6098SOL    HW219194   6.768   0.785   4.643
 6099SOL     OW19195   5.487   5.746   5.742
 6099SOL    HW119196   5.502   5.662   5.688
 6099SOL    HW219197   5.560   5.811   5.722
 6100SOL     OW19198   6.983   5.433   3.626
 6100SOL    HW119199   6.924   5.405   3.550
 6100SOL    HW219200   6.963   5.528   3.651
 6101SOL     OW19201   6.158   2.513   0.934
 6101SOL    HW119202   6.085   2.470   0.988
 6101SOL    HW219203   6.183   2.453   0.858
 6102SOL     OW19204   4.168   6.535   2.589
 6102SOL    HW119205   4.239   6.478   2.547
 6102SOL    HW219206   4.144   6.610   2.527
 6103SOL     OW19207   6.630   1.568   1.969
 6103SOL    HW119208   6.553   1.504   1.974
 6103SOL    HW219209   6.631   1.625   2.051
 6104SOL     OW19210   5.790   0.844   4.644
 6104SOL    HW119211   5.826   0.779   4.712
 6104SOL    HW219212   5.697   0.817   4.618
 6105SOL     OW19213   2.919   5.944   6.754
 6105SOL    HW119214   3.004   5.903   6.719
 6105SOL    HW219215   2.940   6.031   6.798
 6106SOL     OW19216   0.770   3.713   6.920
 6106SOL    HW119217   0.692   3.742   6.975
 6106SOL    HW219218   0.852   3.708   6.978
 6107SOL     OW19219   4.669   5.027   4.748
 6107SOL    HW119220   4.674   5.023   4.648
 6107SOL    HW219221   4.588   5.078   4.776
 6108SOL     OW19222   1.322   1.184   1.833
 6108SOL    HW119223   1.299   1.107   1.893
 6108SOL    HW219224   1.412   1.168   1.792
 6109SOL     OW19225   5.185   6.874   3.110
 6109SOL    HW119226   5.092   6.897   3.140
 6109SOL    HW219227   5.248   6.881   3.188
 6110SOL     OW19228   0.817   2.084   5.789
 6110SOL    HW119229   0.863   2.113   5.705
 6110SOL    HW219230   0.818   1.985   5.794
 6111SOL     OW19231   1.308   3.662   1.673
 6111SOL    HW119232   1.324   3.572   1.634
 6111SOL    HW219233   1.219   3.664   1.718
 6112SOL     OW19234   3.933   0.440   2.170
 6112SOL    HW119235   3.928   0.351   2.216
 6112SOL    HW219236   4.024   0.452   2.132
 6113SOL     OW19237   2.088   5.141   6.891
 6113SOL    HW119238   2.144   5.116   6.970
 6113SOL    HW219239   2.099   5.238   6.872
 6114SOL     OW19240   4.928   1.663   1.431
 6114SOL    HW119241   4.928   1.571   1.392
 6114SOL    HW219242   4.987   1.666   1.511
 6115SOL     OW19243   1.322   1.585   5.256
 6115SOL    HW119244   1.410   1.589   5.209
 6115SOL    HW219245   1.252   1.551   5.193
 6116SOL     OW19246   3.791   2.159   5.072
 6116SOL    HW119247   3.752   2.162   5.164
 6116SOL    HW219248   3.720   2.132   5.007
 6117SOL     OW19249   1.396   1.750   2.807
 6117SOL    HW119250   1.494   1.746   2.825
 6117SOL    HW219251   1.378   1.725   2.711
 6118SOL     OW19252   5.899   1.124   0.716
 6118SOL    HW119253   5.835   1.058   0.677
 6118SOL    HW219254   5.989   1.113   0.673
 6119SOL     OW19255   0.395   2.197   0.502
 6119SOL    HW119256   0.346   2.278   0.469
 6119SOL    HW219257   0.446   2.220   0.584
 6120SOL     OW19258   2.581   6.368   5.694
 6120SOL    HW119259   2.542   6.459   5.681
 6120SOL    HW219260   2.555   6.332   5.783
 6121SOL     OW19261   0.751   3.827   5.474
 6121SOL    HW119262   0.749   3.855   5.570
 6121SOL    HW219263   0.819   3.754   5.463
 6122SOL     OW19264   4.954   5.845   5.606
 6122SOL    HW119265   4.994   5.930   5.640
 6122SOL    HW219266   4.859   5.860   5.580
 6123SOL     OW19267   5.775   1.147   5.421
 6123SOL    HW119268   5.731   1.188   5.500
 6123SOL    HW219269   5.708   1.134   5.348
 6124SOL     OW19270   2.226   0.122   5.030
 6124SOL    HW119271   2.195   0.152   5.120
 6124SOL    HW219272   2.179   0.038   5.005
 6125SOL     OW19273   2.568   4.049   0.224
 6125SOL    HW119274   2.540   3.969   0.276
 6125SOL    HW219275   2.533   4.042   0.130
 6126SOL     OW19276   0.425   2.619   4.744
 6126SOL    HW119277   0.390   2.674   4.820
 6126SOL    HW219278   0.483   2.546   4.780
 6127SOL     OW19279   4.609   1.162   2.069
 6127SOL    HW119280   4.605   1.068   2.104
 6127SOL    HW219281   4.528   1.212   2.101
 6128SOL     OW19282   5.807   5.925   1.097
 6128SOL    HW119283   5.819   5.851   1.031
 6128SOL    HW219284   5.895   5.967   1.116
 6129SOL     OW19285   1.671   4.668   2.977
 6129SOL    HW119286   1.685   4.571   2.994
 6129SOL    HW219287   1.756   4.717   2.993
 6130SOL     OW19288   5.067   2.871   1.361
 6130SOL    HW119289   5.158   2.880   1.321
 6130SOL    HW219290   4.998   2.899   1.294
 6131SOL     OW19291   0.232   2.088   2.447
 6131SOL    HW119292   0.134   2.070   2.438
 6131SOL    HW219293   0.248   2.151   2.522
 6132SOL     OW19294   3.636   1.390   6.630
 6132SOL    HW119295   3.641   1.418   6.535
 6132SOL    HW219296   3.694   1.309   6.644
 6133SOL     OW19297   1.556   2.867   3.585
 6133SOL    HW119298   1.546   2.908   3.675
 6133SOL    HW219299   1.615   2.787   3.590
 6134SOL     OW19300   5.339   5.666   6.235
 6134SOL    HW119301   5.383   5.654   6.146
 6134SOL    HW219302   5.328   5.764   6.254
 6135SOL     OW19303   5.739   0.477   0.215
 6135SOL    HW119304   5.819   0.500   0.271
 6135SOL    HW219305   5.695   0.395   0.252
 6136SOL     OW19306   1.293   3.003   1.212
 6136SOL    HW119307   1.376   2.988   1.267
 6136SOL    HW219308   1.287   2.933   1.141
 6137SOL     OW19309   0.486   4.542   3.386
 6137SOL    HW119310   0.521   4.464   3.437
 6137SOL    HW219311   0.563   4.590   3.343
 6138SOL     OW19312   3.842   0.209   2.277
 6138SOL    HW119313   3.761   0.227   2.222
 6138SOL    HW219314   3.886   0.124   2.247
 6139SOL     OW19315   1.180   6.937   5.620
 6139SOL    HW119316   1.193   6.846   5.580
 6139SOL    HW219317   1.249   6.954   5.690
 6140SOL     OW19318   1.535   0.292   3.428
 6140SOL    HW119319   1.626   0.303   3.387
 6140SOL    HW219320   1.545   0.272   3.525
 6141SOL     OW19321   0.578   0.669   5.778
 6141SOL    HW119322   0.567   0.676   5.679
 6141SOL    HW219323   0.612   0.756   5.814
 6142SOL     OW19324   0.579   1.067   0.874
 6142SOL    HW119325   0.634   1.129   0.929
 6142SOL    HW219326   0.572   1.102   0.780
 6143SOL     OW19327   6.621   3.863   6.757
 6143SOL    HW119328   6.674   3.860   6.673
 6143SOL    HW219329   6.605   3.958   6.783
 6144SOL     OW19330   4.558   4.453   2.565
 6144SOL    HW119331   4.653   4.446   2.597
 6144SOL    HW219332   4.496   4.433   2.640
 6145SOL     OW19333   5.302   3.947   4.054
 6145SOL    HW119334   5.383   3.954   3.996
 6145SOL    HW219335   5.220   3.966   4.000
 6146SOL     OW19336   3.309   0.018   4.445
 6146SOL    HW119337   3.298   0.006   4.347
 6146SOL    HW219338   3.348   0.108   4.464
 6147SOL     OW19339   2.076   2.951   4.569
 6147SOL    HW119340   2.024   2.880   4.617
 6147SOL    HW219341   2.030   3.039   4.582
 6148SOL     OW19342   3.812   4.987   0.192
 6148SOL    HW119343   3.837   5.001   0.096
 6148SOL    HW219344   3.758   4.903   0.200
 6149SOL     OW19345   2.702   0.537   2.386
 6149SOL    HW119346   2.650   0.457   2.357
 6149SOL    HW219347   2.738   0.584   2.306
 6150SOL     OW19348   6.554   4.128   6.739
 6150SOL    HW119349   6.620   4.175   6.799
 6150SOL    HW219350   6.461   4.151   6.768
 6151SOL     OW19351   5.490   4.956   4.258
 6151SOL    HW119352   5.589   4.951   4.263
 6151SOL    HW219353   5.456   4.884   4.197
 6152SOL     OW19354   0.902   5.359   4.214
 6152SOL    HW119355   0.873   5.343   4.119
 6152SOL    HW219356   0.823   5.391   4.267
 6153SOL     OW19357   4.828   5.232   1.017
 6153SOL    HW119358   4.819   5.281   1.104
 6153SOL    HW219359   4.738   5.204   0.985
 6154SOL     OW19360   5.120   3.175   2.207
 6154SOL    HW119361   5.194   3.209   2.148
 6154SOL    HW219362   5.159   3.147   2.295
 6155SOL     OW19363   2.516   1.252   3.375
 6155SOL    HW119364   2.586   1.230   3.443
 6155SOL    HW219365   2.468   1.335   3.402
 6156SOL     OW19366   5.455   4.481   1.087
 6156SOL    HW119367   5.440   4.502   1.183
 6156SOL    HW219368   5.554   4.478   1.069
 6157SOL     OW19369   0.418   2.520   3.115
 6157SOL    HW119370   0.338   2.568   3.151
 6157SOL    HW219371   0.472   2.583   3.058
 6158SOL     OW19372   3.295   2.278   6.040
 6158SOL    HW119373   3.330   2.345   5.975
 6158SOL    HW219374   3.314   2.310   6.133
 6159SOL     OW19375   5.283   2.638   6.922
 6159SOL    HW119376   5.341   2.683   6.990
 6159SOL    HW219377   5.332   2.635   6.834
 6160SOL     OW19378   0.284   0.358   6.549
 6160SOL    HW119379   0.234   0.436   6.513
 6160SOL    HW219380   0.319   0.303   6.473
 6161SOL     OW19381   4.867   2.806   6.876
 6161SOL    HW119382   4.797   2.874   6.852
 6161SOL    HW219383   4.946   2.818   6.816
 6162SOL     OW19384   6.080   6.318   2.627
 6162SOL    HW119385   6.062   6.406   2.585
 6162SOL    HW219386   5.998   6.286   2.675
 6163SOL     OW19387   5.236   6.056   3.026
 6163SOL    HW119388   5.241   6.145   3.073
 6163SOL    HW219389   5.321   6.006   3.041
 6164SOL     OW19390   3.844   3.916   4.358
 6164SOL    HW119391   3.777   3.847   4.331
 6164SOL    HW219392   3.808   4.007   4.337
 6165SOL     OW19393   3.751   2.442   0.234
 6165SOL    HW119394   3.826   2.405   0.178
 6165SOL    HW219395   3.782   2.455   0.328
 6166SOL     OW19396   0.177   2.020   7.014
 6166SOL    HW119397   0.191   2.087   0.061
 6166SOL    HW219398   0.226   2.048   6.932
 6167SOL     OW19399   1.797   4.851   3.261
 6167SOL    HW119400   1.823   4.894   3.347
 6167SOL    HW219401   1.740   4.915   3.208
 6168SOL     OW19402   6.930   2.734   3.757
 6168SOL    HW119403   6.981   2.676   3.694
 6168SOL    HW219404   6.848   2.686   3.789
 6169SOL     OW19405   1.206   0.194   6.563
 6169SOL    HW119406   1.226   0.196   6.661
 6169SOL    HW219407   1.290   0.171   6.512
 6170SOL     OW19408   3.671   4.577   0.100
 6170SOL    HW119409   3.757   4.538   0.133
 6170SOL    HW219410   3.691   4.658   0.044
 6171SOL     OW19411   0.497   4.192   2.665
 6171SOL    HW119412   0.473   4.212   2.760
 6171SOL    HW219413   0.531   4.275   2.621
 6172SOL     OW19414   0.749   0.376   2.916
 6172SOL    HW119415   0.712   0.408   3.003
 6172SOL    HW219416   0.707   0.427   2.841
 6173SOL     OW19417   0.868   4.699   2.861
 6173SOL    HW119418   0.817   4.688   2.776
 6173SOL    HW219419   0.812   4.670   2.938
 6174SOL     OW19420   6.112   4.880   2.658
 6174SOL    HW119421   6.131   4.788   2.693
 6174SOL    HW219422   6.117   4.879   2.558
 6175SOL     OW19423   5.846   6.133   2.249
 6175SOL    HW119424   5.832   6.145   2.151
 6175SOL    HW219425   5.793   6.055   2.282
 6176SOL     OW19426   5.981   3.282   6.477
 6176SOL    HW119427   5.900   3.266   6.420
 6176SOL    HW219428   5.953   3.326   6.563
 6177SOL     OW19429   4.928   1.141   1.643
 6177SOL    HW119430   4.909   1.143   1.741
 6177SOL    HW219431   4.901   1.052   1.606
 6178SOL     OW19432   4.967   4.724   0.971
 6178SOL    HW119433   4.971   4.819   1.003
 6178SOL    HW219434   5.034   4.711   0.898
 6179SOL     OW19435   7.002   3.345   4.364
 6179SOL    HW119436   6.908   3.343   4.332
 6179SOL    HW219437   0.008   3.252   4.382
 6180SOL     OW19438   3.443   6.982   0.934
 6180SOL    HW119439   3.379   6.938   0.997
 6180SOL    HW219440   3.507   6.914   0.899
 6181SOL     OW19441   5.016   6.433   0.033
 6181SOL    HW119442   5.110   6.400   0.039
 6181SOL    HW219443   4.959   6.382   0.097
 6182SOL     OW19444   5.205   5.171   5.194
 6182SOL    HW119445   5.175   5.208   5.106
 6182SOL    HW219446   5.151   5.211   5.268
 6183SOL     OW19447   2.005   0.433   2.767
 6183SOL    HW119448   1.983   0.354   2.710
 6183SOL    HW219449   2.092   0.473   2.738
 6184SOL     OW19450   1.455   6.769   0.319
 6184SOL    HW119451   1.546   6.784   0.357
 6184SOL    HW219452   1.462   6.740   0.223
 6185SOL     OW19453   0.532   3.767   0.010
 6185SOL    HW119454   0.523   3.813   0.099
 6185SOL    HW219455   0.451   3.783   6.981
 6186SOL     OW19456   5.793   0.301   4.072
 6186SOL    HW119457   5.759   0.216   4.031
 6186SOL    HW219458   5.870   0.281   4.133
 6187SOL     OW19459   5.275   4.737   3.522
 6187SOL    HW119460   5.333   4.766   3.445
 6187SOL    HW219461   5.223   4.656   3.494
 6188SOL     OW19462   2.150   6.580   1.623
 6188SOL    HW119463   2.132   6.620   1.713
 6188SOL    HW219464   2.249   6.572   1.609
 6189SOL     OW19465   5.078   4.799   2.722
 6189SOL    HW119466   5.163   4.817   2.772
 6189SOL    HW219467   5.003   4.788   2.787
 6190SOL     OW19468   5.157   3.191   5.952
 6190SOL    HW119469   5.059   3.210   5.946
 6190SOL    HW219470   5.180   3.114   5.893
 6191SOL     OW19471   5.477   2.435   0.626
 6191SOL    HW119472   5.401   2.461   0.567
 6191SOL    HW219473   5.517   2.349   0.594
 6192SOL     OW19474   3.013   4.128   0.337
 6192SOL    HW119475   3.093   4.171   0.379
 6192SOL    HW219476   2.932   4.183   0.357
 6193SOL     OW19477   4.932   6.976   2.075
 6193SOL    HW119478   5.031   6.986   2.079
 6193SOL    HW219479   4.906   6.941   1.985
 6194SOL     OW19480   2.292   0.559   1.020
 6194SOL    HW119481   2.229   0.505   1.075
 6194SOL    HW219482   2.302   0.518   0.929
 6195SOL     OW19483   4.279   5.572   6.304
 6195SOL    HW119484   4.370   5.612   6.294
 6195SOL    HW219485   4.274   5.485   6.254
 6196SOL     OW19486   0.926   2.953   6.734
 6196SOL    HW119487   0.920   2.854   6.716
 6196SOL    HW219488   0.996   2.970   6.804
 6197SOL     OW19489   2.705   4.173   1.079
 6197SOL    HW119490   2.606   4.184   1.069
 6197SOL    HW219491   2.750   4.259   1.060
 6198SOL     OW19492   3.400   5.833   3.213
 6198SOL    HW119493   3.429   5.906   3.275
 6198SOL    HW219494   3.328   5.779   3.256
 6199SOL     OW19495   0.751   0.441   1.247
 6199SOL    HW119496   0.687   0.403   1.180
 6199SOL    HW219497   0.835   0.385   1.248
 6200SOL     OW19498   2.608   1.152   6.438
 6200SOL    HW119499   2.552   1.186   6.514
 6200SOL    HW219500   2.552   1.095   6.378
 6201SOL     OW19501   1.843   4.560   6.143
 6201SOL    HW119502   1.901   4.479   6.151
 6201SOL    HW219503   1.748   4.534   6.157
 6202SOL     OW19504   4.115   1.716   1.673
 6202SOL    HW119505   4.039   1.677   1.622
 6202SOL    HW219506   4.151   1.795   1.624
 6203SOL     OW19507   5.017   0.679   3.980
 6203SOL    HW119508   5.090   0.625   3.937
 6203SOL    HW219509   5.058   0.758   4.026
 6204SOL     OW19510   1.189   5.020   5.444
 6204SOL    HW119511   1.092   5.033   5.461
 6204SOL    HW219512   1.206   5.022   5.345
 6205SOL     OW19513   5.671   5.269   6.714
 6205SOL    HW119514   5.691   5.346   6.655
 6205SOL    HW219515   5.698   5.290   6.808
 6206SOL     OW19516   6.945   0.575   2.376
 6206SOL    HW119517   7.005   0.584   2.455
 6206SOL    HW219518   6.916   0.666   2.346
 6207SOL     OW19519   1.232   4.162   5.143
 6207SOL    HW119520   1.156   4.123   5.194
 6207SOL    HW219521   1.262   4.247   5.188
 6208SOL     OW19522   6.359   0.174   5.607
 6208SOL    HW119523   6.382   0.227   5.689
 6208SOL    HW219524   6.261   0.157   5.605
 6209SOL     OW19525   4.132   6.055   0.490
 6209SOL    HW119526   4.148   6.150   0.462
 6209SOL    HW219527   4.102   6.002   0.411
 6210SOL     OW19528   5.808   3.938   2.722
 6210SOL    HW119529   5.743   3.889   2.780
 6210SOL    HW219530   5.807   3.899   2.630
 6211SOL     OW19531   2.498   0.065   6.180
 6211SOL    HW119532   2.495   0.146   6.240
 6211SOL    HW219533   2.508   0.094   6.085
 6212SOL     OW19534   6.845   6.133   3.895
 6212SOL    HW119535   6.845   6.201   3.968
 6212SOL    HW219536   6.919   6.152   3.831
 6213SOL     OW19537   5.964   0.599   6.651
 6213SOL    HW119538   5.990   0.622   6.557
 6213SOL    HW219539   5.900   0.668   6.685
 6214SOL     OW19540   6.236   5.659   2.620
 6214SOL    HW119541   6.290   5.741   2.643
 6214SOL    HW219542   6.189   5.673   2.534
 6215SOL     OW19543   3.435   1.533   6.999
 6215SOL    HW119544   3.341   1.566   7.008
 6215SOL    HW219545   3.479   1.580   6.922
 6216SOL     OW19546   6.618   2.316   1.605
 6216SOL    HW119547   6.713   2.327   1.631
 6216SOL    HW219548   6.612   2.277   1.513
 6217SOL     OW19549   4.795   2.848   1.599
 6217SOL    HW119550   4.809   2.944   1.621
 6217SOL    HW219551   4.733   2.840   1.521
 6218SOL     OW19552   3.057   4.990   4.593
 6218SOL    HW119553   2.978   4.970   4.651
 6218SOL    HW219554   3.070   5.090   4.587
 6219SOL     OW19555   1.708   2.070   5.007
 6219SOL    HW119556   1.720   2.148   5.068
 6219SOL    HW219557   1.639   2.008   5.046
 6220SOL     OW19558   1.634   4.582   5.559
 6220SOL    HW119559   1.684   4.582   5.645
 6220SOL    HW219560   1.698   4.577   5.482
 6221SOL     OW19561   4.716   5.198   5.026
 6221SOL    HW119562   4.630   5.222   4.980
 6221SOL    HW219563   4.775   5.147   4.964
 6222SOL     OW19564   0.752   0.214   1.714
 6222SOL    HW119565   0.698   0.156   1.775
 6222SOL    HW219566   0.692   0.280   1.669
 6223SOL     OW19567   5.691   4.023   4.158
 6223SOL    HW119568   5.778   3.975   4.171
 6223SOL    HW219569   5.643   3.985   4.079
 6224SOL     OW19570   2.031   1.337   6.395
 6224SOL    HW119571   1.983   1.425   6.393
 6224SOL    HW219572   1.975   1.269   6.441
 6225SOL     OW19573   3.506   3.306   1.448
 6225SOL    HW119574   3.507   3.206   1.446
 6225SOL    HW219575   3.444   3.339   1.377
 6226SOL     OW19576   5.931   1.183   3.857
 6226SOL    HW119577   5.899   1.116   3.924
 6226SOL    HW219578   5.995   1.246   3.901
 6227SOL     OW19579   2.913   4.633   5.906
 6227SOL    HW119580   2.848   4.593   5.970
 6227SOL    HW219581   2.887   4.727   5.886
 6228SOL     OW19582   6.838   1.980   3.246
 6228SOL    HW119583   6.867   2.075   3.237
 6228SOL    HW219584   6.741   1.972   3.219
 6229SOL     OW19585   2.367   1.740   3.134
 6229SOL    HW119586   2.269   1.719   3.133
 6229SOL    HW219587   2.398   1.762   3.042
 6230SOL     OW19588   1.839   1.075   4.894
 6230SOL    HW119589   1.900   1.125   4.956
 6230SOL    HW219590   1.894   1.023   4.829
 6231SOL     OW19591   6.715   4.530   1.143
 6231SOL    HW119592   6.781   4.493   1.078
 6231SOL    HW219593   6.664   4.605   1.101
 6232SOL     OW19594   6.974   1.217   0.076
 6232SOL    HW119595   0.005   1.298   0.060
 6232SOL    HW219596   7.023   1.152   0.133
 6233SOL     OW19597   5.369   1.985   0.017
 6233SOL    HW119598   5.440   1.959   6.978
 6233SOL    HW219599   5.327   2.072   7.013
 6234SOL     OW19600   1.171   1.460   4.975
 6234SOL    HW119601   1.102   1.389   4.966
 6234SOL    HW219602   1.151   1.535   4.912
 6235SOL     OW19603   1.885   6.733   3.411
 6235SOL    HW119604   1.978   6.736   3.447
 6235SOL    HW219605   1.871   6.809   3.347
 6236SOL     OW19606   6.972   4.736   1.391
 6236SOL    HW119607   0.003   4.805   1.436
 6236SOL    HW219608   6.886   4.778   1.361
 6237SOL     OW19609   4.514   6.138   0.399
 6237SOL    HW119610   4.601   6.183   0.421
 6237SOL    HW219611   4.445   6.163   0.467
 6238SOL     OW19612   4.429   5.802   2.075
 6238SOL    HW119613   4.400   5.730   2.138
 6238SOL    HW219614   4.528   5.809   2.076
 6239SOL     OW19615   2.758   6.519   2.206
 6239SOL    HW119616   2.786   6.440   2.151
 6239SOL    HW219617   2.660   6.511   2.226
 6240SOL     OW19618   2.960   2.389   1.123
 6240SOL    HW119619   2.896   2.312   1.129
 6240SOL    HW219620   3.007   2.399   1.211
 6241SOL     OW19621   2.743   1.036   2.200
 6241SOL    HW119622   2.820   1.072   2.253
 6241SOL    HW219623   2.658   1.051   2.249
 6242SOL     OW19624   5.317   1.467   3.769
 6242SOL    HW119625   5.416   1.481   3.769
 6242SOL    HW219626   5.293   1.391   3.710
 6243SOL     OW19627   6.064   6.725   3.411
 6243SOL    HW119628   6.048   6.728   3.312
 6243SOL    HW219629   5.998   6.783   3.457
 6244SOL     OW19630   2.425   2.413   1.992
 6244SOL    HW119631   2.388   2.348   1.926
 6244SOL    HW219632   2.482   2.365   2.058
 6245SOL     OW19633   3.080   4.470   1.650
 6245SOL    HW119634   3.156   4.429   1.700
 6245SOL    HW219635   2.997   4.466   1.706
 6246SOL     OW19636   2.967   2.979   6.693
 6246SOL    HW119637   2.902   3.032   6.638
 6246SOL    HW219638   2.934   2.885   6.702
 6247SOL     OW19639   0.187   7.003   3.528
 6247SOL    HW119640   0.227   0.068   3.516
 6247SOL    HW219641   0.143   6.998   3.618
 6248SOL     OW19642   0.779   4.032   1.025
 6248SOL    HW119643   0.810   4.125   1.010
 6248SOL    HW219644   0.780   4.011   1.123
 6249SOL     OW19645   0.179   4.582   0.351
 6249SOL    HW119646   0.187   4.503   0.412
 6249SOL    HW219647   0.248   4.650   0.376
 6250SOL     OW19648   6.878   6.584   0.962
 6250SOL    HW119649   6.924   6.565   0.876
 6250SOL    HW219650   6.898   6.511   1.028
 6251SOL     OW19651   4.057   0.115   1.400
 6251SOL    HW119652   4.091   0.021   1.398
 6251SOL    HW219653   3.970   0.118   1.448
 6252SOL     OW19654   2.822   6.037   5.241
 6252SOL    HW119655   2.794   5.950   5.201
 6252SOL    HW219656   2.745   6.101   5.238
 6253SOL     OW19657   2.271   4.111   2.427
 6253SOL    HW119658   2.314   4.197   2.456
 6253SOL    HW219659   2.272   4.105   2.327
 6254SOL     OW19660   5.530   0.520   7.025
 6254SOL    HW119661   5.444   0.518   0.050
 6254SOL    HW219662   5.606   0.528   0.064
 6255SOL     OW19663   1.274   1.324   1.545
 6255SOL    HW119664   1.209   1.399   1.553
 6255SOL    HW219665   1.353   1.341   1.605
 6256SOL     OW19666   4.067   5.355   2.619
 6256SOL    HW119667   4.044   5.422   2.547
 6256SOL    HW219668   4.036   5.390   2.707
 6257SOL     OW19669   4.949   2.282   0.857
 6257SOL    HW119670   4.998   2.296   0.771
 6257SOL    HW219671   4.998   2.327   0.931
 6258SOL     OW19672   4.930   1.121   3.483
 6258SOL    HW119673   4.853   1.169   3.527
 6258SOL    HW219674   4.974   1.182   3.417
 6259SOL     OW19675   3.206   1.948   1.626
 6259SOL    HW119676   3.219   2.008   1.705
 6259SOL    HW219677   3.203   2.003   1.543
 6260SOL     OW19678   3.305   4.098   0.578
 6260SOL    HW119679   3.339   4.024   0.519
 6260SOL    HW219680   3.380   4.132   0.635
 6261SOL     OW19681   4.026   6.866   6.627
 6261SOL    HW119682   4.026   6.954   6.580
 6261SOL    HW219683   4.120   6.838   6.646
 6262SOL     OW19684   1.744   4.596   0.394
 6262SOL    HW119685   1.684   4.533   0.344
 6262SOL    HW219686   1.716   4.690   0.376
 6263SOL     OW19687   0.032   6.021   6.443
 6263SOL    HW119688   0.114   6.078   6.444
 6263SOL    HW219689   6.982   6.071   6.401
 6264SOL     OW19690   2.271   1.239   1.135
 6264SOL    HW119691   2.262   1.219   1.037
 6264SOL    HW219692   2.208   1.312   1.160
 6265SOL     OW19693   3.423   4.413   1.291
 6265SOL    HW119694   3.430   4.364   1.204
 6265SOL    HW219695   3.328   4.412   1.322
 6266SOL     OW19696   3.669   0.659   4.436
 6266SOL    HW119697   3.637   0.590   4.501
 6266SOL    HW219698   3.628   0.643   4.346
 6267SOL     OW19699   3.272   0.111   0.368
 6267SOL    HW119700   3.197   0.156   0.319
 6267SOL    HW219701   3.235   0.055   0.442
 6268SOL     OW19702   2.723   5.435   2.937
 6268SOL    HW119703   2.793   5.395   2.996
 6268SOL    HW219704   2.643   5.459   2.992
 6269SOL     OW19705   6.079   5.746   2.377
 6269SOL    HW119706   5.991   5.711   2.407
 6269SOL    HW219707   6.107   5.700   2.293
 6270SOL     OW19708   2.202   0.063   6.072
 6270SOL    HW119709   2.296   0.035   6.090
 6270SOL    HW219710   2.191   0.083   5.974
 6271SOL     OW19711   7.005   2.728   5.563
 6271SOL    HW119712   6.953   2.803   5.521
 6271SOL    HW219713   0.006   2.662   5.492
 6272SOL     OW19714   0.671   3.179   4.089
 6272SOL    HW119715   0.633   3.256   4.140
 6272SOL    HW219716   0.748   3.141   4.139
 6273SOL     OW19717   1.258   0.979   2.005
 6273SOL    HW119718   1.246   0.909   1.935
 6273SOL    HW219719   1.328   0.949   2.070
 6274SOL     OW19720   2.862   5.746   6.486
 6274SOL    HW119721   2.926   5.782   6.555
 6274SOL    HW219722   2.794   5.688   6.531
 6275SOL     OW19723   2.974   6.632   5.663
 6275SOL    HW119724   3.065   6.606   5.629
 6275SOL    HW219725   2.971   6.619   5.762
 6276SOL     OW19726   1.272   4.913   3.409
 6276SOL    HW119727   1.360   4.868   3.396
 6276SOL    HW219728   1.276   5.006   3.372
 6277SOL     OW19729   4.569   2.576   2.600
 6277SOL    HW119730   4.493   2.534   2.550
 6277SOL    HW219731   4.632   2.619   2.536
 6278SOL     OW19732   4.577   0.303   3.947
 6278SOL    HW119733   4.592   0.399   3.923
 6278SOL    HW219734   4.520   0.298   4.029
 6279SOL     OW19735   3.793   1.593   0.796
 6279SOL    HW119736   3.800   1.604   0.697
 6279SOL    HW219737   3.696   1.590   0.822
 6280SOL     OW19738   0.369   3.213   5.714
 6280SOL    HW119739   0.376   3.248   5.808
 6280SOL    HW219740   0.393   3.116   5.713
 6281SOL     OW19741   2.936   6.212   5.713
 6281SOL    HW119742   2.892   6.128   5.745
 6281SOL    HW219743   2.883   6.251   5.637
 6282SOL     OW19744   1.241   0.013   4.805
 6282SOL    HW119745   1.301   0.091   4.792
 6282SOL    HW219746   1.182   0.029   4.884
 6283SOL     OW19747   6.199   2.421   4.746
 6283SOL    HW119748   6.197   2.322   4.759
 6283SOL    HW219749   6.166   2.442   4.654
 6284SOL     OW19750   1.879   5.545   5.045
 6284SOL    HW119751   1.841   5.547   4.953
 6284SOL    HW219752   1.878   5.451   5.079
 6285SOL     OW19753   1.561   2.886   4.433
 6285SOL    HW119754   1.580   2.965   4.492
 6285SOL    HW219755   1.463   2.868   4.432
 6286SOL     OW19756   6.045   1.263   3.568
 6286SOL    HW119757   5.988   1.269   3.651
 6286SOL    HW219758   5.987   1.238   3.490
 6287SOL     OW19759   4.445   4.547   2.083
 6287SOL    HW119760   4.458   4.490   2.002
 6287SOL    HW219761   4.449   4.490   2.165
 6288SOL     OW19762   5.137   4.438   1.306
 6288SOL    HW119763   5.143   4.367   1.376
 6288SOL    HW219764   5.222   4.491   1.304
 6289SOL     OW19765   1.985   3.065   3.641
 6289SOL    HW119766   2.076   3.041   3.607
 6289SOL    HW219767   1.936   2.981   3.666
 6290SOL     OW19768   5.276   4.191   4.243
 6290SOL    HW119769   5.205   4.192   4.313
 6290SOL    HW219770   5.266   4.110   4.185
 6291SOL     OW19771   3.502   3.331   3.698
 6291SOL    HW119772   3.436   3.271   3.743
 6291SOL    HW219773   3.579   3.277   3.663
 6292SOL     OW19774   0.598   2.879   3.156
 6292SOL    HW119775   0.619   2.936   3.076
 6292SOL    HW219776   0.682   2.843   3.195
 6293SOL     OW19777   4.884   6.941   6.935
 6293SOL    HW119778   4.912   6.847   6.955
 6293SOL    HW219779   4.961   6.991   6.895
 6294SOL     OW19780   3.451   5.256   3.125
 6294SOL    HW119781   3.462   5.322   3.200
 6294SOL    HW219782   3.527   5.266   3.061
 6295SOL     OW19783   5.004   5.435   5.550
 6295SOL    HW119784   4.959   5.375   5.485
 6295SOL    HW219785   4.975   5.530   5.535
 6296SOL     OW19786   6.371   0.363   4.133
 6296SOL    HW119787   6.453   0.355   4.189
 6296SOL    HW219788   6.299   0.305   4.171
 6297SOL     OW19789   5.436   6.706   5.959
 6297SOL    HW119790   5.451   6.635   6.028
 6297SOL    HW219791   5.511   6.703   5.892
 6298SOL     OW19792   1.087   3.714   5.996
 6298SOL    HW119793   1.013   3.777   6.019
 6298SOL    HW219794   1.166   3.766   5.964
 6299SOL     OW19795   6.339   2.188   6.349
 6299SOL    HW119796   6.368   2.207   6.443
 6299SOL    HW219797   6.318   2.091   6.339
 6300SOL     OW19798   5.290   0.370   4.770
 6300SOL    HW119799   5.199   0.327   4.775
 6300SOL    HW219800   5.357   0.308   4.810
 6301SOL     OW19801   2.810   7.007   1.080
 6301SOL    HW119802   2.892   0.003   1.133
 6301SOL    HW219803   2.761   0.065   1.058
 6302SOL     OW19804   1.184   1.102   3.635
 6302SOL    HW119805   1.170   1.119   3.538
 6302SOL    HW219806   1.096   1.087   3.680
 6303SOL     OW19807   2.537   0.411   5.244
 6303SOL    HW119808   2.597   0.446   5.173
 6303SOL    HW219809   2.478   0.340   5.205
 6304SOL     OW19810   3.119   0.462   0.878
 6304SOL    HW119811   3.046   0.475   0.811
 6304SOL    HW219812   3.084   0.484   0.969
 6305SOL     OW19813   6.272   6.951   1.080
 6305SOL    HW119814   6.218   6.944   1.163
 6305SOL    HW219815   6.364   6.985   1.102
 6306SOL     OW19816   7.015   3.174   4.032
 6306SOL    HW119817   6.916   3.166   4.017
 6306SOL    HW219818   0.019   3.267   4.010
 6307SOL     OW19819   3.393   4.835   5.654
 6307SOL    HW119820   3.341   4.816   5.571
 6307SOL    HW219821   3.330   4.848   5.731
 6308SOL     OW19822   2.024   1.492   5.366
 6308SOL    HW119823   2.109   1.440   5.375
 6308SOL    HW219824   2.046   1.587   5.344
 6309SOL     OW19825   4.832   3.090   3.716
 6309SOL    HW119826   4.838   3.171   3.775
 6309SOL    HW219827   4.812   3.010   3.772
 6310SOL     OW19828   1.972   4.798   4.158
 6310SOL    HW119829   1.878   4.817   4.127
 6310SOL    HW219830   1.997   4.865   4.229
 6311SOL     OW19831   6.553   0.377   4.995
 6311SOL    HW119832   6.472   0.436   4.997
 6311SOL    HW219833   6.606   0.395   4.912
 6312SOL     OW19834   4.372   5.218   6.414
 6312SOL    HW119835   4.307   5.212   6.490
 6312SOL    HW219836   4.410   5.127   6.396
 6313SOL     OW19837   2.054   5.792   3.375
 6313SOL    HW119838   2.069   5.830   3.283
 6313SOL    HW219839   1.974   5.836   3.416
 6314SOL     OW19840   3.490   6.196   2.216
 6314SOL    HW119841   3.509   6.130   2.289
 6314SOL    HW219842   3.563   6.194   2.148
 6315SOL     OW19843   4.111   2.920   6.964
 6315SOL    HW119844   4.204   2.912   6.928
 6315SOL    HW219845   4.104   3.002   7.020
 6316SOL     OW19846   4.959   2.428   6.221
 6316SOL    HW119847   4.917   2.430   6.130
 6316SOL    HW219848   4.894   2.462   6.288
 6317SOL     OW19849   5.096   6.672   2.735
 6317SOL    HW119850   5.080   6.634   2.826
 6317SOL    HW219851   5.032   6.747   2.718
 6318SOL     OW19852   2.712   2.029   5.615
 6318SOL    HW119853   2.712   1.983   5.526
 6318SOL    HW219854   2.767   2.112   5.610
 6319SOL     OW19855   0.407   3.232   3.209
 6319SOL    HW119856   0.439   3.170   3.137
 6319SOL    HW219857   0.427   3.326   3.183
 6320SOL     OW19858   5.912   4.239   3.092
 6320SOL    HW119859   5.842   4.203   3.030
 6320SOL    HW219860   5.899   4.202   3.184
 6321SOL     OW19861   2.827   5.540   0.700
 6321SOL    HW119862   2.903   5.578   0.647
 6321SOL    HW219863   2.863   5.501   0.786
 6322SOL     OW19864   1.667   1.744   6.138
 6322SOL    HW119865   1.674   1.650   6.171
 6322SOL    HW219866   1.637   1.744   6.043
 6323SOL     OW19867   3.475   2.225   1.743
 6323SOL    HW119868   3.561   2.232   1.792
 6323SOL    HW219869   3.447   2.315   1.711
 6324SOL     OW19870   4.580   0.449   5.714
 6324SOL    HW119871   4.482   0.460   5.734
 6324SOL    HW219872   4.603   0.500   5.632
 6325SOL     OW19873   1.297   3.414   2.150
 6325SOL    HW119874   1.328   3.322   2.173
 6325SOL    HW219875   1.198   3.420   2.167
 6326SOL     OW19876   5.556   5.943   0.609
 6326SOL    HW119877   5.587   5.904   0.522
 6326SOL    HW219878   5.577   5.880   0.683
 6327SOL     OW19879   6.550   6.111   5.244
 6327SOL    HW119880   6.574   6.060   5.327
 6327SOL    HW219881   6.451   6.106   5.230
 6328SOL     OW19882   2.103   4.676   7.007
 6328SOL    HW119883   2.160   4.757   7.018
 6328SOL    HW219884   2.020   4.701   6.956
 6329SOL     OW19885   0.922   1.547   3.665
 6329SOL    HW119886   0.859   1.471   3.681
 6329SOL    HW219887   0.943   1.554   3.568
 6330SOL     OW19888   4.626   1.003   0.625
 6330SOL    HW119889   4.566   1.051   0.560
 6330SOL    HW219890   4.667   0.924   0.579
 6331SOL     OW19891   6.523   2.336   0.700
 6331SOL    HW119892   6.518   2.403   0.774
 6331SOL    HW219893   6.459   2.362   0.627
 6332SOL     OW19894   6.328   5.708   1.236
 6332SOL    HW119895   6.322   5.808   1.243
 6332SOL    HW219896   6.414   5.677   1.276
 6333SOL     OW19897   3.420   5.729   3.558
 6333SOL    HW119898   3.331   5.717   3.513
 6333SOL    HW219899   3.450   5.641   3.596
 6334SOL     OW19900   2.416   0.508   2.887
 6334SOL    HW119901   2.477   0.548   2.956
 6334SOL    HW219902   2.321   0.516   2.917
 6335SOL     OW19903   5.761   1.267   0.312
 6335SOL    HW119904   5.780   1.277   0.410
 6335SOL    HW219905   5.829   1.318   0.259
 6336SOL     OW19906   6.855   2.378   4.839
 6336SOL    HW119907   6.792   2.427   4.779
 6336SOL    HW219908   6.816   2.373   4.931
 6337SOL     OW19909   5.454   2.837   6.016
 6337SOL    HW119910   5.497   2.897   6.084
 6337SOL    HW219911   5.355   2.834   6.032
 6338SOL     OW19912   2.568   1.765   2.107
 6338SOL    HW119913   2.667   1.778   2.106
 6338SOL    HW219914   2.543   1.711   2.187
 6339SOL     OW19915   0.568   2.458   3.375
 6339SOL    HW119916   0.537   2.447   3.281
 6339SOL    HW219917   0.553   2.373   3.425
 6340SOL     OW19918   2.523   5.304   3.272
 6340SOL    HW119919   2.509   5.389   3.222
 6340SOL    HW219920   2.581   5.243   3.218
 6341SOL     OW19921   0.008   4.852   3.634
 6341SOL    HW119922   0.103   4.877   3.616
 6341SOL    HW219923   0.005   4.786   3.709
 6342SOL     OW19924   2.357   2.648   2.257
 6342SOL    HW119925   2.275   2.607   2.298
 6342SOL    HW219926   2.417   2.575   2.224
 6343SOL     OW19927   4.372   3.081   6.918
 6343SOL    HW119928   4.436   3.038   6.981
 6343SOL    HW219929   4.411   3.081   6.826
 6344SOL     OW19930   6.522   3.486   5.125
 6344SOL    HW119931   6.529   3.412   5.058
 6344SOL    HW219932   6.470   3.562   5.084
 6345SOL     OW19933   4.212   1.370   2.921
 6345SOL    HW119934   4.192   1.464   2.951
 6345SOL    HW219935   4.233   1.370   2.824
 6346SOL     OW19936   6.217   3.084   3.457
 6346SOL    HW119937   6.213   2.999   3.509
 6346SOL    HW219938   6.125   3.112   3.431
 6347SOL     OW19939   2.932   0.446   1.535
 6347SOL    HW119940   2.917   0.538   1.569
 6347SOL    HW219941   3.029   0.422   1.544
 6348SOL     OW19942   0.740   3.855   4.861
 6348SOL    HW119943   0.789   3.904   4.934
 6348SOL    HW219944   0.776   3.762   4.854
 6349SOL     OW19945   3.072   0.848   1.543
 6349SOL    HW119946   3.164   0.861   1.580
 6349SOL    HW219947   3.018   0.931   1.557
 6350SOL     OW19948   1.481   5.460   3.222
 6350SOL    HW119949   1.524   5.450   3.133
 6350SOL    HW219950   1.469   5.370   3.264
 6351SOL     OW19951   6.303   2.673   2.560
 6351SOL    HW119952   6.239   2.601   2.535
 6351SOL    HW219953   6.259   2.763   2.550
 6352SOL     OW19954   1.216   5.581   3.263
 6352SOL    HW119955   1.232   5.668   3.217
 6352SOL    HW219956   1.300   5.527   3.263
 6353SOL     OW19957   6.922   0.619   6.511
 6353SOL    HW119958   6.971   0.546   6.558
 6353SOL    HW219959   6.929   0.703   6.565
 6354SOL     OW19960   1.162   7.003   2.372
 6354SOL    HW119961   1.156   6.985   2.470
 6354SOL    HW219962   1.098   6.943   2.323
 6355SOL     OW19963   1.135   3.863   4.638
 6355SOL    HW119964   1.163   3.880   4.544
 6355SOL    HW219965   1.057   3.801   4.639
 6356SOL     OW19966   4.787   4.522   1.467
 6356SOL    HW119967   4.793   4.425   1.446
 6356SOL    HW219968   4.813   4.575   1.386
 6357SOL     OW19969   4.226   2.767   0.372
 6357SOL    HW119970   4.129   2.743   0.378
 6357SOL    HW219971   4.278   2.711   0.437
 6358SOL     OW19972   6.868   2.253   4.331
 6358SOL    HW119973   6.823   2.206   4.406
 6358SOL    HW219974   6.966   2.260   4.350
 6359SOL     OW19975   6.947   0.401   5.764
 6359SOL    HW119976   7.006   0.436   5.692
 6359SOL    HW219977   6.871   0.350   5.723
 6360SOL     OW19978   2.319   4.442   3.650
 6360SOL    HW119979   2.400   4.485   3.611
 6360SOL    HW219980   2.265   4.400   3.577
 6361SOL     OW19981   4.829   5.674   6.485
 6361SOL    HW119982   4.848   5.616   6.406
 6361SOL    HW219983   4.912   5.723   6.511
 6362SOL     OW19984   6.247   4.487   6.667
 6362SOL    HW119985   6.311   4.557   6.636
 6362SOL    HW219986   6.294   4.424   6.728
 6363SOL     OW19987   2.359   6.114   4.147
 6363SOL    HW119988   2.450   6.107   4.187
 6363SOL    HW219989   2.323   6.206   4.161
 6364SOL     OW19990   2.908   2.259   5.648
 6364SOL    HW119991   2.957   2.322   5.709
 6364SOL    HW219992   2.971   2.190   5.613
 6365SOL     OW19993   4.757   0.015   3.697
 6365SOL    HW119994   4.721   0.051   3.783
 6365SOL    HW219995   4.768   6.941   3.704
 6366SOL     OW19996   1.038   5.346   5.274
 6366SOL    HW119997   1.112   5.299   5.324
 6366SOL    HW219998   0.955   5.291   5.279
 6367SOL     OW19999   4.980   0.379   3.569
 6367SOL    HW120000   5.036   0.360   3.489
 6367SOL    HW220001   4.957   0.476   3.571
 6368SOL     OW20002   2.688   7.018   3.935
 6368SOL    HW120003   2.722   6.923   3.938
 6368SOL    HW220004   2.663   0.021   4.028
 6369SOL     OW20005   2.591   5.138   4.201
 6369SOL    HW120006   2.662   5.135   4.271
 6369SOL    HW220007   2.528   5.214   4.221
 6370SOL     OW20008   0.553   2.319   2.030
 6370SOL    HW120009   0.525   2.391   2.093
 6370SOL    HW220010   0.568   2.358   1.939
 6371SOL     OW20011   4.947   2.899   3.040
 6371SOL    HW120012   4.935   2.808   2.999
 6371SOL    HW220013   4.933   2.969   2.970
 6372SOL     OW20014   3.450   6.133   1.657
 6372SOL    HW120015   3.365   6.170   1.619
 6372SOL    HW220016   3.446   6.137   1.757
 6373SOL     OW20017   5.750   4.540   5.063
 6373SOL    HW120018   5.753   4.540   4.963
 6373SOL    HW220019   5.760   4.446   5.097
 6374SOL     OW20020   3.098   3.011   3.096
 6374SOL    HW120021   3.175   2.978   3.041
 6374SOL    HW220022   3.127   3.021   3.191
 6375SOL     OW20023   0.977   0.939   3.136
 6375SOL    HW120024   1.050   0.916   3.072
 6375SOL    HW220025   0.976   0.872   3.211
 6376SOL     OW20026   0.503   1.541   5.031
 6376SOL    HW120027   0.499   1.527   4.932
 6376SOL    HW220028   0.599   1.540   5.061
 6377SOL     OW20029   6.916   0.847   5.649
 6377SOL    HW120030   6.884   0.756   5.620
 6377SOL    HW220031   7.009   0.862   5.614
 6378SOL     OW20032   4.827   4.352   3.228
 6378SOL    HW120033   4.810   4.331   3.132
 6378SOL    HW220034   4.918   4.390   3.239
 6379SOL     OW20035   1.807   5.221   4.047
 6379SOL    HW120036   1.771   5.184   4.132
 6379SOL    HW220037   1.907   5.211   4.045
 6380SOL     OW20038   0.804   1.154   5.473
 6380SOL    HW120039   0.738   1.224   5.445
 6380SOL    HW220040   0.897   1.189   5.459
 6381SOL     OW20041   3.006   3.461   2.299
 6381SOL    HW120042   3.028   3.382   2.241
 6381SOL    HW220043   2.961   3.430   2.382
 6382SOL     OW20044   1.320   2.762   6.352
 6382SOL    HW120045   1.363   2.678   6.320
 6382SOL    HW220046   1.279   2.810   6.275
 6383SOL     OW20047   2.069   2.433   4.157
 6383SOL    HW120048   2.160   2.416   4.121
 6383SOL    HW220049   2.057   2.531   4.174
 6384SOL     OW20050   6.084   4.648   2.139
 6384SOL    HW120051   6.020   4.688   2.204
 6384SOL    HW220052   6.171   4.697   2.143
 6385SOL     OW20053   6.143   5.076   3.935
 6385SOL    HW120054   6.170   5.151   3.874
 6385SOL    HW220055   6.216   5.008   3.938
 6386SOL     OW20056   2.717   4.734   1.283
 6386SOL    HW120057   2.756   4.713   1.373
 6386SOL    HW220058   2.645   4.803   1.294
 6387SOL     OW20059   0.563   2.105   6.014
 6387SOL    HW120060   0.465   2.121   6.026
 6387SOL    HW220061   0.607   2.191   5.987
 6388SOL     OW20062   3.812   4.791   1.286
 6388SOL    HW120063   3.816   4.694   1.260
 6388SOL    HW220064   3.754   4.801   1.367
 6389SOL     OW20065   0.814   5.973   2.384
 6389SOL    HW120066   0.801   5.916   2.303
 6389SOL    HW220067   0.751   5.943   2.456
 6390SOL     OW20068   0.097   2.393   2.953
 6390SOL    HW120069   0.158   2.405   2.875
 6390SOL    HW220070   0.048   2.478   2.971
 6391SOL     OW20071   3.566   1.501   0.218
 6391SOL    HW120072   3.510   1.512   0.137
 6391SOL    HW220073   3.614   1.586   0.238
 6392SOL     OW20074   2.217   6.586   3.974
 6392SOL    HW120075   2.273   6.669   3.968
 6392SOL    HW220076   2.131   6.608   4.019
 6393SOL     OW20077   5.733   6.559   1.688
 6393SOL    HW120078   5.720   6.658   1.686
 6393SOL    HW220079   5.736   6.527   1.782
 6394SOL     OW20080   2.418   4.883   0.952
 6394SOL    HW120081   2.397   4.906   0.857
 6394SOL    HW220082   2.455   4.790   0.957
 6395SOL     OW20083   6.545   1.470   1.160
 6395SOL    HW120084   6.563   1.516   1.247
 6395SOL    HW220085   6.462   1.508   1.119
 6396SOL     OW20086   5.239   2.773   6.397
 6396SOL    HW120087   5.210   2.809   6.308
 6396SOL    HW220088   5.243   2.673   6.393
 6397SOL     OW20089   0.087   2.117   6.550
 6397SOL    HW120090   0.117   2.024   6.533
 6397SOL    HW220091   0.026   2.119   6.630
 6398SOL     OW20092   3.471   0.778   1.514
 6398SOL    HW120093   3.506   0.848   1.452
 6398SOL    HW220094   3.536   0.765   1.590
 6399SOL     OW20095   1.689   5.831   6.745
 6399SOL    HW120096   1.782   5.860   6.771
 6399SOL    HW220097   1.688   5.732   6.732
 6400SOL     OW20098   2.265   5.442   3.389
 6400SOL    HW120099   2.350   5.391   3.401
 6400SOL    HW220100   2.196   5.408   3.454
 6401SOL     OW20101   0.336   4.659   3.628
 6401SOL    HW120102   0.317   4.573   3.580
 6401SOL    HW220103   0.320   4.736   3.567
 6402SOL     OW20104   2.677   0.916   3.061
 6402SOL    HW120105   2.728   0.945   3.142
 6402SOL    HW220106   2.690   0.982   2.987
 6403SOL     OW20107   0.940   5.214   6.870
 6403SOL    HW120108   0.956   5.300   6.822
 6403SOL    HW220109   1.025   5.161   6.874
 6404SOL     OW20110   4.373   1.930   3.374
 6404SOL    HW120111   4.407   1.891   3.460
 6404SOL    HW220112   4.322   2.014   3.393
 6405SOL     OW20113   2.085   2.048   2.721
 6405SOL    HW120114   2.076   2.140   2.683
 6405SOL    HW220115   2.096   1.982   2.647
 6406SOL     OW20116   1.490   1.139   3.346
 6406SOL    HW120117   1.487   1.140   3.246
 6406SOL    HW220118   1.547   1.063   3.377
 6407SOL     OW20119   2.882   6.922   4.696
 6407SOL    HW120120   2.875   6.970   4.609
 6407SOL    HW220121   2.884   6.989   4.771
 6408SOL     OW20122   5.932   2.297   6.732
 6408SOL    HW120123   5.863   2.325   6.799
 6408SOL    HW220124   5.946   2.198   6.739
 6409SOL     OW20125   6.159   3.711   2.735
 6409SOL    HW120126   6.096   3.715   2.813
 6409SOL    HW220127   6.235   3.649   2.757
 6410SOL     OW20128   2.091   2.023   0.613
 6410SOL    HW120129   2.005   1.973   0.623
 6410SOL    HW220130   2.106   2.043   0.516
 6411SOL     OW20131   0.945   1.907   3.095
 6411SOL    HW120132   0.853   1.901   3.134
 6411SOL    HW220133   0.973   1.817   3.062
 6412SOL     OW20134   6.700   3.042   5.371
 6412SOL    HW120135   6.734   3.123   5.324
 6412SOL    HW220136   6.656   3.069   5.457
 6413SOL     OW20137   5.865   5.062   2.048
 6413SOL    HW120138   5.902   4.982   2.001
 6413SOL    HW220139   5.768   5.048   2.068
 6414SOL     OW20140   5.914   1.274   1.798
 6414SOL    HW120141   5.995   1.235   1.754
 6414SOL    HW220142   5.832   1.249   1.746
 6415SOL     OW20143   2.464   2.353   2.298
 6415SOL    HW120144   2.390   2.290   2.321
 6415SOL    HW220145   2.528   2.308   2.236
 6416SOL     OW20146   0.756   0.288   6.337
 6416SOL    HW120147   0.797   0.256   6.422
 6416SOL    HW220148   0.785   0.381   6.318
 6417SOL     OW20149   0.483   6.750   3.373
 6417SOL    HW120150   0.521   6.797   3.294
 6417SOL    HW220151   0.543   6.675   3.400
 6418SOL     OW20152   6.095   5.128   2.317
 6418SOL    HW120153   6.139   5.068   2.384
 6418SOL    HW220154   6.077   5.217   2.359
 6419SOL     OW20155   3.053   5.588   1.675
 6419SOL    HW120156   3.123   5.660   1.685
 6419SOL    HW220157   3.068   5.517   1.744
 6420SOL     OW20158   3.072   3.191   6.139
 6420SOL    HW120159   3.104   3.234   6.223
 6420SOL    HW220160   3.030   3.103   6.160
 6421SOL     OW20161   6.176   1.297   1.152
 6421SOL    HW120162   6.198   1.385   1.111
 6421SOL    HW220163   6.113   1.248   1.092
 6422SOL     OW20164   6.622   0.881   3.343
 6422SOL    HW120165   6.524   0.861   3.343
 6422SOL    HW220166   6.640   0.967   3.389
 6423SOL     OW20167   4.918   3.743   1.375
 6423SOL    HW120168   4.823   3.729   1.404
 6423SOL    HW220169   4.952   3.661   1.329
 6424SOL     OW20170   6.655   4.462   6.036
 6424SOL    HW120171   6.699   4.372   6.035
 6424SOL    HW220172   6.690   4.518   5.961
 6425SOL     OW20173   0.012   4.685   3.020
 6425SOL    HW120174   6.964   4.618   3.021
 6425SOL    HW220175   0.032   4.715   3.113
 6426SOL     OW20176   1.280   2.922   4.424
 6426SOL    HW120177   1.259   3.009   4.468
 6426SOL    HW220178   1.240   2.921   4.332
 6427SOL     OW20179   1.509   3.890   6.580
 6427SOL    HW120180   1.456   3.974   6.590
 6427SOL    HW220181   1.448   3.815   6.554
 6428SOL     OW20182   6.775   3.373   2.162
 6428SOL    HW120183   6.698   3.433   2.184
 6428SOL    HW220184   6.758   3.330   2.073
 6429SOL     OW20185   1.749   0.677   4.916
 6429SOL    HW120186   1.743   0.736   4.996
 6429SOL    HW220187   1.658   0.640   4.896
 6430SOL     OW20188   4.976   0.623   1.926
 6430SOL    HW120189   4.880   0.651   1.928
 6430SOL    HW220190   4.988   0.552   1.857
 6431SOL     OW20191   5.354   0.219   3.205
 6431SOL    HW120192   5.269   0.193   3.250
 6431SOL    HW220193   5.358   0.177   3.114
 6432SOL     OW20194   4.225   4.203   0.001
 6432SOL    HW120195   4.169   4.131   0.042
 6432SOL    HW220196   4.320   4.172   7.021
 6433SOL     OW20197   3.113   4.560   1.153
 6433SOL    HW120198   3.041   4.615   1.111
 6433SOL    HW220199   3.197   4.614   1.160
 6434SOL     OW20200   1.075   3.781   1.173
 6434SOL    HW120201   1.056   3.826   1.085
 6434SOL    HW220202   1.171   3.791   1.196
 6435SOL     OW20203   3.299   5.042   0.322
 6435SOL    HW120204   3.219   5.083   0.366
 6435SOL    HW220205   3.287   5.047   0.223
 6436SOL     OW20206   1.887   3.259   3.464
 6436SOL    HW120207   1.905   3.201   3.544
 6436SOL    HW220208   1.827   3.334   3.490
 6437SOL     OW20209   1.909   0.842   0.250
 6437SOL    HW120210   1.855   0.920   0.281
 6437SOL    HW220211   2.006   0.862   0.263
 6438SOL     OW20212   0.632   4.196   5.227
 6438SOL    HW120213   0.589   4.136   5.294
 6438SOL    HW220214   0.591   4.181   5.137
 6439SOL     OW20215   1.038   6.817   0.536
 6439SOL    HW120216   1.087   6.730   0.533
 6439SOL    HW220217   1.023   6.844   0.631
 6440SOL     OW20218   2.093   1.846   1.735
 6440SOL    HW120219   2.098   1.787   1.654
 6440SOL    HW220220   2.005   1.892   1.738
 6441SOL     OW20221   1.825   0.769   2.369
 6441SOL    HW120222   1.814   0.717   2.453
 6441SOL    HW220223   1.839   0.866   2.392
 6442SOL     OW20224   2.483   1.580   4.874
 6442SOL    HW120225   2.489   1.647   4.948
 6442SOL    HW220226   2.499   1.626   4.786
 6443SOL     OW20227   2.872   2.886   0.392
 6443SOL    HW120228   2.929   2.968   0.399
 6443SOL    HW220229   2.786   2.901   0.440
 6444SOL     OW20230   0.448   2.296   2.892
 6444SOL    HW120231   0.422   2.318   2.987
 6444SOL    HW220232   0.468   2.380   2.843
 6445SOL     OW20233   4.315   2.453   5.440
 6445SOL    HW120234   4.268   2.468   5.353
 6445SOL    HW220235   4.272   2.509   5.511
 6446SOL     OW20236   0.424   1.307   6.300
 6446SOL    HW120237   0.391   1.399   6.319
 6446SOL    HW220238   0.437   1.257   6.386
 6447SOL     OW20239   1.308   5.781   2.028
 6447SOL    HW120240   1.336   5.877   2.030
 6447SOL    HW220241   1.360   5.730   2.096
 6448SOL     OW20242   6.168   3.528   2.179
 6448SOL    HW120243   6.199   3.491   2.266
 6448SOL    HW220244   6.085   3.581   2.192
 6449SOL     OW20245   3.584   4.011   1.886
 6449SOL    HW120246   3.511   4.009   1.818
 6449SOL    HW220247   3.672   3.996   1.841
 6450SOL     OW20248   6.492   3.147   1.793
 6450SOL    HW120249   6.408   3.110   1.832
 6450SOL    HW220250   6.548   3.073   1.758
 6451SOL     OW20251   3.539   6.160   5.423
 6451SOL    HW120252   3.492   6.072   5.420
 6451SOL    HW220253   3.555   6.186   5.518
 6452SOL     OW20254   3.957   0.095   5.057
 6452SOL    HW120255   3.929   0.126   4.966
 6452SOL    HW220256   3.875   0.073   5.110
 6453SOL     OW20257   0.970   6.246   6.976
 6453SOL    HW120258   0.948   6.196   0.035
 6453SOL    HW220259   1.065   6.275   6.979
 6454SOL     OW20260   2.609   1.561   4.203
 6454SOL    HW120261   2.586   1.627   4.132
 6454SOL    HW220262   2.532   1.553   4.267
 6455SOL     OW20263   0.945   2.666   4.638
 6455SOL    HW120264   0.894   2.583   4.660
 6455SOL    HW220265   1.009   2.648   4.564
 6456SOL     OW20266   1.319   0.120   3.358
 6456SOL    HW120267   1.257   0.082   3.427
 6456SOL    HW220268   1.407   0.142   3.401
 6457SOL     OW20269   5.548   1.890   1.614
 6457SOL    HW120270   5.583   1.806   1.657
 6457SOL    HW220271   5.462   1.871   1.568
 6458SOL     OW20272   1.347   5.976   2.747
 6458SOL    HW120273   1.433   5.926   2.757
 6458SOL    HW220274   1.299   5.978   2.835
 6459SOL     OW20275   5.752   5.582   0.498
 6459SOL    HW120276   5.759   5.487   0.530
 6459SOL    HW220277   5.656   5.610   0.499
 6460SOL     OW20278   4.492   4.564   0.182
 6460SOL    HW120279   4.464   4.576   0.277
 6460SOL    HW220280   4.523   4.652   0.145
 6461SOL     OW20281   3.108   5.611   5.814
 6461SOL    HW120282   3.197   5.566   5.819
 6461SOL    HW220283   3.121   5.709   5.801
 6462SOL     OW20284   2.263   3.231   5.144
 6462SOL    HW120285   2.327   3.170   5.191
 6462SOL    HW220286   2.253   3.202   5.049
 6463SOL     OW20287   2.355   5.016   6.388
 6463SOL    HW120288   2.329   4.920   6.384
 6463SOL    HW220289   2.298   5.069   6.325
 6464SOL     OW20290   0.487   4.985   3.577
 6464SOL    HW120291   0.451   5.068   3.621
 6464SOL    HW220292   0.556   4.944   3.636
 6465SOL     OW20293   5.915   1.935   4.121
 6465SOL    HW120294   5.899   1.840   4.146
 6465SOL    HW220295   5.964   1.982   4.194
 6466SOL     OW20296   6.704   2.927   5.054
 6466SOL    HW120297   6.741   2.835   5.049
 6466SOL    HW220298   6.634   2.931   5.126
 6467SOL     OW20299   2.425   0.978   6.350
 6467SOL    HW120300   2.325   0.980   6.345
 6467SOL    HW220301   2.454   0.927   6.431
 6468SOL     OW20302   4.345   6.318   2.076
 6468SOL    HW120303   4.351   6.236   2.018
 6468SOL    HW220304   4.353   6.400   2.019
 6469SOL     OW20305   6.430   1.113   5.333
 6469SOL    HW120306   6.527   1.114   5.310
 6469SOL    HW220307   6.408   1.194   5.387
 6470SOL     OW20308   6.766   6.305   5.831
 6470SOL    HW120309   6.743   6.210   5.814
 6470SOL    HW220310   6.769   6.355   5.744
 6471SOL     OW20311   6.767   5.475   6.270
 6471SOL    HW120312   6.862   5.475   6.301
 6471SOL    HW220313   6.714   5.541   6.324
 6472SOL     OW20314   1.026   6.340   1.066
 6472SOL    HW120315   1.031   6.438   1.048
 6472SOL    HW220316   0.933   6.307   1.045
 6473SOL     OW20317   2.060   0.935   6.030
 6473SOL    HW120318   1.966   0.950   6.061
 6473SOL    HW220319   2.103   1.023   6.012
 6474SOL     OW20320   1.649   4.073   6.317
 6474SOL    HW120321   1.730   4.015   6.324
 6474SOL    HW220322   1.597   4.067   6.403
 6475SOL     OW20323   5.613   6.021   3.927
 6475SOL    HW120324   5.633   6.056   3.836
 6475SOL    HW220325   5.632   5.922   3.930
 6476SOL     OW20326   4.477   4.738   3.052
 6476SOL    HW120327   4.469   4.715   2.955
 6476SOL    HW220328   4.478   4.837   3.062
 6477SOL     OW20329   6.437   5.296   6.430
 6477SOL    HW120330   6.401   5.241   6.506
 6477SOL    HW220331   6.481   5.378   6.466
 6478SOL     OW20332   3.634   5.827   1.976
 6478SOL    HW120333   3.617   5.815   1.879
 6478SOL    HW220334   3.695   5.905   1.991
 6479SOL     OW20335   3.962   5.189   2.056
 6479SOL    HW120336   4.046   5.151   2.093
 6479SOL    HW220337   3.895   5.198   2.130
 6480SOL     OW20338   3.935   2.901   6.029
 6480SOL    HW120339   3.996   2.971   6.066
 6480SOL    HW220340   3.855   2.944   5.987
 6481SOL     OW20341   3.591   2.093   1.075
 6481SOL    HW120342   3.565   2.188   1.060
 6481SOL    HW220343   3.513   2.043   1.112
 6482SOL     OW20344   6.524   1.010   7.017
 6482SOL    HW120345   6.579   0.927   7.005
 6482SOL    HW220346   6.508   1.052   6.927
 6483SOL     OW20347   2.420   6.255   2.280
 6483SOL    HW120348   2.402   6.161   2.306
 6483SOL    HW220349   2.511   6.262   2.240
 6484SOL     OW20350   4.513   0.295   2.273
 6484SOL    HW120351   4.563   0.244   2.203
 6484SOL    HW220352   4.577   0.338   2.336
 6485SOL     OW20353   1.415   3.352   3.534
 6485SOL    HW120354   1.411   3.305   3.446
 6485SOL    HW220355   1.365   3.300   3.603
 6486SOL     OW20356   0.847   4.292   4.260
 6486SOL    HW120357   0.817   4.209   4.307
 6486SOL    HW220358   0.923   4.270   4.198
 6487SOL     OW20359   6.832   5.975   4.436
 6487SOL    HW120360   6.792   5.884   4.445
 6487SOL    HW220361   6.880   5.981   4.348
 6488SOL     OW20362   3.425   6.477   5.613
 6488SOL    HW120363   3.400   6.388   5.575
 6488SOL    HW220364   3.520   6.476   5.644
 6489SOL     OW20365   1.845   2.776   6.839
 6489SOL    HW120366   1.815   2.778   6.744
 6489SOL    HW220367   1.786   2.714   6.891
 6490SOL     OW20368   3.729   2.414   0.514
 6490SOL    HW120369   3.779   2.363   0.584
 6490SOL    HW220370   3.636   2.434   0.548
 6491SOL     OW20371   4.611   1.050   6.452
 6491SOL    HW120372   4.522   1.042   6.408
 6491SOL    HW220373   4.654   0.960   6.456
 6492SOL     OW20374   5.956   6.771   0.064
 6492SOL    HW120375   5.873   6.737   0.109
 6492SOL    HW220376   5.948   6.870   0.051
 6493SOL     OW20377   1.872   6.271   5.847
 6493SOL    HW120378   1.822   6.353   5.820
 6493SOL    HW220379   1.921   6.234   5.768
 6494SOL     OW20380   0.722   0.298   3.525
 6494SOL    HW120381   0.730   0.240   3.444
 6494SOL    HW220382   0.663   0.254   3.592
 6495SOL     OW20383   4.962   6.019   3.298
 6495SOL    HW120384   4.961   6.116   3.273
 6495SOL    HW220385   4.899   6.003   3.374
 6496SOL     OW20386   6.911   6.316   1.978
 6496SOL    HW120387   6.911   6.229   2.028
 6496SOL    HW220388   7.000   6.361   1.990
 6497SOL     OW20389   2.260   3.590   0.907
 6497SOL    HW120390   2.209   3.521   0.959
 6497SOL    HW220391   2.212   3.609   0.822
 6498SOL     OW20392   2.103   4.922   3.702
 6498SOL    HW120393   2.138   4.928   3.796
 6498SOL    HW220394   2.150   4.988   3.644
 6499SOL     OW20395   5.169   0.498   5.239
 6499SOL    HW120396   5.135   0.408   5.215
 6499SOL    HW220397   5.233   0.530   5.169
 6500SOL     OW20398   6.464   4.177   3.439
 6500SOL    HW120399   6.514   4.108   3.492
 6500SOL    HW220400   6.474   4.158   3.341
 6501SOL     OW20401   6.573   3.644   1.318
 6501SOL    HW120402   6.500   3.699   1.358
 6501SOL    HW220403   6.589   3.673   1.224
 6502SOL     OW20404   0.546   4.566   3.830
 6502SOL    HW120405   0.514   4.484   3.877
 6502SOL    HW220406   0.467   4.614   3.791
 6503SOL     OW20407   5.664   6.550   3.433
 6503SOL    HW120408   5.634   6.613   3.361
 6503SOL    HW220409   5.758   6.520   3.415
 6504SOL     OW20410   4.296   0.097   6.722
 6504SOL    HW120411   4.324   0.002   6.706
 6504SOL    HW220412   4.198   0.100   6.741
 6505SOL     OW20413   6.163   4.499   0.709
 6505SOL    HW120414   6.170   4.402   0.733
 6505SOL    HW220415   6.071   4.532   0.730
 6506SOL     OW20416   0.981   2.921   0.955
 6506SOL    HW120417   0.924   2.991   0.999
 6506SOL    HW220418   0.943   2.830   0.974
 6507SOL     OW20419   1.083   6.069   1.107
 6507SOL    HW120420   1.089   6.169   1.102
 6507SOL    HW220421   1.095   6.030   1.016
 6508SOL     OW20422   1.812   2.146   3.933
 6508SOL    HW120423   1.761   2.089   3.869
 6508SOL    HW220424   1.820   2.100   4.021
 6509SOL     OW20425   1.083   2.381   5.023
 6509SOL    HW120426   1.172   2.409   4.989
 6509SOL    HW220427   1.016   2.452   5.004
 6510SOL     OW20428   7.025   5.532   6.342
 6510SOL    HW120429   0.052   5.599   6.395
 6510SOL    HW220430   0.037   5.441   6.356
 6511SOL     OW20431   6.263   0.364   5.247
 6511SOL    HW120432   6.323   0.444   5.240
 6511SOL    HW220433   6.319   0.281   5.249
 6512SOL     OW20434   4.513   6.844   2.952
 6512SOL    HW120435   4.443   6.892   3.005
 6512SOL    HW220436   4.476   6.758   2.918
 6513SOL     OW20437   3.327   6.754   4.305
 6513SOL    HW120438   3.375   6.763   4.392
 6513SOL    HW220439   3.334   6.839   4.254
 6514SOL     OW20440   5.159   6.726   3.987
 6514SOL    HW120441   5.133   6.821   4.003
 6514SOL    HW220442   5.257   6.715   4.001
 6515SOL     OW20443   6.692   5.299   3.940
 6515SOL    HW120444   6.735   5.362   3.876
 6515SOL    HW220445   6.697   5.206   3.904
 6516SOL     OW20446   0.699   1.620   6.605
 6516SOL    HW120447   0.614   1.571   6.625
 6516SOL    HW220448   0.696   1.654   6.511
 6517SOL     OW20449   0.128   1.761   0.346
 6517SOL    HW120450   0.077   1.716   0.420
 6517SOL    HW220451   0.193   1.826   0.384
 6518SOL     OW20452   0.938   6.181   0.417
 6518SOL    HW120453   1.025   6.169   0.465
 6518SOL    HW220454   0.871   6.115   0.450
 6519SOL     OW20455   2.209   1.321   4.727
 6519SOL    HW120456   2.308   1.325   4.733
 6519SOL    HW220457   2.173   1.410   4.698
 6520SOL     OW20458   6.513   5.615   2.455
 6520SOL    HW120459   6.428   5.562   2.451
 6520SOL    HW220460   6.544   5.621   2.550
 6521SOL     OW20461   1.303   1.627   4.363
 6521SOL    HW120462   1.274   1.573   4.283
 6521SOL    HW220463   1.403   1.635   4.363
 6522SOL     OW20464   2.067   5.418   6.920
 6522SOL    HW120465   2.126   5.429   7.000
 6522SOL    HW220466   2.106   5.468   6.842
 6523SOL     OW20467   2.957   1.319   6.095
 6523SOL    HW120468   2.879   1.281   6.146
 6523SOL    HW220469   2.991   1.401   6.141
 6524SOL     OW20470   3.695   3.645   3.485
 6524SOL    HW120471   3.715   3.699   3.567
 6524SOL    HW220472   3.602   3.663   3.454
 6525SOL     OW20473   1.172   2.483   2.784
 6525SOL    HW120474   1.073   2.496   2.777
 6525SOL    HW220475   1.196   2.391   2.753
 6526SOL     OW20476   0.874   6.451   4.861
 6526SOL    HW120477   0.931   6.532   4.870
 6526SOL    HW220478   0.778   6.477   4.867
 6527SOL     OW20479   1.646   0.683   5.226
 6527SOL    HW120480   1.609   0.767   5.186
 6527SOL    HW220481   1.588   0.605   5.201
 6528SOL     OW20482   6.986   0.882   4.279
 6528SOL    HW120483   7.019   0.976   4.267
 6528SOL    HW220484   7.016   0.827   4.201
 6529SOL     OW20485   5.528   1.753   2.657
 6529SOL    HW120486   5.534   1.680   2.725
 6529SOL    HW220487   5.580   1.832   2.688
 6530SOL     OW20488   6.535   2.670   0.492
 6530SOL    HW120489   6.454   2.720   0.524
 6530SOL    HW220490   6.507   2.580   0.459
 6531SOL     OW20491   5.852   2.270   3.882
 6531SOL    HW120492   5.952   2.277   3.886
 6531SOL    HW220493   5.819   2.221   3.963
 6532SOL     OW20494   6.402   1.795   6.603
 6532SOL    HW120495   6.345   1.869   6.638
 6532SOL    HW220496   6.423   1.730   6.676
 6533SOL     OW20497   5.592   6.017   1.232
 6533SOL    HW120498   5.670   5.996   1.173
 6533SOL    HW220499   5.562   5.934   1.279
 6534SOL     OW20500   2.365   3.747   1.270
 6534SOL    HW120501   2.412   3.742   1.358
 6534SOL    HW220502   2.370   3.840   1.234
 6535SOL     OW20503   6.964   3.328   5.208
 6535SOL    HW120504   6.924   3.261   5.146
 6535SOL    HW220505   0.031   3.350   5.177
 6536SOL     OW20506   5.947   2.023   6.795
 6536SOL    HW120507   5.937   1.955   6.723
 6536SOL    HW220508   5.919   1.983   6.883
 6537SOL     OW20509   6.284   6.733   7.005
 6537SOL    HW120510   6.301   6.698   0.072
 6537SOL    HW220511   6.188   6.721   6.982
 6538SOL     OW20512   3.317   3.903   0.363
 6538SOL    HW120513   3.224   3.876   0.338
 6538SOL    HW220514   3.382   3.840   0.321
 6539SOL     OW20515   2.606   1.718   6.533
 6539SOL    HW120516   2.546   1.791   6.567
 6539SOL    HW220517   2.572   1.684   6.446
 6540SOL     OW20518   3.683   1.744   4.334
 6540SOL    HW120519   3.587   1.726   4.315
 6540SOL    HW220520   3.705   1.838   4.307
 6541SOL     OW20521   3.178   2.665   5.345
 6541SOL    HW120522   3.087   2.664   5.386
 6541SOL    HW220523   3.190   2.584   5.288
 6542SOL     OW20524   6.238   4.915   3.197
 6542SOL    HW120525   6.286   4.885   3.280
 6542SOL    HW220526   6.274   4.865   3.118
 6543SOL     OW20527   6.198   5.564   0.354
 6543SOL    HW120528   6.111   5.614   0.352
 6543SOL    HW220529   6.199   5.502   0.432
 6544SOL     OW20530   6.546   6.499   4.266
 6544SOL    HW120531   6.644   6.507   4.250
 6544SOL    HW220532   6.522   6.540   4.354
 6545SOL     OW20533   5.481   0.790   6.286
 6545SOL    HW120534   5.526   0.701   6.279
 6545SOL    HW220535   5.551   0.861   6.301
 6546SOL     OW20536   4.228   4.722   6.313
 6546SOL    HW120537   4.328   4.724   6.308
 6546SOL    HW220538   4.199   4.748   6.405
 6547SOL     OW20539   4.728   2.105   6.062
 6547SOL    HW120540   4.756   2.067   6.151
 6547SOL    HW220541   4.713   2.203   6.071
 6548SOL     OW20542   6.942   4.485   5.675
 6548SOL    HW120543   7.018   4.427   5.703
 6548SOL    HW220544   6.891   4.514   5.756
 6549SOL     OW20545   4.200   2.110   1.267
 6549SOL    HW120546   4.140   2.039   1.232
 6549SOL    HW220547   4.277   2.068   1.315
 6550SOL     OW20548   0.422   5.469   3.603
 6550SOL    HW120549   0.371   5.479   3.517
 6550SOL    HW220550   0.511   5.513   3.593
 6551SOL     OW20551   2.321   4.585   1.719
 6551SOL    HW120552   2.334   4.490   1.748
 6551SOL    HW220553   2.270   4.586   1.633
 6552SOL     OW20554   2.645   5.275   5.368
 6552SOL    HW120555   2.722   5.256   5.429
 6552SOL    HW220556   2.563   5.294   5.422
 6553SOL     OW20557   0.771   3.464   1.806
 6553SOL    HW120558   0.714   3.390   1.841
 6553SOL    HW220559   0.819   3.432   1.724
 6554SOL     OW20560   6.451   1.509   5.634
 6554SOL    HW120561   6.417   1.590   5.680
 6554SOL    HW220562   6.403   1.428   5.669
 6555SOL     OW20563   1.604   0.707   1.919
 6555SOL    HW120564   1.585   0.681   2.013
 6555SOL    HW220565   1.687   0.763   1.916
 6556SOL     OW20566   4.594   4.751   5.217
 6556SOL    HW120567   4.562   4.836   5.176
 6556SOL    HW220568   4.692   4.741   5.202
 6557SOL     OW20569   6.048   5.662   0.710
 6557SOL    HW120570   6.044   5.628   0.616
 6557SOL    HW220571   6.007   5.753   0.714
 6558SOL     OW20572   6.565   6.245   0.744
 6558SOL    HW120573   6.518   6.178   0.686
 6558SOL    HW220574   6.580   6.206   0.835
 6559SOL     OW20575   4.811   3.763   0.742
 6559SOL    HW120576   4.789   3.792   0.649
 6559SOL    HW220577   4.727   3.749   0.794
 6560SOL     OW20578   4.067   3.009   1.401
 6560SOL    HW120579   4.101   3.050   1.317
 6560SOL    HW220580   4.056   3.079   1.471
 6561SOL     OW20581   3.991   3.883   2.584
 6561SOL    HW120582   3.977   3.887   2.485
 6561SOL    HW220583   4.031   3.795   2.609
 6562SOL     OW20584   6.601   4.919   5.829
 6562SOL    HW120585   6.545   4.855   5.882
 6562SOL    HW220586   6.582   4.906   5.731
 6563SOL     OW20587   0.352   5.833   0.211
 6563SOL    HW120588   0.377   5.760   0.148
 6563SOL    HW220589   0.276   5.802   0.269
 6564SOL     OW20590   1.344   3.665   2.079
 6564SOL    HW120591   1.263   3.695   2.129
 6564SOL    HW220592   1.359   3.567   2.095
 6565SOL     OW20593   5.331   2.177   4.737
 6565SOL    HW120594   5.317   2.165   4.835
 6565SOL    HW220595   5.259   2.131   4.686
 6566SOL     OW20596   3.205   0.398   1.598
 6566SOL    HW120597   3.184   0.314   1.649
 6566SOL    HW220598   3.291   0.436   1.631
 6567SOL     OW20599   4.795   2.754   0.899
 6567SOL    HW120600   4.809   2.824   0.969
 6567SOL    HW220601   4.712   2.702   0.921
 6568SOL     OW20602   4.521   4.704   1.825
 6568SOL    HW120603   4.466   4.644   1.767
 6568SOL    HW220604   4.462   4.775   1.864
 6569SOL     OW20605   2.456   5.448   0.895
 6569SOL    HW120606   2.431   5.544   0.906
 6569SOL    HW220607   2.485   5.411   0.983
 6570SOL     OW20608   5.079   0.637   2.250
 6570SOL    HW120609   5.176   0.662   2.250
 6570SOL    HW220610   5.055   0.600   2.161
 6571SOL     OW20611   2.311   5.629   3.202
 6571SOL    HW120612   2.287   5.595   3.293
 6571SOL    HW220613   2.228   5.659   3.155
 6572SOL     OW20614   6.262   3.494   5.253
 6572SOL    HW120615   6.250   3.417   5.191
 6572SOL    HW220616   6.357   3.525   5.251
 6573SOL     OW20617   3.515   1.010   2.391
 6573SOL    HW120618   3.588   1.063   2.435
 6573SOL    HW220619   3.470   1.066   2.321
 6574SOL     OW20620   2.092   5.980   1.944
 6574SOL    HW120621   2.152   5.937   2.012
 6574SOL    HW220622   2.034   6.047   1.989
 6575SOL     OW20623   0.847   1.477   1.399
 6575SOL    HW120624   0.935   1.433   1.379
 6575SOL    HW220625   0.842   1.501   1.496
 6576SOL     OW20626   1.409   5.884   6.806
 6576SOL    HW120627   1.334   5.844   6.753
 6576SOL    HW220628   1.496   5.856   6.766
 6577SOL     OW20629   0.321   1.667   3.657
 6577SOL    HW120630   0.390   1.719   3.706
 6577SOL    HW220631   0.342   1.569   3.663
 6578SOL     OW20632   6.311   5.267   3.439
 6578SOL    HW120633   6.373   5.310   3.373
 6578SOL    HW220634   6.322   5.168   3.434
 6579SOL     OW20635   6.904   4.008   4.034
 6579SOL    HW120636   6.924   4.104   4.056
 6579SOL    HW220637   6.850   3.967   4.108
 6580SOL     OW20638   5.575   0.778   1.262
 6580SOL    HW120639   5.591   0.686   1.298
 6580SOL    HW220640   5.485   0.811   1.293
 6581SOL     OW20641   4.044   1.616   6.039
 6581SOL    HW120642   4.087   1.578   5.957
 6581SOL    HW220643   4.052   1.552   6.115
 6582SOL     OW20644   0.864   0.005   2.661
 6582SOL    HW120645   0.830   0.099   2.667
 6582SOL    HW220646   0.839   6.981   2.744
 6583SOL     OW20647   5.647   1.065   6.367
 6583SOL    HW120648   5.568   1.124   6.383
 6583SOL    HW220649   5.725   1.120   6.338
 6584SOL     OW20650   5.586   1.631   6.147
 6584SOL    HW120651   5.548   1.585   6.227
 6584SOL    HW220652   5.641   1.710   6.176
 6585SOL     OW20653   0.495   1.506   7.020
 6585SOL    HW120654   0.452   1.551   0.073
 6585SOL    HW220655   0.425   1.481   6.953
 6586SOL     OW20656   6.284   1.909   5.970
 6586SOL    HW120657   6.369   1.929   6.017
 6586SOL    HW220658   6.288   1.944   5.876
 6587SOL     OW20659   2.178   6.015   4.318
 6587SOL    HW120660   2.215   5.957   4.391
 6587SOL    HW220661   2.249   6.032   4.250
 6588SOL     OW20662   1.411   3.793   0.749
 6588SOL    HW120663   1.372   3.841   0.827
 6588SOL    HW220664   1.450   3.706   0.780
 6589SOL     OW20665   5.067   0.202   6.298
 6589SOL    HW120666   4.982   0.254   6.298
 6589SOL    HW220667   5.103   0.197   6.205
 6590SOL     OW20668   0.215   1.341   4.612
 6590SOL    HW120669   0.241   1.412   4.547
 6590SOL    HW220670   0.133   1.369   4.662
 6591SOL     OW20671   5.256   6.867   2.659
 6591SOL    HW120672   5.351   6.834   2.660
 6591SOL    HW220673   5.194   6.790   2.670
 6592SOL     OW20674   4.086   0.406   4.843
 6592SOL    HW120675   4.136   0.468   4.903
 6592SOL    HW220676   4.025   0.459   4.783
 6593SOL     OW20677   2.860   2.222   4.002
 6593SOL    HW120678   2.893   2.181   4.087
 6593SOL    HW220679   2.935   2.223   3.935
 6594SOL     OW20680   4.856   0.657   0.067
 6594SOL    HW120681   4.917   0.706   0.006
 6594SOL    HW220682   4.868   0.559   0.055
 6595SOL     OW20683   1.781   3.544   1.023
 6595SOL    HW120684   1.797   3.628   1.074
 6595SOL    HW220685   1.853   3.533   0.954
 6596SOL     OW20686   4.804   0.297   5.859
 6596SOL    HW120687   4.894   0.322   5.823
 6596SOL    HW220688   4.733   0.319   5.792
 6597SOL     OW20689   0.272   6.621   4.504
 6597SOL    HW120690   0.278   6.532   4.459
 6597SOL    HW220691   0.224   6.685   4.444
 6598SOL     OW20692   1.502   5.596   4.860
 6598SOL    HW120693   1.513   5.695   4.857
 6598SOL    HW220694   1.582   5.552   4.818
 6599SOL     OW20695   4.178   4.965   6.160
 6599SOL    HW120696   4.135   4.942   6.072
 6599SOL    HW220697   4.190   4.883   6.214
 6600SOL     OW20698   4.954   5.055   4.938
 6600SOL    HW120699   4.957   5.018   5.031
 6600SOL    HW220700   5.039   5.104   4.918
 6601SOL     OW20701   0.305   1.070   0.600
 6601SOL    HW120702   0.403   1.090   0.596
 6601SOL    HW220703   0.255   1.141   0.551
 6602SOL     OW20704   0.489   2.280   1.306
 6602SOL    HW120705   0.565   2.255   1.247
 6602SOL    HW220706   0.524   2.320   1.391
 6603SOL     OW20707   2.151   4.034   3.734
 6603SOL    HW120708   2.103   4.015   3.648
 6603SOL    HW220709   2.163   3.948   3.785
 6604SOL     OW20710   2.470   5.724   1.646
 6604SOL    HW120711   2.394   5.665   1.619
 6604SOL    HW220712   2.523   5.750   1.565
 6605SOL     OW20713   5.065   5.619   0.225
 6605SOL    HW120714   5.094   5.530   0.190
 6605SOL    HW220715   5.131   5.688   0.198
 6606SOL     OW20716   4.945   0.886   2.240
 6606SOL    HW120717   4.966   0.790   2.258
 6606SOL    HW220718   5.029   0.934   2.213
 6607SOL     OW20719   2.029   0.960   1.896
 6607SOL    HW120720   2.020   1.042   1.840
 6607SOL    HW220721   2.024   0.985   1.993
 6608SOL     OW20722   5.503   3.095   3.014
 6608SOL    HW120723   5.536   3.072   2.923
 6608SOL    HW220724   5.408   3.065   3.023
 6609SOL     OW20725   5.525   0.903   6.875
 6609SOL    HW120726   5.514   0.900   6.974
 6609SOL    HW220727   5.619   0.879   6.851
 6610SOL     OW20728   2.147   0.218   0.446
 6610SOL    HW120729   2.219   0.209   0.378
 6610SOL    HW220730   2.143   0.312   0.478
 6611SOL     OW20731   6.212   2.283   2.827
 6611SOL    HW120732   6.198   2.263   2.731
 6611SOL    HW220733   6.271   2.213   2.868
 6612SOL     OW20734   1.198   5.642   6.365
 6612SOL    HW120735   1.148   5.616   6.282
 6612SOL    HW220736   1.226   5.559   6.414
 6613SOL     OW20737   5.080   5.239   2.980
 6613SOL    HW120738   4.995   5.226   2.929
 6613SOL    HW220739   5.158   5.219   2.921
 6614SOL     OW20740   5.101   5.278   6.265
 6614SOL    HW120741   5.161   5.265   6.344
 6614SOL    HW220742   5.156   5.285   6.182
 6615SOL     OW20743   0.505   3.168   4.871
 6615SOL    HW120744   0.573   3.228   4.912
 6615SOL    HW220745   0.444   3.221   4.813
 6616SOL     OW20746   4.614   1.408   5.598
 6616SOL    HW120747   4.700   1.438   5.638
 6616SOL    HW220748   4.567   1.487   5.556
 6617SOL     OW20749   3.008   6.577   4.051
 6617SOL    HW120750   3.088   6.553   4.106
 6617SOL    HW220751   3.036   6.639   3.977
 6618SOL     OW20752   0.850   3.844   2.176
 6618SOL    HW120753   0.842   3.913   2.249
 6618SOL    HW220754   0.858   3.890   2.088
 6619SOL     OW20755   4.538   6.661   3.787
 6619SOL    HW120756   4.570   6.567   3.772
 6619SOL    HW220757   4.581   6.722   3.720
 6620SOL     OW20758   1.623   2.705   6.120
 6620SOL    HW120759   1.665   2.687   6.209
 6620SOL    HW220760   1.600   2.802   6.112
 6621SOL     OW20761   2.379   3.950   0.637
 6621SOL    HW120762   2.373   3.929   0.734
 6621SOL    HW220763   2.392   3.865   0.585
 6622SOL     OW20764   6.594   6.514   0.756
 6622SOL    HW120765   6.571   6.418   0.735
 6622SOL    HW220766   6.690   6.530   0.733
 6623SOL     OW20767   3.406   3.070   1.956
 6623SOL    HW120768   3.443   3.017   2.033
 6623SOL    HW220769   3.464   3.149   1.939
 6624SOL     OW20770   3.418   5.459   5.135
 6624SOL    HW120771   3.362   5.504   5.065
 6624SOL    HW220772   3.369   5.458   5.222
 6625SOL     OW20773   6.133   1.088   6.426
 6625SOL    HW120774   6.102   1.153   6.495
 6625SOL    HW220775   6.228   1.109   6.402
 6626SOL     OW20776   3.118   5.494   3.234
 6626SOL    HW120777   3.025   5.473   3.206
 6626SOL    HW220778   3.182   5.470   3.161
 6627SOL     OW20779   1.917   0.521   6.162
 6627SOL    HW120780   1.863   0.541   6.244
 6627SOL    HW220781   1.962   0.432   6.172
 6628SOL     OW20782   4.584   4.964   2.332
 6628SOL    HW120783   4.602   5.043   2.274
 6628SOL    HW220784   4.499   4.979   2.383
 6629SOL     OW20785   3.068   5.929   1.522
 6629SOL    HW120786   3.129   5.881   1.585
 6629SOL    HW220787   3.055   6.023   1.554
 6630SOL     OW20788   3.634   1.242   0.269
 6630SOL    HW120789   3.707   1.195   0.319
 6630SOL    HW220790   3.642   1.341   0.284
 6631SOL     OW20791   4.714   0.162   2.114
 6631SOL    HW120792   4.752   0.254   2.122
 6631SOL    HW220793   4.783   0.102   2.072
 6632SOL     OW20794   0.037   1.648   0.558
 6632SOL    HW120795   6.968   1.675   0.579
 6632SOL    HW220796   0.092   1.651   0.641
 6633SOL     OW20797   1.136   5.886   6.374
 6633SOL    HW120798   1.157   5.789   6.372
 6633SOL    HW220799   1.221   5.939   6.377
 6634SOL     OW20800   6.408   3.563   5.943
 6634SOL    HW120801   6.461   3.569   6.028
 6634SOL    HW220802   6.320   3.519   5.961
 6635SOL     OW20803   4.367   4.988   3.670
 6635SOL    HW120804   4.451   5.040   3.650
 6635SOL    HW220805   4.352   4.987   3.768
 6636SOL     OW20806   1.288   3.058   5.379
 6636SOL    HW120807   1.296   3.158   5.372
 6636SOL    HW220808   1.361   3.015   5.326
 6637SOL     OW20809   1.309   0.736   0.672
 6637SOL    HW120810   1.367   0.816   0.685
 6637SOL    HW220811   1.358   0.654   0.702
 6638SOL     OW20812   1.924   5.143   4.721
 6638SOL    HW120813   1.946   5.047   4.705
 6638SOL    HW220814   1.989   5.181   4.787
 6639SOL     OW20815   5.780   4.867   6.558
 6639SOL    HW120816   5.792   4.939   6.489
 6639SOL    HW220817   5.699   4.888   6.613
 6640SOL     OW20818   6.842   1.758   3.992
 6640SOL    HW120819   6.865   1.830   3.927
 6640SOL    HW220820   6.893   1.675   3.968
 6641SOL     OW20821   3.513   3.902   6.601
 6641SOL    HW120822   3.416   3.888   6.616
 6641SOL    HW220823   3.539   3.870   6.510
 6642SOL     OW20824   1.588   4.862   0.231
 6642SOL    HW120825   1.535   4.892   0.152
 6642SOL    HW220826   1.686   4.863   0.208
 6643SOL     OW20827   6.156   4.332   6.067
 6643SOL    HW120828   6.177   4.237   6.042
 6643SOL    HW220829   6.060   4.351   6.047
 6644SOL     OW20830   2.945   4.806   1.856
 6644SOL    HW120831   2.882   4.734   1.885
 6644SOL    HW220832   3.027   4.804   1.913
 6645SOL     OW20833   0.179   5.259   6.707
 6645SOL    HW120834   0.273   5.293   6.705
 6645SOL    HW220835   0.141   5.270   6.798
 6646SOL     OW20836   4.019   5.111   4.213
 6646SOL    HW120837   3.984   5.034   4.267
 6646SOL    HW220838   4.116   5.127   4.236
 6647SOL     OW20839   3.443   0.587   2.518
 6647SOL    HW120840   3.477   0.603   2.611
 6647SOL    HW220841   3.496   0.643   2.454
 6648SOL     OW20842   3.835   5.553   3.179
 6648SOL    HW120843   3.829   5.470   3.235
 6648SOL    HW220844   3.782   5.540   3.095
 6649SOL     OW20845   5.252   1.776   6.334
 6649SOL    HW120846   5.182   1.820   6.278
 6649SOL    HW220847   5.333   1.834   6.338
 6650SOL     OW20848   3.974   0.849   3.417
 6650SOL    HW120849   3.900   0.859   3.484
 6650SOL    HW220850   4.054   0.901   3.448
 6651SOL     OW20851   1.332   2.154   0.282
 6651SOL    HW120852   1.293   2.246   0.271
 6651SOL    HW220853   1.366   2.143   0.376
 6652SOL     OW20854   6.666   4.996   0.968
 6652SOL    HW120855   6.619   5.012   1.054
 6652SOL    HW220856   6.607   5.023   0.892
 6653SOL     OW20857   3.392   4.147   3.266
 6653SOL    HW120858   3.398   4.246   3.255
 6653SOL    HW220859   3.309   4.114   3.221
 6654SOL     OW20860   1.908   2.674   1.290
 6654SOL    HW120861   1.843   2.612   1.247
 6654SOL    HW220862   1.916   2.757   1.234
 6655SOL     OW20863   2.980   6.575   1.929
 6655SOL    HW120864   3.029   6.643   1.875
 6655SOL    HW220865   2.882   6.578   1.906
 6656SOL     OW20866   0.035   1.354   2.335
 6656SOL    HW120867   0.061   1.450   2.322
 6656SOL    HW220868   6.966   1.341   2.306
 6657SOL     OW20869   4.465   6.937   6.173
 6657SOL    HW120870   4.430   6.859   6.121
 6657SOL    HW220871   4.553   6.966   6.134
 6658SOL     OW20872   5.638   0.529   5.037
 6658SOL    HW120873   5.543   0.548   5.013
 6658SOL    HW220874   5.690   0.615   5.037
 6659SOL     OW20875   2.949   2.929   0.017
 6659SOL    HW120876   3.043   2.946   7.014
 6659SOL    HW220877   2.926   2.989   0.093
 6660SOL     OW20878   6.966   6.741   2.090
 6660SOL    HW120879   6.901   6.789   2.031
 6660SOL    HW220880   0.033   6.761   2.059
 6661SOL     OW20881   6.440   5.146   3.731
 6661SOL    HW120882   6.412   5.242   3.729
 6661SOL    HW220883   6.391   5.095   3.661
 6662SOL     OW20884   2.322   1.042   0.326
 6662SOL    HW120885   2.287   0.949   0.317
 6662SOL    HW220886   2.416   1.039   0.359
 6663SOL     OW20887   6.912   5.642   3.136
 6663SOL    HW120888   6.957   5.678   3.218
 6663SOL    HW220889   6.836   5.702   3.112
 6664SOL     OW20890   1.255   6.838   2.045
 6664SOL    HW120891   1.282   6.918   1.991
 6664SOL    HW220892   1.168   6.858   2.091
 6665SOL     OW20893   1.267   6.508   3.167
 6665SOL    HW120894   1.287   6.464   3.080
 6665SOL    HW220895   1.248   6.439   3.236
 6666SOL     OW20896   6.229   1.402   4.797
 6666SOL    HW120897   6.137   1.437   4.780
 6666SOL    HW220898   6.240   1.313   4.754
 6667SOL     OW20899   6.011   5.133   4.808
 6667SOL    HW120900   6.045   5.045   4.775
 6667SOL    HW220901   5.993   5.193   4.731
 6668SOL     OW20902   0.064   5.341   2.113
 6668SOL    HW120903   0.044   5.368   2.208
 6668SOL    HW220904   0.162   5.332   2.101
 6669SOL     OW20905   2.323   4.728   3.361
 6669SOL    HW120906   2.228   4.745   3.333
 6669SOL    HW220907   2.363   4.659   3.301
 6670SOL     OW20908   3.201   5.130   0.034
 6670SOL    HW120909   3.295   5.118   0.004
 6670SOL    HW220910   3.139   5.080   7.000
 6671SOL     OW20911   5.977   4.535   6.688
 6671SOL    HW120912   6.075   4.515   6.689
 6671SOL    HW220913   5.943   4.539   6.782
 6672SOL     OW20914   1.839   0.492   5.788
 6672SOL    HW120915   1.807   0.543   5.868
 6672SOL    HW220916   1.831   0.394   5.805
 6673SOL     OW20917   4.615   5.178   2.166
 6673SOL    HW120918   4.687   5.118   2.132
 6673SOL    HW220919   4.629   5.271   2.132
 6674SOL     OW20920   0.459   5.534   5.427
 6674SOL    HW120921   0.394   5.563   5.357
 6674SOL    HW220922   0.448   5.592   5.508
 6675SOL     OW20923   5.249   4.014   0.282
 6675SOL    HW120924   5.221   4.067   0.202
 6675SOL    HW220925   5.300   4.073   0.344
 6676SOL     OW20926   0.691   3.290   5.461
 6676SOL    HW120927   0.669   3.228   5.536
 6676SOL    HW220928   0.775   3.259   5.416
 6677SOL     OW20929   0.253   3.272   0.504
 6677SOL    HW120930   0.301   3.332   0.439
 6677SOL    HW220931   0.162   3.308   0.521
 6678SOL     OW20932   1.417   2.975   6.726
 6678SOL    HW120933   1.336   2.961   6.669
 6678SOL    HW220934   1.396   2.953   6.821
 6679SOL     OW20935   1.401   2.122   5.248
 6679SOL    HW120936   1.380   2.051   5.181
 6679SOL    HW220937   1.401   2.082   5.340
 6680SOL     OW20938   3.817   5.835   6.340
 6680SOL    HW120939   3.796   5.738   6.325
 6680SOL    HW220940   3.827   5.852   6.438
 6681SOL     OW20941   5.714   5.328   7.000
 6681SOL    HW120942   5.751   5.412   0.013
 6681SOL    HW220943   5.680   5.269   0.047
 6682SOL     OW20944   0.227   5.112   2.415
 6682SOL    HW120945   0.308   5.127   2.359
 6682SOL    HW220946   0.239   5.029   2.469
 6683SOL     OW20947   5.127   2.011   5.334
 6683SOL    HW120948   5.038   1.974   5.361
 6683SOL    HW220949   5.198   1.973   5.394
 6684SOL     OW20950   1.800   6.858   2.674
 6684SOL    HW120951   1.837   6.824   2.761
 6684SOL    HW220952   1.874   6.866   2.607
 6685SOL     OW20953   5.285   2.414   6.687
 6685SOL    HW120954   5.196   2.444   6.653
 6685SOL    HW220955   5.357   2.449   6.627
 6686SOL     OW20956   5.942   4.056   4.404
 6686SOL    HW120957   5.918   3.959   4.393
 6686SOL    HW220958   6.027   4.063   4.457
 6687SOL     OW20959   1.160   1.441   0.886
 6687SOL    HW120960   1.062   1.458   0.882
 6687SOL    HW220961   1.195   1.428   0.793
 6688SOL     OW20962   0.223   4.637   2.863
 6688SOL    HW120963   0.311   4.672   2.896
 6688SOL    HW220964   0.153   4.652   2.932
 6689SOL     OW20965   4.766   3.475   0.721
 6689SOL    HW120966   4.791   3.568   0.747
 6689SOL    HW220967   4.736   3.475   0.625
 6690SOL     OW20968   2.604   2.640   1.303
 6690SOL    HW120969   2.552   2.555   1.297
 6690SOL    HW220970   2.693   2.628   1.259
 6691SOL     OW20971   2.135   5.774   1.244
 6691SOL    HW120972   2.151   5.700   1.179
 6691SOL    HW220973   2.072   5.742   1.315
 6692SOL     OW20974   3.093   4.117   5.054
 6692SOL    HW120975   3.137   4.078   5.135
 6692SOL    HW220976   3.055   4.207   5.077
 6693SOL     OW20977   4.552   3.935   5.598
 6693SOL    HW120978   4.532   4.011   5.535
 6693SOL    HW220979   4.529   3.849   5.553
 6694SOL     OW20980   4.615   6.488   0.611
 6694SOL    HW120981   4.714   6.501   0.604
 6694SOL    HW220982   4.595   6.437   0.694
 6695SOL     OW20983   0.899   1.412   6.674
 6695SOL    HW120984   0.923   1.443   6.766
 6695SOL    HW220985   0.822   1.465   6.639
 6696SOL     OW20986   2.208   2.675   1.492
 6696SOL    HW120987   2.231   2.606   1.562
 6696SOL    HW220988   2.200   2.630   1.403
 6697SOL     OW20989   4.599   1.225   2.793
 6697SOL    HW120990   4.561   1.292   2.730
 6697SOL    HW220991   4.697   1.241   2.804
 6698SOL     OW20992   3.625   2.698   0.062
 6698SOL    HW120993   3.688   2.632   0.102
 6698SOL    HW220994   3.644   2.709   6.990
 6699SOL     OW20995   3.471   5.050   6.997
 6699SOL    HW120996   3.495   4.963   6.954
 6699SOL    HW220997   3.553   5.094   0.007
 6700SOL     OW20998   0.612   5.953   1.040
 6700SOL    HW120999   0.672   6.012   0.986
 6700SOL    HW221000   0.665   5.905   1.109
 6701SOL     OW21001   0.023   1.969   0.834
 6701SOL    HW121002   6.999   1.887   0.805
 6701SOL    HW221003   6.998   2.050   0.804
 6702SOL     OW21004   2.846   1.966   1.023
 6702SOL    HW121005   2.892   1.884   0.990
 6702SOL    HW221006   2.773   1.991   0.960
 6703SOL     OW21007   6.086   1.425   6.682
 6703SOL    HW121008   6.130   1.489   6.744
 6703SOL    HW221009   6.082   1.464   6.590
 6704SOL     OW21010   4.433   2.424   2.375
 6704SOL    HW121011   4.521   2.422   2.328
 6704SOL    HW221012   4.361   2.450   2.311
 6705SOL     OW21013   6.486   2.556   1.655
 6705SOL    HW121014   6.521   2.469   1.619
 6705SOL    HW221015   6.473   2.548   1.753
 6706SOL     OW21016   1.294   3.789   0.096
 6706SOL    HW121017   1.334   3.865   0.046
 6706SOL    HW221018   1.216   3.821   0.149
 6707SOL     OW21019   6.200   5.519   4.350
 6707SOL    HW121020   6.208   5.614   4.379
 6707SOL    HW221021   6.141   5.514   4.269
 6708SOL     OW21022   1.323   5.004   2.347
 6708SOL    HW121023   1.370   4.964   2.425
 6708SOL    HW221024   1.356   4.961   2.263
 6709SOL     OW21025   3.736   6.843   1.947
 6709SOL    HW121026   3.659   6.816   1.890
 6709SOL    HW221027   3.709   6.836   2.043
 6710SOL     OW21028   2.868   2.357   6.170
 6710SOL    HW121029   2.839   2.298   6.245
 6710SOL    HW221030   2.796   2.423   6.150
 6711SOL     OW21031   5.212   3.689   6.428
 6711SOL    HW121032   5.194   3.611   6.368
 6711SOL    HW221033   5.181   3.773   6.383
 6712SOL     OW21034   4.093   5.508   0.773
 6712SOL    HW121035   4.065   5.458   0.691
 6712SOL    HW221036   4.057   5.462   0.854
 6713SOL     OW21037   2.598   2.251   1.501
 6713SOL    HW121038   2.650   2.328   1.539
 6713SOL    HW221039   2.660   2.193   1.448
 6714SOL     OW21040   5.236   0.047   4.462
 6714SOL    HW121041   5.173   0.112   4.505
 6714SOL    HW221042   5.244   6.992   4.520
 6715SOL     OW21043   0.541   2.029   0.797
 6715SOL    HW121044   0.566   2.072   0.884
 6715SOL    HW221045   0.617   2.038   0.732
 6716SOL     OW21046   2.121   6.399   0.900
 6716SOL    HW121047   2.084   6.455   0.827
 6716SOL    HW221048   2.051   6.383   0.970
 6717SOL     OW21049   3.164   3.436   0.400
 6717SOL    HW121050   3.162   3.478   0.491
 6717SOL    HW221051   3.254   3.396   0.383
 6718SOL     OW21052   3.396   6.755   6.851
 6718SOL    HW121053   3.314   6.703   6.826
 6718SOL    HW221054   3.477   6.713   6.809
 6719SOL     OW21055   0.423   0.005   5.694
 6719SOL    HW121056   0.345   6.977   5.660
 6719SOL    HW221057   0.481   6.974   5.751
 6720SOL     OW21058   2.126   6.232   1.777
 6720SOL    HW121059   2.193   6.232   1.703
 6720SOL    HW221060   2.101   6.138   1.800
 6721SOL     OW21061   5.378   6.399   4.219
 6721SOL    HW121062   5.466   6.357   4.196
 6721SOL    HW221063   5.374   6.491   4.179
 6722SOL     OW21064   4.299   3.386   7.004
 6722SOL    HW121065   4.280   3.408   0.073
 6722SOL    HW221066   4.307   3.287   6.993
 6723SOL     OW21067   2.553   6.838   3.525
 6723SOL    HW121068   2.498   6.773   3.473
 6723SOL    HW221069   2.651   6.818   3.511
 6724SOL     OW21070   2.967   4.662   5.415
 6724SOL    HW121071   2.933   4.615   5.333
 6724SOL    HW221072   2.890   4.685   5.474
 6725SOL     OW21073   0.707   4.645   2.665
 6725SOL    HW121074   0.756   4.635   2.578
 6725SOL    HW221075   0.633   4.578   2.669
 6726SOL     OW21076   2.304   2.862   4.440
 6726SOL    HW121077   2.236   2.917   4.490
 6726SOL    HW221078   2.310   2.771   4.483
 6727SOL     OW21079   4.896   3.400   6.273
 6727SOL    HW121080   4.904   3.459   6.192
 6727SOL    HW221081   4.843   3.319   6.250
 6728SOL     OW21082   3.793   2.032   4.279
 6728SOL    HW121083   3.885   2.060   4.250
 6728SOL    HW221084   3.734   2.024   4.198
 6729SOL     OW21085   6.656   0.783   2.550
 6729SOL    HW121086   6.751   0.811   2.533
 6729SOL    HW221087   6.623   0.826   2.634
 6730SOL     OW21088   2.738   0.869   0.235
 6730SOL    HW121089   2.803   0.802   0.200
 6730SOL    HW221090   2.706   0.927   0.160
 6731SOL     OW21091   2.484   4.365   1.303
 6731SOL    HW121092   2.419   4.294   1.332
 6731SOL    HW221093   2.550   4.382   1.376
 6732SOL     OW21094   2.266   6.772   0.831
 6732SOL    HW121095   2.184   6.771   0.888
 6732SOL    HW221096   2.272   6.687   0.780
 6733SOL     OW21097   4.471   5.923   5.830
 6733SOL    HW121098   4.533   5.867   5.884
 6733SOL    HW221099   4.380   5.922   5.872
 6734SOL     OW21100   1.554   3.193   5.575
 6734SOL    HW121101   1.561   3.267   5.509
 6734SOL    HW221102   1.644   3.152   5.590
 6735SOL     OW21103   6.881   4.908   5.891
 6735SOL    HW121104   6.904   4.924   5.987
 6735SOL    HW221105   6.783   4.924   5.877
 6736SOL     OW21106   2.817   2.979   1.596
 6736SOL    HW121107   2.838   3.043   1.670
 6736SOL    HW221108   2.754   2.909   1.630
 6737SOL     OW21109   2.172   1.417   2.494
 6737SOL    HW121110   2.200   1.512   2.502
 6737SOL    HW221111   2.229   1.360   2.553
 6738SOL     OW21112   2.578   1.448   2.829
 6738SOL    HW121113   2.503   1.435   2.894
 6738SOL    HW221114   2.663   1.413   2.869
 6739SOL     OW21115   3.971   6.245   4.913
 6739SOL    HW121116   3.946   6.164   4.860
 6739SOL    HW221117   3.978   6.324   4.851
 6740SOL     OW21118   1.557   1.392   4.359
 6740SOL    HW121119   1.526   1.314   4.305
 6740SOL    HW221120   1.549   1.371   4.457
 6741SOL     OW21121   6.635   0.773   6.092
 6741SOL    HW121122   6.694   0.707   6.045
 6741SOL    HW221123   6.618   0.851   6.032
 6742SOL     OW21124   6.404   5.794   5.455
 6742SOL    HW121125   6.347   5.875   5.462
 6742SOL    HW221126   6.500   5.820   5.468
 6743SOL     OW21127   4.026   3.581   1.296
 6743SOL    HW121128   4.084   3.654   1.332
 6743SOL    HW221129   3.950   3.565   1.359
 6744SOL     OW21130   4.165   4.537   5.813
 6744SOL    HW121131   4.209   4.461   5.861
 6744SOL    HW221132   4.223   4.618   5.820
 6745SOL     OW21133   0.637   4.736   3.260
 6745SOL    HW121134   0.731   4.724   3.292
 6745SOL    HW221135   0.623   4.832   3.234
 6746SOL     OW21136   0.249   2.049   1.200
 6746SOL    HW121137   0.275   2.016   1.290
 6746SOL    HW221138   0.272   2.147   1.192
 6747SOL     OW21139   4.828   5.631   5.063
 6747SOL    HW121140   4.858   5.710   5.117
 6747SOL    HW221141   4.819   5.657   4.967
 6748SOL     OW21142   1.011   0.857   2.673
 6748SOL    HW121143   0.923   0.880   2.713
 6748SOL    HW221144   0.998   0.784   2.605
 6749SOL     OW21145   4.550   0.448   0.089
 6749SOL    HW121146   4.648   0.455   0.067
 6749SOL    HW221147   4.517   0.357   0.065
 6750SOL     OW21148   2.660   2.365   5.040
 6750SOL    HW121149   2.627   2.432   4.974
 6750SOL    HW221150   2.618   2.276   5.020
 6751SOL     OW21151   2.592   2.546   4.801
 6751SOL    HW121152   2.551   2.499   4.722
 6751SOL    HW221153   2.538   2.627   4.823
 6752SOL     OW21154   5.488   3.062   0.372
 6752SOL    HW121155   5.398   3.064   0.415
 6752SOL    HW221156   5.558   3.080   0.441
 6753SOL     OW21157   4.398   2.079   6.313
 6753SOL    HW121158   4.373   2.085   6.217
 6753SOL    HW221159   4.405   1.983   6.340
 6754SOL     OW21160   5.980   1.633   6.377
 6754SOL    HW121161   6.076   1.615   6.396
 6754SOL    HW221162   5.972   1.709   6.313
 6755SOL     OW21163   4.954   1.938   3.791
 6755SOL    HW121164   5.005   1.862   3.751
 6755SOL    HW221165   4.993   1.960   3.881
 6756SOL     OW21166   4.813   4.952   4.112
 6756SOL    HW121167   4.880   4.881   4.089
 6756SOL    HW221168   4.758   4.972   4.031
 6757SOL     OW21169   6.262   6.336   2.067
 6757SOL    HW121170   6.357   6.352   2.097
 6757SOL    HW221171   6.219   6.270   2.128
 6758SOL     OW21172   5.454   3.039   1.913
 6758SOL    HW121173   5.444   3.024   1.815
 6758SOL    HW221174   5.472   2.952   1.958
 6759SOL     OW21175   1.004   4.963   2.837
 6759SOL    HW121176   1.033   4.874   2.872
 6759SOL    HW221177   1.027   4.971   2.740
 6760SOL     OW21178   6.792   3.869   4.236
 6760SOL    HW121179   6.834   3.935   4.299
 6760SOL    HW221180   6.820   3.777   4.263
 6761SOL     OW21181   5.011   2.735   5.524
 6761SOL    HW121182   4.916   2.704   5.534
 6761SOL    HW221183   5.044   2.713   5.432
 6762SOL     OW21184   6.620   4.385   3.549
 6762SOL    HW121185   6.563   4.312   3.513
 6762SOL    HW221186   6.705   4.390   3.498
 6763SOL     OW21187   6.407   6.698   5.579
 6763SOL    HW121188   6.421   6.790   5.615
 6763SOL    HW221189   6.401   6.633   5.654
 6764SOL     OW21190   3.030   4.066   6.578
 6764SOL    HW121191   2.936   4.059   6.545
 6764SOL    HW221192   3.056   4.162   6.585
 6765SOL     OW21193   6.146   3.996   2.230
 6765SOL    HW121194   6.104   3.971   2.317
 6765SOL    HW221195   6.101   4.078   2.193
 6766SOL     OW21196   2.244   0.269   5.624
 6766SOL    HW121197   2.159   0.295   5.577
 6766SOL    HW221198   2.301   0.350   5.636
 6767SOL     OW21199   0.212   2.594   6.533
 6767SOL    HW121200   0.145   2.525   6.507
 6767SOL    HW221201   0.168   2.662   6.593
 6768SOL     OW21202   0.126   6.861   4.090
 6768SOL    HW121203   0.170   6.930   4.032
 6768SOL    HW221204   0.029   6.855   4.066
 6769SOL     OW21205   1.865   2.850   5.689
 6769SOL    HW121206   1.767   2.859   5.703
 6769SOL    HW221207   1.908   2.819   5.774
 6770SOL     OW21208   0.329   1.746   3.405
 6770SOL    HW121209   0.241   1.753   3.358
 6770SOL    HW221210   0.313   1.726   3.502
 6771SOL     OW21211   3.985   1.986   3.420
 6771SOL    HW121212   3.939   1.904   3.453
 6771SOL    HW221213   3.959   2.003   3.325
 6772SOL     OW21214   0.095   1.642   2.285
 6772SOL    HW121215   0.083   1.730   2.240
 6772SOL    HW221216   0.167   1.590   2.240
 6773SOL     OW21217   0.660   6.304   1.872
 6773SOL    HW121218   0.630   6.221   1.827
 6773SOL    HW221219   0.748   6.288   1.917
 6774SOL     OW21220   2.237   2.492   5.821
 6774SOL    HW121221   2.190   2.446   5.897
 6774SOL    HW221222   2.217   2.444   5.736
 6775SOL     OW21223   0.495   1.942   5.053
 6775SOL    HW121224   0.508   1.929   5.151
 6775SOL    HW221225   0.560   1.885   5.003
 6776SOL     OW21226   3.173   4.080   2.636
 6776SOL    HW121227   3.202   4.117   2.724
 6776SOL    HW221228   3.237   4.110   2.565
 6777SOL     OW21229   6.020   5.166   0.058
 6777SOL    HW121230   5.980   5.117   0.136
 6777SOL    HW221231   5.962   5.244   0.035
 6778SOL     OW21232   6.672   4.989   2.612
 6778SOL    HW121233   6.724   5.066   2.648
 6778SOL    HW221234   6.732   4.930   2.559
 6779SOL     OW21235   5.642   3.887   5.624
 6779SOL    HW121236   5.681   3.855   5.710
 6779SOL    HW221237   5.621   3.985   5.630
 6780SOL     OW21238   2.935   2.069   3.063
 6780SOL    HW121239   2.932   2.155   3.014
 6780SOL    HW221240   3.027   2.053   3.098
 6781SOL     OW21241   6.684   1.643   4.186
 6781SOL    HW121242   6.734   1.628   4.272
 6781SOL    HW221243   6.737   1.706   4.128
 6782SOL     OW21244   6.931   1.406   2.897
 6782SOL    HW121245   6.886   1.439   2.980
 6782SOL    HW221246   0.003   1.395   2.915
 6783SOL     OW21247   1.567   4.864   5.032
 6783SOL    HW121248   1.590   4.863   5.129
 6783SOL    HW221249   1.472   4.833   5.019
 6784SOL     OW21250   2.419   3.776   1.536
 6784SOL    HW121251   2.454   3.869   1.540
 6784SOL    HW221252   2.366   3.757   1.619
 6785SOL     OW21253   4.871   5.658   4.786
 6785SOL    HW121254   4.830   5.729   4.729
 6785SOL    HW221255   4.947   5.696   4.838
 6786SOL     OW21256   6.200   1.907   6.758
 6786SOL    HW121257   6.122   1.969   6.761
 6786SOL    HW221258   6.176   1.821   6.803
 6787SOL     OW21259   3.862   1.892   6.340
 6787SOL    HW121260   3.830   1.906   6.247
 6787SOL    HW221261   3.941   1.830   6.339
 6788SOL     OW21262   6.300   3.816   3.000
 6788SOL    HW121263   6.365   3.868   2.944
 6788SOL    HW221264   6.207   3.843   2.977
 6789SOL     OW21265   6.186   4.090   3.887
 6789SOL    HW121266   6.207   4.019   3.954
 6789SOL    HW221267   6.267   4.109   3.831
 6790SOL     OW21268   0.475   5.050   6.243
 6790SOL    HW121269   0.405   5.011   6.302
 6790SOL    HW221270   0.436   5.067   6.152
 6791SOL     OW21271   3.265   0.551   3.391
 6791SOL    HW121272   3.204   0.473   3.406
 6791SOL    HW221273   3.344   0.522   3.336
 6792SOL     OW21274   4.150   6.946   4.948
 6792SOL    HW121275   4.088   7.024   4.960
 6792SOL    HW221276   4.197   6.928   5.034
 6793SOL     OW21277   1.916   3.953   0.091
 6793SOL    HW121278   1.834   3.900   0.114
 6793SOL    HW221279   1.956   3.919   0.006
 6794SOL     OW21280   4.713   1.698   5.870
 6794SOL    HW121281   4.719   1.757   5.789
 6794SOL    HW221282   4.655   1.619   5.849
 6795SOL     OW21283   1.236   1.194   0.953
 6795SOL    HW121284   1.169   1.120   0.954
 6795SOL    HW221285   1.189   1.282   0.940
 6796SOL     OW21286   6.244   1.094   2.862
 6796SOL    HW121287   6.241   1.043   2.776
 6796SOL    HW221288   6.340   1.111   2.887
 6797SOL     OW21289   1.156   2.765   1.339
 6797SOL    HW121290   1.156   2.757   1.438
 6797SOL    HW221291   1.201   2.850   1.312
 6798SOL     OW21292   5.683   0.049   1.498
 6798SOL    HW121293   5.782   0.042   1.486
 6798SOL    HW221294   5.639   0.044   1.408
 6799SOL     OW21295   6.251   0.774   3.275
 6799SOL    HW121296   6.305   0.704   3.322
 6799SOL    HW221297   6.168   0.794   3.328
 6800SOL     OW21298   0.008   2.103   1.733
 6800SOL    HW121299   0.091   2.124   1.786
 6800SOL    HW221300   0.001   2.168   1.657
 6801SOL     OW21301   1.151   5.610   5.600
 6801SOL    HW121302   1.238   5.644   5.637
 6801SOL    HW221303   1.140   5.514   5.625
 6802SOL     OW21304   3.302   5.207   2.030
 6802SOL    HW121305   3.202   5.204   2.032
 6802SOL    HW221306   3.338   5.114   2.033
 6803SOL     OW21307   5.418   4.758   5.908
 6803SOL    HW121308   5.346   4.724   5.847
 6803SOL    HW221309   5.506   4.754   5.861
 6804SOL     OW21310   3.419   4.937   2.743
 6804SOL    HW121311   3.415   4.966   2.839
 6804SOL    HW221312   3.498   4.979   2.699
 6805SOL     OW21313   0.178   4.122   5.091
 6805SOL    HW121314   0.203   4.066   5.170
 6805SOL    HW221315   0.234   4.205   5.090
 6806SOL     OW21316   0.124   2.189   2.155
 6806SOL    HW121317   0.122   2.205   2.253
 6806SOL    HW221318   0.059   2.251   2.110
 6807SOL     OW21319   2.960   4.017   1.891
 6807SOL    HW121320   3.059   3.999   1.894
 6807SOL    HW221321   2.910   3.934   1.915
 6808SOL     OW21322   3.595   1.093   4.524
 6808SOL    HW121323   3.497   1.077   4.509
 6808SOL    HW221324   3.627   1.037   4.600
 6809SOL     OW21325   5.691   3.398   1.050
 6809SOL    HW121326   5.598   3.421   1.020
 6809SOL    HW221327   5.696   3.300   1.069
 6810SOL     OW21328   2.638   0.233   4.703
 6810SOL    HW121329   2.632   0.330   4.725
 6810SOL    HW221330   2.547   0.195   4.692
 6811SOL     OW21331   6.768   1.327   1.057
 6811SOL    HW121332   6.686   1.360   1.104
 6811SOL    HW221333   6.804   1.400   0.999
 6812SOL     OW21334   3.473   4.096   5.211
 6812SOL    HW121335   3.445   4.055   5.125
 6812SOL    HW221336   3.397   4.091   5.276
 6813SOL     OW21337   6.050   3.774   1.670
 6813SOL    HW121338   5.963   3.770   1.719
 6813SOL    HW221339   6.070   3.869   1.644
 6814SOL     OW21340   5.190   1.145   6.877
 6814SOL    HW121341   5.274   1.176   6.834
 6814SOL    HW221342   5.113   1.201   6.844
 6815SOL     OW21343   1.666   4.879   5.600
 6815SOL    HW121344   1.759   4.912   5.583
 6815SOL    HW221345   1.669   4.785   5.632
 6816SOL     OW21346   0.761   0.841   2.807
 6816SOL    HW121347   0.744   0.851   2.905
 6816SOL    HW221348   0.675   0.828   2.759
 6817SOL     OW21349   3.821   2.054   2.208
 6817SOL    HW121350   3.770   2.108   2.141
 6817SOL    HW221351   3.916   2.044   2.177
 6818SOL     OW21352   1.954   6.859   5.295
 6818SOL    HW121353   2.021   6.785   5.286
 6818SOL    HW221354   1.963   6.901   5.385
 6819SOL     OW21355   4.957   4.536   1.972
 6819SOL    HW121356   4.989   4.509   2.063
 6819SOL    HW221357   4.872   4.489   1.951
 6820SOL     OW21358   3.150   5.897   1.919
 6820SOL    HW121359   3.058   5.909   1.883
 6820SOL    HW221360   3.169   5.968   1.986
 6821SOL     OW21361   4.049   2.723   5.370
 6821SOL    HW121362   4.086   2.665   5.296
 6821SOL    HW221363   4.040   2.817   5.337
 6822SOL     OW21364   6.878   2.708   6.411
 6822SOL    HW121365   6.914   2.623   6.448
 6822SOL    HW221366   6.783   2.695   6.382
 6823SOL     OW21367   6.358   3.348   6.222
 6823SOL    HW121368   6.419   3.425   6.238
 6823SOL    HW221369   6.268   3.382   6.193
 6824SOL     OW21370   1.034   0.185   5.749
 6824SOL    HW121371   0.973   0.265   5.750
 6824SOL    HW221372   1.039   0.146   5.841
 6825SOL     OW21373   5.838   4.391   0.548
 6825SOL    HW121374   5.871   4.473   0.595
 6825SOL    HW221375   5.816   4.321   0.615
 6826SOL     OW21376   6.369   4.614   3.941
 6826SOL    HW121377   6.425   4.590   3.862
 6826SOL    HW221378   6.416   4.587   4.025
 6827SOL     OW21379   4.198   5.721   4.566
 6827SOL    HW121380   4.113   5.716   4.619
 6827SOL    HW221381   4.180   5.761   4.477
 6828SOL     OW21382   2.841   2.204   2.797
 6828SOL    HW121383   2.743   2.195   2.813
 6828SOL    HW221384   2.858   2.225   2.701
 6829SOL     OW21385   3.757   6.936   4.159
 6829SOL    HW121386   3.735   6.859   4.099
 6829SOL    HW221387   3.766   7.019   4.103
 6830SOL     OW21388   4.819   6.681   3.087
 6830SOL    HW121389   4.748   6.611   3.089
 6830SOL    HW221390   4.777   6.771   3.075
 6831SOL     OW21391   1.747   1.455   6.095
 6831SOL    HW121392   1.847   1.456   6.096
 6831SOL    HW221393   1.715   1.420   6.007
 6832SOL     OW21394   3.423   2.575   0.249
 6832SOL    HW121395   3.354   2.525   0.196
 6832SOL    HW221396   3.511   2.570   0.201
 6833SOL     OW21397   3.373   4.948   6.100
 6833SOL    HW121398   3.431   5.021   6.137
 6833SOL    HW221399   3.305   4.921   6.168
 6834SOL     OW21400   5.377   6.513   1.185
 6834SOL    HW121401   5.476   6.516   1.173
 6834SOL    HW221402   5.346   6.597   1.229
 6835SOL     OW21403   2.478   2.149   5.001
 6835SOL    HW121404   2.384   2.143   4.969
 6835SOL    HW221405   2.483   2.122   5.098
 6836SOL     OW21406   2.224   4.432   6.105
 6836SOL    HW121407   2.170   4.454   6.186
 6836SOL    HW221408   2.201   4.340   6.073
 6837SOL     OW21409   0.583   0.540   1.851
 6837SOL    HW121410   0.568   0.608   1.779
 6837SOL    HW221411   0.659   0.568   1.909
 6838SOL     OW21412   2.878   3.855   5.095
 6838SOL    HW121413   2.971   3.891   5.096
 6838SOL    HW221414   2.848   3.842   5.000
 6839SOL     OW21415   5.820   3.037   4.300
 6839SOL    HW121416   5.822   2.952   4.353
 6839SOL    HW221417   5.778   3.020   4.211
 6840SOL     OW21418   2.740   6.970   5.521
 6840SOL    HW121419   2.707   6.881   5.552
 6840SOL    HW221420   2.799   7.010   5.591
 6841SOL     OW21421   4.289   6.140   1.089
 6841SOL    HW121422   4.387   6.131   1.107
 6841SOL    HW221423   4.275   6.198   1.009
 6842SOL     OW21424   0.416   3.949   5.929
 6842SOL    HW121425   0.329   3.903   5.944
 6842SOL    HW221426   0.491   3.890   5.960
 6843SOL     OW21427   3.612   2.128   2.388
 6843SOL    HW121428   3.682   2.115   2.318
 6843SOL    HW221429   3.615   2.222   2.422
 6844SOL     OW21430   4.426   4.580   3.799
 6844SOL    HW121431   4.422   4.647   3.725
 6844SOL    HW221432   4.390   4.492   3.767
 6845SOL     OW21433   4.620   4.742   2.135
 6845SOL    HW121434   4.551   4.678   2.100
 6845SOL    HW221435   4.576   4.805   2.200
 6846SOL     OW21436   3.528   2.878   2.354
 6846SOL    HW121437   3.605   2.942   2.361
 6846SOL    HW221438   3.549   2.810   2.284
 6847SOL     OW21439   6.300   3.716   1.515
 6847SOL    HW121440   6.385   3.700   1.566
 6847SOL    HW221441   6.229   3.748   1.578
 6848SOL     OW21442   0.723   6.615   3.449
 6848SOL    HW121443   0.772   6.540   3.404
 6848SOL    HW221444   0.747   6.618   3.546
 6849SOL     OW21445   3.374   6.609   3.863
 6849SOL    HW121446   3.419   6.692   3.895
 6849SOL    HW221447   3.436   6.558   3.803
 6850SOL     OW21448   5.461   2.896   2.229
 6850SOL    HW121449   5.382   2.872   2.284
 6850SOL    HW221450   5.457   2.993   2.205
 6851SOL     OW21451   1.337   5.306   5.337
 6851SOL    HW121452   1.398   5.240   5.294
 6851SOL    HW221453   1.357   5.398   5.303
 6852SOL     OW21454   0.400   4.230   2.007
 6852SOL    HW121455   0.448   4.286   2.075
 6852SOL    HW221456   0.371   4.288   1.930
 6853SOL     OW21457   0.949   3.545   5.172
 6853SOL    HW121458   1.024   3.483   5.196
 6853SOL    HW221459   0.872   3.531   5.234
 6854SOL     OW21460   6.336   2.165   6.628
 6854SOL    HW121461   6.269   2.092   6.639
 6854SOL    HW221462   6.306   2.245   6.680
 6855SOL     OW21463   2.627   6.426   1.323
 6855SOL    HW121464   2.653   6.335   1.291
 6855SOL    HW221465   2.683   6.495   1.277
 6856SOL     OW21466   5.902   3.693   5.330
 6856SOL    HW121467   5.830   3.665   5.393
 6856SOL    HW221468   5.863   3.708   5.239
 6857SOL     OW21469   4.142   1.526   5.543
 6857SOL    HW121470   4.147   1.624   5.524
 6857SOL    HW221471   4.052   1.504   5.581
 6858SOL     OW21472   4.026   3.131   4.789
 6858SOL    HW121473   3.961   3.120   4.864
 6858SOL    HW221474   4.100   3.065   4.799
 6859SOL     OW21475   3.768   0.238   0.783
 6859SOL    HW121476   3.793   0.334   0.789
 6859SOL    HW221477   3.673   0.226   0.811
 6860SOL     OW21478   5.446   3.390   6.788
 6860SOL    HW121479   5.452   3.480   6.744
 6860SOL    HW221480   5.435   3.402   6.887
 6861SOL     OW21481   6.529   4.926   6.928
 6861SOL    HW121482   6.429   4.929   6.938
 6861SOL    HW221483   6.571   4.928   7.019
 6862SOL     OW21484   3.341   5.579   4.030
 6862SOL    HW121485   3.324   5.588   4.129
 6862SOL    HW221486   3.368   5.485   4.010
 6863SOL     OW21487   5.350   2.673   4.277
 6863SOL    HW121488   5.266   2.719   4.307
 6863SOL    HW221489   5.427   2.737   4.286
 6864SOL     OW21490   3.521   5.803   5.031
 6864SOL    HW121491   3.510   5.901   5.016
 6864SOL    HW221492   3.612   5.786   5.071
 6865SOL     OW21493   6.353   4.900   3.968
 6865SOL    HW121494   6.433   4.927   4.021
 6865SOL    HW221495   6.347   4.800   3.965
 6866SOL     OW21496   0.001   3.353   2.242
 6866SOL    HW121497   6.942   3.372   2.193
 6866SOL    HW221498   7.008   3.349   2.341
 6867SOL     OW21499   2.405   4.301   2.300
 6867SOL    HW121500   2.466   4.268   2.229
 6867SOL    HW221501   2.398   4.400   2.295
 6868SOL     OW21502   2.063   5.549   4.748
 6868SOL    HW121503   2.100   5.587   4.663
 6868SOL    HW221504   2.134   5.494   4.792
 6869SOL     OW21505   5.776   2.593   5.408
 6869SOL    HW121506   5.752   2.509   5.361
 6869SOL    HW221507   5.837   2.573   5.484
 6870SOL     OW21508   5.652   3.526   2.518
 6870SOL    HW121509   5.693   3.435   2.508
 6870SOL    HW221510   5.563   3.518   2.563
 6871SOL     OW21511   5.355   5.756   1.039
 6871SOL    HW121512   5.347   5.822   0.965
 6871SOL    HW221513   5.322   5.797   1.124
 6872SOL     OW21514   2.129   3.480   6.639
 6872SOL    HW121515   2.032   3.471   6.659
 6872SOL    HW221516   2.143   3.552   6.571
 6873SOL     OW21517   5.771   3.733   6.132
 6873SOL    HW121518   5.831   3.690   6.065
 6873SOL    HW221519   5.722   3.661   6.182
 6874SOL     OW21520   0.701   2.786   4.707
 6874SOL    HW121521   0.625   2.734   4.667
 6874SOL    HW221522   0.787   2.758   4.664
 6875SOL     OW21523   2.846   1.339   3.622
 6875SOL    HW121524   2.790   1.358   3.702
 6875SOL    HW221525   2.932   1.390   3.629
 6876SOL     OW21526   4.113   5.911   6.943
 6876SOL    HW121527   4.143   6.006   6.941
 6876SOL    HW221528   4.182   5.855   6.990
 6877SOL     OW21529   2.185   4.435   6.916
 6877SOL    HW121530   2.150   4.525   6.941
 6877SOL    HW221531   2.211   4.385   6.998
 6878SOL     OW21532   1.646   1.342   5.416
 6878SOL    HW121533   1.571   1.363   5.478
 6878SOL    HW221534   1.733   1.344   5.466
 6879SOL     OW21535   1.739   2.409   6.673
 6879SOL    HW121536   1.676   2.359   6.614
 6879SOL    HW221537   1.686   2.470   6.733
 6880SOL     OW21538   2.124   3.883   4.632
 6880SOL    HW121539   2.118   3.875   4.533
 6880SOL    HW221540   2.142   3.792   4.672
 6881SOL     OW21541   0.006   3.814   1.989
 6881SOL    HW121542   0.080   3.813   1.922
 6881SOL    HW221543   7.025   3.724   2.032
 6882SOL     OW21544   2.212   0.262   5.251
 6882SOL    HW121545   2.147   0.337   5.241
 6882SOL    HW221546   2.255   0.268   5.341
 6883SOL     OW21547   4.295   0.263   1.563
 6883SOL    HW121548   4.220   0.304   1.614
 6883SOL    HW221549   4.285   0.164   1.562
 6884SOL     OW21550   2.060   5.856   4.103
 6884SOL    HW121551   1.984   5.811   4.150
 6884SOL    HW221552   2.107   5.916   4.167
 6885SOL     OW21553   2.757   5.531   4.355
 6885SOL    HW121554   2.788   5.458   4.416
 6885SOL    HW221555   2.792   5.515   4.263
 6886SOL     OW21556   5.829   1.383   2.803
 6886SOL    HW121557   5.767   1.306   2.816
 6886SOL    HW221558   5.923   1.349   2.799
 6887SOL     OW21559   5.596   0.535   4.496
 6887SOL    HW121560   5.668   0.537   4.427
 6887SOL    HW221561   5.600   0.449   4.546
 6888SOL     OW21562   5.728   7.010   4.662
 6888SOL    HW121563   5.802   0.036   4.618
 6888SOL    HW221564   5.741   7.011   4.761
 6889SOL     OW21565   1.441   4.390   5.794
 6889SOL    HW121566   1.378   4.440   5.734
 6889SOL    HW221567   1.413   4.294   5.799
 6890SOL     OW21568   1.610   6.995   1.528
 6890SOL    HW121569   1.663   6.911   1.539
 6890SOL    HW221570   1.646   0.023   1.452
 6891SOL     OW21571   1.121   4.544   4.184
 6891SOL    HW121572   1.169   4.459   4.164
 6891SOL    HW221573   1.080   4.580   4.099
 6892SOL     OW21574   3.056   0.970   3.685
 6892SOL    HW121575   3.108   1.050   3.715
 6892SOL    HW221576   3.112   0.914   3.624
 6893SOL     OW21577   4.647   6.053   2.966
 6893SOL    HW121578   4.664   6.071   2.869
 6893SOL    HW221579   4.663   5.957   2.985
 6894SOL     OW21580   6.453   5.132   6.747
 6894SOL    HW121581   6.524   5.081   6.795
 6894SOL    HW221582   6.367   5.123   6.797
 6895SOL     OW21583   2.960   4.985   6.646
 6895SOL    HW121584   2.991   4.980   6.551
 6895SOL    HW221585   2.941   4.893   6.681
 6896SOL     OW21586   3.229   0.780   3.534
 6896SOL    HW121587   3.316   0.774   3.583
 6896SOL    HW221588   3.218   0.699   3.477
 6897SOL     OW21589   3.478   3.798   0.634
 6897SOL    HW121590   3.437   3.830   0.548
 6897SOL    HW221591   3.440   3.850   0.710
 6898SOL     OW21592   4.099   2.081   2.104
 6898SOL    HW121593   4.127   2.164   2.055
 6898SOL    HW221594   4.080   2.009   2.038
 6899SOL     OW21595   4.643   5.986   6.672
 6899SOL    HW121596   4.615   5.891   6.658
 6899SOL    HW221597   4.598   6.044   6.604
 6900SOL     OW21598   5.277   0.335   6.391
 6900SOL    HW121599   5.188   0.304   6.358
 6900SOL    HW221600   5.272   0.432   6.416
 6901SOL     OW21601   1.653   0.074   6.669
 6901SOL    HW121602   1.621   0.013   6.596
 6901SOL    HW221603   1.729   0.031   6.718
 6902SOL     OW21604   6.978   6.506   0.719
 6902SOL    HW121605   0.052   6.514   0.725
 6902SOL    HW221606   6.950   6.418   0.757
 6903SOL     OW21607   4.446   4.479   0.574
 6903SOL    HW121608   4.415   4.383   0.572
 6903SOL    HW221609   4.441   4.513   0.668
 6904SOL     OW21610   6.487   1.693   3.504
 6904SOL    HW121611   6.541   1.631   3.448
 6904SOL    HW221612   6.399   1.652   3.525
 6905SOL     OW21613   5.814   6.277   0.913
 6905SOL    HW121614   5.847   6.370   0.928
 6905SOL    HW221615   5.886   6.223   0.870
 6906SOL     OW21616   4.330   0.499   3.192
 6906SOL    HW121617   4.241   0.457   3.213
 6906SOL    HW221618   4.316   0.588   3.151
 6907SOL     OW21619   3.560   1.537   1.694
 6907SOL    HW121620   3.658   1.524   1.710
 6907SOL    HW221621   3.544   1.547   1.596
 6908SOL     OW21622   1.649   6.585   5.392
 6908SOL    HW121623   1.710   6.524   5.442
 6908SOL    HW221624   1.689   6.607   5.303
 6909SOL     OW21625   4.493   4.296   0.113
 6909SOL    HW121626   4.493   4.396   0.123
 6909SOL    HW221627   4.513   4.272   0.018
 6910SOL     OW21628   6.598   1.785   1.798
 6910SOL    HW121629   6.626   1.699   1.839
 6910SOL    HW221630   6.679   1.843   1.782
 6911SOL     OW21631   4.212   1.373   4.768
 6911SOL    HW121632   4.299   1.326   4.774
 6911SOL    HW221633   4.139   1.307   4.751
 6912SOL     OW21634   5.556   4.909   0.774
 6912SOL    HW121635   5.648   4.948   0.777
 6912SOL    HW221636   5.549   4.836   0.841
 6913SOL     OW21637   5.422   5.148   4.719
 6913SOL    HW121638   5.424   5.223   4.785
 6913SOL    HW221639   5.332   5.144   4.676
 6914SOL     OW21640   6.123   5.460   0.852
 6914SOL    HW121641   6.080   5.522   0.786
 6914SOL    HW221642   6.197   5.507   0.899
 6915SOL     OW21643   0.737   5.083   2.565
 6915SOL    HW121644   0.702   5.155   2.624
 6915SOL    HW221645   0.777   5.124   2.483
 6916SOL     OW21646   6.192   2.808   0.098
 6916SOL    HW121647   6.243   2.850   0.174
 6916SOL    HW221648   6.100   2.846   0.095
 6917SOL     OW21649   4.979   6.016   5.967
 6917SOL    HW121650   5.077   6.014   5.985
 6917SOL    HW221651   4.952   6.109   5.942
 6918SOL     OW21652   7.017   2.981   3.545
 6918SOL    HW121653   6.965   3.061   3.515
 6918SOL    HW221654   7.013   2.974   3.644
 6919SOL     OW21655   2.042   5.991   2.977
 6919SOL    HW121656   1.951   5.973   2.939
 6919SOL    HW221657   2.107   6.007   2.902
 6920SOL     OW21658   4.825   6.405   4.392
 6920SOL    HW121659   4.897   6.471   4.369
 6920SOL    HW221660   4.736   6.443   4.368
 6921SOL     OW21661   0.159   1.174   3.703
 6921SOL    HW121662   0.081   1.115   3.723
 6921SOL    HW221663   0.218   1.129   3.636
 6922SOL     OW21664   2.290   6.578   1.019
 6922SOL    HW121665   2.306   6.643   0.944
 6922SOL    HW221666   2.221   6.511   0.990
 6923SOL     OW21667   4.669   0.787   4.292
 6923SOL    HW121668   4.714   0.871   4.261
 6923SOL    HW221669   4.572   0.804   4.305
 6924SOL     OW21670   0.240   5.741   1.556
 6924SOL    HW121671   0.254   5.816   1.620
 6924SOL    HW221672   0.162   5.760   1.497
 6925SOL     OW21673   4.285   5.993   2.901
 6925SOL    HW121674   4.265   5.950   2.988
 6925SOL    HW221675   4.296   6.092   2.914
 6926SOL     OW21676   3.158   3.093   4.344
 6926SOL    HW121677   3.151   3.047   4.433
 6926SOL    HW221678   3.240   3.061   4.296
 6927SOL     OW21679   4.507   4.212   5.917
 6927SOL    HW121680   4.515   4.115   5.894
 6927SOL    HW221681   4.431   4.253   5.866
 6928SOL     OW21682   4.984   0.884   6.343
 6928SOL    HW121683   4.899   0.913   6.299
 6928SOL    HW221684   5.036   0.964   6.372
 6929SOL     OW21685   4.318   5.612   0.634
 6929SOL    HW121686   4.363   5.701   0.644
 6929SOL    HW221687   4.247   5.602   0.704
 6930SOL     OW21688   0.532   0.145   3.206
 6930SOL    HW121689   0.523   0.057   3.253
 6930SOL    HW221690   0.522   0.131   3.107
 6931SOL     OW21691   1.919   1.190   1.741
 6931SOL    HW121692   1.860   1.193   1.822
 6931SOL    HW221693   2.006   1.235   1.762
 6932SOL     OW21694   3.023   1.928   0.500
 6932SOL    HW121695   3.094   1.860   0.520
 6932SOL    HW221696   3.011   1.988   0.579
 6933SOL     OW21697   4.038   5.647   6.068
 6933SOL    HW121698   4.059   5.679   6.160
 6933SOL    HW221699   3.986   5.562   6.072
 6934SOL     OW21700   5.205   3.300   6.691
 6934SOL    HW121701   5.296   3.342   6.697
 6934SOL    HW221702   5.136   3.371   6.679
 6935SOL     OW21703   4.477   5.817   3.443
 6935SOL    HW121704   4.525   5.783   3.524
 6935SOL    HW221705   4.513   5.772   3.362
 6936SOL     OW21706   1.034   3.344   1.265
 6936SOL    HW121707   1.002   3.431   1.228
 6936SOL    HW221708   1.006   3.269   1.204
 6937SOL     OW21709   4.787   0.020   6.090
 6937SOL    HW121710   4.829   6.994   6.014
 6937SOL    HW221711   4.737   0.098   6.053
 6938SOL     OW21712   5.320   2.786   5.455
 6938SOL    HW121713   5.243   2.768   5.394
 6938SOL    HW221714   5.320   2.882   5.482
 6939SOL     OW21715   6.815   4.343   2.442
 6939SOL    HW121716   6.737   4.399   2.472
 6939SOL    HW221717   6.782   4.267   2.387
 6940SOL     OW21718   5.044   0.396   5.775
 6940SOL    HW121719   5.098   0.386   5.691
 6940SOL    HW221720   5.056   0.488   5.812
 6941SOL     OW21721   4.067   3.566   3.697
 6941SOL    HW121722   4.068   3.657   3.738
 6941SOL    HW221723   4.128   3.506   3.749
 6942SOL     OW21724   7.006   2.623   6.963
 6942SOL    HW121725   0.039   2.628   0.019
 6942SOL    HW221726   0.035   2.593   6.885
 6943SOL     OW21727   5.502   5.647   6.012
 6943SOL    HW121728   5.585   5.648   6.067
 6943SOL    HW221729   5.510   5.712   5.937
 6944SOL     OW21730   0.949   5.248   6.065
 6944SOL    HW121731   1.047   5.247   6.046
 6944SOL    HW221732   0.914   5.154   6.065
 6945SOL     OW21733   6.653   2.926   5.851
 6945SOL    HW121734   6.680   3.022   5.854
 6945SOL    HW221735   6.553   2.920   5.850
 6946SOL     OW21736   5.674   3.834   2.472
 6946SOL    HW121737   5.662   3.849   2.374
 6946SOL    HW221738   5.695   3.737   2.488
 6947SOL     OW21739   3.188   6.839   3.046
 6947SOL    HW121740   3.111   6.777   3.063
 6947SOL    HW221741   3.259   6.790   2.995
 6948SOL     OW21742   4.936   0.455   6.490
 6948SOL    HW121743   4.842   0.477   6.516
 6948SOL    HW221744   4.979   0.536   6.449
 6949SOL     OW21745   5.066   6.633   2.999
 6949SOL    HW121746   5.123   6.706   3.039
 6949SOL    HW221747   4.970   6.650   3.021
 6950SOL     OW21748   2.299   1.429   3.365
 6950SOL    HW121749   2.231   1.418   3.292
 6950SOL    HW221750   2.298   1.523   3.398
 6951SOL     OW21751   6.713   5.773   6.002
 6951SOL    HW121752   6.626   5.783   5.953
 6951SOL    HW221753   6.746   5.679   5.990
 6952SOL     OW21754   0.449   5.161   5.144
 6952SOL    HW121755   0.532   5.208   5.115
 6952SOL    HW221756   0.465   5.063   5.147
 6953SOL     OW21757   4.823   1.083   5.790
 6953SOL    HW121758   4.816   1.107   5.693
 6953SOL    HW221759   4.796   1.162   5.846
 6954SOL     OW21760   6.566   2.776   3.300
 6954SOL    HW121761   6.579   2.715   3.378
 6954SOL    HW221762   6.540   2.723   3.219
 6955SOL     OW21763   0.204   6.123   1.975
 6955SOL    HW121764   0.149   6.043   1.953
 6955SOL    HW221765   0.176   6.160   2.064
 6956SOL     OW21766   4.335   5.305   1.488
 6956SOL    HW121767   4.319   5.211   1.459
 6956SOL    HW221768   4.382   5.355   1.416
 6957SOL     OW21769   6.984   5.098   1.351
 6957SOL    HW121770   0.030   5.141   1.295
 6957SOL    HW221771   7.026   5.032   1.414
 6958SOL     OW21772   2.729   2.913   6.282
 6958SOL    HW121773   2.664   2.890   6.211
 6958SOL    HW221774   2.701   2.872   6.369
 6959SOL     OW21775   3.568   1.816   4.727
 6959SOL    HW121776   3.600   1.810   4.822
 6959SOL    HW221777   3.590   1.906   4.690
 6960SOL     OW21778   0.205   4.583   6.714
 6960SOL    HW121779   0.123   4.590   6.770
 6960SOL    HW221780   0.279   4.635   6.758
 6961SOL     OW21781   1.150   0.829   3.478
 6961SOL    HW121782   1.132   0.868   3.568
 6961SOL    HW221783   1.068   0.782   3.445
 6962SOL     OW21784   5.033   4.817   1.497
 6962SOL    HW121785   4.982   4.902   1.506
 6962SOL    HW221786   5.004   4.753   1.568
 6963SOL     OW21787   0.010   4.946   1.778
 6963SOL    HW121788   6.991   5.024   1.822
 6963SOL    HW221789   0.035   4.878   1.847
 6964SOL     OW21790   4.279   5.280   4.684
 6964SOL    HW121791   4.289   5.189   4.644
 6964SOL    HW221792   4.236   5.341   4.618
 6965SOL     OW21793   0.053   2.938   6.021
 6965SOL    HW121794   0.042   2.840   6.010
 6965SOL    HW221795   0.009   2.967   6.106
 6966SOL     OW21796   4.844   2.201   2.752
 6966SOL    HW121797   4.864   2.170   2.845
 6966SOL    HW221798   4.919   2.173   2.691
 6967SOL     OW21799   1.205   1.735   6.002
 6967SOL    HW121800   1.284   1.674   6.001
 6967SOL    HW221801   1.126   1.688   6.041
 6968SOL     OW21802   5.034   5.921   1.569
 6968SOL    HW121803   5.028   6.020   1.577
 6968SOL    HW221804   5.008   5.879   1.655
 6969SOL     OW21805   3.442   1.682   0.467
 6969SOL    HW121806   3.478   1.700   0.376
 6969SOL    HW221807   3.480   1.596   0.502
 6970SOL     OW21808   4.716   4.498   0.557
 6970SOL    HW121809   4.734   4.498   0.656
 6970SOL    HW221810   4.618   4.484   0.542
 6971SOL     OW21811   5.736   1.560   1.804
 6971SOL    HW121812   5.780   1.494   1.864
 6971SOL    HW221813   5.742   1.528   1.709
 6972SOL     OW21814   5.418   4.755   4.070
 6972SOL    HW121815   5.348   4.729   4.137
 6972SOL    HW221816   5.375   4.772   3.981
 6973SOL     OW21817   1.730   4.658   3.995
 6973SOL    HW121818   1.736   4.733   3.929
 6973SOL    HW221819   1.806   4.594   3.980
 6974SOL     OW21820   3.337   3.836   4.106
 6974SOL    HW121821   3.416   3.824   4.045
 6974SOL    HW221822   3.350   3.782   4.189
 6975SOL     OW21823   4.068   0.557   5.614
 6975SOL    HW121824   4.026   0.468   5.627
 6975SOL    HW221825   4.125   0.580   5.693
 6976SOL     OW21826   2.359   5.266   6.694
 6976SOL    HW121827   2.430   5.292   6.628
 6976SOL    HW221828   2.269   5.293   6.659
 6977SOL     OW21829   3.208   1.595   2.517
 6977SOL    HW121830   3.237   1.676   2.569
 6977SOL    HW221831   3.132   1.619   2.457
 6978SOL     OW21832   0.651   1.151   2.207
 6978SOL    HW121833   0.553   1.133   2.203
 6978SOL    HW221834   0.688   1.156   2.114
 6979SOL     OW21835   0.464   4.475   2.681
 6979SOL    HW121836   0.453   4.421   2.764
 6979SOL    HW221837   0.377   4.519   2.657
 6980SOL     OW21838   2.132   1.116   4.082
 6980SOL    HW121839   2.165   1.022   4.087
 6980SOL    HW221840   2.035   1.117   4.056
 6981SOL     OW21841   2.212   5.281   0.500
 6981SOL    HW121842   2.254   5.363   0.539
 6981SOL    HW221843   2.141   5.248   0.562
 6982SOL     OW21844   0.576   0.178   3.950
 6982SOL    HW121845   0.580   0.078   3.945
 6982SOL    HW221846   0.490   0.210   3.912
 6983SOL     OW21847   7.004   0.385   4.424
 6983SOL    HW121848   6.973   0.412   4.333
 6983SOL    HW221849   0.053   0.319   4.416
 6984SOL     OW21850   2.191   2.008   5.694
 6984SOL    HW121851   2.259   2.027   5.766
 6984SOL    HW221852   2.231   1.946   5.627
 6985SOL     OW21853   4.671   5.808   2.703
 6985SOL    HW121854   4.643   5.806   2.799
 6985SOL    HW221855   4.740   5.879   2.690
 6986SOL     OW21856   1.613   5.913   5.640
 6986SOL    HW121857   1.542   5.954   5.583
 6986SOL    HW221858   1.626   5.968   5.723
 6987SOL     OW21859   0.416   3.107   6.561
 6987SOL    HW121860   0.502   3.088   6.608
 6987SOL    HW221861   0.367   3.180   6.610
 6988SOL     OW21862   4.889   1.389   3.915
 6988SOL    HW121863   4.797   1.360   3.888
 6988SOL    HW221864   4.926   1.325   3.981
 6989SOL     OW21865   1.146   1.928   3.506
 6989SOL    HW121866   1.173   1.873   3.586
 6989SOL    HW221867   1.200   2.012   3.503
 6990SOL     OW21868   3.869   2.968   0.204
 6990SOL    HW121869   3.849   3.039   0.273
 6990SOL    HW221870   3.955   2.990   0.159
 6991SOL     OW21871   2.726   4.670   5.549
 6991SOL    HW121872   2.663   4.730   5.597
 6991SOL    HW221873   2.677   4.592   5.512
 6992SOL     OW21874   5.900   6.403   4.088
 6992SOL    HW121875   5.975   6.357   4.135
 6992SOL    HW221876   5.880   6.490   4.134
 6993SOL     OW21877   0.210   0.276   3.210
 6993SOL    HW121878   0.223   0.208   3.137
 6993SOL    HW221879   0.118   0.314   3.203
 6994SOL     OW21880   1.868   3.212   6.248
 6994SOL    HW121881   1.944   3.267   6.282
 6994SOL    HW221882   1.828   3.160   6.323
 6995SOL     OW21883   5.603   5.453   3.229
 6995SOL    HW121884   5.663   5.527   3.199
 6995SOL    HW221885   5.556   5.414   3.150
 6996SOL     OW21886   3.276   0.040   5.321
 6996SOL    HW121887   3.192   7.014   5.335
 6996SOL    HW221888   3.274   0.084   5.231
 6997SOL     OW21889   4.268   6.191   4.909
 6997SOL    HW121890   4.177   6.222   4.880
 6997SOL    HW221891   4.263   6.094   4.932
 6998SOL     OW21892   1.843   3.706   2.650
 6998SOL    HW121893   1.797   3.786   2.611
 6998SOL    HW221894   1.778   3.632   2.661
 6999SOL     OW21895   3.097   1.931   6.214
 6999SOL    HW121896   3.065   1.913   6.121
 6999SOL    HW221897   3.103   2.029   6.230
 7000SOL     OW21898   0.996   6.149   2.576
 7000SOL    HW121899   0.986   6.101   2.663
 7000SOL    HW221900   0.916   6.207   2.559
 7001SOL     OW21901   2.230   2.926   5.969
 7001SOL    HW121902   2.172   3.002   5.998
 7001SOL    HW221903   2.177   2.841   5.968
 7002SOL     OW21904   0.775   5.401   3.275
 7002SOL    HW121905   0.862   5.352   3.266
 7002SOL    HW221906   0.714   5.348   3.334
 7003SOL     OW21907   3.065   6.539   1.037
 7003SOL    HW121908   3.088   6.543   0.940
 7003SOL    HW221909   3.074   6.631   1.077
 7004SOL     OW21910   1.307   4.082   1.348
 7004SOL    HW121911   1.233   4.077   1.281
 7004SOL    HW221912   1.281   4.032   1.431
 7005SOL     OW21913   5.330   6.097   6.878
 7005SOL    HW121914   5.320   6.186   6.833
 7005SOL    HW221915   5.425   6.068   6.873
 7006SOL     OW21916   4.623   4.449   4.635
 7006SOL    HW121917   4.604   4.498   4.719
 7006SOL    HW221918   4.651   4.355   4.657
 7007SOL     OW21919   4.296   6.281   2.937
 7007SOL    HW121920   4.287   6.315   3.030
 7007SOL    HW221921   4.207   6.248   2.905
 7008SOL     OW21922   1.782   5.097   4.280
 7008SOL    HW121923   1.878   5.073   4.291
 7008SOL    HW221924   1.725   5.023   4.317
 7009SOL     OW21925   6.809   5.698   2.282
 7009SOL    HW121926   6.809   5.600   2.304
 7009SOL    HW221927   6.715   5.732   2.283
 7010SOL     OW21928   3.407   5.174   6.504
 7010SOL    HW121929   3.374   5.156   6.597
 7010SOL    HW221930   3.469   5.252   6.506
 7011SOL     OW21931   2.829   6.835   5.888
 7011SOL    HW121932   2.739   6.803   5.918
 7011SOL    HW221933   2.895   6.760   5.895
 7012SOL     OW21934   1.344   0.025   1.907
 7012SOL    HW121935   1.302   0.089   1.842
 7012SOL    HW221936   1.443   0.033   1.903
 7013SOL     OW21937   0.966   0.302   1.280
 7013SOL    HW121938   0.993   0.214   1.320
 7013SOL    HW221939   1.044   0.365   1.282
 7014SOL     OW21940   2.800   4.399   0.950
 7014SOL    HW121941   2.775   4.487   0.991
 7014SOL    HW221942   2.900   4.391   0.947
 7015SOL     OW21943   4.878   2.380   2.363
 7015SOL    HW121944   4.883   2.433   2.448
 7015SOL    HW221945   4.908   2.437   2.287
 7016SOL     OW21946   4.367   4.861   1.549
 7016SOL    HW121947   4.301   4.857   1.623
 7016SOL    HW221948   4.331   4.919   1.476
 7017SOL     OW21949   3.182   1.769   3.729
 7017SOL    HW121950   3.093   1.809   3.752
 7017SOL    HW221951   3.208   1.795   3.637
 7018SOL     OW21952   0.342   3.706   4.732
 7018SOL    HW121953   0.253   3.745   4.757
 7018SOL    HW221954   0.349   3.700   4.632
 7019SOL     OW21955   2.808   5.742   6.880
 7019SOL    HW121956   2.805   5.778   6.973
 7019SOL    HW221957   2.840   5.813   6.817
 7020SOL     OW21958   5.967   7.019   6.723
 7020SOL    HW121959   6.043   0.013   6.661
 7020SOL    HW221960   5.922   0.078   6.748
 7021SOL     OW21961   2.422   0.678   5.841
 7021SOL    HW121962   2.429   0.666   5.940
 7021SOL    HW221963   2.460   0.767   5.815
 7022SOL     OW21964   5.243   3.678   6.866
 7022SOL    HW121965   5.196   3.624   6.936
 7022SOL    HW221966   5.261   3.770   6.902
 7023SOL     OW21967   6.159   2.979   1.484
 7023SOL    HW121968   6.218   2.943   1.556
 7023SOL    HW221969   6.158   3.078   1.488
 7024SOL     OW21970   1.595   5.892   7.023
 7024SOL    HW121971   1.514   5.900   6.965
 7024SOL    HW221972   1.677   5.909   6.968
 7025SOL     OW21973   3.060   1.873   0.038
 7025SOL    HW121974   3.075   1.933   0.117
 7025SOL    HW221975   3.117   1.792   0.046
 7026SOL     OW21976   3.939   1.627   1.501
 7026SOL    HW121977   3.999   1.604   1.425
 7026SOL    HW221978   3.849   1.653   1.466
 7027SOL     OW21979   3.686   5.609   4.107
 7027SOL    HW121980   3.640   5.669   4.041
 7027SOL    HW221981   3.781   5.596   4.080
 7028SOL     OW21982   4.572   6.089   3.416
 7028SOL    HW121983   4.500   6.100   3.484
 7028SOL    HW221984   4.599   5.993   3.410
 7029SOL     OW21985   3.706   6.294   0.369
 7029SOL    HW121986   3.697   6.197   0.343
 7029SOL    HW221987   3.796   6.327   0.342
 7030SOL     OW21988   0.119   3.397   4.973
 7030SOL    HW121989   0.127   3.487   5.016
 7030SOL    HW221990   0.203   3.345   4.989
 7031SOL     OW21991   1.827   5.750   4.231
 7031SOL    HW121992   1.760   5.820   4.206
 7031SOL    HW221993   1.786   5.687   4.297
 7032SOL     OW21994   6.256   0.765   2.889
 7032SOL    HW121995   6.291   0.843   2.837
 7032SOL    HW221996   6.333   0.712   2.925
 7033SOL     OW21997   6.935   1.191   3.995
 7033SOL    HW121998   6.855   1.160   3.942
 7033SOL    HW221999   6.977   1.269   3.949
 7034SOL     OW22000   6.414   0.562   3.358
 7034SOL    HW122001   6.507   0.547   3.392
 7034SOL    HW222002   6.363   0.476   3.361
 7035SOL     OW22003   6.940   5.675   2.737
 7035SOL    HW122004   6.959   5.773   2.738
 7035SOL    HW222005   7.009   5.627   2.791
 7036SOL     OW22006   6.592   5.280   1.838
 7036SOL    HW122007   6.676   5.228   1.852
 7036SOL    HW222008   6.547   5.249   1.754
 7037SOL     OW22009   1.308   6.166   5.768
 7037SOL    HW122010   1.316   6.107   5.688
 7037SOL    HW222011   1.212   6.170   5.796
 7038SOL     OW22012   0.967   4.556   3.681
 7038SOL    HW122013   1.028   4.619   3.633
 7038SOL    HW222014   0.873   4.587   3.672
 7039SOL     OW22015   4.095   0.958   6.052
 7039SOL    HW122016   4.152   0.917   5.981
 7039SOL    HW222017   4.103   1.058   6.047
 7040SOL     OW22018   5.026   2.524   6.596
 7040SOL    HW122019   5.017   2.622   6.613
 7040SOL    HW222020   4.947   2.492   6.544
 7041SOL     OW22021   1.669   1.731   2.832
 7041SOL    HW122022   1.700   1.679   2.752
 7041SOL    HW222023   1.738   1.799   2.855
 7042SOL     OW22024   3.912   5.655   0.132
 7042SOL    HW122025   3.816   5.656   0.104
 7042SOL    HW222026   3.950   5.747   0.123
 7043SOL     OW22027   1.996   1.957   3.418
 7043SOL    HW122028   1.915   1.897   3.415
 7043SOL    HW222029   2.051   1.942   3.336
 7044SOL     OW22030   4.795   4.850   2.763
 7044SOL    HW122031   4.731   4.922   2.790
 7044SOL    HW222032   4.779   4.825   2.668
 7045SOL     OW22033   5.714   6.279   1.327
 7045SOL    HW122034   5.702   6.183   1.304
 7045SOL    HW222035   5.811   6.298   1.346
 7046SOL     OW22036   3.942   0.588   4.695
 7046SOL    HW122037   3.913   0.609   4.601
 7046SOL    HW222038   3.962   0.673   4.744
 7047SOL     OW22039   0.883   0.776   4.032
 7047SOL    HW122040   0.904   0.792   4.129
 7047SOL    HW222041   0.939   0.702   3.998
 7048SOL     OW22042   0.169   6.459   0.929
 7048SOL    HW122043   0.208   6.402   0.856
 7048SOL    HW222044   0.182   6.413   1.017
 7049SOL     OW22045   2.433   1.081   0.596
 7049SOL    HW122046   2.498   1.076   0.520
 7049SOL    HW222047   2.451   1.164   0.649
 7050SOL     OW22048   3.087   3.905   4.609
 7050SOL    HW122049   3.059   3.939   4.699
 7050SOL    HW222050   3.019   3.840   4.575
 7051SOL     OW22051   0.265   0.377   1.794
 7051SOL    HW122052   0.181   0.332   1.823
 7051SOL    HW222053   0.319   0.402   1.874
 7052SOL     OW22054   0.104   2.325   4.478
 7052SOL    HW122055   0.181   2.301   4.419
 7052SOL    HW222056   0.126   2.406   4.531
 7053SOL     OW22057   0.506   3.871   6.716
 7053SOL    HW122058   0.599   3.836   6.707
 7053SOL    HW222059   0.502   3.964   6.680
 7054SOL     OW22060   6.127   6.760   1.960
 7054SOL    HW122061   6.197   6.714   2.013
 7054SOL    HW222062   6.142   6.743   1.863
 7055SOL     OW22063   4.492   0.407   4.372
 7055SOL    HW122064   4.563   0.476   4.386
 7055SOL    HW222065   4.534   0.320   4.347
 7056SOL     OW22066   5.923   5.067   3.537
 7056SOL    HW122067   5.841   5.122   3.552
 7056SOL    HW222068   5.940   5.059   3.439
 7057SOL     OW22069   6.844   4.756   3.464
 7057SOL    HW122070   6.887   4.691   3.402
 7057SOL    HW222071   6.913   4.818   3.501
 7058SOL     OW22072   0.809   5.190   5.272
 7058SOL    HW122073   0.733   5.207   5.334
 7058SOL    HW222074   0.781   5.211   5.178
 7059SOL     OW22075   0.857   0.314   2.616
 7059SOL    HW122076   0.918   0.371   2.672
 7059SOL    HW222077   0.776   0.367   2.590
 7060SOL     OW22078   3.551   6.371   1.765
 7060SOL    HW122079   3.531   6.274   1.754
 7060SOL    HW222080   3.504   6.406   1.846
 7061SOL     OW22081   0.721   1.235   3.037
 7061SOL    HW122082   0.803   1.292   3.030
 7061SOL    HW222083   0.747   1.143   3.068
 7062SOL     OW22084   5.627   1.427   5.232
 7062SOL    HW122085   5.655   1.475   5.148
 7062SOL    HW222086   5.679   1.463   5.310
 7063SOL     OW22087   2.010   6.975   1.522
 7063SOL    HW122088   1.982   6.885   1.556
 7063SOL    HW222089   2.000   0.017   1.595
 7064SOL     OW22090   4.243   2.254   1.913
 7064SOL    HW122091   4.277   2.219   1.825
 7064SOL    HW222092   4.158   2.305   1.898
 7065SOL     OW22093   4.393   3.910   1.430
 7065SOL    HW122094   4.453   3.885   1.353
 7065SOL    HW222095   4.316   3.847   1.432
 7066SOL     OW22096   4.166   6.788   0.371
 7066SOL    HW122097   4.259   6.804   0.405
 7066SOL    HW222098   4.111   6.870   0.387
 7067SOL     OW22099   0.881   3.466   5.732
 7067SOL    HW122100   0.902   3.497   5.825
 7067SOL    HW222101   0.888   3.544   5.669
 7068SOL     OW22102   1.682   1.979   3.357
 7068SOL    HW122103   1.706   1.893   3.402
 7068SOL    HW222104   1.659   2.047   3.427
 7069SOL     OW22105   6.767   4.182   5.503
 7069SOL    HW122106   6.737   4.129   5.424
 7069SOL    HW222107   6.747   4.131   5.587
 7070SOL     OW22108   6.424   4.479   5.088
 7070SOL    HW122109   6.390   4.569   5.062
 7070SOL    HW222110   6.402   4.413   5.015
 7071SOL     OW22111   1.334   5.803   5.259
 7071SOL    HW122112   1.421   5.823   5.305
 7071SOL    HW222113   1.343   5.718   5.207
 7072SOL     OW22114   6.462   6.448   5.700
 7072SOL    HW122115   6.541   6.509   5.708
 7072SOL    HW222116   6.466   6.378   5.772
 7073SOL     OW22117   0.054   1.021   5.460
 7073SOL    HW122118   0.002   1.104   5.477
 7073SOL    HW222119   0.027   0.982   5.372
 7074SOL     OW22120   3.336   2.405   1.566
 7074SOL    HW122121   3.338   2.377   1.470
 7074SOL    HW222122   3.264   2.354   1.613
 7075SOL     OW22123   1.959   6.125   4.470
 7075SOL    HW122124   2.022   6.073   4.413
 7075SOL    HW222125   1.900   6.063   4.521
 7076SOL     OW22126   3.737   1.613   6.474
 7076SOL    HW122127   3.670   1.685   6.493
 7076SOL    HW222128   3.813   1.622   6.538
 7077SOL     OW22129   2.432   5.676   5.444
 7077SOL    HW122130   2.412   5.708   5.536
 7077SOL    HW222131   2.528   5.647   5.439
 7078SOL     OW22132   6.405   6.924   3.214
 7078SOL    HW122133   6.450   6.967   3.136
 7078SOL    HW222134   6.466   6.857   3.256
 7079SOL     OW22135   6.436   6.313   5.956
 7079SOL    HW122136   6.462   6.386   6.020
 7079SOL    HW222137   6.442   6.225   6.002
 7080SOL     OW22138   4.329   2.235   3.968
 7080SOL    HW122139   4.293   2.187   4.049
 7080SOL    HW222140   4.426   2.215   3.957
 7081SOL     OW22141   3.184   1.661   5.662
 7081SOL    HW122142   3.090   1.686   5.639
 7081SOL    HW222143   3.213   1.711   5.743
 7082SOL     OW22144   5.664   1.749   0.038
 7082SOL    HW122145   5.695   1.700   0.119
 7082SOL    HW222146   5.571   1.721   0.015
 7083SOL     OW22147   3.476   0.818   5.832
 7083SOL    HW122148   3.533   0.862   5.902
 7083SOL    HW222149   3.408   0.883   5.798
 7084SOL     OW22150   6.625   6.059   5.768
 7084SOL    HW122151   6.616   5.961   5.782
 7084SOL    HW222152   6.587   6.108   5.847
 7085SOL     OW22153   2.401   2.733   3.201
 7085SOL    HW122154   2.476   2.784   3.157
 7085SOL    HW222155   2.440   2.660   3.257
 7086SOL     OW22156   5.420   1.118   6.739
 7086SOL    HW122157   5.503   1.146   6.690
 7086SOL    HW222158   5.434   1.026   6.777
 7087SOL     OW22159   0.366   3.688   4.461
 7087SOL    HW122160   0.323   3.624   4.397
 7087SOL    HW222161   0.465   3.686   4.448
 7088SOL     OW22162   5.146   2.795   4.375
 7088SOL    HW122163   5.064   2.810   4.430
 7088SOL    HW222164   5.139   2.847   4.290
 7089SOL     OW22165   3.495   2.090   6.270
 7089SOL    HW122166   3.496   2.114   6.368
 7089SOL    HW222167   3.423   2.022   6.253
 7090SOL     OW22168   1.927   2.029   5.353
 7090SOL    HW122169   2.001   2.088   5.319
 7090SOL    HW222170   1.917   2.041   5.452
 7091SOL     OW22171   0.168   0.829   0.467
 7091SOL    HW122172   0.239   0.872   0.523
 7091SOL    HW222173   0.087   0.811   0.524
 7092SOL     OW22174   3.966   4.075   0.659
 7092SOL    HW122175   3.870   4.089   0.683
 7092SOL    HW222176   3.975   3.990   0.606
 7093SOL     OW22177   3.430   4.176   4.429
 7093SOL    HW122178   3.385   4.263   4.449
 7093SOL    HW222179   3.528   4.182   4.450
 7094SOL     OW22180   1.037   6.570   5.695
 7094SOL    HW122181   1.097   6.608   5.624
 7094SOL    HW222182   0.960   6.522   5.652
 7095SOL     OW22183   1.545   3.602   6.300
 7095SOL    HW122184   1.507   3.642   6.217
 7095SOL    HW222185   1.615   3.534   6.276
 7096SOL     OW22186   4.586   2.157   3.873
 7096SOL    HW122187   4.643   2.112   3.942
 7096SOL    HW222188   4.644   2.206   3.808
 7097SOL     OW22189   0.367   1.418   2.414
 7097SOL    HW122190   0.434   1.488   2.439
 7097SOL    HW222191   0.338   1.431   2.320
 7098SOL     OW22192   1.671   5.720   5.883
 7098SOL    HW122193   1.591   5.760   5.929
 7098SOL    HW222194   1.747   5.784   5.886
 7099SOL     OW22195   1.620   1.279   4.857
 7099SOL    HW122196   1.536   1.281   4.911
 7099SOL    HW222197   1.691   1.229   4.907
 7100SOL     OW22198   4.883   4.206   0.902
 7100SOL    HW122199   4.901   4.123   0.851
 7100SOL    HW222200   4.968   4.260   0.909
 7101SOL     OW22201   3.094   0.132   4.667
 7101SOL    HW122202   3.057   0.079   4.590
 7101SOL    HW222203   3.186   0.164   4.643
 7102SOL     OW22204   4.148   1.369   0.898
 7102SOL    HW122205   4.115   1.291   0.952
 7102SOL    HW222206   4.186   1.336   0.812
 7103SOL     OW22207   3.551   6.453   0.172
 7103SOL    HW122208   3.596   6.385   0.230
 7103SOL    HW222209   3.466   6.414   0.136
 7104SOL     OW22210   1.661   2.867   3.151
 7104SOL    HW122211   1.747   2.872   3.101
 7104SOL    HW222212   1.646   2.954   3.200
 7105SOL     OW22213   3.278   3.358   4.416
 7105SOL    HW122214   3.246   3.270   4.381
 7105SOL    HW222215   3.224   3.432   4.375
 7106SOL     OW22216   3.720   3.217   4.770
 7106SOL    HW122217   3.751   3.132   4.812
 7106SOL    HW222218   3.628   3.204   4.733
 7107SOL     OW22219   2.965   1.256   0.297
 7107SOL    HW122220   2.996   1.164   0.320
 7107SOL    HW222221   3.042   1.320   0.299
 7108SOL     OW22222   5.129   6.208   0.826
 7108SOL    HW122223   5.199   6.241   0.889
 7108SOL    HW222224   5.067   6.146   0.874
 7109SOL     OW22225   3.910   0.214   6.063
 7109SOL    HW122226   3.980   0.144   6.050
 7109SOL    HW222227   3.832   0.174   6.111
 7110SOL     OW22228   5.080   5.204   4.065
 7110SOL    HW122229   5.084   5.196   3.965
 7110SOL    HW222230   5.168   5.237   4.100
 7111SOL     OW22231   1.396   3.621   4.145
 7111SOL    HW122232   1.419   3.531   4.183
 7111SOL    HW222233   1.474   3.656   4.093
 7112SOL     OW22234   0.913   5.932   3.953
 7112SOL    HW122235   0.975   5.959   4.028
 7112SOL    HW222236   0.820   5.964   3.974
 7113SOL     OW22237   4.016   3.883   4.604
 7113SOL    HW122238   3.959   3.872   4.523
 7113SOL    HW222239   4.111   3.858   4.582
 7114SOL     OW22240   4.560   0.969   1.768
 7114SOL    HW122241   4.584   1.064   1.788
 7114SOL    HW222242   4.492   0.937   1.833
 7115SOL     OW22243   4.784   1.918   1.357
 7115SOL    HW122244   4.798   1.820   1.354
 7115SOL    HW222245   4.830   1.956   1.438
 7116SOL     OW22246   5.118   3.740   3.782
 7116SOL    HW122247   5.057   3.744   3.703
 7116SOL    HW222248   5.161   3.829   3.797
 7117SOL     OW22249   6.368   6.173   2.850
 7117SOL    HW122250   6.298   6.245   2.849
 7117SOL    HW222251   6.389   6.146   2.756
 7118SOL     OW22252   5.186   3.973   1.121
 7118SOL    HW122253   5.127   4.054   1.122
 7118SOL    HW222254   5.213   3.952   1.027
 7119SOL     OW22255   6.092   1.326   2.853
 7119SOL    HW122256   6.167   1.260   2.848
 7119SOL    HW222257   6.114   1.405   2.796
 7120SOL     OW22258   4.900   1.485   3.662
 7120SOL    HW122259   4.909   1.446   3.753
 7120SOL    HW222260   4.805   1.510   3.645
 7121SOL     OW22261   1.963   6.927   3.648
 7121SOL    HW122262   1.913   6.993   3.592
 7121SOL    HW222263   1.976   6.964   3.740
 7122SOL     OW22264   6.747   1.324   0.195
 7122SOL    HW122265   6.770   1.417   0.222
 7122SOL    HW222266   6.827   1.282   0.151
 7123SOL     OW22267   2.461   5.602   1.244
 7123SOL    HW122268   2.390   5.581   1.312
 7123SOL    HW222269   2.507   5.687   1.270
 7124SOL     OW22270   0.327   5.243   0.329
 7124SOL    HW122271   0.405   5.188   0.358
 7124SOL    HW222272   0.337   5.337   0.362
 7125SOL     OW22273   6.370   6.673   2.077
 7125SOL    HW122274   6.382   6.765   2.113
 7125SOL    HW222275   6.395   6.671   1.980
 7126SOL     OW22276   2.198   4.147   0.534
 7126SOL    HW122277   2.231   4.069   0.586
 7126SOL    HW222278   2.181   4.224   0.596
 7127SOL     OW22279   3.095   5.760   4.292
 7127SOL    HW122280   3.185   5.766   4.335
 7127SOL    HW222281   3.086   5.671   4.247
 7128SOL     OW22282   3.392   4.441   0.663
 7128SOL    HW122283   3.455   4.368   0.637
 7128SOL    HW222284   3.303   4.401   0.687
 7129SOL     OW22285   3.104   0.918   1.084
 7129SOL    HW122286   3.194   0.959   1.098
 7129SOL    HW222287   3.103   0.867   0.998
 7130SOL     OW22288   3.099   4.993   3.717
 7130SOL    HW122289   3.155   5.075   3.731
 7130SOL    HW222290   3.029   5.012   3.649
 7131SOL     OW22291   3.119   1.744   2.104
 7131SOL    HW122292   3.142   1.724   2.009
 7131SOL    HW222293   3.202   1.769   2.154
 7132SOL     OW22294   3.891   3.814   2.964
 7132SOL    HW122295   3.855   3.762   2.887
 7132SOL    HW222296   3.916   3.906   2.934
 7133SOL     OW22297   4.949   5.818   3.129
 7133SOL    HW122298   4.968   5.883   3.203
 7133SOL    HW222299   4.891   5.744   3.163
 7134SOL     OW22300   6.345   6.192   3.964
 7134SOL    HW122301   6.300   6.252   4.031
 7134SOL    HW222302   6.322   6.222   3.872
 7135SOL     OW22303   1.188   1.496   4.150
 7135SOL    HW122304   1.112   1.447   4.107
 7135SOL    HW222305   1.274   1.448   4.130
 7136SOL     OW22306   2.284   0.864   0.581
 7136SOL    HW122307   2.326   0.952   0.603
 7136SOL    HW222308   2.197   0.855   0.630
 7137SOL     OW22309   4.771   0.870   4.566
 7137SOL    HW122310   4.722   0.854   4.480
 7137SOL    HW222311   4.755   0.964   4.597
 7138SOL     OW22312   3.232   3.430   1.124
 7138SOL    HW122313   3.229   3.448   1.222
 7138SOL    HW222314   3.252   3.334   1.108
 7139SOL     OW22315   4.840   3.113   1.718
 7139SOL    HW122316   4.858   3.210   1.733
 7139SOL    HW222317   4.782   3.077   1.792
 7140SOL     OW22318   6.626   4.205   5.026
 7140SOL    HW122319   6.587   4.170   5.111
 7140SOL    HW222320   6.553   4.233   4.964
 7141SOL     OW22321   2.915   0.486   0.693
 7141SOL    HW122322   2.817   0.476   0.705
 7141SOL    HW222323   2.948   0.421   0.625
 7142SOL     OW22324   3.954   5.832   3.681
 7142SOL    HW122325   4.043   5.786   3.671
 7142SOL    HW222326   3.960   5.902   3.752
 7143SOL     OW22327   1.698   4.323   5.914
 7143SOL    HW122328   1.627   4.358   5.853
 7143SOL    HW222329   1.786   4.324   5.867
 7144SOL     OW22330   1.249   1.629   3.008
 7144SOL    HW122331   1.293   1.706   2.963
 7144SOL    HW222332   1.163   1.608   2.962
 7145SOL     OW22333   4.307   6.830   6.689
 7145SOL    HW122334   4.321   6.768   6.766
 7145SOL    HW222335   4.395   6.851   6.646
 7146SOL     OW22336   2.909   6.646   0.685
 7146SOL    HW122337   2.905   6.732   0.736
 7146SOL    HW222338   2.818   6.623   0.651
 7147SOL     OW22339   6.979   0.386   3.333
 7147SOL    HW122340   6.948   0.292   3.321
 7147SOL    HW222341   7.015   0.398   3.425
 7148SOL     OW22342   1.180   6.314   1.607
 7148SOL    HW122343   1.202   6.357   1.520
 7148SOL    HW222344   1.186   6.214   1.598
 7149SOL     OW22345   6.243   1.052   3.579
 7149SOL    HW122346   6.183   1.027   3.655
 7149SOL    HW222347   6.219   1.144   3.547
 7150SOL     OW22348   5.230   3.010   0.535
 7150SOL    HW122349   5.290   2.971   0.605
 7150SOL    HW222350   5.235   2.954   0.452
 7151SOL     OW22351   1.879   5.908   1.001
 7151SOL    HW122352   1.957   5.967   1.025
 7151SOL    HW222353   1.802   5.930   1.061
 7152SOL     OW22354   0.780   3.289   4.850
 7152SOL    HW122355   0.743   3.270   4.759
 7152SOL    HW222356   0.805   3.203   4.894
 7153SOL     OW22357   4.485   0.487   4.955
 7153SOL    HW122358   4.544   0.567   4.946
 7153SOL    HW222359   4.503   0.424   4.879
 7154SOL     OW22360   3.597   5.457   4.317
 7154SOL    HW122361   3.619   5.528   4.250
 7154SOL    HW222362   3.652   5.376   4.298
 7155SOL     OW22363   1.544   6.218   2.119
 7155SOL    HW122364   1.559   6.182   2.027
 7155SOL    HW222365   1.587   6.157   2.186
 7156SOL     OW22366   6.473   5.207   5.085
 7156SOL    HW122367   6.477   5.184   4.988
 7156SOL    HW222368   6.381   5.192   5.119
 7157SOL     OW22369   5.984   5.711   0.423
 7157SOL    HW122370   5.967   5.799   0.378
 7157SOL    HW222371   5.896   5.670   0.448
 7158SOL     OW22372   6.998   6.587   3.345
 7158SOL    HW122373   0.067   6.618   3.351
 7158SOL    HW222374   6.943   6.656   3.299
 7159SOL     OW22375   0.582   5.217   1.064
 7159SOL    HW122376   0.511   5.223   1.135
 7159SOL    HW222377   0.545   5.171   0.984
 7160SOL     OW22378   6.502   0.256   2.011
 7160SOL    HW122379   6.519   0.242   1.913
 7160SOL    HW222380   6.578   0.307   2.051
 7161SOL     OW22381   3.735   3.170   3.714
 7161SOL    HW122382   3.759   3.082   3.672
 7161SOL    HW222383   3.813   3.232   3.710
 7162SOL     OW22384   3.415   4.938   4.041
 7162SOL    HW122385   3.327   4.904   4.008
 7162SOL    HW222386   3.400   4.998   4.120
 7163SOL     OW22387   3.552   0.206   3.527
 7163SOL    HW122388   3.634   0.193   3.582
 7163SOL    HW222389   3.576   0.245   3.439
 7164SOL     OW22390   2.305   1.142   3.171
 7164SOL    HW122391   2.369   1.181   3.237
 7164SOL    HW222392   2.324   1.045   3.160
 7165SOL     OW22393   5.808   1.361   0.568
 7165SOL    HW122394   5.828   1.283   0.627
 7165SOL    HW222395   5.757   1.430   0.620
 7166SOL     OW22396   4.507   4.615   1.046
 7166SOL    HW122397   4.535   4.558   1.123
 7166SOL    HW222398   4.560   4.700   1.045
 7167SOL     OW22399   4.745   3.714   5.389
 7167SOL    HW122400   4.728   3.651   5.314
 7167SOL    HW222401   4.837   3.698   5.426
 7168SOL     OW22402   1.016   1.285   4.064
 7168SOL    HW122403   0.949   1.212   4.049
 7168SOL    HW222404   1.049   1.318   3.975
 7169SOL     OW22405   1.638   3.381   5.888
 7169SOL    HW122406   1.556   3.325   5.906
 7169SOL    HW222407   1.705   3.326   5.839
 7170SOL     OW22408   5.684   5.008   3.344
 7170SOL    HW122409   5.646   5.049   3.428
 7170SOL    HW222410   5.745   4.932   3.369
 7171SOL     OW22411   4.276   3.022   5.598
 7171SOL    HW122412   4.310   2.935   5.635
 7171SOL    HW222413   4.300   3.097   5.659
 7172SOL     OW22414   1.756   6.582   0.941
 7172SOL    HW122415   1.700   6.662   0.920
 7172SOL    HW222416   1.768   6.574   1.040
 7173SOL     OW22417   0.217   5.646   4.240
 7173SOL    HW122418   0.199   5.741   4.269
 7173SOL    HW222419   0.131   5.603   4.213
 7174SOL     OW22420   1.882   4.843   0.314
 7174SOL    HW122421   1.874   4.883   0.406
 7174SOL    HW222422   1.932   4.756   0.321
 7175SOL     OW22423   4.971   3.713   0.327
 7175SOL    HW122424   5.057   3.763   0.339
 7175SOL    HW222425   4.973   3.630   0.384
 7176SOL     OW22426   6.853   4.651   1.790
 7176SOL    HW122427   6.830   4.554   1.786
 7176SOL    HW222428   6.944   4.662   1.830
 7177SOL     OW22429   1.028   5.809   3.557
 7177SOL    HW122430   0.999   5.716   3.535
 7177SOL    HW222431   1.108   5.833   3.501
 7178SOL     OW22432   1.256   2.820   5.058
 7178SOL    HW122433   1.198   2.803   4.979
 7178SOL    HW222434   1.249   2.743   5.122
 7179SOL     OW22435   2.966   3.760   5.544
 7179SOL    HW122436   2.943   3.850   5.508
 7179SOL    HW222437   3.013   3.707   5.473
 7180SOL     OW22438   0.558   6.313   0.079
 7180SOL    HW122439   0.570   6.366   7.021
 7180SOL    HW222440   0.618   6.349   0.151
 7181SOL     OW22441   4.251   0.715   1.212
 7181SOL    HW122442   4.293   0.696   1.301
 7181SOL    HW222443   4.214   0.630   1.175
 7182SOL     OW22444   2.069   4.191   5.554
 7182SOL    HW122445   2.114   4.145   5.478
 7182SOL    HW222446   2.094   4.288   5.555
 7183SOL     OW22447   1.511   5.049   2.848
 7183SOL    HW122448   1.490   4.988   2.924
 7183SOL    HW222449   1.446   5.125   2.847
 7184SOL     OW22450   1.213   6.262   4.130
 7184SOL    HW122451   1.251   6.348   4.097
 7184SOL    HW222452   1.231   6.190   4.063
 7185SOL     OW22453   4.808   3.160   6.630
 7185SOL    HW122454   4.757   3.130   6.710
 7185SOL    HW222455   4.799   3.259   6.620
 7186SOL     OW22456   6.687   6.373   5.282
 7186SOL    HW122457   6.616   6.443   5.270
 7186SOL    HW222458   6.643   6.283   5.293
 7187SOL     OW22459   1.444   4.223   1.951
 7187SOL    HW122460   1.521   4.283   1.971
 7187SOL    HW222461   1.416   4.235   1.856
 7188SOL     OW22462   5.102   0.305   2.034
 7188SOL    HW122463   5.139   0.373   1.972
 7188SOL    HW222464   5.173   0.277   2.099
 7189SOL     OW22465   6.959   1.076   5.894
 7189SOL    HW122466   6.970   1.154   5.833
 7189SOL    HW222467   6.866   1.039   5.886
 7190SOL     OW22468   5.430   4.072   2.708
 7190SOL    HW122469   5.414   4.074   2.807
 7190SOL    HW222470   5.393   3.986   2.671
 7191SOL     OW22471   1.175   3.676   2.783
 7191SOL    HW122472   1.273   3.667   2.799
 7191SOL    HW222473   1.148   3.771   2.795
 7192SOL     OW22474   2.251   4.963   5.931
 7192SOL    HW122475   2.195   5.046   5.928
 7192SOL    HW222476   2.241   4.913   5.844
 7193SOL     OW22477   3.137   1.791   4.735
 7193SOL    HW122478   3.191   1.799   4.818
 7193SOL    HW222479   3.094   1.878   4.713
 7194SOL     OW22480   2.541   1.590   1.334
 7194SOL    HW122481   2.616   1.648   1.303
 7194SOL    HW222482   2.464   1.647   1.365
 7195SOL     OW22483   0.219   5.267   0.669
 7195SOL    HW122484   0.275   5.221   0.737
 7195SOL    HW222485   0.151   5.324   0.715
 7196SOL     OW22486   3.079   3.586   2.681
 7196SOL    HW122487   3.061   3.682   2.659
 7196SOL    HW222488   3.027   3.527   2.620
 7197SOL     OW22489   7.011   1.462   4.743
 7197SOL    HW122490   0.032   1.441   4.829
 7197SOL    HW222491   7.024   1.558   4.719
 7198SOL     OW22492   1.725   6.683   5.770
 7198SOL    HW122493   1.692   6.589   5.764
 7198SOL    HW222494   1.697   6.733   5.688
 7199SOL     OW22495   0.168   1.038   2.686
 7199SOL    HW122496   0.237   1.076   2.624
 7199SOL    HW222497   0.211   0.974   2.749
 7200SOL     OW22498   2.561   0.930   0.781
 7200SOL    HW122499   2.507   0.962   0.703
 7200SOL    HW222500   2.509   0.943   0.865
 7201SOL     OW22501   1.464   4.380   3.189
 7201SOL    HW122502   1.525   4.450   3.225
 7201SOL    HW222503   1.384   4.424   3.148
 7202SOL     OW22504   4.340   0.166   6.262
 7202SOL    HW122505   4.376   0.080   6.226
 7202SOL    HW222506   4.382   0.185   6.351
 7203SOL     OW22507   5.865   0.232   0.512
 7203SOL    HW122508   5.826   0.319   0.484
 7203SOL    HW222509   5.964   0.233   0.496
 7204SOL     OW22510   6.069   0.768   3.510
 7204SOL    HW122511   6.008   0.693   3.539
 7204SOL    HW222512   6.077   0.834   3.585
 7205SOL     OW22513   1.823   5.271   2.917
 7205SOL    HW122514   1.866   5.230   2.997
 7205SOL    HW222515   1.798   5.199   2.852
 7206SOL     OW22516   0.064   1.663   1.047
 7206SOL    HW122517   0.056   1.566   1.024
 7206SOL    HW222518   0.001   1.685   1.121
 7207SOL     OW22519   3.186   6.534   1.414
 7207SOL    HW122520   3.238   6.575   1.339
 7207SOL    HW222521   3.095   6.508   1.380
 7208SOL     OW22522   3.367   0.111   5.064
 7208SOL    HW122523   3.441   0.069   5.011
 7208SOL    HW222524   3.390   0.206   5.084
 7209SOL     OW22525   4.109   3.348   3.844
 7209SOL    HW122526   4.052   3.368   3.923
 7209SOL    HW222527   4.069   3.271   3.793
 7210SOL     OW22528   4.409   1.163   4.027
 7210SOL    HW122529   4.415   1.069   3.993
 7210SOL    HW222530   4.366   1.220   3.958
 7211SOL     OW22531   1.038   5.928   4.194
 7211SOL    HW122532   1.104   5.989   4.238
 7211SOL    HW222533   0.950   5.934   4.242
 7212SOL     OW22534   6.328   5.391   4.581
 7212SOL    HW122535   6.373   5.480   4.583
 7212SOL    HW222536   6.240   5.399   4.534
 7213SOL     OW22537   5.400   0.471   5.539
 7213SOL    HW122538   5.452   0.450   5.456
 7213SOL    HW222539   5.307   0.500   5.514
 7214SOL     OW22540   2.582   5.637   4.640
 7214SOL    HW122541   2.593   5.650   4.541
 7214SOL    HW222542   2.640   5.701   4.689
 7215SOL     OW22543   0.829   3.446   4.166
 7215SOL    HW122544   0.780   3.526   4.131
 7215SOL    HW222545   0.881   3.403   4.093
 7216SOL     OW22546   2.244   6.724   0.227
 7216SOL    HW122547   2.320   6.663   0.249
 7216SOL    HW222548   2.160   6.671   0.219
 7217SOL     OW22549   1.298   4.104   2.299
 7217SOL    HW122550   1.304   4.113   2.398
 7217SOL    HW222551   1.375   4.049   2.266
 7218SOL     OW22552   4.435   1.982   5.783
 7218SOL    HW122553   4.520   1.937   5.755
 7218SOL    HW222554   4.359   1.918   5.774
 7219SOL     OW22555   4.283   6.370   3.219
 7219SOL    HW122556   4.225   6.357   3.300
 7219SOL    HW222557   4.358   6.303   3.221
 7220SOL     OW22558   6.412   1.354   2.663
 7220SOL    HW122559   6.349   1.426   2.693
 7220SOL    HW222560   6.502   1.392   2.647
 7221SOL     OW22561   5.571   4.166   5.617
 7221SOL    HW122562   5.480   4.139   5.589
 7221SOL    HW222563   5.566   4.251   5.671
 7222SOL     OW22564   6.718   6.646   1.282
 7222SOL    HW122565   6.756   6.635   1.191
 7222SOL    HW222566   6.623   6.677   1.275
 7223SOL     OW22567   3.299   1.176   6.417
 7223SOL    HW122568   3.200   1.182   6.416
 7223SOL    HW222569   3.338   1.244   6.354
 7224SOL     OW22570   5.517   0.772   4.625
 7224SOL    HW122571   5.533   0.677   4.599
 7224SOL    HW222572   5.430   0.803   4.587
 7225SOL     OW22573   1.865   5.739   0.079
 7225SOL    HW122574   1.863   5.755   0.177
 7225SOL    HW222575   1.802   5.666   0.055
 7226SOL     OW22576   0.599   6.903   0.337
 7226SOL    HW122577   0.556   6.905   0.427
 7226SOL    HW222578   0.619   6.996   0.307
 7227SOL     OW22579   0.509   2.416   6.841
 7227SOL    HW122580   0.438   2.355   6.805
 7227SOL    HW222581   0.581   2.361   6.883
 7228SOL     OW22582   6.829   0.129   2.012
 7228SOL    HW122583   6.738   0.138   1.973
 7228SOL    HW222584   6.888   0.202   1.978
 7229SOL     OW22585   1.620   6.717   4.411
 7229SOL    HW122586   1.710   6.730   4.453
 7229SOL    HW222587   1.613   6.623   4.376
 7230SOL     OW22588   4.664   5.314   3.856
 7230SOL    HW122589   4.734   5.384   3.845
 7230SOL    HW222590   4.591   5.348   3.916
 7231SOL     OW22591   5.966   1.610   6.092
 7231SOL    HW122592   5.875   1.583   6.061
 7231SOL    HW222593   5.978   1.581   6.187
 7232SOL     OW22594   4.520   4.412   2.312
 7232SOL    HW122595   4.542   4.434   2.407
 7232SOL    HW222596   4.468   4.327   2.309
 7233SOL     OW22597   0.450   2.941   5.725
 7233SOL    HW122598   0.387   2.896   5.660
 7233SOL    HW222599   0.524   2.878   5.748
 7234SOL     OW22600   6.420   2.145   1.649
 7234SOL    HW122601   6.466   2.234   1.654
 7234SOL    HW222602   6.385   2.131   1.556
 7235SOL     OW22603   5.134   3.747   4.837
 7235SOL    HW122604   5.191   3.672   4.871
 7235SOL    HW222605   5.040   3.716   4.827
 7236SOL     OW22606   3.978   1.256   3.492
 7236SOL    HW122607   3.913   1.183   3.513
 7236SOL    HW222608   3.938   1.345   3.517
 7237SOL     OW22609   5.927   5.808   5.767
 7237SOL    HW122610   5.847   5.842   5.817
 7237SOL    HW222611   5.912   5.713   5.739
 7238SOL     OW22612   2.647   2.031   2.294
 7238SOL    HW122613   2.712   2.105   2.279
 7238SOL    HW222614   2.609   2.002   2.206
 7239SOL     OW22615   2.393   1.305   2.083
 7239SOL    HW122616   2.359   1.389   2.124
 7239SOL    HW222617   2.492   1.313   2.067
 7240SOL     OW22618   2.743   4.259   0.264
 7240SOL    HW122619   2.738   4.307   0.176
 7240SOL    HW222620   2.688   4.176   0.260
 7241SOL     OW22621   3.586   6.918   5.277
 7241SOL    HW122622   3.558   6.907   5.373
 7241SOL    HW222623   3.505   6.932   5.220
 7242SOL     OW22624   6.195   4.461   6.294
 7242SOL    HW122625   6.177   4.417   6.206
 7242SOL    HW222626   6.294   4.469   6.307
 7243SOL     OW22627   0.929   5.588   6.967
 7243SOL    HW122628   0.948   5.686   6.973
 7243SOL    HW222629   0.970   5.541   0.019
 7244SOL     OW22630   5.689   1.819   1.127
 7244SOL    HW122631   5.751   1.825   1.205
 7244SOL    HW222632   5.622   1.892   1.131
 7245SOL     OW22633   0.340   1.642   4.444
 7245SOL    HW122634   0.422   1.605   4.399
 7245SOL    HW222635   0.268   1.654   4.376
 7246SOL     OW22636   6.643   6.990   5.404
 7246SOL    HW122637   6.587   6.949   5.476
 7246SOL    HW222638   6.740   6.971   5.422
 7247SOL     OW22639   2.538   6.079   1.983
 7247SOL    HW122640   2.563   6.018   1.908
 7247SOL    HW222641   2.522   6.026   2.066
 7248SOL     OW22642   3.946   1.275   4.147
 7248SOL    HW122643   3.857   1.320   4.146
 7248SOL    HW222644   4.001   1.309   4.070
 7249SOL     OW22645   5.895   4.495   6.964
 7249SOL    HW122646   5.859   4.430   0.006
 7249SOL    HW222647   5.969   4.547   7.005
 7250SOL     OW22648   2.885   4.891   5.881
 7250SOL    HW122649   2.930   4.935   5.804
 7250SOL    HW222650   2.858   4.959   5.949
 7251SOL     OW22651   6.933   6.878   4.741
 7251SOL    HW122652   6.956   6.927   4.824
 7251SOL    HW222653   6.943   6.779   4.756
 7252SOL     OW22654   3.477   3.156   4.658
 7252SOL    HW122655   3.489   3.122   4.564
 7252SOL    HW222656   3.392   3.120   4.696
 7253SOL     OW22657   3.711   6.507   1.149
 7253SOL    HW122658   3.677   6.512   1.055
 7253SOL    HW222659   3.731   6.412   1.172
 7254SOL     OW22660   4.461   5.783   4.040
 7254SOL    HW122661   4.467   5.876   4.004
 7254SOL    HW222662   4.409   5.726   3.978
 7255SOL     OW22663   3.516   3.304   2.409
 7255SOL    HW122664   3.443   3.270   2.349
 7255SOL    HW222665   3.489   3.291   2.505
 7256SOL     OW22666   4.460   4.737   3.594
 7256SOL    HW122667   4.555   4.764   3.580
 7256SOL    HW222668   4.404   4.818   3.612
 7257SOL     OW22669   6.237   2.515   3.402
 7257SOL    HW122670   6.237   2.541   3.306
 7257SOL    HW222671   6.328   2.480   3.427
 7258SOL     OW22672   3.566   0.748   5.064
 7258SOL    HW122673   3.546   0.672   5.126
 7258SOL    HW222674   3.643   0.800   5.099
 7259SOL     OW22675   2.235   4.318   0.122
 7259SOL    HW122676   2.307   4.367   0.171
 7259SOL    HW222677   2.159   4.300   0.185
 7260SOL     OW22678   3.370   2.132   2.880
 7260SOL    HW122679   3.273   2.140   2.860
 7260SOL    HW222680   3.386   2.151   2.977
 7261SOL     OW22681   1.981   3.470   1.891
 7261SOL    HW122682   1.994   3.378   1.852
 7261SOL    HW222683   2.064   3.497   1.939
 7262SOL     OW22684   6.006   1.808   4.841
 7262SOL    HW122685   5.931   1.873   4.828
 7262SOL    HW222686   5.968   1.718   4.863
 7263SOL     OW22687   1.718   6.205   1.678
 7263SOL    HW122688   1.653   6.256   1.622
 7263SOL    HW222689   1.764   6.267   1.742
 7264SOL     OW22690   0.276   0.643   6.185
 7264SOL    HW122691   0.237   0.610   6.099
 7264SOL    HW222692   0.345   0.713   6.166
 7265SOL     OW22693   4.265   4.514   5.461
 7265SOL    HW122694   4.237   4.439   5.401
 7265SOL    HW222695   4.187   4.547   5.513
 7266SOL     OW22696   5.014   0.393   1.747
 7266SOL    HW122697   5.068   0.309   1.756
 7266SOL    HW222698   4.920   0.369   1.722
 7267SOL     OW22699   6.901   4.077   4.377
 7267SOL    HW122700   6.945   4.070   4.467
 7267SOL    HW222701   6.870   4.171   4.363
 7268SOL     OW22702   4.115   6.642   1.627
 7268SOL    HW122703   4.090   6.719   1.567
 7268SOL    HW222704   4.032   6.605   1.669
 7269SOL     OW22705   1.302   5.488   1.953
 7269SOL    HW122706   1.293   5.588   1.962
 7269SOL    HW222707   1.399   5.463   1.956
 7270SOL     OW22708   2.523   1.121   2.705
 7270SOL    HW122709   2.617   1.100   2.730
 7270SOL    HW222710   2.519   1.214   2.667
 7271SOL     OW22711   0.210   3.400   2.989
 7271SOL    HW122712   0.189   3.390   3.086
 7271SOL    HW222713   0.205   3.497   2.964
 7272SOL     OW22714   5.244   2.386   2.496
 7272SOL    HW122715   5.215   2.473   2.536
 7272SOL    HW222716   5.209   2.379   2.403
 7273SOL     OW22717   5.677   4.415   0.331
 7273SOL    HW122718   5.718   4.404   0.422
 7273SOL    HW222719   5.730   4.363   0.264
 7274SOL     OW22720   6.609   4.882   5.291
 7274SOL    HW122721   6.519   4.923   5.310
 7274SOL    HW222722   6.674   4.955   5.268
 7275SOL     OW22723   6.922   0.350   1.080
 7275SOL    HW122724   6.991   0.415   1.113
 7275SOL    HW222725   6.966   0.262   1.059
 7276SOL     OW22726   2.293   2.805   4.010
 7276SOL    HW122727   2.379   2.755   4.006
 7276SOL    HW222728   2.297   2.875   4.081
 7277SOL     OW22729   4.357   2.076   4.611
 7277SOL    HW122730   4.380   2.124   4.695
 7277SOL    HW222731   4.411   2.113   4.535
 7278SOL     OW22732   3.281   1.512   3.120
 7278SOL    HW122733   3.199   1.559   3.153
 7278SOL    HW222734   3.313   1.448   3.190
 7279SOL     OW22735   5.229   5.118   0.437
 7279SOL    HW122736   5.144   5.158   0.403
 7279SOL    HW222737   5.212   5.026   0.471
 7280SOL     OW22738   5.569   2.484   5.076
 7280SOL    HW122739   5.629   2.408   5.053
 7280SOL    HW222740   5.485   2.478   5.023
 7281SOL     OW22741   3.619   6.853   2.183
 7281SOL    HW122742   3.634   6.945   2.219
 7281SOL    HW222743   3.651   6.786   2.249
 7282SOL     OW22744   6.824   5.039   2.195
 7282SOL    HW122745   6.810   4.944   2.166
 7282SOL    HW222746   6.891   5.042   2.268
 7283SOL     OW22747   4.245   4.732   2.596
 7283SOL    HW122748   4.227   4.740   2.498
 7283SOL    HW222749   4.183   4.793   2.646
 7284SOL     OW22750   6.669   1.837   3.705
 7284SOL    HW122751   6.591   1.803   3.653
 7284SOL    HW222752   6.636   1.875   3.792
 7285SOL     OW22753   5.007   2.897   1.978
 7285SOL    HW122754   5.020   2.994   1.997
 7285SOL    HW222755   4.917   2.867   2.011
 7286SOL     OW22756   0.664   1.084   1.368
 7286SOL    HW122757   0.725   1.158   1.340
 7286SOL    HW222758   0.718   1.002   1.387
 7287SOL     OW22759   1.302   2.767   3.938
 7287SOL    HW122760   1.282   2.710   4.018
 7287SOL    HW222761   1.399   2.792   3.938
 7288SOL     OW22762   2.805   2.319   3.403
 7288SOL    HW122763   2.897   2.353   3.426
 7288SOL    HW222764   2.774   2.257   3.475
 7289SOL     OW22765   6.227   2.777   0.879
 7289SOL    HW122766   6.317   2.819   0.869
 7289SOL    HW222767   6.238   2.685   0.918
 7290SOL     OW22768   3.022   1.895   5.363
 7290SOL    HW122769   2.994   1.958   5.291
 7290SOL    HW222770   3.062   1.813   5.323
 7291SOL     OW22771   4.480   1.381   0.351
 7291SOL    HW122772   4.503   1.454   0.286
 7291SOL    HW222773   4.538   1.389   0.432
 7292SOL     OW22774   2.435   0.137   2.366
 7292SOL    HW122775   2.474   0.219   2.324
 7292SOL    HW222776   2.375   0.164   2.442
 7293SOL     OW22777   1.526   0.566   5.696
 7293SOL    HW122778   1.544   0.510   5.776
 7293SOL    HW222779   1.486   0.510   5.624
 7294SOL     OW22780   2.310   6.279   1.533
 7294SOL    HW122781   2.349   6.366   1.501
 7294SOL    HW222782   2.382   6.209   1.534
 7295SOL     OW22783   6.052   5.418   2.374
 7295SOL    HW122784   5.996   5.474   2.436
 7295SOL    HW222785   5.996   5.388   2.297
 7296SOL     OW22786   5.216   4.889   2.137
 7296SOL    HW122787   5.128   4.887   2.186
 7296SOL    HW222788   5.283   4.834   2.187
 7297SOL     OW22789   3.841   6.595   1.742
 7297SOL    HW122790   3.817   6.499   1.733
 7297SOL    HW222791   3.758   6.650   1.747
 7298SOL     OW22792   4.620   5.444   6.747
 7298SOL    HW122793   4.677   5.470   6.824
 7298SOL    HW222794   4.609   5.523   6.686
 7299SOL     OW22795   1.864   3.024   6.924
 7299SOL    HW122796   1.776   3.069   6.906
 7299SOL    HW222797   1.859   2.928   6.896
 7300SOL     OW22798   0.464   5.517   1.986
 7300SOL    HW122799   0.496   5.474   1.901
 7300SOL    HW222800   0.522   5.596   2.007
 7301SOL     OW22801   5.289   6.834   5.625
 7301SOL    HW122802   5.321   6.753   5.576
 7301SOL    HW222803   5.346   6.912   5.601
 7302SOL     OW22804   5.436   1.240   6.364
 7302SOL    HW122805   5.336   1.244   6.375
 7302SOL    HW222806   5.474   1.331   6.378
 7303SOL     OW22807   2.854   1.189   1.309
 7303SOL    HW122808   2.921   1.257   1.339
 7303SOL    HW222809   2.859   1.177   1.210
 7304SOL     OW22810   2.622   5.913   1.778
 7304SOL    HW122811   2.561   5.834   1.780
 7304SOL    HW222812   2.706   5.889   1.730
 7305SOL     OW22813   6.273   2.068   0.713
 7305SOL    HW122814   6.205   2.007   0.672
 7305SOL    HW222815   6.304   2.029   0.800
 7306SOL     OW22816   2.294   2.209   1.482
 7306SOL    HW122817   2.366   2.259   1.434
 7306SOL    HW222818   2.335   2.130   1.529
 7307SOL     OW22819   1.786   0.203   1.958
 7307SOL    HW122820   1.773   0.298   1.929
 7307SOL    HW222821   1.854   0.199   2.031
 7308SOL     OW22822   5.307   1.213   3.049
 7308SOL    HW122823   5.318   1.205   2.950
 7308SOL    HW222824   5.396   1.231   3.091
 7309SOL     OW22825   1.571   5.413   2.969
 7309SOL    HW122826   1.660   5.381   3.000
 7309SOL    HW222827   1.567   5.409   2.869
 7310SOL     OW22828   2.119   2.704   6.582
 7310SOL    HW122829   2.211   2.718   6.619
 7310SOL    HW222830   2.068   2.789   6.588
 7311SOL     OW22831   0.088   6.624   6.331
 7311SOL    HW122832   0.131   6.569   6.403
 7311SOL    HW222833   0.009   6.672   6.368
 7312SOL     OW22834   6.780   2.016   4.638
 7312SOL    HW122835   6.871   2.058   4.640
 7312SOL    HW222836   6.787   1.919   4.663
 7313SOL     OW22837   3.149   1.052   1.857
 7313SOL    HW122838   3.215   1.024   1.927
 7313SOL    HW222839   3.057   1.024   1.885
 7314SOL     OW22840   0.126   3.782   0.103
 7314SOL    HW122841   0.149   3.879   0.091
 7314SOL    HW222842   0.133   3.736   0.015
 7315SOL     OW22843   1.196   4.500   2.603
 7315SOL    HW122844   1.226   4.495   2.508
 7315SOL    HW222845   1.219   4.414   2.650
 7316SOL     OW22846   3.253   2.085   0.808
 7316SOL    HW122847   3.296   1.996   0.817
 7316SOL    HW222848   3.323   2.155   0.796
 7317SOL     OW22849   4.000   2.014   1.573
 7317SOL    HW122850   3.960   2.035   1.662
 7317SOL    HW222851   3.928   2.007   1.504
 7318SOL     OW22852   4.211   6.651   0.075
 7318SOL    HW122853   4.131   6.690   0.028
 7318SOL    HW222854   4.213   6.684   0.169
 7319SOL     OW22855   6.046   4.226   6.824
 7319SOL    HW122856   5.993   4.301   6.863
 7319SOL    HW222857   6.035   4.144   6.881
 7320SOL     OW22858   6.864   2.683   1.708
 7320SOL    HW122859   6.826   2.592   1.696
 7320SOL    HW222860   6.955   2.687   1.666
 7321SOL     OW22861   1.535   0.226   6.896
 7321SOL    HW122862   1.563   0.130   6.886
 7321SOL    HW222863   1.444   0.230   6.936
 7322SOL     OW22864   0.822   2.601   2.393
 7322SOL    HW122865   0.854   2.610   2.487
 7322SOL    HW222866   0.736   2.651   2.382
 7323SOL     OW22867   1.538   2.281   1.221
 7323SOL    HW122868   1.540   2.275   1.121
 7323SOL    HW222869   1.490   2.201   1.258
 7324SOL     OW22870   5.688   5.180   3.602
 7324SOL    HW122871   5.663   5.275   3.582
 7324SOL    HW222872   5.691   5.167   3.701
 7325SOL     OW22873   4.756   0.905   6.189
 7325SOL    HW122874   4.724   0.811   6.200
 7325SOL    HW222875   4.678   0.967   6.185
 7326SOL     OW22876   3.252   0.393   0.016
 7326SOL    HW122877   3.177   0.330   7.021
 7326SOL    HW222878   3.336   0.360   6.999
 7327SOL     OW22879   6.772   3.449   3.054
 7327SOL    HW122880   6.745   3.353   3.063
 7327SOL    HW222881   6.705   3.507   3.099
 7328SOL     OW22882   4.431   4.847   4.934
 7328SOL    HW122883   4.399   4.767   4.985
 7328SOL    HW222884   4.476   4.911   4.996
 7329SOL     OW22885   2.907   3.082   0.904
 7329SOL    HW122886   2.955   3.126   0.829
 7329SOL    HW222887   2.860   3.151   0.959
 7330SOL     OW22888   2.998   3.209   1.472
 7330SOL    HW122889   2.993   3.121   1.520
 7330SOL    HW222890   2.906   3.240   1.451
 7331SOL     OW22891   4.780   0.496   3.112
 7331SOL    HW122892   4.770   0.576   3.170
 7331SOL    HW222893   4.690   0.458   3.091
 7332SOL     OW22894   3.002   4.977   6.343
 7332SOL    HW122895   2.985   4.911   6.270
 7332SOL    HW222896   2.955   5.063   6.323
 7333SOL     OW22897   6.526   2.283   1.060
 7333SOL    HW122898   6.502   2.374   1.028
 7333SOL    HW222899   6.559   2.288   1.154
 7334SOL     OW22900   2.950   0.111   5.114
 7334SOL    HW122901   2.892   0.120   5.033
 7334SOL    HW222902   3.037   0.070   5.088
 7335SOL     OW22903   0.220   2.948   2.295
 7335SOL    HW122904   0.315   2.977   2.281
 7335SOL    HW222905   0.164   2.977   2.217
 7336SOL     OW22906   1.548   6.358   1.455
 7336SOL    HW122907   1.477   6.355   1.386
 7336SOL    HW222908   1.506   6.364   1.546
 7337SOL     OW22909   2.111   2.575   2.765
 7337SOL    HW122910   2.045   2.650   2.771
 7337SOL    HW222911   2.200   2.611   2.739
 7338SOL     OW22912   5.689   2.929   1.706
 7338SOL    HW122913   5.768   2.871   1.690
 7338SOL    HW222914   5.610   2.893   1.656
 7339SOL     OW22915   6.390   5.140   4.531
 7339SOL    HW122916   6.385   5.240   4.524
 7339SOL    HW222917   6.323   5.108   4.598
 7340SOL     OW22918   2.841   0.384   0.026
 7340SOL    HW122919   2.758   0.416   7.007
 7340SOL    HW222920   2.819   0.308   0.088
 7341SOL     OW22921   6.177   4.837   3.545
 7341SOL    HW122922   6.099   4.870   3.598
 7341SOL    HW222923   6.202   4.745   3.575
 7342SOL     OW22924   0.078   6.946   0.292
 7342SOL    HW122925   0.073   7.009   0.214
 7342SOL    HW222926   0.082   6.999   0.376
 7343SOL     OW22927   6.364   3.461   2.011
 7343SOL    HW122928   6.289   3.473   2.075
 7343SOL    HW222929   6.333   3.408   1.932
 7344SOL     OW22930   1.658   6.517   0.214
 7344SOL    HW122931   1.689   6.531   0.120
 7344SOL    HW222932   1.731   6.545   0.277
 7345SOL     OW22933   3.659   5.715   6.758
 7345SOL    HW122934   3.730   5.743   6.694
 7345SOL    HW222935   3.574   5.699   6.708
 7346SOL     OW22936   3.894   4.905   1.920
 7346SOL    HW122937   3.944   4.836   1.972
 7346SOL    HW222938   3.928   4.996   1.944
 7347SOL     OW22939   6.430   1.644   2.540
 7347SOL    HW122940   6.382   1.647   2.453
 7347SOL    HW222941   6.513   1.589   2.531
 7348SOL     OW22942   1.468   1.909   3.176
 7348SOL    HW122943   1.380   1.935   3.216
 7348SOL    HW222944   1.542   1.949   3.229
 7349SOL     OW22945   3.222   1.642   1.023
 7349SOL    HW122946   3.282   1.583   1.077
 7349SOL    HW222947   3.278   1.704   0.968
 7350SOL     OW22948   1.880   2.041   3.658
 7350SOL    HW122949   1.924   2.021   3.570
 7350SOL    HW222950   1.861   1.955   3.705
 7351SOL     OW22951   4.715   4.396   6.785
 7351SOL    HW122952   4.725   4.426   6.690
 7351SOL    HW222953   4.630   4.433   6.823
 7352SOL     OW22954   0.942   1.798   2.599
 7352SOL    HW122955   0.928   1.849   2.514
 7352SOL    HW222956   1.033   1.757   2.599
 7353SOL     OW22957   5.587   1.660   4.266
 7353SOL    HW122958   5.603   1.706   4.353
 7353SOL    HW222959   5.673   1.654   4.215
 7354SOL     OW22960   6.039   5.347   5.778
 7354SOL    HW122961   6.060   5.250   5.788
 7354SOL    HW222962   5.945   5.364   5.808
 7355SOL     OW22963   1.545   5.428   1.830
 7355SOL    HW122964   1.476   5.463   1.766
 7355SOL    HW222965   1.630   5.478   1.819
 7356SOL     OW22966   6.172   1.633   5.908
 7356SOL    HW122967   6.094   1.623   5.970
 7356SOL    HW222968   6.229   1.709   5.939
 7357SOL     OW22969   6.086   1.905   0.171
 7357SOL    HW122970   6.115   1.860   0.255
 7357SOL    HW222971   6.096   2.004   0.180
 7358SOL     OW22972   3.235   0.937   3.943
 7358SOL    HW122973   3.314   0.903   3.995
 7358SOL    HW222974   3.208   0.868   3.875
 7359SOL     OW22975   4.084   3.266   3.415
 7359SOL    HW122976   4.063   3.344   3.473
 7359SOL    HW222977   4.100   3.297   3.321
 7360SOL     OW22978   0.678   2.610   4.953
 7360SOL    HW122979   0.673   2.688   5.017
 7360SOL    HW222980   0.604   2.546   4.974
 7361SOL     OW22981   5.519   6.120   2.217
 7361SOL    HW122982   5.539   6.110   2.315
 7361SOL    HW222983   5.575   6.055   2.165
 7362SOL     OW22984   2.090   5.657   5.853
 7362SOL    HW122985   2.060   5.741   5.898
 7362SOL    HW222986   2.023   5.631   5.783
 7363SOL     OW22987   4.832   3.438   6.547
 7363SOL    HW122988   4.763   3.510   6.542
 7363SOL    HW222989   4.860   3.411   6.454
 7364SOL     OW22990   4.629   6.297   1.212
 7364SOL    HW122991   4.605   6.211   1.166
 7364SOL    HW222992   4.702   6.281   1.277
 7365SOL     OW22993   2.716   0.122   2.191
 7365SOL    HW122994   2.690   0.126   2.288
 7365SOL    HW222995   2.633   0.118   2.135
 7366SOL     OW22996   0.391   5.282   0.060
 7366SOL    HW122997   0.474   5.335   0.040
 7366SOL    HW222998   0.387   5.263   0.158
 7367SOL     OW22999   5.073   4.006   1.687
 7367SOL    HW123000   5.163   4.015   1.729
 7367SOL    HW223001   5.005   3.987   1.758
 7368SOL     OW23002   3.147   3.368   4.716
 7368SOL    HW123003   3.063   3.364   4.661
 7368SOL    HW223004   3.133   3.319   4.802
 7369SOL     OW23005   4.778   3.839   0.487
 7369SOL    HW123006   4.848   3.816   0.420
 7369SOL    HW223007   4.726   3.919   0.456
 7370SOL     OW23008   2.529   6.848   0.623
 7370SOL    HW123009   2.494   6.930   0.578
 7370SOL    HW223010   2.605   6.873   0.684
 7371SOL     OW23011   2.659   5.079   3.937
 7371SOL    HW123012   2.707   4.991   3.930
 7371SOL    HW223013   2.637   5.098   4.033
 7372SOL     OW23014   3.731   0.642   5.484
 7372SOL    HW123015   3.660   0.704   5.451
 7372SOL    HW223016   3.743   0.653   5.582
 7373SOL     OW23017   3.795   0.688   2.153
 7373SOL    HW123018   3.738   0.696   2.235
 7373SOL    HW223019   3.846   0.602   2.156
 7374SOL     OW23020   1.782   3.101   6.504
 7374SOL    HW123021   1.751   3.175   6.564
 7374SOL    HW223022   1.702   3.054   6.467
 7375SOL     OW23023   0.979   0.868   4.284
 7375SOL    HW123024   0.949   0.825   4.369
 7375SOL    HW223025   0.958   0.965   4.287
 7376SOL     OW23026   2.249   3.494   6.893
 7376SOL    HW123027   2.201   3.477   6.807
 7376SOL    HW223028   2.237   3.590   6.919
 7377SOL     OW23029   4.711   4.499   1.885
 7377SOL    HW123030   4.674   4.585   1.852
 7377SOL    HW223031   4.637   4.437   1.909
 7378SOL     OW23032   7.024   1.135   5.185
 7378SOL    HW123033   0.067   1.186   5.237
 7378SOL    HW223034   7.019   1.171   5.092
 7379SOL     OW23035   4.202   1.305   2.640
 7379SOL    HW123036   4.211   1.328   2.543
 7379SOL    HW223037   4.222   1.208   2.653
 7380SOL     OW23038   0.448   3.248   6.054
 7380SOL    HW123039   0.487   3.212   6.139
 7380SOL    HW223040   0.522   3.280   5.994
 7381SOL     OW23041   4.845   2.052   2.308
 7381SOL    HW123042   4.769   2.024   2.367
 7381SOL    HW223043   4.853   2.152   2.309
 7382SOL     OW23044   6.769   4.770   4.779
 7382SOL    HW123045   6.792   4.674   4.762
 7382SOL    HW223046   6.822   4.828   4.719
 7383SOL     OW23047   6.834   6.291   3.575
 7383SOL    HW123048   6.765   6.220   3.591
 7383SOL    HW223049   6.895   6.297   3.654
 7384SOL     OW23050   5.289   6.880   2.328
 7384SOL    HW123051   5.274   6.906   2.423
 7384SOL    HW223052   5.377   6.915   2.298
 7385SOL     OW23053   4.822   6.345   1.389
 7385SOL    HW123054   4.865   6.350   1.299
 7385SOL    HW223055   4.886   6.306   1.455
 7386SOL     OW23056   0.515   2.129   5.415
 7386SOL    HW123057   0.518   2.181   5.330
 7386SOL    HW223058   0.555   2.039   5.401
 7387SOL     OW23059   3.724   5.285   3.771
 7387SOL    HW123060   3.716   5.199   3.721
 7387SOL    HW223061   3.802   5.337   3.736
 7388SOL     OW23062   6.598   4.827   3.568
 7388SOL    HW123063   6.639   4.826   3.660
 7388SOL    HW223064   6.662   4.785   3.503
 7389SOL     OW23065   1.906   4.321   6.379
 7389SOL    HW123066   1.917   4.301   6.282
 7389SOL    HW223067   1.865   4.243   6.425
 7390SOL     OW23068   1.259   0.200   5.590
 7390SOL    HW123069   1.260   0.100   5.581
 7390SOL    HW223070   1.168   0.230   5.620
 7391SOL     OW23071   6.261   3.244   6.444
 7391SOL    HW123072   6.161   3.244   6.444
 7391SOL    HW223073   6.294   3.290   6.361
 7392SOL     OW23074   1.407   5.134   4.160
 7392SOL    HW123075   1.449   5.119   4.070
 7392SOL    HW223076   1.463   5.198   4.212
 7393SOL     OW23077   6.792   4.802   2.416
 7393SOL    HW123078   6.797   4.795   2.316
 7393SOL    HW223079   6.769   4.713   2.454
 7394SOL     OW23080   4.128   3.573   6.871
 7394SOL    HW123081   4.199   3.504   6.885
 7394SOL    HW223082   4.088   3.562   6.780
 7395SOL     OW23083   0.958   0.406   0.361
 7395SOL    HW123084   1.000   0.370   0.278
 7395SOL    HW223085   0.970   0.341   0.435
 7396SOL     OW23086   1.084   6.546   6.406
 7396SOL    HW123087   1.143   6.466   6.397
 7396SOL    HW223088   1.017   6.529   6.479
 7397SOL     OW23089   6.821   4.701   5.273
 7397SOL    HW123090   6.796   4.619   5.323
 7397SOL    HW223091   6.742   4.762   5.266
 7398SOL     OW23092   4.828   4.202   4.125
 7398SOL    HW123093   4.860   4.108   4.114
 7398SOL    HW223094   4.802   4.218   4.220
 7399SOL     OW23095   5.102   3.908   6.255
 7399SOL    HW123096   5.009   3.923   6.289
 7399SOL    HW223097   5.143   3.996   6.228
 7400SOL     OW23098   2.732   5.123   6.739
 7400SOL    HW123099   2.649   5.073   6.718
 7400SOL    HW223100   2.811   5.061   6.732
 7401SOL     OW23101   0.068   1.613   3.999
 7401SOL    HW123102   0.072   1.636   4.096
 7401SOL    HW223103   0.104   1.521   3.984
 7402SOL     OW23104   2.726   0.388   3.765
 7402SOL    HW123105   2.796   0.459   3.772
 7402SOL    HW223106   2.768   0.298   3.780
 7403SOL     OW23107   2.148   3.858   3.426
 7403SOL    HW123108   2.246   3.874   3.438
 7403SOL    HW223109   2.131   3.759   3.422
 7404SOL     OW23110   1.295   0.566   0.973
 7404SOL    HW123111   1.335   0.515   0.897
 7404SOL    HW223112   1.334   0.658   0.976
 7405SOL     OW23113   2.955   5.479   6.011
 7405SOL    HW123114   2.880   5.461   5.947
 7405SOL    HW223115   3.020   5.543   5.970
 7406SOL     OW23116   0.896   4.401   2.475
 7406SOL    HW123117   0.945   4.325   2.431
 7406SOL    HW223118   0.857   4.368   2.561
 7407SOL     OW23119   1.614   6.073   5.869
 7407SOL    HW123120   1.547   6.038   5.936
 7407SOL    HW223121   1.620   6.172   5.878
 7408SOL     OW23122   1.337   4.540   5.576
 7408SOL    HW123123   1.295   4.624   5.541
 7408SOL    HW223124   1.434   4.538   5.551
 7409SOL     OW23125   1.746   6.769   4.763
 7409SOL    HW123126   1.799   6.760   4.847
 7409SOL    HW223127   1.780   6.705   4.695
 7410SOL     OW23128   6.870   5.396   1.304
 7410SOL    HW123129   6.856   5.315   1.248
 7410SOL    HW223130   6.900   5.472   1.246
 7411SOL     OW23131   3.154   5.913   4.705
 7411SOL    HW123132   3.194   5.935   4.794
 7411SOL    HW223133   3.143   5.814   4.698
 7412SOL     OW23134   1.501   1.119   0.973
 7412SOL    HW123135   1.488   1.040   1.033
 7412SOL    HW223136   1.412   1.151   0.940
 7413SOL     OW23137   6.116   4.121   4.662
 7413SOL    HW123138   6.097   4.218   4.680
 7413SOL    HW223139   6.196   4.113   4.603
 7414SOL     OW23140   6.380   6.903   2.239
 7414SOL    HW123141   6.294   6.953   2.240
 7414SOL    HW223142   6.385   6.843   2.319
 7415SOL     OW23143   1.996   3.275   3.219
 7415SOL    HW123144   1.985   3.374   3.211
 7415SOL    HW223145   1.963   3.245   3.309
 7416SOL     OW23146   3.603   1.111   4.143
 7416SOL    HW123147   3.504   1.095   4.142
 7416SOL    HW223148   3.621   1.203   4.178
 7417SOL     OW23149   1.184   6.379   0.055
 7417SOL    HW123150   1.220   6.308   0.115
 7417SOL    HW223151   1.103   6.421   0.096
 7418SOL     OW23152   2.776   3.634   1.427
 7418SOL    HW123153   2.768   3.699   1.502
 7418SOL    HW223154   2.832   3.557   1.456
 7419SOL     OW23155   5.938   1.062   5.049
 7419SOL    HW123156   5.908   0.979   5.096
 7419SOL    HW223157   6.033   1.052   5.021
 7420SOL     OW23158   6.545   5.881   2.096
 7420SOL    HW123159   6.633   5.849   2.061
 7420SOL    HW223160   6.553   5.976   2.126
 7421SOL     OW23161   3.706   4.116   1.529
 7421SOL    HW123162   3.772   4.161   1.589
 7421SOL    HW223163   3.753   4.048   1.473
 7422SOL     OW23164   6.827   3.414   0.232
 7422SOL    HW123165   6.919   3.397   0.268
 7422SOL    HW223166   6.775   3.328   0.231
 7423SOL     OW23167   1.454   4.714   5.886
 7423SOL    HW123168   1.438   4.630   5.937
 7423SOL    HW223169   1.406   4.710   5.798
 7424SOL     OW23170   5.352   0.870   4.143
 7424SOL    HW123171   5.293   0.796   4.172
 7424SOL    HW223172   5.426   0.834   4.086
 7425SOL     OW23173   3.455   5.203   6.194
 7425SOL    HW123174   3.525   5.272   6.176
 7425SOL    HW223175   3.418   5.217   6.286
 7426SOL     OW23176   1.160   1.180   6.243
 7426SOL    HW123177   1.091   1.152   6.176
 7426SOL    HW223178   1.208   1.261   6.209
 7427SOL     OW23179   3.645   5.478   4.976
 7427SOL    HW123180   3.661   5.381   4.955
 7427SOL    HW223181   3.564   5.487   5.033
 7428SOL     OW23182   3.617   2.423   6.137
 7428SOL    HW123183   3.652   2.344   6.187
 7428SOL    HW223184   3.687   2.455   6.073
 7429SOL     OW23185   0.247   0.590   2.847
 7429SOL    HW123186   0.326   0.583   2.908
 7429SOL    HW223187   0.164   0.563   2.896
 7430SOL     OW23188   6.612   3.663   5.576
 7430SOL    HW123189   6.616   3.685   5.479
 7430SOL    HW223190   6.648   3.571   5.591
 7431SOL     OW23191   0.174   4.079   2.065
 7431SOL    HW123192   0.247   4.139   2.031
 7431SOL    HW223193   0.178   3.991   2.018
 7432SOL     OW23194   0.031   6.360   4.435
 7432SOL    HW123195   7.011   6.429   4.379
 7432SOL    HW223196   6.993   6.284   4.453
 7433SOL     OW23197   6.252   5.393   0.597
 7433SOL    HW123198   6.224   5.415   0.691
 7433SOL    HW223199   6.210   5.306   0.570
 7434SOL     OW23200   3.223   1.663   6.684
 7434SOL    HW123201   3.286   1.678   6.608
 7434SOL    HW223202   3.213   1.565   6.700
 7435SOL     OW23203   2.997   6.397   0.493
 7435SOL    HW123204   3.023   6.490   0.469
 7435SOL    HW223205   2.911   6.399   0.545
 7436SOL     OW23206   5.001   3.018   6.511
 7436SOL    HW123207   4.934   3.073   6.560
 7436SOL    HW223208   5.092   3.037   6.547
 7437SOL     OW23209   0.285   5.852   5.772
 7437SOL    HW123210   0.251   5.761   5.795
 7437SOL    HW223211   0.208   5.915   5.763
 7438SOL     OW23212   0.080   4.643   1.931
 7438SOL    HW123213   0.139   4.564   1.950
 7438SOL    HW223214   0.128   4.727   1.957
 7439SOL     OW23215   1.828   0.070   3.483
 7439SOL    HW123216   1.851   0.166   3.466
 7439SOL    HW223217   1.834   0.019   3.397
 7440SOL     OW23218   1.203   2.635   4.155
 7440SOL    HW123219   1.212   2.557   4.218
 7440SOL    HW223220   1.107   2.660   4.147
 7441SOL     OW23221   5.594   1.133   4.038
 7441SOL    HW123222   5.682   1.093   4.014
 7441SOL    HW223223   5.556   1.085   4.118
 7442SOL     OW23224   1.287   0.960   6.162
 7442SOL    HW123225   1.239   1.046   6.182
 7442SOL    HW223226   1.381   0.966   6.195
 7443SOL     OW23227   0.856   0.830   6.426
 7443SOL    HW123228   0.851   0.850   6.524
 7443SOL    HW223229   0.951   0.838   6.396
 7444SOL     OW23230   0.752   3.191   6.302
 7444SOL    HW123231   0.689   3.141   6.361
 7444SOL    HW223232   0.711   3.278   6.276
 7445SOL     OW23233   5.064   1.348   1.889
 7445SOL    HW123234   4.996   1.408   1.929
 7445SOL    HW223235   5.045   1.253   1.915
 7446SOL     OW23236   6.831   3.824   1.360
 7446SOL    HW123237   6.776   3.793   1.438
 7446SOL    HW223238   6.782   3.804   1.275
 7447SOL     OW23239   1.103   4.344   6.876
 7447SOL    HW123240   1.077   4.334   6.780
 7447SOL    HW223241   1.037   4.296   6.934
 7448SOL     OW23242   6.209   7.000   5.903
 7448SOL    HW123243   6.157   0.006   5.823
 7448SOL    HW223244   6.263   0.050   5.939
 7449SOL     OW23245   5.075   2.005   2.183
 7449SOL    HW123246   5.138   1.944   2.232
 7449SOL    HW223247   5.015   2.051   2.249
 7450SOL     OW23248   4.599   2.129   2.687
 7450SOL    HW123249   4.685   2.164   2.724
 7450SOL    HW223250   4.538   2.105   2.762
 7451SOL     OW23251   1.970   0.919   4.708
 7451SOL    HW123252   1.966   0.926   4.609
 7451SOL    HW223253   1.910   0.845   4.739
 7452SOL     OW23254   2.454   6.935   4.524
 7452SOL    HW123255   2.398   6.911   4.445
 7452SOL    HW223256   2.541   6.885   4.520
 7453SOL     OW23257   5.536   6.010   4.726
 7453SOL    HW123258   5.507   6.024   4.631
 7453SOL    HW223259   5.635   6.008   4.730
 7454SOL     OW23260   0.677   3.514   1.388
 7454SOL    HW123261   0.604   3.454   1.421
 7454SOL    HW223262   0.638   3.578   1.321
 7455SOL     OW23263   4.572   2.701   0.390
 7455SOL    HW123264   4.569   2.608   0.426
 7455SOL    HW223265   4.506   2.710   0.315
 7456SOL     OW23266   1.627   3.637   4.867
 7456SOL    HW123267   1.692   3.705   4.903
 7456SOL    HW223268   1.580   3.676   4.788
 7457SOL     OW23269   6.043   0.486   5.422
 7457SOL    HW123270   6.127   0.514   5.470
 7457SOL    HW223271   6.067   0.449   5.332
 7458SOL     OW23272   3.025   0.969   0.113
 7458SOL    HW123273   3.065   0.986   0.203
 7458SOL    HW223274   3.034   0.872   0.090
 7459SOL     OW23275   4.719   0.341   5.350
 7459SOL    HW123276   4.708   0.300   5.260
 7459SOL    HW223277   4.809   0.318   5.387
 7460SOL     OW23278   0.728   4.710   0.411
 7460SOL    HW123279   0.762   4.624   0.373
 7460SOL    HW223280   0.660   4.749   0.349
 7461SOL     OW23281   5.221   1.113   5.582
 7461SOL    HW123282   5.171   1.194   5.552
 7461SOL    HW223283   5.290   1.139   5.649
 7462SOL     OW23284   2.309   1.653   2.575
 7462SOL    HW123285   2.385   1.624   2.517
 7462SOL    HW223286   2.334   1.737   2.624
 7463SOL     OW23287   4.180   3.605   1.916
 7463SOL    HW123288   4.178   3.636   2.011
 7463SOL    HW223289   4.206   3.682   1.857
 7464SOL     OW23290   4.958   6.289   0.640
 7464SOL    HW123291   5.008   6.249   0.716
 7464SOL    HW223292   5.022   6.333   0.576
 7465SOL     OW23293   2.862   0.291   2.036
 7465SOL    HW123294   2.828   0.237   2.113
 7465SOL    HW223295   2.786   0.315   1.976
 7466SOL     OW23296   0.462   0.336   6.910
 7466SOL    HW123297   0.483   0.389   6.992
 7466SOL    HW223298   0.468   0.395   6.830
 7467SOL     OW23299   0.203   1.610   0.785
 7467SOL    HW123300   0.124   1.620   0.847
 7467SOL    HW223301   0.226   1.513   0.776
 7468SOL     OW23302   5.564   1.474   2.810
 7468SOL    HW123303   5.663   1.476   2.827
 7468SOL    HW223304   5.547   1.431   2.721
 7469SOL     OW23305   1.200   0.891   0.481
 7469SOL    HW123306   1.249   0.823   0.536
 7469SOL    HW223307   1.129   0.844   0.428
 7470SOL     OW23308   0.318   1.832   1.692
 7470SOL    HW123309   0.282   1.855   1.782
 7470SOL    HW223310   0.412   1.864   1.685
 7471SOL     OW23311   6.010   6.500   5.737
 7471SOL    HW123312   5.938   6.475   5.801
 7471SOL    HW223313   6.093   6.524   5.788
 7472SOL     OW23314   3.458   0.136   3.964
 7472SOL    HW123315   3.551   0.135   4.002
 7472SOL    HW223316   3.400   0.195   4.020
 7473SOL     OW23317   6.414   3.596   4.191
 7473SOL    HW123318   6.480   3.522   4.182
 7473SOL    HW223319   6.389   3.608   4.287
 7474SOL     OW23320   3.603   1.010   3.456
 7474SOL    HW123321   3.575   0.942   3.389
 7474SOL    HW223322   3.602   1.101   3.414
 7475SOL     OW23323   3.832   0.558   1.041
 7475SOL    HW123324   3.739   0.530   1.064
 7475SOL    HW223325   3.850   0.542   0.944
 7476SOL     OW23326   4.050   5.784   4.352
 7476SOL    HW123327   3.965   5.762   4.400
 7476SOL    HW223328   4.052   5.881   4.330
 7477SOL     OW23329   4.087   1.027   4.007
 7477SOL    HW123330   4.049   1.091   4.074
 7477SOL    HW223331   4.135   1.079   3.937
 7478SOL     OW23332   2.242   4.038   0.060
 7478SOL    HW123333   2.198   4.120   0.097
 7478SOL    HW223334   2.336   4.061   0.033
 7479SOL     OW23335   4.649   0.820   0.148
 7479SOL    HW123336   4.716   0.750   0.124
 7479SOL    HW223337   4.636   0.882   0.070
 7480SOL     OW23338   6.386   5.981   1.229
 7480SOL    HW123339   6.357   5.969   1.324
 7480SOL    HW223340   6.394   6.079   1.209
 7481SOL     OW23341   5.890   4.716   0.458
 7481SOL    HW123342   5.824   4.686   0.527
 7481SOL    HW223343   5.910   4.640   0.396
 7482SOL     OW23344   4.763   0.870   3.045
 7482SOL    HW123345   4.711   0.810   2.984
 7482SOL    HW223346   4.700   0.932   3.092
 7483SOL     OW23347   3.697   1.368   4.201
 7483SOL    HW123348   3.687   1.446   4.139
 7483SOL    HW223349   3.666   1.393   4.292
 7484SOL     OW23350   2.192   5.857   2.227
 7484SOL    HW123351   2.288   5.879   2.214
 7484SOL    HW223352   2.171   5.769   2.184
 7485SOL     OW23353   3.346   5.618   5.955
 7485SOL    HW123354   3.389   5.702   5.921
 7485SOL    HW223355   3.375   5.541   5.899
 7486SOL     OW23356   3.258   5.742   5.258
 7486SOL    HW123357   3.243   5.655   5.305
 7486SOL    HW223358   3.356   5.757   5.247
 7487SOL     OW23359   3.039   6.375   3.433
 7487SOL    HW123360   3.066   6.289   3.477
 7487SOL    HW223361   3.000   6.355   3.343
 7488SOL     OW23362   3.227   6.900   6.011
 7488SOL    HW123363   3.298   6.967   6.032
 7488SOL    HW223364   3.261   6.834   5.945
 7489SOL     OW23365   4.683   2.793   4.155
 7489SOL    HW123366   4.691   2.883   4.198
 7489SOL    HW223367   4.768   2.743   4.168
 7490SOL     OW23368   6.190   1.444   0.827
 7490SOL    HW123369   6.182   1.416   0.731
 7490SOL    HW223370   6.107   1.418   0.876
 7491SOL     OW23371   6.688   5.822   6.391
 7491SOL    HW123372   6.753   5.840   6.317
 7491SOL    HW223373   6.601   5.865   6.370
 7492SOL     OW23374   1.976   2.795   5.166
 7492SOL    HW123375   1.977   2.829   5.260
 7492SOL    HW223376   2.067   2.763   5.141
 7493SOL     OW23377   5.843   3.837   6.513
 7493SOL    HW123378   5.939   3.856   6.531
 7493SOL    HW223379   5.809   3.898   6.441
 7494SOL     OW23380   5.858   0.300   1.887
 7494SOL    HW123381   5.882   0.294   1.984
 7494SOL    HW223382   5.766   0.340   1.878
 7495SOL     OW23383   2.501   1.786   0.670
 7495SOL    HW123384   2.574   1.844   0.704
 7495SOL    HW223385   2.459   1.829   0.589
 7496SOL     OW23386   0.964   5.210   6.506
 7496SOL    HW123387   0.913   5.288   6.469
 7496SOL    HW223388   0.933   5.126   6.463
 7497SOL     OW23389   1.678   4.657   2.697
 7497SOL    HW123390   1.661   4.680   2.793
 7497SOL    HW223391   1.590   4.655   2.648
 7498SOL     OW23392   2.896   1.371   4.848
 7498SOL    HW123393   2.912   1.301   4.779
 7498SOL    HW223394   2.841   1.334   4.922
 7499SOL     OW23395   5.318   6.572   4.711
 7499SOL    HW123396   5.311   6.659   4.662
 7499SOL    HW223397   5.395   6.519   4.674
 7500SOL     OW23398   4.387   6.032   1.916
 7500SOL    HW123399   4.465   6.052   1.856
 7500SOL    HW223400   4.388   5.935   1.941
 7501SOL     OW23401   0.851   3.662   3.739
 7501SOL    HW123402   0.856   3.703   3.831
 7501SOL    HW223403   0.943   3.635   3.710
 7502SOL     OW23404   2.769   0.796   4.765
 7502SOL    HW123405   2.694   0.778   4.828
 7502SOL    HW223406   2.734   0.793   4.671
 7503SOL     OW23407   3.118   0.970   6.664
 7503SOL    HW123408   3.101   1.010   6.753
 7503SOL    HW223409   3.078   1.028   6.593
 7504SOL     OW23410   4.158   6.362   3.584
 7504SOL    HW123411   4.215   6.443   3.587
 7504SOL    HW223412   4.090   6.371   3.511
 7505SOL     OW23413   1.665   0.928   5.097
 7505SOL    HW123414   1.722   0.986   5.039
 7505SOL    HW223415   1.644   0.976   5.182
 7506SOL     OW23416   3.149   0.838   2.362
 7506SOL    HW123417   3.217   0.834   2.435
 7506SOL    HW223418   3.113   0.931   2.354
 7507SOL     OW23419   0.713   5.958   5.560
 7507SOL    HW123420   0.794   5.926   5.609
 7507SOL    HW223421   0.632   5.945   5.617
 7508SOL     OW23422   5.628   6.842   2.960
 7508SOL    HW123423   5.607   6.827   3.056
 7508SOL    HW223424   5.656   6.937   2.946
 7509SOL     OW23425   5.171   3.477   6.268
 7509SOL    HW123426   5.097   3.443   6.326
 7509SOL    HW223427   5.224   3.400   6.233
 7510SOL     OW23428   3.365   4.060   4.928
 7510SOL    HW123429   3.453   4.069   4.882
 7510SOL    HW223430   3.315   4.147   4.922
 7511SOL     OW23431   1.587   6.912   2.261
 7511SOL    HW123432   1.552   6.914   2.167
 7511SOL    HW223433   1.607   6.818   2.286
 7512SOL     OW23434   2.637   3.278   1.664
 7512SOL    HW123435   2.601   3.371   1.657
 7512SOL    HW223436   2.670   3.249   1.574
 7513SOL     OW23437   1.601   1.769   5.876
 7513SOL    HW123438   1.643   1.705   5.812
 7513SOL    HW223439   1.614   1.862   5.843
 7514SOL     OW23440   2.898   6.128   2.153
 7514SOL    HW123441   2.866   6.096   2.243
 7514SOL    HW223442   2.949   6.213   2.164
 7515SOL     OW23443   6.850   0.086   2.958
 7515SOL    HW123444   6.815   0.136   2.879
 7515SOL    HW223445   6.798   0.002   2.970
 7516SOL     OW23446   0.156   0.665   3.848
 7516SOL    HW123447   0.168   0.741   3.913
 7516SOL    HW223448   0.119   0.586   3.896
 7517SOL     OW23449   0.466   3.520   0.851
 7517SOL    HW123450   0.494   3.533   0.756
 7517SOL    HW223451   0.443   3.609   0.891
 7518SOL     OW23452   4.339   5.327   3.546
 7518SOL    HW123453   4.368   5.361   3.457
 7518SOL    HW223454   4.289   5.400   3.595
 7519SOL     OW23455   1.197   6.339   4.782
 7519SOL    HW123456   1.226   6.375   4.694
 7519SOL    HW223457   1.118   6.390   4.815
 7520SOL     OW23458   1.091   6.551   3.656
 7520SOL    HW123459   1.126   6.534   3.748
 7520SOL    HW223460   1.157   6.605   3.604
 7521SOL     OW23461   4.752   4.441   4.993
 7521SOL    HW123462   4.842   4.436   5.036
 7521SOL    HW223463   4.684   4.399   5.052
 7522SOL     OW23464   2.026   1.438   0.243
 7522SOL    HW123465   1.956   1.500   0.276
 7522SOL    HW223466   2.073   1.479   0.165
 7523SOL     OW23467   5.485   7.012   5.752
 7523SOL    HW123468   5.556   6.997   5.684
 7523SOL    HW223469   5.507   6.960   5.835
 7524SOL     OW23470   0.343   1.652   5.405
 7524SOL    HW123471   0.244   1.650   5.413
 7524SOL    HW223472   0.384   1.657   5.497
 7525SOL     OW23473   1.592   1.033   0.196
 7525SOL    HW123474   1.680   1.053   0.241
 7525SOL    HW223475   1.553   0.950   0.236
 7526SOL     OW23476   3.911   2.974   4.212
 7526SOL    HW123477   3.946   2.978   4.118
 7526SOL    HW223478   3.961   2.904   4.263
 7527SOL     OW23479   5.346   4.192   2.462
 7527SOL    HW123480   5.382   4.279   2.493
 7527SOL    HW223481   5.382   4.118   2.519
 7528SOL     OW23482   4.517   2.917   0.034
 7528SOL    HW123483   4.595   2.908   0.095
 7528SOL    HW223484   4.455   2.840   0.047
 7529SOL     OW23485   4.240   1.361   4.354
 7529SOL    HW123486   4.147   1.362   4.390
 7529SOL    HW223487   4.242   1.407   4.265
 7530SOL     OW23488   6.935   3.728   2.375
 7530SOL    HW123489   6.844   3.712   2.338
 7530SOL    HW223490   6.934   3.808   2.434
 7531SOL     OW23491   4.406   1.931   3.870
 7531SOL    HW123492   4.454   2.018   3.868
 7531SOL    HW223493   4.432   1.880   3.952
 7532SOL     OW23494   5.649   5.808   1.841
 7532SOL    HW123495   5.741   5.769   1.835
 7532SOL    HW223496   5.644   5.868   1.921
 7533SOL     OW23497   3.345   1.070   4.443
 7533SOL    HW123498   3.319   1.111   4.355
 7533SOL    HW223499   3.323   0.973   4.443
 7534SOL     OW23500   3.922   6.113   5.143
 7534SOL    HW123501   3.995   6.051   5.171
 7534SOL    HW223502   3.945   6.153   5.054
 7535SOL     OW23503   3.035   2.493   5.984
 7535SOL    HW123504   3.070   2.427   5.918
 7535SOL    HW223505   2.985   2.445   6.056
 7536SOL     OW23506   4.586   5.349   4.537
 7536SOL    HW123507   4.653   5.349   4.611
 7536SOL    HW223508   4.518   5.420   4.554
 7537SOL     OW23509   1.774   4.725   4.900
 7537SOL    HW123510   1.692   4.768   4.940
 7537SOL    HW223511   1.757   4.704   4.804
 7538SOL     OW23512   3.371   3.135   2.763
 7538SOL    HW123513   3.395   3.221   2.717
 7538SOL    HW223514   3.389   3.058   2.702
 7539SOL     OW23515   2.000   3.206   5.228
 7539SOL    HW123516   2.028   3.115   5.260
 7539SOL    HW223517   2.074   3.247   5.175
 7540SOL     OW23518   2.736   1.636   6.973
 7540SOL    HW123519   2.677   1.592   6.906
 7540SOL    HW223520   2.832   1.628   6.944
 7541SOL     OW23521   6.176   2.235   5.207
 7541SOL    HW123522   6.137   2.151   5.168
 7541SOL    HW223523   6.242   2.210   5.278
 7542SOL     OW23524   1.041   0.119   6.127
 7542SOL    HW123525   1.092   0.034   6.137
 7542SOL    HW223526   0.991   0.139   6.211
 7543SOL     OW23527   3.868   3.222   0.662
 7543SOL    HW123528   3.955   3.251   0.704
 7543SOL    HW223529   3.887   3.172   0.577
 7544SOL     OW23530   1.807   2.064   3.119
 7544SOL    HW123531   1.827   2.160   3.136
 7544SOL    HW223532   1.757   2.026   3.197
 7545SOL     OW23533   4.767   6.937   2.977
 7545SOL    HW123534   4.781   0.001   3.019
 7545SOL    HW223535   4.669   6.916   2.974
 7546SOL     OW23536   5.260   0.542   0.147
 7546SOL    HW123537   5.336   0.560   0.209
 7546SOL    HW223538   5.201   0.471   0.186
 7547SOL     OW23539   3.638   0.433   0.370
 7547SOL    HW123540   3.691   0.503   0.323
 7547SOL    HW223541   3.562   0.403   0.312
 7548SOL     OW23542   2.646   1.909   1.614
 7548SOL    HW123543   2.660   1.858   1.700
 7548SOL    HW223544   2.710   1.875   1.545
 7549SOL     OW23545   4.998   1.806   2.787
 7549SOL    HW123546   5.018   1.716   2.826
 7549SOL    HW223547   5.083   1.855   2.771
 7550SOL     OW23548   2.125   6.005   2.456
 7550SOL    HW123549   2.037   6.043   2.484
 7550SOL    HW223550   2.114   5.949   2.374
 7551SOL     OW23551   4.588   3.162   6.425
 7551SOL    HW123552   4.582   3.253   6.465
 7551SOL    HW223553   4.625   3.098   6.492
 7552SOL     OW23554   2.307   5.327   3.938
 7552SOL    HW123555   2.339   5.409   3.890
 7552SOL    HW223556   2.350   5.246   3.897
 7553SOL     OW23557   3.580   5.380   6.476
 7553SOL    HW123558   3.671   5.373   6.436
 7553SOL    HW223559   3.537   5.465   6.447
 7554SOL     OW23560   4.827   1.183   0.501
 7554SOL    HW123561   4.905   1.147   0.451
 7554SOL    HW223562   4.786   1.111   0.557
 7555SOL     OW23563   6.865   5.729   4.906
 7555SOL    HW123564   6.885   5.798   4.837
 7555SOL    HW223565   6.843   5.773   4.993
 7556SOL     OW23566   0.845   3.016   4.838
 7556SOL    HW123567   0.931   3.025   4.787
 7556SOL    HW223568   0.808   2.924   4.825
 7557SOL     OW23569   5.463   4.214   6.522
 7557SOL    HW123570   5.453   4.239   6.425
 7557SOL    HW223571   5.534   4.271   6.564
 7558SOL     OW23572   2.263   3.042   3.557
 7558SOL    HW123573   2.304   2.975   3.618
 7558SOL    HW223574   2.222   2.995   3.479
 7559SOL     OW23575   0.003   4.679   0.880
 7559SOL    HW123576   6.983   4.591   0.889
 7559SOL    HW223577   0.059   4.678   0.797
 7560SOL     OW23578   5.536   6.770   0.845
 7560SOL    HW123579   5.440   6.746   0.828
 7560SOL    HW223580   5.555   6.860   0.806
 7561SOL     OW23581   0.015   3.415   0.437
 7561SOL    HW123582   7.007   3.321   0.430
 7561SOL    HW223583   6.993   3.461   0.512
 7562SOL     OW23584   5.352   6.384   5.360
 7562SOL    HW123585   5.437   6.332   5.352
 7562SOL    HW223586   5.276   6.321   5.378
 7563SOL     OW23587   2.860   0.694   1.653
 7563SOL    HW123588   2.931   0.756   1.620
 7563SOL    HW223589   2.845   0.709   1.751
 7564SOL     OW23590   4.826   0.208   2.980
 7564SOL    HW123591   4.828   0.273   3.056
 7564SOL    HW223592   4.914   0.210   2.932
 7565SOL     OW23593   4.488   5.398   0.018
 7565SOL    HW123594   4.523   5.402   6.950
 7565SOL    HW223595   4.422   5.323   0.025
 7566SOL     OW23596   0.217   5.702   4.687
 7566SOL    HW123597   0.194   5.775   4.752
 7566SOL    HW223598   0.255   5.743   4.604
 7567SOL     OW23599   2.547   4.864   5.736
 7567SOL    HW123600   2.551   4.963   5.718
 7567SOL    HW223601   2.579   4.846   5.829
 7568SOL     OW23602   5.459   5.877   3.081
 7568SOL    HW123603   5.506   5.931   3.151
 7568SOL    HW223604   5.408   5.803   3.125
 7569SOL     OW23605   4.467   5.657   6.951
 7569SOL    HW123606   4.418   5.570   6.962
 7569SOL    HW223607   4.417   5.717   6.889
 7570SOL     OW23608   6.096   5.257   3.733
 7570SOL    HW123609   6.024   5.209   3.783
 7570SOL    HW223610   6.058   5.296   3.649
 7571SOL     OW23611   5.902   3.891   1.292
 7571SOL    HW123612   5.835   3.915   1.363
 7571SOL    HW223613   5.955   3.812   1.323
 7572SOL     OW23614   3.953   0.949   4.309
 7572SOL    HW123615   3.894   0.878   4.349
 7572SOL    HW223616   3.960   1.026   4.372
 7573SOL     OW23617   6.863   5.973   4.692
 7573SOL    HW123618   6.903   6.049   4.743
 7573SOL    HW223619   6.855   5.998   4.596
 7574SOL     OW23620   5.686   0.672   3.505
 7574SOL    HW123621   5.677   0.588   3.557
 7574SOL    HW223622   5.697   0.651   3.408
 7575SOL     OW23623   4.202   1.285   5.750
 7575SOL    HW123624   4.165   1.331   5.669
 7575SOL    HW223625   4.276   1.224   5.722
 7576SOL     OW23626   6.353   3.902   6.926
 7576SOL    HW123627   6.344   3.999   6.946
 7576SOL    HW223628   6.447   3.880   6.902
 7577SOL     OW23629   6.482   0.982   4.713
 7577SOL    HW123630   6.495   0.897   4.764
 7577SOL    HW223631   6.424   0.964   4.633
 7578SOL     OW23632   1.781   6.048   4.679
 7578SOL    HW123633   1.869   6.036   4.725
 7578SOL    HW223634   1.739   6.133   4.709
 7579SOL     OW23635   3.864   1.525   2.925
 7579SOL    HW123636   3.779   1.575   2.941
 7579SOL    HW223637   3.941   1.578   2.960
 7580SOL     OW23638   1.642   4.120   2.950
 7580SOL    HW123639   1.573   4.064   2.904
 7580SOL    HW223640   1.662   4.080   3.040
 7581SOL     OW23641   5.212   1.584   1.010
 7581SOL    HW123642   5.142   1.649   1.038
 7581SOL    HW223643   5.303   1.625   1.023
 7582SOL     OW23644   3.400   1.737   1.532
 7582SOL    HW123645   3.301   1.751   1.529
 7582SOL    HW223646   3.445   1.820   1.566
 7583SOL     OW23647   5.833   3.307   1.897
 7583SOL    HW123648   5.808   3.279   1.804
 7583SOL    HW223649   5.908   3.374   1.893
 7584SOL     OW23650   2.508   6.904   1.173
 7584SOL    HW123651   2.602   6.912   1.140
 7584SOL    HW223652   2.497   6.956   1.257
 7585SOL     OW23653   1.520   4.615   6.703
 7585SOL    HW123654   1.615   4.584   6.703
 7585SOL    HW223655   1.467   4.559   6.766
 7586SOL     OW23656   2.647   0.239   3.101
 7586SOL    HW123657   2.649   0.199   3.010
 7586SOL    HW223658   2.711   0.316   3.105
 7587SOL     OW23659   1.048   1.969   0.231
 7587SOL    HW123660   0.953   1.940   0.243
 7587SOL    HW223661   1.103   1.890   0.202
 7588SOL     OW23662   0.293   4.902   2.591
 7588SOL    HW123663   0.277   4.959   2.672
 7588SOL    HW223664   0.389   4.874   2.589
 7589SOL     OW23665   6.109   6.003   0.506
 7589SOL    HW123666   6.093   6.099   0.484
 7589SOL    HW223667   6.030   5.967   0.555
 7590SOL     OW23668   2.505   1.826   5.594
 7590SOL    HW123669   2.555   1.742   5.615
 7590SOL    HW223670   2.564   1.905   5.609
 7591SOL     OW23671   0.138   5.304   6.987
 7591SOL    HW123672   0.230   5.312   7.024
 7591SOL    HW223673   0.076   5.365   0.011
 7592SOL     OW23674   6.683   5.480   6.837
 7592SOL    HW123675   6.652   5.404   6.893
 7592SOL    HW223676   6.774   5.461   6.801
 7593SOL     OW23677   4.793   2.308   6.783
 7593SOL    HW123678   4.713   2.297   6.841
 7593SOL    HW223679   4.865   2.245   6.812
 7594SOL     OW23680   0.944   6.053   3.629
 7594SOL    HW123681   0.938   6.059   3.729
 7594SOL    HW223682   0.966   5.959   3.603
 7595SOL     OW23683   0.241   3.389   6.134
 7595SOL    HW123684   0.320   3.353   6.086
 7595SOL    HW223685   0.244   3.361   6.230
 7596SOL     OW23686   5.004   4.384   2.176
 7596SOL    HW123687   4.909   4.358   2.159
 7596SOL    HW223688   5.065   4.331   2.117
 7597SOL     OW23689   3.569   5.368   1.715
 7597SOL    HW123690   3.583   5.360   1.814
 7597SOL    HW223691   3.481   5.328   1.691
 7598SOL     OW23692   6.622   0.170   3.246
 7598SOL    HW123693   6.614   0.259   3.202
 7598SOL    HW223694   6.719   0.149   3.261
 7599SOL     OW23695   6.251   1.436   3.496
 7599SOL    HW123696   6.246   1.412   3.400
 7599SOL    HW223697   6.187   1.380   3.548
 7600SOL     OW23698   1.428   0.533   2.134
 7600SOL    HW123699   1.505   0.595   2.150
 7600SOL    HW223700   1.462   0.439   2.128
 7601SOL     OW23701   1.991   6.071   3.676
 7601SOL    HW123702   1.927   6.147   3.671
 7601SOL    HW223703   2.049   6.081   3.756
 7602SOL     OW23704   2.103   4.162   4.462
 7602SOL    HW123705   2.045   4.171   4.543
 7602SOL    HW223706   2.103   4.066   4.432
 7603SOL     OW23707   0.702   6.048   0.080
 7603SOL    HW123708   0.689   5.967   0.023
 7603SOL    HW223709   0.644   6.122   0.047
 7604SOL     OW23710   3.333   5.850   4.387
 7604SOL    HW123711   3.277   5.928   4.414
 7604SOL    HW223712   3.382   5.815   4.467
 7605SOL     OW23713   0.781   4.793   6.760
 7605SOL    HW123714   0.875   4.798   6.728
 7605SOL    HW223715   0.774   4.832   6.852
 7606SOL     OW23716   0.293   3.018   1.905
 7606SOL    HW123717   0.288   2.918   1.901
 7606SOL    HW223718   0.228   3.052   1.973
 7607SOL     OW23719   5.092   0.003   6.692
 7607SOL    HW123720   5.030   0.012   6.614
 7607SOL    HW223721   5.142   0.089   6.703
 7608SOL     OW23722   2.898   3.492   3.231
 7608SOL    HW123723   2.936   3.416   3.179
 7608SOL    HW223724   2.809   3.517   3.193
 7609SOL     OW23725   0.313   3.553   4.091
 7609SOL    HW123726   0.267   3.560   4.180
 7609SOL    HW223727   0.389   3.617   4.087
 7610SOL     OW23728   5.615   0.462   1.110
 7610SOL    HW123729   5.617   0.363   1.125
 7610SOL    HW223730   5.616   0.509   1.198
 7611SOL     OW23731   1.049   2.190   0.077
 7611SOL    HW123732   1.064   2.106   0.129
 7611SOL    HW223733   0.994   2.170   7.022
 7612SOL     OW23734   4.021   1.707   4.221
 7612SOL    HW123735   4.002   1.722   4.124
 7612SOL    HW223736   3.935   1.691   4.269
 7613SOL     OW23737   4.822   1.044   1.370
 7613SOL    HW123738   4.866   1.119   1.419
 7613SOL    HW223739   4.754   1.000   1.429
 7614SOL     OW23740   3.686   1.856   1.782
 7614SOL    HW123741   3.689   1.756   1.793
 7614SOL    HW223742   3.638   1.896   1.860
 7615SOL     OW23743   3.616   5.303   6.791
 7615SOL    HW123744   3.582   5.394   6.766
 7615SOL    HW223745   3.644   5.254   6.708
 7616SOL     OW23746   6.932   3.567   4.111
 7616SOL    HW123747   6.898   3.484   4.156
 7616SOL    HW223748   6.977   3.625   4.179
 7617SOL     OW23749   2.929   5.333   3.110
 7617SOL    HW123750   2.867   5.260   3.139
 7617SOL    HW223751   2.994   5.296   3.043
 7618SOL     OW23752   1.380   2.205   6.757
 7618SOL    HW123753   1.378   2.105   6.765
 7618SOL    HW223754   1.468   2.233   6.717
 7619SOL     OW23755   5.703   2.993   5.592
 7619SOL    HW123756   5.660   2.903   5.596
 7619SOL    HW223757   5.632   3.063   5.585
 7620SOL     OW23758   3.798   6.800   0.489
 7620SOL    HW123759   3.847   6.716   0.466
 7620SOL    HW223760   3.844   6.878   0.447
 7621SOL     OW23761   1.529   0.913   0.738
 7621SOL    HW123762   1.505   0.979   0.666
 7621SOL    HW223763   1.606   0.857   0.707
 7622SOL     OW23764   4.548   2.993   1.030
 7622SOL    HW123765   4.582   2.910   0.987
 7622SOL    HW223766   4.480   2.969   1.099
 7623SOL     OW23767   4.535   6.144   6.480
 7623SOL    HW123768   4.533   6.112   6.385
 7623SOL    HW223769   4.526   6.243   6.482
 7624SOL     OW23770   0.412   2.029   3.200
 7624SOL    HW123771   0.343   2.098   3.175
 7624SOL    HW223772   0.407   1.953   3.135
 7625SOL     OW23773   5.425   0.600   0.908
 7625SOL    HW123774   5.347   0.603   0.971
 7625SOL    HW223775   5.505   0.568   0.958
 7626SOL     OW23776   1.030   6.659   4.876
 7626SOL    HW123777   1.123   6.684   4.902
 7626SOL    HW223778   0.974   6.741   4.869
 7627SOL     OW23779   6.567   3.109   1.025
 7627SOL    HW123780   6.641   3.149   0.971
 7627SOL    HW223781   6.601   3.087   1.117
 7628SOL     OW23782   2.509   0.811   1.336
 7628SOL    HW123783   2.539   0.898   1.376
 7628SOL    HW223784   2.586   0.747   1.335
 7629SOL     OW23785   6.542   6.300   2.406
 7629SOL    HW123786   6.496   6.360   2.340
 7629SOL    HW223787   6.476   6.271   2.476
 7630SOL     OW23788   6.431   0.334   2.260
 7630SOL    HW123789   6.503   0.391   2.298
 7630SOL    HW223790   6.469   0.275   2.189
 7631SOL     OW23791   0.957   1.925   5.345
 7631SOL    HW123792   1.043   1.875   5.342
 7631SOL    HW223793   0.946   1.977   5.260
 7632SOL     OW23794   4.106   2.054   0.674
 7632SOL    HW123795   4.089   2.084   0.580
 7632SOL    HW223796   4.046   1.978   0.696
 7633SOL     OW23797   5.648   3.582   6.543
 7633SOL    HW123798   5.557   3.613   6.570
 7633SOL    HW223799   5.715   3.653   6.566
 7634SOL     OW23800   1.612   0.720   2.196
 7634SOL    HW123801   1.687   0.743   2.258
 7634SOL    HW223802   1.552   0.799   2.185
 7635SOL     OW23803   2.494   5.734   5.956
 7635SOL    HW123804   2.492   5.815   6.014
 7635SOL    HW223805   2.505   5.652   6.013
 7636SOL     OW23806   1.079   1.484   3.879
 7636SOL    HW123807   1.039   1.521   3.795
 7636SOL    HW223808   1.157   1.426   3.855
 7637SOL     OW23809   1.399   0.122   4.356
 7637SOL    HW123810   1.310   0.135   4.313
 7637SOL    HW223811   1.392   0.052   4.427
 7638SOL     OW23812   5.907   5.726   1.770
 7638SOL    HW123813   5.902   5.713   1.672
 7638SOL    HW223814   5.990   5.776   1.793
 7639SOL     OW23815   1.218   2.015   6.051
 7639SOL    HW123816   1.128   2.056   6.039
 7639SOL    HW223817   1.211   1.916   6.041
 7640SOL     OW23818   2.364   2.416   0.730
 7640SOL    HW123819   2.318   2.451   0.648
 7640SOL    HW223820   2.375   2.317   0.722
 7641SOL     OW23821   6.883   4.532   2.092
 7641SOL    HW123822   6.960   4.572   2.043
 7641SOL    HW223823   6.915   4.490   2.176
 7642SOL     OW23824   2.617   1.843   2.485
 7642SOL    HW123825   2.608   1.918   2.419
 7642SOL    HW223826   2.569   1.868   2.570
 7643SOL     OW23827   4.449   2.505   3.288
 7643SOL    HW123828   4.421   2.410   3.275
 7643SOL    HW223829   4.455   2.551   3.199
 7644SOL     OW23830   0.079   3.035   3.087
 7644SOL    HW123831   0.072   2.962   3.019
 7644SOL    HW223832   0.116   2.998   3.172
 7645SOL     OW23833   4.535   4.839   0.079
 7645SOL    HW123834   4.458   4.836   0.143
 7645SOL    HW223835   4.621   4.834   0.130
 7646SOL     OW23836   2.305   1.636   1.893
 7646SOL    HW123837   2.208   1.614   1.879
 7646SOL    HW223838   2.312   1.722   1.945
 7647SOL     OW23839   1.893   3.710   2.020
 7647SOL    HW123840   1.947   3.729   2.102
 7647SOL    HW223841   1.913   3.617   1.988
 7648SOL     OW23842   4.445   1.463   3.937
 7648SOL    HW123843   4.397   1.514   3.866
 7648SOL    HW223844   4.494   1.526   3.996
 7649SOL     OW23845   2.166   0.676   2.428
 7649SOL    HW123846   2.074   0.668   2.390
 7649SOL    HW223847   2.179   0.767   2.466
 7650SOL     OW23848   6.781   2.985   2.239
 7650SOL    HW123849   6.805   3.057   2.174
 7650SOL    HW223850   6.826   2.900   2.212
 7651SOL     OW23851   2.739   6.996   0.042
 7651SOL    HW123852   2.808   6.925   0.033
 7651SOL    HW223853   2.677   6.994   6.990
 7652SOL     OW23854   6.429   3.476   3.802
 7652SOL    HW123855   6.339   3.494   3.842
 7652SOL    HW223856   6.479   3.562   3.792
 7653SOL     OW23857   2.590   2.301   1.029
 7653SOL    HW123858   2.634   2.280   0.942
 7653SOL    HW223859   2.649   2.272   1.104
 7654SOL     OW23860   4.761   2.882   3.435
 7654SOL    HW123861   4.724   2.789   3.442
 7654SOL    HW223862   4.749   2.929   3.523
 7655SOL     OW23863   3.386   6.807   4.576
 7655SOL    HW123864   3.311   6.776   4.634
 7655SOL    HW223865   3.366   6.898   4.540
 7656SOL     OW23866   0.051   6.216   5.292
 7656SOL    HW123867   0.084   6.308   5.272
 7656SOL    HW223868   7.015   6.186   5.219
 7657SOL     OW23869   2.570   2.480   3.591
 7657SOL    HW123870   2.507   2.557   3.592
 7657SOL    HW223871   2.584   2.450   3.496
 7658SOL     OW23872   4.805   0.512   6.065
 7658SOL    HW123873   4.903   0.524   6.076
 7658SOL    HW223874   4.787   0.467   5.977
 7659SOL     OW23875   6.558   0.018   0.862
 7659SOL    HW123876   6.478   0.050   0.913
 7659SOL    HW223877   6.608   6.978   0.919
 7660SOL     OW23878   5.455   5.296   3.032
 7660SOL    HW123879   5.417   5.235   3.101
 7660SOL    HW223880   5.421   5.270   2.942
 7661SOL     OW23881   6.062   2.530   4.103
 7661SOL    HW123882   6.012   2.615   4.123
 7661SOL    HW223883   6.132   2.515   4.173
 7662SOL     OW23884   1.489   3.081   2.077
 7662SOL    HW123885   1.483   3.109   2.173
 7662SOL    HW223886   1.556   3.139   2.030
 7663SOL     OW23887   0.404   5.393   6.744
 7663SOL    HW123888   0.469   5.426   6.675
 7663SOL    HW223889   0.454   5.343   6.814
 7664SOL     OW23890   2.917   6.404   2.805
 7664SOL    HW123891   2.864   6.483   2.836
 7664SOL    HW223892   2.992   6.387   2.870
 7665SOL     OW23893   2.706   0.723   4.510
 7665SOL    HW123894   2.623   0.670   4.491
 7665SOL    HW223895   2.786   0.671   4.481
 7666SOL     OW23896   0.755   0.056   1.214
 7666SOL    HW123897   0.743   6.994   1.168
 7666SOL    HW223898   0.755   0.129   1.146
 7667SOL     OW23899   4.720   6.560   6.583
 7667SOL    HW123900   4.765   6.474   6.560
 7667SOL    HW223901   4.788   6.634   6.587
 7668SOL     OW23902   3.707   4.367   1.373
 7668SOL    HW123903   3.614   4.393   1.349
 7668SOL    HW223904   3.706   4.281   1.424
 7669SOL     OW23905   4.969   0.283   4.117
 7669SOL    HW123906   4.940   0.378   4.126
 7669SOL    HW223907   4.992   0.264   4.021
 7670SOL     OW23908   1.262   5.744   0.038
 7670SOL    HW123909   1.346   5.798   0.037
 7670SOL    HW223910   1.279   5.657   0.084
 7671SOL     OW23911   5.068   1.393   4.808
 7671SOL    HW123912   5.078   1.368   4.712
 7671SOL    HW223913   4.984   1.354   4.844
 7672SOL     OW23914   6.029   0.726   3.938
 7672SOL    HW123915   5.960   0.680   3.994
 7672SOL    HW223916   6.120   0.696   3.965
 7673SOL     OW23917   1.019   4.530   1.028
 7673SOL    HW123918   1.062   4.606   1.077
 7673SOL    HW223919   0.984   4.563   0.941
 7674SOL     OW23920   6.815   1.749   4.688
 7674SOL    HW123921   6.894   1.753   4.750
 7674SOL    HW223922   6.739   1.702   4.734
 7675SOL     OW23923   5.072   0.116   1.688
 7675SOL    HW123924   5.008   0.046   1.658
 7675SOL    HW223925   5.145   0.074   1.743
 7676SOL     OW23926   1.544   1.058   6.617
 7676SOL    HW123927   1.600   1.137   6.641
 7676SOL    HW223928   1.464   1.055   6.678
 7677SOL     OW23929   2.023   3.901   2.448
 7677SOL    HW123930   2.031   3.975   2.514
 7677SOL    HW223931   2.114   3.874   2.416
 7678SOL     OW23932   0.845   1.008   0.109
 7678SOL    HW123933   0.929   1.056   0.135
 7678SOL    HW223934   0.867   0.913   0.087
 7679SOL     OW23935   1.173   5.218   5.008
 7679SOL    HW123936   1.119   5.302   5.000
 7679SOL    HW223937   1.263   5.233   4.965
 7680SOL     OW23938   3.433   3.445   6.694
 7680SOL    HW123939   3.452   3.448   6.792
 7680SOL    HW223940   3.345   3.489   6.676
 7681SOL     OW23941   2.736   1.649   0.440
 7681SOL    HW123942   2.658   1.625   0.382
 7681SOL    HW223943   2.773   1.565   0.482
 7682SOL     OW23944   3.064   6.753   1.743
 7682SOL    HW123945   3.006   6.764   1.662
 7682SOL    HW223946   3.149   6.706   1.716
 7683SOL     OW23947   6.145   1.799   2.700
 7683SOL    HW123948   6.232   1.832   2.737
 7683SOL    HW223949   6.072   1.817   2.766
 7684SOL     OW23950   5.169   2.141   6.519
 7684SOL    HW123951   5.221   2.193   6.586
 7684SOL    HW223952   5.230   2.109   6.446
 7685SOL     OW23953   3.557   3.013   0.472
 7685SOL    HW123954   3.627   3.084   0.468
 7685SOL    HW223955   3.487   3.039   0.539
 7686SOL     OW23956   4.611   0.424   3.377
 7686SOL    HW123957   4.568   0.382   3.297
 7686SOL    HW223958   4.657   0.354   3.431
 7687SOL     OW23959   4.940   4.998   5.588
 7687SOL    HW123960   4.903   4.906   5.575
 7687SOL    HW223961   4.865   5.064   5.581
 7688SOL     OW23962   6.909   6.937   5.393
 7688SOL    HW123963   6.963   6.973   5.469
 7688SOL    HW223964   6.931   6.987   5.309
 7689SOL     OW23965   4.364   5.970   4.636
 7689SOL    HW123966   4.400   5.975   4.542
 7689SOL    HW223967   4.339   5.875   4.657
 7690SOL     OW23968   5.374   4.430   2.639
 7690SOL    HW123969   5.395   4.524   2.612
 7690SOL    HW223970   5.434   4.403   2.715
 7691SOL     OW23971   5.237   2.346   3.933
 7691SOL    HW123972   5.325   2.372   3.974
 7691SOL    HW223973   5.210   2.417   3.867
 7692SOL     OW23974   1.409   6.127   1.326
 7692SOL    HW123975   1.486   6.084   1.372
 7692SOL    HW223976   1.339   6.151   1.394
 7693SOL     OW23977   4.328   1.012   6.316
 7693SOL    HW123978   4.289   1.102   6.299
 7693SOL    HW223979   4.263   0.941   6.288
 7694SOL     OW23980   6.977   4.590   4.074
 7694SOL    HW123981   6.897   4.649   4.062
 7694SOL    HW223982   7.010   4.598   4.168
 7695SOL     OW23983   4.402   0.280   0.717
 7695SOL    HW123984   4.432   0.185   0.724
 7695SOL    HW223985   4.345   0.292   0.636
 7696SOL     OW23986   0.048   1.906   4.266
 7696SOL    HW123987   0.112   1.969   4.223
 7696SOL    HW223988   6.995   1.892   4.206
 7697SOL     OW23989   2.539   1.704   3.689
 7697SOL    HW123990   2.514   1.726   3.784
 7697SOL    HW223991   2.459   1.671   3.640
 7698SOL     OW23992   6.659   2.932   4.763
 7698SOL    HW123993   6.564   2.949   4.736
 7698SOL    HW223994   6.661   2.903   4.859
 7699SOL     OW23995   2.471   5.799   0.547
 7699SOL    HW123996   2.504   5.744   0.624
 7699SOL    HW223997   2.546   5.855   0.512
 7700SOL     OW23998   5.056   6.995   4.996
 7700SOL    HW123999   5.086   6.936   4.921
 7700SOL    HW224000   5.120   0.046   5.006
 7701SOL     OW24001   6.990   0.626   5.309
 7701SOL    HW124002   6.981   0.719   5.273
 7701SOL    HW224003   6.905   0.576   5.293
 7702SOL     OW24004   3.535   6.601   6.084
 7702SOL    HW124005   3.514   6.694   6.056
 7702SOL    HW224006   3.460   6.540   6.058
 7703SOL     OW24007   0.514   1.107   5.589
 7703SOL    HW124008   0.585   1.127   5.522
 7703SOL    HW224009   0.446   1.181   5.588
 7704SOL     OW24010   4.248   4.450   7.014
 7704SOL    HW124011   4.288   4.471   0.077
 7704SOL    HW224012   4.218   4.355   7.013
 7705SOL     OW24013   3.705   5.039   5.313
 7705SOL    HW124014   3.759   5.031   5.229
 7705SOL    HW224015   3.613   5.069   5.291
 7706SOL     OW24016   6.101   0.121   5.583
 7706SOL    HW124017   6.085   0.027   5.551
 7706SOL    HW224018   6.015   0.159   5.619
 7707SOL     OW24019   0.296   5.797   6.264
 7707SOL    HW124020   0.307   5.702   6.291
 7707SOL    HW224021   0.341   5.812   6.176
 7708SOL     OW24022   4.943   6.252   4.583
 7708SOL    HW124023   4.892   6.297   4.509
 7708SOL    HW224024   4.943   6.154   4.568
 7709SOL     OW24025   4.428   2.660   1.771
 7709SOL    HW124026   4.486   2.721   1.825
 7709SOL    HW224027   4.483   2.616   1.700
 7710SOL     OW24028   2.752   0.124   0.484
 7710SOL    HW124029   2.798   0.091   0.566
 7710SOL    HW224030   2.674   0.181   0.510
 7711SOL     OW24031   5.687   5.921   5.834
 7711SOL    HW124032   5.740   5.964   5.906
 7711SOL    HW224033   5.662   5.990   5.766
 7712SOL     OW24034   5.868   4.765   1.215
 7712SOL    HW124035   5.803   4.707   1.264
 7712SOL    HW224036   5.893   4.843   1.272
 7713SOL     OW24037   2.030   4.165   6.864
 7713SOL    HW124038   2.076   4.251   6.846
 7713SOL    HW224039   2.095   4.099   6.900
 7714SOL     OW24040   5.875   4.510   4.431
 7714SOL    HW124041   5.808   4.584   4.431
 7714SOL    HW224042   5.833   4.426   4.397
 7715SOL     OW24043   5.207   0.442   1.309
 7715SOL    HW124044   5.128   0.484   1.353
 7715SOL    HW224045   5.230   0.494   1.227
 7716SOL     OW24046   4.465   2.221   2.105
 7716SOL    HW124047   4.408   2.254   2.030
 7716SOL    HW224048   4.520   2.296   2.141
 7717SOL     OW24049   2.873   1.530   5.314
 7717SOL    HW124050   2.965   1.501   5.342
 7717SOL    HW224051   2.879   1.614   5.261
 7718SOL     OW24052   2.297   1.328   2.965
 7718SOL    HW124053   2.295   1.238   3.008
 7718SOL    HW224054   2.353   1.390   3.021
 7719SOL     OW24055   0.190   2.518   4.668
 7719SOL    HW124056   0.137   2.600   4.687
 7719SOL    HW224057   0.288   2.539   4.676
 7720SOL     OW24058   6.456   6.489   0.983
 7720SOL    HW124059   6.515   6.471   0.905
 7720SOL    HW224060   6.385   6.418   0.988
 7721SOL     OW24061   2.329   4.383   3.279
 7721SOL    HW124062   2.282   4.459   3.234
 7721SOL    HW224063   2.285   4.363   3.367
 7722SOL     OW24064   6.316   4.797   2.966
 7722SOL    HW124065   6.334   4.704   2.932
 7722SOL    HW224066   6.367   4.863   2.911
 7723SOL     OW24067   6.965   3.158   0.360
 7723SOL    HW124068   6.879   3.174   0.313
 7723SOL    HW224069   6.956   3.079   0.422
 7724SOL     OW24070   1.606   4.033   1.322
 7724SOL    HW124071   1.624   3.976   1.403
 7724SOL    HW224072   1.508   4.049   1.313
 7725SOL     OW24073   5.737   2.434   3.475
 7725SOL    HW124074   5.816   2.420   3.414
 7725SOL    HW224075   5.693   2.521   3.452
 7726SOL     OW24076   0.229   4.015   2.912
 7726SOL    HW124077   0.272   3.950   2.975
 7726SOL    HW224078   0.210   4.100   2.960
 7727SOL     OW24079   6.619   2.681   3.555
 7727SOL    HW124080   6.708   2.716   3.582
 7727SOL    HW224081   6.548   2.722   3.612
 7728SOL     OW24082   1.548   3.357   3.071
 7728SOL    HW124083   1.571   3.403   2.985
 7728SOL    HW224084   1.449   3.365   3.087
 7729SOL     OW24085   4.768   2.022   0.919
 7729SOL    HW124086   4.736   2.069   1.001
 7729SOL    HW224087   4.858   2.056   0.894
 7730SOL     OW24088   4.855   6.052   2.711
 7730SOL    HW124089   4.941   6.025   2.754
 7730SOL    HW224090   4.817   6.131   2.758
 7731SOL     OW24091   6.165   0.839   0.588
 7731SOL    HW124092   6.159   0.793   0.499
 7731SOL    HW224093   6.227   0.788   0.647
 7732SOL     OW24094   4.856   5.908   0.533
 7732SOL    HW124095   4.928   5.915   0.464
 7732SOL    HW224096   4.792   5.835   0.506
 7733SOL     OW24097   4.057   0.407   1.388
 7733SOL    HW124098   4.108   0.456   1.459
 7733SOL    HW224099   4.066   0.309   1.402
 7734SOL     OW24100   1.393   3.167   3.319
 7734SOL    HW124101   1.333   3.087   3.324
 7734SOL    HW224102   1.488   3.137   3.325
 7735SOL     OW24103   4.768   4.465   6.517
 7735SOL    HW124104   4.740   4.432   6.427
 7735SOL    HW224105   4.865   4.448   6.530
 7736SOL     OW24106   5.444   4.103   0.065
 7736SOL    HW124107   5.389   4.185   0.081
 7736SOL    HW224108   5.411   4.056   7.009
 7737SOL     OW24109   4.666   2.180   0.638
 7737SOL    HW124110   4.628   2.122   0.566
 7737SOL    HW224111   4.700   2.122   0.712
 7738SOL     OW24112   3.008   5.624   0.527
 7738SOL    HW124113   3.018   5.699   0.592
 7738SOL    HW224114   2.929   5.640   0.469
 7739SOL     OW24115   0.927   2.365   0.741
 7739SOL    HW124116   0.888   2.399   0.656
 7739SOL    HW224117   1.021   2.398   0.750
 7740SOL     OW24118   6.570   0.150   2.536
 7740SOL    HW124119   6.649   0.181   2.589
 7740SOL    HW224120   6.505   0.226   2.524
 7741SOL     OW24121   2.371   6.276   3.752
 7741SOL    HW124122   2.310   6.216   3.803
 7741SOL    HW224123   2.450   6.299   3.809
 7742SOL     OW24124   5.997   1.808   3.447
 7742SOL    HW124125   5.898   1.802   3.435
 7742SOL    HW224126   6.043   1.750   3.380
 7743SOL     OW24127   4.728   2.910   5.506
 7743SOL    HW124128   4.747   2.812   5.500
 7743SOL    HW224129   4.641   2.930   5.462
 7744SOL     OW24130   6.287   6.702   3.810
 7744SOL    HW124131   6.207   6.750   3.846
 7744SOL    HW224132   6.338   6.661   3.886
 7745SOL     OW24133   3.419   2.660   6.643
 7745SOL    HW124134   3.324   2.630   6.638
 7745SOL    HW224135   3.422   2.759   6.658
 7746SOL     OW24136   1.861   0.029   0.319
 7746SOL    HW124137   1.835   0.053   0.225
 7746SOL    HW224138   1.959   0.011   0.324
 7747SOL     OW24139   5.110   6.521   0.795
 7747SOL    HW124140   5.166   6.438   0.791
 7747SOL    HW224141   5.133   6.574   0.876
 7748SOL     OW24142   2.622   3.991   6.226
 7748SOL    HW124143   2.544   4.052   6.212
 7748SOL    HW224144   2.618   3.953   6.318
 7749SOL     OW24145   5.237   2.967   5.794
 7749SOL    HW124146   5.193   2.878   5.785
 7749SOL    HW224147   5.295   2.984   5.714
 7750SOL     OW24148   0.482   6.039   2.124
 7750SOL    HW124149   0.536   6.121   2.137
 7750SOL    HW224150   0.393   6.064   2.084
 7751SOL     OW24151   0.977   2.275   1.595
 7751SOL    HW124152   1.036   2.204   1.631
 7751SOL    HW224153   0.996   2.289   1.498
 7752SOL     OW24154   4.593   1.088   4.532
 7752SOL    HW124155   4.532   1.118   4.458
 7752SOL    HW224156   4.555   1.006   4.575
 7753SOL     OW24157   2.454   1.212   5.558
 7753SOL    HW124158   2.536   1.256   5.521
 7753SOL    HW224159   2.447   1.119   5.522
 7754SOL     OW24160   4.356   6.486   1.731
 7754SOL    HW124161   4.368   6.398   1.685
 7754SOL    HW224162   4.297   6.545   1.676
 7755SOL     OW24163   1.920   4.294   6.109
 7755SOL    HW124164   1.950   4.327   6.020
 7755SOL    HW224165   1.904   4.195   6.105
 7756SOL     OW24166   2.771   6.153   1.515
 7756SOL    HW124167   2.680   6.115   1.531
 7756SOL    HW224168   2.822   6.092   1.455
 7757SOL     OW24169   0.272   4.434   3.251
 7757SOL    HW124170   0.305   4.346   3.215
 7757SOL    HW224171   0.342   4.473   3.311
 7758SOL     OW24172   1.363   0.768   5.205
 7758SOL    HW124173   1.360   0.864   5.177
 7758SOL    HW224174   1.336   0.761   5.301
 7759SOL     OW24175   3.330   1.930   6.789
 7759SOL    HW124176   3.272   1.850   6.778
 7759SOL    HW224177   3.307   1.998   6.719
 7760SOL     OW24178   4.621   2.795   1.362
 7760SOL    HW124179   4.681   2.732   1.314
 7760SOL    HW224180   4.550   2.829   1.299
 7761SOL     OW24181   4.400   5.538   4.547
 7761SOL    HW124182   4.446   5.596   4.479
 7761SOL    HW224183   4.304   5.564   4.553
 7762SOL     OW24184   6.831   0.703   3.436
 7762SOL    HW124185   6.763   0.773   3.414
 7762SOL    HW224186   6.788   0.613   3.435
 7763SOL     OW24187   2.807   0.102   4.863
 7763SOL    HW124188   2.740   0.127   4.792
 7763SOL    HW224189   2.861   0.183   4.887
 7764SOL     OW24190   3.340   4.021   5.451
 7764SOL    HW124191   3.329   4.111   5.492
 7764SOL    HW224192   3.351   3.952   5.523
 7765SOL     OW24193   6.272   2.918   4.296
 7765SOL    HW124194   6.201   2.984   4.271
 7765SOL    HW224195   6.362   2.961   4.289
 7766SOL     OW24196   0.304   4.363   0.116
 7766SOL    HW124197   0.205   4.371   0.127
 7766SOL    HW224198   0.324   4.287   0.054
 7767SOL     OW24199   2.880   1.049   3.206
 7767SOL    HW124200   2.843   1.096   3.286
 7767SOL    HW224201   2.953   1.104   3.166
 7768SOL     OW24202   4.480   5.002   3.107
 7768SOL    HW124203   4.533   5.052   3.175
 7768SOL    HW224204   4.460   5.062   3.030
 7769SOL     OW24205   3.430   2.312   5.367
 7769SOL    HW124206   3.358   2.337   5.302
 7769SOL    HW224207   3.431   2.378   5.442
 7770SOL     OW24208   1.609   3.382   4.783
 7770SOL    HW124209   1.627   3.478   4.807
 7770SOL    HW224210   1.664   3.356   4.704
 7771SOL     OW24211   3.364   2.354   6.339
 7771SOL    HW124212   3.423   2.428   6.370
 7771SOL    HW224213   3.412   2.267   6.350
 7772SOL     OW24214   5.592   0.374   1.566
 7772SOL    HW124215   5.576   0.275   1.567
 7772SOL    HW224216   5.644   0.399   1.648
 7773SOL     OW24217   3.526   6.467   0.517
 7773SOL    HW124218   3.471   6.400   0.567
 7773SOL    HW224219   3.609   6.423   0.483
 7774SOL     OW24220   4.277   1.376   3.262
 7774SOL    HW124221   4.282   1.475   3.275
 7774SOL    HW224222   4.278   1.355   3.164
 7775SOL     OW24223   3.548   0.780   6.740
 7775SOL    HW124224   3.568   0.683   6.756
 7775SOL    HW224225   3.512   0.820   6.825
 7776SOL     OW24226   1.451   0.677   4.899
 7776SOL    HW124227   1.443   0.775   4.916
 7776SOL    HW224228   1.406   0.655   4.812
 7777SOL     OW24229   4.927   5.659   2.916
 7777SOL    HW124230   4.975   5.717   2.982
 7777SOL    HW224231   4.986   5.639   2.838
 7778SOL     OW24232   5.544   4.763   3.008
 7778SOL    HW124233   5.590   4.720   2.930
 7778SOL    HW224234   5.487   4.695   3.054
 7779SOL     OW24235   3.749   5.993   2.352
 7779SOL    HW124236   3.847   5.981   2.341
 7779SOL    HW224237   3.702   5.906   2.336
 7780SOL     OW24238   5.704   5.907   4.952
 7780SOL    HW124239   5.642   5.980   4.980
 7780SOL    HW224240   5.792   5.945   4.924
 7781SOL     OW24241   1.498   2.742   0.361
 7781SOL    HW124242   1.576   2.738   0.298
 7781SOL    HW224243   1.445   2.657   0.354
 7782SOL     OW24244   5.485   4.209   3.342
 7782SOL    HW124245   5.561   4.181   3.400
 7782SOL    HW224246   5.439   4.288   3.383
 7783SOL     OW24247   0.944   0.698   5.075
 7783SOL    HW124248   0.938   0.637   5.154
 7783SOL    HW224249   0.856   0.744   5.062
 7784SOL     OW24250   2.305   2.866   2.705
 7784SOL    HW124251   2.222   2.914   2.734
 7784SOL    HW224252   2.376   2.932   2.684
 7785SOL     OW24253   0.757   6.289   2.525
 7785SOL    HW124254   0.745   6.314   2.429
 7785SOL    HW224255   0.672   6.251   2.561
 7786SOL     OW24256   4.732   6.979   6.357
 7786SOL    HW124257   4.824   6.992   6.395
 7786SOL    HW224258   4.728   7.021   6.266
 7787SOL     OW24259   2.845   2.631   1.176
 7787SOL    HW124260   2.904   2.553   1.193
 7787SOL    HW224261   2.898   2.716   1.186
 7788SOL     OW24262   0.516   4.268   1.584
 7788SOL    HW124263   0.606   4.253   1.543
 7788SOL    HW224264   0.445   4.252   1.515
 7789SOL     OW24265   4.034   0.904   6.551
 7789SOL    HW124266   4.051   0.871   6.459
 7789SOL    HW224267   3.982   0.836   6.603
 7790SOL     OW24268   4.979   4.461   1.654
 7790SOL    HW124269   4.921   4.456   1.735
 7790SOL    HW224270   4.938   4.523   1.588
 7791SOL     OW24271   2.800   5.388   2.692
 7791SOL    HW124272   2.827   5.293   2.679
 7791SOL    HW224273   2.789   5.407   2.789
 7792SOL     OW24274   1.493   1.718   2.124
 7792SOL    HW124275   1.457   1.795   2.176
 7792SOL    HW224276   1.548   1.752   2.048
 7793SOL     OW24277   5.290   0.673   6.484
 7793SOL    HW124278   5.344   0.735   6.428
 7793SOL    HW224279   5.194   0.675   6.454
 7794SOL     OW24280   0.354   6.576   3.225
 7794SOL    HW124281   0.354   6.582   3.125
 7794SOL    HW224282   0.422   6.639   3.262
 7795SOL     OW24283   3.101   5.781   6.650
 7795SOL    HW124284   3.182   5.821   6.692
 7795SOL    HW224285   3.117   5.684   6.631
 7796SOL     OW24286   3.579   3.400   6.175
 7796SOL    HW124287   3.488   3.388   6.137
 7796SOL    HW224288   3.572   3.435   6.268
 7797SOL     OW24289   0.970   6.134   3.033
 7797SOL    HW124290   0.916   6.213   3.063
 7797SOL    HW224291   0.982   6.071   3.110
 7798SOL     OW24292   0.912   2.666   0.989
 7798SOL    HW124293   0.963   2.599   0.936
 7798SOL    HW224294   0.862   2.620   1.062
 7799SOL     OW24295   2.517   6.263   3.509
 7799SOL    HW124296   2.587   6.335   3.510
 7799SOL    HW224297   2.441   6.289   3.569
 7800SOL     OW24298   0.196   6.321   1.774
 7800SOL    HW124299   0.136   6.272   1.711
 7800SOL    HW224300   0.204   6.268   1.859
 7801SOL     OW24301   2.151   2.254   2.012
 7801SOL    HW124302   2.136   2.156   2.020
 7801SOL    HW224303   2.236   2.272   1.964
 7802SOL     OW24304   0.085   3.433   4.648
 7802SOL    HW124305   0.091   3.527   4.681
 7802SOL    HW224306   0.024   3.429   4.569
 7803SOL     OW24307   4.409   2.380   5.879
 7803SOL    HW124308   4.490   2.350   5.829
 7803SOL    HW224309   4.327   2.351   5.830
 7804SOL     OW24310   2.711   2.310   5.421
 7804SOL    HW124311   2.745   2.305   5.516
 7804SOL    HW224312   2.767   2.375   5.370
 7805SOL     OW24313   5.698   3.093   0.547
 7805SOL    HW124314   5.753   3.063   0.625
 7805SOL    HW224315   5.758   3.105   0.467
 7806SOL     OW24316   0.087   2.318   5.651
 7806SOL    HW124317   0.161   2.379   5.619
 7806SOL    HW224318   0.107   2.288   5.744
 7807SOL     OW24319   2.158   5.060   5.656
 7807SOL    HW124320   2.200   4.970   5.647
 7807SOL    HW224321   2.059   5.053   5.642
 7808SOL     OW24322   5.118   3.917   2.866
 7808SOL    HW124323   5.033   3.881   2.905
 7808SOL    HW224324   5.100   3.954   2.775
 7809SOL     OW24325   4.565   5.206   3.636
 7809SOL    HW124326   4.582   5.251   3.723
 7809SOL    HW224327   4.486   5.248   3.591
 7810SOL     OW24328   4.056   6.369   5.227
 7810SOL    HW124329   4.033   6.273   5.209
 7810SOL    HW224330   4.138   6.394   5.176
 7811SOL     OW24331   1.467   5.657   2.500
 7811SOL    HW124332   1.428   5.601   2.428
 7811SOL    HW224333   1.503   5.598   2.573
 7812SOL     OW24334   2.500   2.151   6.351
 7812SOL    HW124335   2.546   2.086   6.292
 7812SOL    HW224336   2.567   2.195   6.411
 7813SOL     OW24337   5.958   1.261   0.967
 7813SOL    HW124338   5.941   1.220   0.878
 7813SOL    HW224339   5.923   1.354   0.968
 7814SOL     OW24340   0.461   3.051   2.288
 7814SOL    HW124341   0.523   3.084   2.217
 7814SOL    HW224342   0.462   3.115   2.365
 7815SOL     OW24343   5.797   2.982   5.086
 7815SOL    HW124344   5.847   3.018   5.165
 7815SOL    HW224345   5.701   3.008   5.094
 7816SOL     OW24346   0.961   1.252   4.974
 7816SOL    HW124347   0.992   1.157   4.976
 7816SOL    HW224348   0.888   1.265   5.041
 7817SOL     OW24349   3.336   2.906   6.409
 7817SOL    HW124350   3.269   2.850   6.457
 7817SOL    HW224351   3.359   2.862   6.322
 7818SOL     OW24352   5.381   1.132   2.019
 7818SOL    HW124353   5.424   1.043   2.003
 7818SOL    HW224354   5.360   1.175   1.931
 7819SOL     OW24355   1.177   3.802   4.097
 7819SOL    HW124356   1.243   3.729   4.114
 7819SOL    HW224357   1.210   3.860   4.022
 7820SOL     OW24358   1.997   0.314   5.501
 7820SOL    HW124359   1.970   0.335   5.408
 7820SOL    HW224360   1.999   0.398   5.556
 7821SOL     OW24361   5.793   5.404   5.897
 7821SOL    HW124362   5.788   5.480   5.961
 7821SOL    HW224363   5.701   5.383   5.863
 7822SOL     OW24364   1.234   1.002   4.688
 7822SOL    HW124365   1.205   0.911   4.660
 7822SOL    HW224366   1.270   1.052   4.609
 7823SOL     OW24367   1.342   4.472   6.882
 7823SOL    HW124368   1.404   4.394   6.884
 7823SOL    HW224369   1.248   4.440   6.899
 7824SOL     OW24370   5.041   2.587   3.043
 7824SOL    HW124371   5.040   2.488   3.057
 7824SOL    HW224372   5.023   2.633   3.130
 7825SOL     OW24373   3.583   3.282   1.901
 7825SOL    HW124374   3.534   3.321   1.823
 7825SOL    HW224375   3.669   3.330   1.915
 7826SOL     OW24376   6.838   0.807   0.144
 7826SOL    HW124377   6.787   0.732   0.103
 7826SOL    HW224378   6.775   0.869   0.191
 7827SOL     OW24379   5.293   4.873   1.567
 7827SOL    HW124380   5.194   4.865   1.552
 7827SOL    HW224381   5.311   4.883   1.665
 7828SOL     OW24382   0.865   6.713   0.949
 7828SOL    HW124383   0.835   6.742   1.040
 7828SOL    HW224384   0.785   6.693   0.893
 7829SOL     OW24385   3.819   2.768   1.763
 7829SOL    HW124386   3.821   2.681   1.714
 7829SOL    HW224387   3.724   2.791   1.785
 7830SOL     OW24388   5.768   2.990   6.694
 7830SOL    HW124389   5.734   2.945   6.776
 7830SOL    HW224390   5.716   3.074   6.677
 7831SOL     OW24391   1.325   3.089   0.557
 7831SOL    HW124392   1.391   3.031   0.511
 7831SOL    HW224393   1.239   3.089   0.506
 7832SOL     OW24394   2.707   2.435   5.774
 7832SOL    HW124395   2.620   2.467   5.810
 7832SOL    HW224396   2.770   2.512   5.766
 7833SOL     OW24397   0.320   0.035   0.571
 7833SOL    HW124398   0.267   6.978   0.588
 7833SOL    HW224399   0.258   0.110   0.546
 7834SOL     OW24400   0.931   0.669   1.287
 7834SOL    HW124401   0.876   0.592   1.255
 7834SOL    HW224402   0.982   0.643   1.369
 7835SOL     OW24403   2.214   3.077   4.850
 7835SOL    HW124404   2.153   3.007   4.813
 7835SOL    HW224405   2.285   3.034   4.905
 7836SOL     OW24406   2.040   6.134   0.242
 7836SOL    HW124407   2.026   6.145   0.340
 7836SOL    HW224408   2.132   6.101   0.224
 7837SOL     OW24409   6.040   0.086   3.060
 7837SOL    HW124410   6.104   0.032   3.005
 7837SOL    HW224411   5.953   0.092   3.011
 7838SOL     OW24412   3.751   6.905   4.665
 7838SOL    HW124413   3.690   6.832   4.696
 7838SOL    HW224414   3.729   6.929   4.571
 7839SOL     OW24415   6.572   4.388   4.720
 7839SOL    HW124416   6.487   4.396   4.772
 7839SOL    HW224417   6.645   4.436   4.769
 7840SOL     OW24418   5.534   2.857   4.273
 7840SOL    HW124419   5.563   2.900   4.188
 7840SOL    HW224420   5.614   2.819   4.320
 7841SOL     OW24421   0.669   1.773   6.341
 7841SOL    HW124422   0.613   1.726   6.272
 7841SOL    HW224423   0.640   1.868   6.348
 7842SOL     OW24424   2.323   0.942   2.784
 7842SOL    HW124425   2.339   0.905   2.875
 7842SOL    HW224426   2.396   1.007   2.761
 7843SOL     OW24427   5.283   3.432   0.577
 7843SOL    HW124428   5.382   3.420   0.580
 7843SOL    HW224429   5.246   3.384   0.498
 7844SOL     OW24430   3.975   0.562   3.508
 7844SOL    HW124431   4.006   0.573   3.603
 7844SOL    HW224432   3.983   0.650   3.461
 7845SOL     OW24433   6.044   1.677   4.462
 7845SOL    HW124434   6.136   1.708   4.483
 7845SOL    HW224435   6.043   1.636   4.370
 7846SOL     OW24436   2.955   6.984   1.829
 7846SOL    HW124437   2.956   6.980   1.929
 7846SOL    HW224438   3.005   6.905   1.793
 7847SOL     OW24439   6.491   0.550   0.479
 7847SOL    HW124440   6.467   0.558   0.382
 7847SOL    HW224441   6.590   0.545   0.489
 7848SOL     OW24442   4.710   3.763   1.655
 7848SOL    HW124443   4.706   3.719   1.565
 7848SOL    HW224444   4.645   3.839   1.657
 7849SOL     OW24445   5.964   3.236   4.905
 7849SOL    HW124446   6.015   3.321   4.893
 7849SOL    HW224447   5.938   3.226   5.001
 7850SOL     OW24448   1.202   0.524   5.353
 7850SOL    HW124449   1.178   0.585   5.429
 7850SOL    HW224450   1.126   0.460   5.337
 7851SOL     OW24451   6.142   6.660   0.416
 7851SOL    HW124452   6.214   6.657   0.484
 7851SOL    HW224453   6.115   6.755   0.400
 7852SOL     OW24454   2.585   6.320   0.058
 7852SOL    HW124455   2.594   6.412   0.098
 7852SOL    HW224456   2.488   6.295   0.057
 7853SOL     OW24457   2.607   3.427   0.173
 7853SOL    HW124458   2.591   3.330   0.194
 7853SOL    HW224459   2.520   3.477   0.179
 7854SOL     OW24460   3.372   4.084   2.436
 7854SOL    HW124461   3.457   4.031   2.440
 7854SOL    HW224462   3.350   4.105   2.341
 7855SOL     OW24463   4.337   5.846   6.155
 7855SOL    HW124464   4.380   5.757   6.147
 7855SOL    HW224465   4.264   5.854   6.087
 7856SOL     OW24466   5.496   3.501   5.604
 7856SOL    HW124467   5.416   3.533   5.554
 7856SOL    HW224468   5.499   3.401   5.602
 7857SOL     OW24469   6.693   1.448   5.933
 7857SOL    HW124470   6.721   1.440   5.837
 7857SOL    HW224471   6.599   1.414   5.943
 7858SOL     OW24472   6.053   3.976   3.047
 7858SOL    HW124473   5.989   3.903   3.022
 7858SOL    HW224474   6.010   4.065   3.029
 7859SOL     OW24475   1.430   5.199   6.248
 7859SOL    HW124476   1.424   5.227   6.344
 7859SOL    HW224477   1.511   5.239   6.206
 7860SOL     OW24478   3.838   0.025   1.806
 7860SOL    HW124479   3.807   6.975   1.863
 7860SOL    HW224480   3.928   0.056   1.837
 7861SOL     OW24481   5.154   4.931   0.629
 7861SOL    HW124482   5.083   4.994   0.660
 7861SOL    HW224483   5.162   4.856   0.694
 7862SOL     OW24484   3.167   4.372   1.365
 7862SOL    HW124485   3.116   4.424   1.296
 7862SOL    HW224486   3.105   4.347   1.440
 7863SOL     OW24487   6.515   5.739   1.658
 7863SOL    HW124488   6.592   5.735   1.721
 7863SOL    HW224489   6.430   5.720   1.707
 7864SOL     OW24490   0.747   5.200   4.800
 7864SOL    HW124491   0.833   5.249   4.786
 7864SOL    HW224492   0.753   5.109   4.758
 7865SOL     OW24493   3.336   0.026   2.942
 7865SOL    HW124494   3.380   0.083   3.011
 7865SOL    HW224495   3.295   6.972   2.986
 7866SOL     OW24496   2.541   1.962   4.181
 7866SOL    HW124497   2.443   1.962   4.200
 7866SOL    HW224498   2.591   1.989   4.264
 7867SOL     OW24499   6.038   4.426   1.939
 7867SOL    HW124500   6.075   4.518   1.951
 7867SOL    HW224501   5.979   4.423   1.859
 7868SOL     OW24502   5.454   6.316   0.529
 7868SOL    HW124503   5.514   6.396   0.534
 7868SOL    HW224504   5.475   6.254   0.604
 7869SOL     OW24505   0.612   3.667   1.688
 7869SOL    HW124506   0.646   3.583   1.731
 7869SOL    HW224507   0.690   3.722   1.657
 7870SOL     OW24508   0.014   5.515   4.127
 7870SOL    HW124509   6.975   5.465   4.185
 7870SOL    HW224510   0.041   5.457   4.050
 7871SOL     OW24511   4.900   3.533   3.030
 7871SOL    HW124512   4.920   3.498   2.939
 7871SOL    HW224513   4.900   3.457   3.096
 7872SOL     OW24514   6.929   3.150   2.740
 7872SOL    HW124515   6.892   3.105   2.822
 7872SOL    HW224516   6.925   3.249   2.752
 7873SOL     OW24517   0.245   5.331   5.224
 7873SOL    HW124518   0.311   5.279   5.170
 7873SOL    HW224519   0.179   5.376   5.163
 7874SOL     OW24520   6.121   1.800   0.431
 7874SOL    HW124521   6.106   1.873   0.497
 7874SOL    HW224522   6.051   1.729   0.443
 7875SOL     OW24523   4.297   3.089   5.979
 7875SOL    HW124524   4.322   3.158   5.911
 7875SOL    HW224525   4.211   3.115   6.022
 7876SOL     OW24526   6.580   0.598   3.700
 7876SOL    HW124527   6.586   0.522   3.635
 7876SOL    HW224528   6.559   0.683   3.651
 7877SOL     OW24529   6.926   2.219   2.695
 7877SOL    HW124530   6.920   2.318   2.707
 7877SOL    HW224531   7.002   2.184   2.750
 7878SOL     OW24532   4.831   4.131   2.316
 7878SOL    HW124533   4.821   4.180   2.230
 7878SOL    HW224534   4.861   4.037   2.297
 7879SOL     OW24535   5.293   6.926   3.797
 7879SOL    HW124536   5.304   6.838   3.751
 7879SOL    HW224537   5.236   6.986   3.740
 7880SOL     OW24538   0.140   6.993   6.575
 7880SOL    HW124539   0.200   6.914   6.564
 7880SOL    HW224540   0.176   0.028   6.645
 7881SOL     OW24541   0.386   4.480   4.628
 7881SOL    HW124542   0.379   4.523   4.718
 7881SOL    HW224543   0.460   4.524   4.576
 7882SOL     OW24544   6.649   3.625   3.205
 7882SOL    HW124545   6.549   3.617   3.206
 7882SOL    HW224546   6.679   3.680   3.282
 7883SOL     OW24547   3.274   1.488   3.413
 7883SOL    HW124548   3.308   1.399   3.445
 7883SOL    HW224549   3.180   1.500   3.442
 7884SOL     OW24550   0.681   4.229   4.694
 7884SOL    HW124551   0.717   4.280   4.616
 7884SOL    HW224552   0.611   4.165   4.663
 7885SOL     OW24553   6.247   5.922   2.963
 7885SOL    HW124554   6.312   5.952   2.893
 7885SOL    HW224555   6.236   5.823   2.958
 7886SOL     OW24556   4.757   2.780   2.161
 7886SOL    HW124557   4.721   2.747   2.074
 7886SOL    HW224558   4.745   2.880   2.167
 7887SOL     OW24559   3.006   3.339   0.152
 7887SOL    HW124560   3.082   3.401   0.134
 7887SOL    HW224561   2.933   3.355   0.085
 7888SOL     OW24562   5.605   1.542   3.759
 7888SOL    HW124563   5.678   1.599   3.723
 7888SOL    HW224564   5.643   1.473   3.821
 7889SOL     OW24565   6.115   4.705   1.087
 7889SOL    HW124566   6.074   4.620   1.053
 7889SOL    HW224567   6.050   4.750   1.150
 7890SOL     OW24568   0.788   3.772   4.229
 7890SOL    HW124569   0.735   3.811   4.304
 7890SOL    HW224570   0.856   3.709   4.266
 7891SOL     OW24571   0.440   2.514   3.921
 7891SOL    HW124572   0.342   2.534   3.912
 7891SOL    HW224573   0.485   2.528   3.833
 7892SOL     OW24574   1.133   3.303   5.841
 7892SOL    HW124575   1.090   3.301   5.751
 7892SOL    HW224576   1.075   3.255   5.907
 7893SOL     OW24577   6.348   1.321   1.519
 7893SOL    HW124578   6.392   1.268   1.447
 7893SOL    HW224579   6.382   1.290   1.608
 7894SOL     OW24580   2.475   0.815   6.136
 7894SOL    HW124581   2.454   0.881   6.207
 7894SOL    HW224582   2.560   0.841   6.090
 7895SOL     OW24583   4.002   6.305   3.340
 7895SOL    HW124584   3.947   6.327   3.260
 7895SOL    HW224585   3.944   6.260   3.409
 7896SOL     OW24586   3.989   2.311   1.332
 7896SOL    HW124587   4.072   2.256   1.335
 7896SOL    HW224588   3.925   2.272   1.265
 7897SOL     OW24589   3.649   4.342   0.361
 7897SOL    HW124590   3.589   4.420   0.376
 7897SOL    HW224591   3.623   4.295   0.276
 7898SOL     OW24592   5.598   0.266   4.276
 7898SOL    HW124593   5.675   0.272   4.213
 7898SOL    HW224594   5.593   0.174   4.315
 7899SOL     OW24595   5.520   4.857   1.133
 7899SOL    HW124596   5.492   4.763   1.114
 7899SOL    HW224597   5.519   4.873   1.231
 7900SOL     OW24598   1.091   3.888   0.238
 7900SOL    HW124599   1.088   3.984   0.210
 7900SOL    HW224600   1.155   3.877   0.314
 7901SOL     OW24601   5.900   1.105   6.240
 7901SOL    HW124602   5.994   1.103   6.274
 7901SOL    HW224603   5.901   1.117   6.141
 7902SOL     OW24604   0.667   6.581   2.940
 7902SOL    HW124605   0.715   6.541   3.018
 7902SOL    HW224606   0.728   6.582   2.860
 7903SOL     OW24607   2.135   1.894   4.586
 7903SOL    HW124608   2.078   1.976   4.597
 7903SOL    HW224609   2.230   1.917   4.608
 7904SOL     OW24610   5.771   1.053   1.939
 7904SOL    HW124611   5.799   1.148   1.951
 7904SOL    HW224612   5.850   0.993   1.953
 7905SOL     OW24613   5.662   0.063   0.475
 7905SOL    HW124614   5.621   0.024   0.558
 7905SOL    HW224615   5.734   0.127   0.500
 7906SOL     OW24616   1.149   4.740   1.098
 7906SOL    HW124617   1.114   4.801   1.027
 7906SOL    HW224618   1.118   4.772   1.188
 7907SOL     OW24619   6.242   0.159   3.706
 7907SOL    HW124620   6.293   0.182   3.623
 7907SOL    HW224621   6.159   0.214   3.711
 7908SOL     OW24622   0.225   0.760   6.685
 7908SOL    HW124623   0.314   0.792   6.654
 7908SOL    HW224624   0.228   0.740   6.783
 7909SOL     OW24625   5.814   3.738   1.777
 7909SOL    HW124626   5.832   3.730   1.875
 7909SOL    HW224627   5.736   3.680   1.753
 7910SOL     OW24628   2.260   3.511   0.462
 7910SOL    HW124629   2.337   3.528   0.401
 7910SOL    HW224630   2.283   3.436   0.524
 7911SOL     OW24631   1.262   4.454   0.309
 7911SOL    HW124632   1.215   4.519   0.370
 7911SOL    HW224633   1.230   4.361   0.329
 7912SOL     OW24634   5.936   5.383   0.328
 7912SOL    HW124635   5.910   5.440   0.250
 7912SOL    HW224636   5.860   5.381   0.394
 7913SOL     OW24637   0.718   3.426   0.603
 7913SOL    HW124638   0.632   3.380   0.583
 7913SOL    HW224639   0.789   3.391   0.543
 7914SOL     OW24640   6.323   4.912   4.846
 7914SOL    HW124641   6.407   4.874   4.886
 7914SOL    HW224642   6.325   5.011   4.852
 7915SOL     OW24643   3.560   6.988   2.767
 7915SOL    HW124644   3.570   0.035   2.700
 7915SOL    HW224645   3.512   7.023   2.848
 7916SOL     OW24646   1.433   0.693   4.587
 7916SOL    HW124647   1.334   0.700   4.597
 7916SOL    HW224648   1.463   0.757   4.516
 7917SOL     OW24649   3.950   3.399   0.266
 7917SOL    HW124650   4.028   3.431   0.212
 7917SOL    HW224651   3.865   3.414   0.214
 7918SOL     OW24652   2.304   0.830   4.902
 7918SOL    HW124653   2.232   0.763   4.920
 7918SOL    HW224654   2.263   0.921   4.894
 7919SOL     OW24655   1.347   5.484   2.283
 7919SOL    HW124656   1.257   5.507   2.246
 7919SOL    HW224657   1.417   5.507   2.215
 7920SOL     OW24658   4.683   0.119   0.641
 7920SOL    HW124659   4.710   0.215   0.631
 7920SOL    HW224660   4.668   0.099   0.738
 7921SOL     OW24661   4.789   1.466   1.681
 7921SOL    HW124662   4.730   1.409   1.738
 7921SOL    HW224663   4.870   1.492   1.733
 7922SOL     OW24664   0.430   5.805   0.799
 7922SOL    HW124665   0.520   5.778   0.834
 7922SOL    HW224666   0.422   5.778   0.703
 7923SOL     OW24667   3.951   1.333   6.680
 7923SOL    HW124668   3.946   1.432   6.690
 7923SOL    HW224669   3.955   1.290   6.771
 7924SOL     OW24670   6.025   0.514   1.110
 7924SOL    HW124671   6.041   0.416   1.095
 7924SOL    HW224672   5.946   0.543   1.056
 7925SOL     OW24673   2.564   6.444   0.978
 7925SOL    HW124674   2.477   6.465   1.022
 7925SOL    HW224675   2.638   6.490   1.027
 7926SOL     OW24676   4.819   6.176   6.319
 7926SOL    HW124677   4.841   6.101   6.381
 7926SOL    HW224678   4.896   6.192   6.258
 7927SOL     OW24679   4.999   6.877   2.324
 7927SOL    HW124680   5.097   6.863   2.334
 7927SOL    HW224681   4.976   6.882   2.227
 7928SOL     OW24682   6.531   1.551   3.153
 7928SOL    HW124683   6.579   1.523   3.236
 7928SOL    HW224684   6.591   1.608   3.097
 7929SOL     OW24685   4.188   4.324   6.031
 7929SOL    HW124686   4.143   4.381   6.100
 7929SOL    HW224687   4.160   4.229   6.043
 7930SOL     OW24688   3.998   5.946   5.641
 7930SOL    HW124689   3.905   5.910   5.636
 7930SOL    HW224690   4.027   5.951   5.736
 7931SOL     OW24691   3.056   2.408   0.709
 7931SOL    HW124692   2.994   2.385   0.634
 7931SOL    HW224693   3.120   2.479   0.679
 7932SOL     OW24694   0.469   5.579   1.417
 7932SOL    HW124695   0.445   5.576   1.320
 7932SOL    HW224696   0.387   5.603   1.470
 7933SOL     OW24697   0.142   1.350   5.954
 7933SOL    HW124698   0.098   1.402   6.027
 7933SOL    HW224699   0.073   1.301   5.901
 7934SOL     OW24700   1.136   4.303   0.931
 7934SOL    HW124701   1.124   4.297   0.832
 7934SOL    HW224702   1.084   4.381   0.966
 7935SOL     OW24703   5.411   3.570   2.640
 7935SOL    HW124704   5.446   3.529   2.724
 7935SOL    HW224705   5.375   3.661   2.659
 7936SOL     OW24706   3.563   6.139   4.150
 7936SOL    HW124707   3.513   6.055   4.173
 7936SOL    HW224708   3.594   6.134   4.056
 7937SOL     OW24709   2.330   5.849   6.855
 7937SOL    HW124710   2.284   5.771   6.897
 7937SOL    HW224711   2.347   5.830   6.758
 7938SOL     OW24712   3.711   6.601   4.451
 7938SOL    HW124713   3.704   6.621   4.549
 7938SOL    HW224714   3.624   6.566   4.418
 7939SOL     OW24715   0.627   2.179   4.984
 7939SOL    HW124716   0.580   2.093   5.000
 7939SOL    HW224717   0.635   2.229   5.070
 7940SOL     OW24718   5.185   1.181   3.333
 7940SOL    HW124719   5.217   1.257   3.275
 7940SOL    HW224720   5.178   1.099   3.277
 7941SOL     OW24721   3.891   6.733   2.220
 7941SOL    HW124722   3.897   6.659   2.153
 7941SOL    HW224723   3.883   6.820   2.172
 7942SOL     OW24724   0.848   4.140   1.699
 7942SOL    HW124725   0.901   4.116   1.618
 7942SOL    HW224726   0.838   4.060   1.758
 7943SOL     OW24727   2.054   5.362   6.561
 7943SOL    HW124728   1.989   5.288   6.576
 7943SOL    HW224729   2.084   5.362   6.465
 7944SOL     OW24730   1.373   3.052   0.853
 7944SOL    HW124731   1.368   3.078   0.756
 7944SOL    HW224732   1.318   3.116   0.907
 7945SOL     OW24733   5.804   4.632   2.472
 7945SOL    HW124734   5.899   4.619   2.444
 7945SOL    HW224735   5.789   4.585   2.559
 7946SOL     OW24736   4.004   1.350   5.117
 7946SOL    HW124737   3.951   1.268   5.093
 7946SOL    HW224738   3.942   1.426   5.135
 7947SOL     OW24739   1.213   2.632   5.252
 7947SOL    HW124740   1.286   2.677   5.304
 7947SOL    HW224741   1.194   2.542   5.291
 7948SOL     OW24742   1.464   4.941   2.577
 7948SOL    HW124743   1.480   4.963   2.673
 7948SOL    HW224744   1.486   4.845   2.560
 7949SOL     OW24745   3.654   4.996   6.484
 7949SOL    HW124746   3.592   4.918   6.491
 7949SOL    HW224747   3.604   5.080   6.505
 7950SOL     OW24748   5.915   5.064   5.502
 7950SOL    HW124749   5.854   4.994   5.465
 7950SOL    HW224750   6.010   5.036   5.490
 7951SOL     OW24751   3.211   5.508   2.766
 7951SOL    HW124752   3.211   5.473   2.860
 7951SOL    HW224753   3.160   5.594   2.763
 7952SOL     OW24754   5.625   2.943   6.936
 7952SOL    HW124755   5.573   2.902   7.011
 7952SOL    HW224756   5.580   3.027   6.907
 7953SOL     OW24757   3.034   1.797   0.857
 7953SOL    HW124758   2.951   1.761   0.815
 7953SOL    HW224759   3.091   1.721   0.888
 7954SOL     OW24760   3.364   3.248   0.328
 7954SOL    HW124761   3.429   3.261   0.403
 7954SOL    HW224762   3.307   3.168   0.347
 7955SOL     OW24763   1.665   1.288   6.606
 7955SOL    HW124764   1.605   1.342   6.547
 7955SOL    HW224765   1.730   1.349   6.651
 7956SOL     OW24766   6.713   0.266   1.236
 7956SOL    HW124767   6.741   0.258   1.332
 7956SOL    HW224768   6.794   0.282   1.179
 7957SOL     OW24769   5.051   0.238   5.228
 7957SOL    HW124770   5.009   0.228   5.318
 7957SOL    HW224771   4.986   0.211   5.157
 7958SOL     OW24772   5.778   3.252   0.012
 7958SOL    HW124773   5.811   3.303   0.091
 7958SOL    HW224774   5.848   3.250   6.967
 7959SOL     OW24775   5.254   0.858   5.752
 7959SOL    HW124776   5.215   0.945   5.782
 7959SOL    HW224777   5.241   0.849   5.653
 7960SOL     OW24778   0.056   0.811   6.282
 7960SOL    HW124779   6.996   0.815   6.231
 7960SOL    HW224780   0.124   0.760   6.230
 7961SOL     OW24781   6.483   0.530   0.188
 7961SOL    HW124782   6.512   0.600   0.123
 7961SOL    HW224783   6.499   0.440   0.149
 7962SOL     OW24784   6.257   6.563   5.869
 7962SOL    HW124785   6.289   6.581   5.962
 7962SOL    HW224786   6.328   6.516   5.818
 7963SOL     OW24787   6.832   5.357   4.198
 7963SOL    HW124788   6.782   5.321   4.276
 7963SOL    HW224789   6.778   5.344   4.115
 7964SOL     OW24790   6.515   3.492   2.242
 7964SOL    HW124791   6.477   3.419   2.299
 7964SOL    HW224792   6.467   3.496   2.155
 7965SOL     OW24793   4.239   1.816   6.811
 7965SOL    HW124794   4.286   1.795   6.725
 7965SOL    HW224795   4.260   1.745   6.879
 7966SOL     OW24796   4.494   4.111   5.390
 7966SOL    HW124797   4.407   4.158   5.374
 7966SOL    HW224798   4.562   4.143   5.324
 7967SOL     OW24799   1.448   4.853   2.112
 7967SOL    HW124800   1.489   4.837   2.022
 7967SOL    HW224801   1.362   4.802   2.119
 7968SOL     OW24802   6.386   1.933   4.356
 7968SOL    HW124803   6.466   1.982   4.321
 7968SOL    HW224804   6.385   1.840   4.318
 7969SOL     OW24805   4.861   6.024   0.092
 7969SOL    HW124806   4.830   5.936   0.128
 7969SOL    HW224807   4.958   6.017   0.067
 7970SOL     OW24808   5.959   3.185   2.531
 7970SOL    HW124809   5.969   3.118   2.605
 7970SOL    HW224810   6.050   3.213   2.499
 7971SOL     OW24811   3.091   1.332   0.923
 7971SOL    HW124812   3.066   1.278   0.842
 7971SOL    HW224813   3.129   1.420   0.894
 7972SOL     OW24814   3.902   3.245   2.949
 7972SOL    HW124815   3.925   3.150   2.970
 7972SOL    HW224816   3.818   3.270   2.996
 7973SOL     OW24817   5.739   3.742   3.414
 7973SOL    HW124818   5.784   3.658   3.382
 7973SOL    HW224819   5.756   3.816   3.348
 7974SOL     OW24820   6.468   1.828   4.947
 7974SOL    HW124821   6.384   1.780   4.971
 7974SOL    HW224822   6.519   1.775   4.880
 7975SOL     OW24823   5.302   0.956   1.092
 7975SOL    HW124824   5.262   1.048   1.098
 7975SOL    HW224825   5.310   0.917   1.183
 7976SOL     OW24826   1.140   6.628   6.738
 7976SOL    HW124827   1.230   6.584   6.731
 7976SOL    HW224828   1.145   6.720   6.698
 7977SOL     OW24829   5.618   6.323   2.773
 7977SOL    HW124830   5.596   6.404   2.719
 7977SOL    HW224831   5.550   6.311   2.845
 7978SOL     OW24832   0.575   4.610   0.859
 7978SOL    HW124833   0.506   4.540   0.876
 7978SOL    HW224834   0.563   4.685   0.925
 7979SOL     OW24835   1.406   4.052   4.962
 7979SOL    HW124836   1.502   4.071   4.983
 7979SOL    HW224837   1.347   4.111   5.017
 7980SOL     OW24838   3.871   5.370   6.415
 7980SOL    HW124839   3.942   5.418   6.466
 7980SOL    HW224840   3.911   5.290   6.371
 7981SOL     OW24841   1.889   5.222   3.184
 7981SOL    HW124842   1.894   5.151   3.253
 7981SOL    HW224843   1.979   5.263   3.170
 7982SOL     OW24844   1.102   2.470   6.316
 7982SOL    HW124845   1.100   2.511   6.225
 7982SOL    HW224846   1.013   2.431   6.337
 7983SOL     OW24847   5.228   0.647   1.086
 7983SOL    HW124848   5.135   0.682   1.076
 7983SOL    HW224849   5.270   0.686   1.167
 7984SOL     OW24850   1.166   1.800   1.584
 7984SOL    HW124851   1.149   1.788   1.682
 7984SOL    HW224852   1.232   1.732   1.553
 7985SOL     OW24853   1.929   2.541   5.694
 7985SOL    HW124854   1.873   2.562   5.614
 7985SOL    HW224855   2.014   2.593   5.690
 7986SOL     OW24856   3.249   1.128   3.733
 7986SOL    HW124857   3.218   1.205   3.789
 7986SOL    HW224858   3.291   1.059   3.792
 7987SOL     OW24859   1.249   3.658   0.584
 7987SOL    HW124860   1.235   3.577   0.641
 7987SOL    HW224861   1.313   3.720   0.630
 7988SOL     OW24862   0.293   1.811   1.053
 7988SOL    HW124863   0.266   1.898   1.093
 7988SOL    HW224864   0.211   1.755   1.036
 7989SOL     OW24865   0.846   4.375   0.535
 7989SOL    HW124866   0.801   4.296   0.577
 7989SOL    HW224867   0.797   4.401   0.452
 7990SOL     OW24868   3.104   5.353   5.494
 7990SOL    HW124869   3.066   5.444   5.508
 7990SOL    HW224870   3.177   5.337   5.561
 7991SOL     OW24871   5.596   1.162   5.222
 7991SOL    HW124872   5.645   1.132   5.141
 7991SOL    HW224873   5.589   1.262   5.223
 7992SOL     OW24874   2.676   0.638   0.391
 7992SOL    HW124875   2.650   0.733   0.373
 7992SOL    HW224876   2.710   0.630   0.485
 7993SOL     OW24877   6.616   6.294   1.679
 7993SOL    HW124878   6.589   6.301   1.775
 7993SOL    HW224879   6.714   6.275   1.673
 7994SOL     OW24880   5.140   0.706   3.207
 7994SOL    HW124881   5.108   0.772   3.139
 7994SOL    HW224882   5.240   0.711   3.214
 7995SOL     OW24883   0.082   4.492   1.624
 7995SOL    HW124884   0.046   4.583   1.607
 7995SOL    HW224885   0.010   4.434   1.661
 7996SOL     OW24886   3.815   6.726   3.200
 7996SOL    HW124887   3.898   6.719   3.255
 7996SOL    HW224888   3.806   6.644   3.143
 7997SOL     OW24889   0.615   2.160   6.573
 7997SOL    HW124890   0.610   2.081   6.634
 7997SOL    HW224891   0.670   2.232   6.615
 7998SOL     OW24892   3.248   0.766   0.241
 7998SOL    HW124893   3.346   0.751   0.254
 7998SOL    HW224894   3.220   0.728   0.153
 7999SOL     OW24895   1.566   1.456   5.171
 7999SOL    HW124896   1.560   1.427   5.267
 7999SOL    HW224897   1.659   1.483   5.150
 8000SOL     OW24898   5.731   5.890   6.212
 8000SOL    HW124899   5.798   5.927   6.147
 8000SOL    HW224900   5.753   5.922   6.304
 8001SOL     OW24901   4.609   0.370   1.094
 8001SOL    HW124902   4.581   0.352   1.188
 8001SOL    HW224903   4.539   0.424   1.047
 8002SOL     OW24904   0.648   0.322   5.788
 8002SOL    HW124905   0.569   0.382   5.799
 8002SOL    HW224906   0.639   0.243   5.849
 8003SOL     OW24907   1.987   6.490   2.731
 8003SOL    HW124908   1.995   6.579   2.778
 8003SOL    HW224909   1.970   6.419   2.799
 8004SOL     OW24910   0.929   2.957   3.917
 8004SOL    HW124911   0.956   2.973   4.012
 8004SOL    HW224912   0.873   3.034   3.885
 8005SOL     OW24913   2.565   0.613   3.561
 8005SOL    HW124914   2.490   0.603   3.495
 8005SOL    HW224915   2.608   0.702   3.549
 8006SOL     OW24916   3.914   4.701   5.396
 8006SOL    HW124917   3.964   4.644   5.461
 8006SOL    HW224918   3.825   4.725   5.434
 8007SOL     OW24919   5.998   1.164   6.662
 8007SOL    HW124920   6.024   1.257   6.690
 8007SOL    HW224921   5.955   1.117   6.739
 8008SOL     OW24922   4.653   6.482   6.873
 8008SOL    HW124923   4.681   6.517   6.784
 8008SOL    HW224924   4.558   6.508   6.892
 8009SOL     OW24925   5.192   1.337   0.916
 8009SOL    HW124926   5.197   1.295   1.006
 8009SOL    HW224927   5.208   1.436   0.924
 8010SOL     OW24928   2.877   2.632   5.380
 8010SOL    HW124929   2.799   2.674   5.427
 8010SOL    HW224930   2.844   2.565   5.313
 8011SOL     OW24931   3.755   1.752   2.235
 8011SOL    HW124932   3.764   1.850   2.252
 8011SOL    HW224933   3.675   1.735   2.177
 8012SOL     OW24934   1.080   2.906   5.450
 8012SOL    HW124935   1.035   2.942   5.531
 8012SOL    HW224936   1.156   2.966   5.424
 8013SOL     OW24937   1.755   2.704   3.372
 8013SOL    HW124938   1.689   2.659   3.432
 8013SOL    HW224939   1.706   2.751   3.299
 8014SOL     OW24940   1.871   0.940   3.185
 8014SOL    HW124941   1.867   1.037   3.208
 8014SOL    HW224942   1.790   0.915   3.132
 8015SOL     OW24943   2.355   6.753   5.289
 8015SOL    HW124944   2.337   6.781   5.195
 8015SOL    HW224945   2.453   6.744   5.303
 8016SOL     OW24946   4.451   1.621   6.004
 8016SOL    HW124947   4.421   1.586   6.093
 8016SOL    HW224948   4.500   1.707   6.018
 8017SOL     OW24949   6.973   0.440   0.361
 8017SOL    HW124950   6.926   0.441   0.272
 8017SOL    HW224951   6.906   0.430   0.434
 8018SOL     OW24952   3.926   1.369   0.374
 8018SOL    HW124953   3.900   1.456   0.332
 8018SOL    HW224954   4.025   1.365   0.383
 8019SOL     OW24955   3.063   3.255   0.760
 8019SOL    HW124956   3.064   3.339   0.815
 8019SOL    HW224957   3.157   3.223   0.747
 8020SOL     OW24958   0.326   0.363   5.115
 8020SOL    HW124959   0.401   0.417   5.074
 8020SOL    HW224960   0.362   0.309   5.191
 8021SOL     OW24961   1.437   2.213   2.380
 8021SOL    HW124962   1.427   2.297   2.327
 8021SOL    HW224963   1.493   2.231   2.460
 8022SOL     OW24964   5.074   1.161   2.412
 8022SOL    HW124965   5.112   1.102   2.341
 8022SOL    HW224966   5.084   1.115   2.501
 8023SOL     OW24967   4.886   6.139   3.741
 8023SOL    HW124968   4.844   6.050   3.759
 8023SOL    HW224969   4.884   6.158   3.643
 8024SOL     OW24970   2.101   6.312   6.285
 8024SOL    HW124971   2.098   6.333   6.187
 8024SOL    HW224972   2.023   6.255   6.309
 8025SOL     OW24973   2.206   5.217   1.398
 8025SOL    HW124974   2.264   5.162   1.458
 8025SOL    HW224975   2.226   5.194   1.303
 8026SOL     OW24976   0.715   5.690   6.560
 8026SOL    HW124977   0.770   5.676   6.477
 8026SOL    HW224978   0.736   5.780   6.599
 8027SOL     OW24979   3.635   6.337   6.618
 8027SOL    HW124980   3.669   6.279   6.692
 8027SOL    HW224981   3.655   6.294   6.530
 8028SOL     OW24982   2.894   5.347   4.508
 8028SOL    HW124983   2.989   5.331   4.534
 8028SOL    HW224984   2.858   5.268   4.458
 8029SOL     OW24985   6.439   1.238   1.263
 8029SOL    HW124986   6.497   1.312   1.232
 8029SOL    HW224987   6.343   1.261   1.245
 8030SOL     OW24988   6.153   4.912   0.855
 8030SOL    HW124989   6.145   4.821   0.895
 8030SOL    HW224990   6.235   4.957   0.891
 8031SOL     OW24991   6.701   0.741   2.926
 8031SOL    HW124992   6.618   0.687   2.943
 8031SOL    HW224993   6.731   0.783   3.012
 8032SOL     OW24994   5.544   2.710   0.727
 8032SOL    HW124995   5.522   2.613   0.728
 8032SOL    HW224996   5.640   2.723   0.702
 8033SOL     OW24997   3.986   4.490   1.039
 8033SOL    HW124998   4.046   4.412   1.058
 8033SOL    HW224999   4.008   4.527   0.949
 8034SOL     OW25000   5.909   6.913   5.495
 8034SOL    HW125001   5.834   6.847   5.490
 8034SOL    HW225002   5.996   6.865   5.482
 8035SOL     OW25003   4.802   1.691   3.016
 8035SOL    HW125004   4.758   1.603   2.999
 8035SOL    HW225005   4.896   1.689   2.982
 8036SOL     OW25006   6.263   3.136   3.932
 8036SOL    HW125007   6.276   3.224   3.888
 8036SOL    HW225008   6.291   3.063   3.869
 8037SOL     OW25009   1.233   3.014   6.539
 8037SOL    HW125010   1.193   3.033   6.449
 8037SOL    HW225011   1.187   2.935   6.580
 8038SOL     OW25012   6.200   6.466   2.360
 8038SOL    HW125013   6.270   6.512   2.305
 8038SOL    HW225014   6.199   6.369   2.338
 8039SOL     OW25015   1.225   2.006   5.736
 8039SOL    HW125016   1.229   1.946   5.816
 8039SOL    HW225017   1.255   2.098   5.762
 8040SOL     OW25018   1.823   5.509   5.927
 8040SOL    HW125019   1.796   5.413   5.933
 8040SOL    HW225020   1.743   5.565   5.907
 8041SOL     OW25021   4.146   1.615   2.987
 8041SOL    HW125022   4.138   1.646   3.082
 8041SOL    HW225023   4.193   1.685   2.933
 8042SOL     OW25024   4.359   4.247   5.677
 8042SOL    HW125025   4.289   4.175   5.669
 8042SOL    HW225026   4.314   4.335   5.689
 8043SOL     OW25027   5.369   4.127   0.502
 8043SOL    HW125028   5.468   4.118   0.511
 8043SOL    HW225029   5.334   4.184   0.576
 8044SOL     OW25030   3.409   3.834   0.947
 8044SOL    HW125031   3.448   3.868   1.032
 8044SOL    HW225032   3.309   3.837   0.953
 8045SOL     OW25033   0.829   1.335   2.331
 8045SOL    HW125034   0.843   1.319   2.429
 8045SOL    HW225035   0.758   1.274   2.297
 8046SOL     OW25036   0.365   5.312   2.128
 8046SOL    HW125037   0.436   5.302   2.198
 8046SOL    HW225038   0.378   5.398   2.078
 8047SOL     OW25039   4.159   6.977   5.410
 8047SOL    HW125040   4.142   6.957   5.507
 8047SOL    HW225041   4.133   0.046   5.390
 8048SOL     OW25042   3.332   4.133   0.157
 8048SOL    HW125043   3.285   4.195   0.220
 8048SOL    HW225044   3.375   4.059   0.208
 8049SOL     OW25045   1.975   0.121   0.645
 8049SOL    HW125046   2.052   0.068   0.682
 8049SOL    HW225047   1.987   0.131   0.546
 8050SOL     OW25048   2.098   4.579   4.032
 8050SOL    HW125049   2.066   4.645   4.099
 8050SOL    HW225050   2.105   4.488   4.074
 8051SOL     OW25051   3.068   6.345   4.312
 8051SOL    HW125052   3.140   6.317   4.248
 8051SOL    HW225053   3.090   6.435   4.350
 8052SOL     OW25054   2.260   1.975   1.927
 8052SOL    HW125055   2.241   1.925   1.843
 8052SOL    HW225056   2.219   1.928   2.005
 8053SOL     OW25057   2.682   3.550   6.214
 8053SOL    HW125058   2.681   3.488   6.136
 8053SOL    HW225059   2.650   3.502   6.296
 8054SOL     OW25060   5.426   4.093   4.950
 8054SOL    HW125061   5.423   4.118   5.047
 8054SOL    HW225062   5.429   4.175   4.894
 8055SOL     OW25063   0.228   0.614   5.337
 8055SOL    HW125064   0.133   0.620   5.305
 8055SOL    HW225065   0.277   0.697   5.313
 8056SOL     OW25066   2.336   0.880   3.844
 8056SOL    HW125067   2.307   0.868   3.938
 8056SOL    HW225068   2.403   0.955   3.839
 8057SOL     OW25069   2.416   2.648   1.837
 8057SOL    HW125070   2.377   2.607   1.755
 8057SOL    HW225071   2.416   2.581   1.912
 8058SOL     OW25072   2.909   6.726   2.882
 8058SOL    HW125073   2.861   6.750   2.798
 8058SOL    HW225074   2.978   6.796   2.902
 8059SOL     OW25075   2.719   3.360   6.419
 8059SOL    HW125076   2.786   3.285   6.423
 8059SOL    HW225077   2.681   3.375   6.510
 8060SOL     OW25078   6.527   6.983   5.649
 8060SOL    HW125079   6.615   0.005   5.654
 8060SOL    HW225080   6.453   0.025   5.642
 8061SOL     OW25081   0.678   1.561   2.373
 8061SOL    HW125082   0.737   1.485   2.347
 8061SOL    HW225083   0.694   1.639   2.312
 8062SOL     OW25084   4.205   6.045   5.220
 8062SOL    HW125085   4.235   5.980   5.150
 8062SOL    HW225086   4.285   6.086   5.264
 8063SOL     OW25087   3.568   0.586   3.076
 8063SOL    HW125088   3.512   0.507   3.049
 8063SOL    HW225089   3.654   0.553   3.117
 8064SOL     OW25090   5.937   2.858   0.044
 8064SOL    HW125091   5.971   2.884   6.979
 8064SOL    HW225092   5.862   2.919   0.071
 8065SOL     OW25093   3.170   6.806   5.070
 8065SOL    HW125094   3.102   6.749   5.024
 8065SOL    HW225095   3.161   6.901   5.037
 8066SOL     OW25096   0.089   1.101   4.793
 8066SOL    HW125097   0.173   1.142   4.829
 8066SOL    HW225098   0.010   1.135   4.845
 8067SOL     OW25099   4.989   3.039   3.516
 8067SOL    HW125100   4.953   3.052   3.608
 8067SOL    HW225101   4.920   2.992   3.460
 8068SOL     OW25102   6.339   4.607   1.182
 8068SOL    HW125103   6.420   4.646   1.139
 8068SOL    HW225104   6.258   4.657   1.152
 8069SOL     OW25105   3.059   5.019   2.297
 8069SOL    HW125106   3.124   5.090   2.324
 8069SOL    HW225107   3.072   4.999   2.199
 8070SOL     OW25108   5.367   4.470   0.356
 8070SOL    HW125109   5.462   4.441   0.343
 8070SOL    HW225110   5.364   4.569   0.368
 8071SOL     OW25111   3.968   6.672   6.113
 8071SOL    HW125112   3.975   6.693   6.210
 8071SOL    HW225113   3.958   6.757   6.061
 8072SOL     OW25114   2.025   2.966   6.551
 8072SOL    HW125115   1.931   3.001   6.546
 8072SOL    HW225116   2.086   3.039   6.581
 8073SOL     OW25117   3.487   0.336   6.930
 8073SOL    HW125118   3.530   0.386   7.005
 8073SOL    HW225119   3.549   0.336   6.851
 8074SOL     OW25120   2.090   2.039   0.342
 8074SOL    HW125121   2.185   2.070   0.344
 8074SOL    HW225122   2.074   1.989   0.258
 8075SOL     OW25123   0.041   6.312   6.700
 8075SOL    HW125124   0.005   6.349   6.785
 8075SOL    HW225125   0.011   6.218   6.688
 8076SOL     OW25126   6.380   6.970   6.872
 8076SOL    HW125127   6.480   6.972   6.874
 8076SOL    HW225128   6.347   6.886   6.915
 8077SOL     OW25129   3.973   5.805   1.827
 8077SOL    HW125130   3.973   5.711   1.860
 8077SOL    HW225131   3.974   5.805   1.727
 8078SOL     OW25132   0.907   1.261   0.652
 8078SOL    HW125133   0.994   1.242   0.606
 8078SOL    HW225134   0.840   1.293   0.584
 8079SOL     OW25135   1.415   1.296   5.039
 8079SOL    HW125136   1.340   1.358   5.015
 8079SOL    HW225137   1.487   1.347   5.086
 8080SOL     OW25138   1.399   3.636   3.106
 8080SOL    HW125139   1.337   3.558   3.106
 8080SOL    HW225140   1.348   3.719   3.083
 8081SOL     OW25141   6.073   4.891   4.718
 8081SOL    HW125142   6.052   4.809   4.665
 8081SOL    HW225143   6.149   4.871   4.781
 8082SOL     OW25144   2.810   1.623   2.561
 8082SOL    HW125145   2.876   1.660   2.496
 8082SOL    HW225146   2.718   1.631   2.523
 8083SOL     OW25147   5.788   1.992   4.768
 8083SOL    HW125148   5.749   1.990   4.861
 8083SOL    HW225149   5.721   2.031   4.705
 8084SOL     OW25150   2.514   0.300   6.353
 8084SOL    HW125151   2.569   0.324   6.433
 8084SOL    HW225152   2.427   0.350   6.357
 8085SOL     OW25153   0.575   5.569   3.935
 8085SOL    HW125154   0.610   5.480   3.962
 8085SOL    HW225155   0.650   5.627   3.904
 8086SOL     OW25156   0.794   1.434   2.067
 8086SOL    HW125157   0.850   1.382   2.002
 8086SOL    HW225158   0.820   1.408   2.160
 8087SOL     OW25159   1.221   0.497   0.106
 8087SOL    HW125160   1.185   0.412   0.145
 8087SOL    HW225161   1.265   0.551   0.179
 8088SOL     OW25162   5.378   6.546   6.384
 8088SOL    HW125163   5.441   6.470   6.402
 8088SOL    HW225164   5.429   6.622   6.343
 8089SOL     OW25165   6.244   2.591   6.393
 8089SOL    HW125166   6.301   2.511   6.375
 8089SOL    HW225167   6.283   2.644   6.468
 8090SOL     OW25168   4.364   1.635   6.618
 8090SOL    HW125169   4.436   1.698   6.588
 8090SOL    HW225170   4.406   1.553   6.656
 8091SOL     OW25171   0.809   4.276   4.925
 8091SOL    HW125172   0.795   4.190   4.974
 8091SOL    HW225173   0.774   4.267   4.832
 8092SOL     OW25174   4.754   2.098   5.273
 8092SOL    HW125175   4.675   2.062   5.322
 8092SOL    HW225176   4.815   2.023   5.246
 8093SOL     OW25177   2.535   6.167   2.658
 8093SOL    HW125178   2.460   6.100   2.652
 8093SOL    HW225179   2.518   6.230   2.733
 8094SOL     OW25180   1.116   4.121   4.299
 8094SOL    HW125181   1.140   4.194   4.363
 8094SOL    HW225182   1.021   4.094   4.313
 8095SOL     OW25183   1.524   4.153   5.476
 8095SOL    HW125184   1.603   4.210   5.453
 8095SOL    HW225185   1.440   4.207   5.463
 8096SOL     OW25186   0.998   6.779   2.200
 8096SOL    HW125187   0.960   6.871   2.196
 8096SOL    HW225188   0.942   6.717   2.145
 8097SOL     OW25189   2.900   6.434   4.923
 8097SOL    HW125190   2.934   6.407   4.833
 8097SOL    HW225191   2.976   6.441   4.987
 8098SOL     OW25192   0.784   5.735   3.816
 8098SOL    HW125193   0.847   5.803   3.854
 8098SOL    HW225194   0.835   5.673   3.757
 8099SOL     OW25195   3.544   5.784   3.849
 8099SOL    HW125196   3.556   5.864   3.791
 8099SOL    HW225197   3.454   5.743   3.831
 8100SOL     OW25198   6.346   1.211   6.317
 8100SOL    HW125199   6.374   1.160   6.236
 8100SOL    HW225200   6.349   1.309   6.298
 8101SOL     OW25201   1.945   6.373   1.116
 8101SOL    HW125202   1.912   6.383   1.210
 8101SOL    HW225203   1.878   6.321   1.063
 8102SOL     OW25204   1.314   3.455   4.761
 8102SOL    HW125205   1.226   3.413   4.784
 8102SOL    HW225206   1.388   3.391   4.780
 8103SOL     OW25207   3.726   1.133   2.249
 8103SOL    HW125208   3.747   1.216   2.301
 8103SOL    HW225209   3.777   1.134   2.163
 8104SOL     OW25210   1.937   6.615   5.943
 8104SOL    HW125211   1.853   6.638   5.893
 8104SOL    HW225212   2.007   6.684   5.924
 8105SOL     OW25213   6.721   1.705   3.049
 8105SOL    HW125214   6.810   1.668   3.073
 8105SOL    HW225215   6.728   1.804   3.039
 8106SOL     OW25216   2.128   6.496   4.356
 8106SOL    HW125217   2.043   6.447   4.377
 8106SOL    HW225218   2.148   6.561   4.429
 8107SOL     OW25219   1.922   5.813   4.522
 8107SOL    HW125220   1.942   5.803   4.424
 8107SOL    HW225221   1.824   5.803   4.537
 8108SOL     OW25222   0.196   1.061   6.351
 8108SOL    HW125223   0.139   0.980   6.334
 8108SOL    HW225224   0.247   1.047   6.436
 8109SOL     OW25225   6.673   3.868   6.473
 8109SOL    HW125226   6.667   3.775   6.509
 8109SOL    HW225227   6.753   3.876   6.413
 8110SOL     OW25228   4.675   4.845   1.065
 8110SOL    HW125229   4.692   4.823   0.969
 8110SOL    HW225230   4.759   4.879   1.106
 8111SOL     OW25231   5.730   1.274   3.540
 8111SOL    HW125232   5.787   1.203   3.499
 8111SOL    HW225233   5.654   1.231   3.589
 8112SOL     OW25234   0.337   2.720   5.004
 8112SOL    HW125235   0.352   2.723   5.103
 8112SOL    HW225236   0.345   2.813   4.967
 8113SOL     OW25237   6.358   2.942   1.297
 8113SOL    HW125238   6.272   2.955   1.347
 8113SOL    HW225239   6.375   3.021   1.239
 8114SOL     OW25240   1.583   4.399   2.237
 8114SOL    HW125241   1.613   4.400   2.142
 8114SOL    HW225242   1.543   4.310   2.258
 8115SOL     OW25243   2.987   6.840   0.115
 8115SOL    HW125244   3.067   6.900   0.114
 8115SOL    HW225245   2.952   6.831   0.208
 8116SOL     OW25246   3.331   5.163   1.002
 8116SOL    HW125247   3.413   5.138   0.951
 8116SOL    HW225248   3.312   5.094   1.071
 8117SOL     OW25249   2.360   6.956   3.215
 8117SOL    HW125250   2.285   6.891   3.230
 8117SOL    HW225251   2.436   6.909   3.171
 8118SOL     OW25252   6.109   3.896   6.516
 8118SOL    HW125253   6.184   3.957   6.544
 8118SOL    HW225254   6.117   3.809   6.565
 8119SOL     OW25255   5.337   5.479   5.299
 8119SOL    HW125256   5.291   5.500   5.385
 8119SOL    HW225257   5.407   5.548   5.281
 8120SOL     OW25258   2.260   5.675   0.817
 8120SOL    HW125259   2.230   5.760   0.775
 8120SOL    HW225260   2.264   5.603   0.747
 8121SOL     OW25261   1.009   4.326   2.955
 8121SOL    HW125262   1.045   4.389   2.886
 8121SOL    HW225263   1.080   4.305   3.022
 8122SOL     OW25264   1.090   4.548   2.842
 8122SOL    HW125265   1.133   4.545   2.751
 8122SOL    HW225266   0.999   4.588   2.834
 8123SOL     OW25267   0.585   1.976   6.814
 8123SOL    HW125268   0.655   1.905   6.819
 8123SOL    HW225269   0.610   2.052   6.873
 8124SOL     OW25270   5.175   5.830   4.112
 8124SOL    HW125271   5.165   5.791   4.021
 8124SOL    HW225272   5.265   5.872   4.121
 8125SOL     OW25273   0.325   0.883   2.858
 8125SOL    HW125274   0.355   0.917   2.947
 8125SOL    HW225275   0.274   0.797   2.870
 8126SOL     OW25276   4.171   4.853   4.177
 8126SOL    HW125277   4.079   4.836   4.211
 8126SOL    HW225278   4.197   4.947   4.197
 8127SOL     OW25279   2.410   2.714   0.075
 8127SOL    HW125280   2.411   2.711   7.001
 8127SOL    HW225281   2.477   2.780   0.107
 8128SOL     OW25282   3.333   2.610   1.741
 8128SOL    HW125283   3.365   2.529   1.692
 8128SOL    HW225284   3.234   2.604   1.755
 8129SOL     OW25285   1.055   2.442   0.203
 8129SOL    HW125286   1.056   2.352   0.159
 8129SOL    HW225287   1.115   2.441   0.283
 8130SOL     OW25288   1.480   5.208   0.108
 8130SOL    HW125289   1.437   5.263   0.036
 8130SOL    HW225290   1.453   5.112   0.095
 8131SOL     OW25291   2.443   2.803   0.789
 8131SOL    HW125292   2.475   2.709   0.800
 8131SOL    HW225293   2.505   2.866   0.836
 8132SOL     OW25294   6.520   7.023   3.984
 8132SOL    HW125295   6.542   7.016   4.081
 8132SOL    HW225296   6.510   0.094   3.959
 8133SOL     OW25297   3.750   5.079   1.200
 8133SOL    HW125298   3.737   4.986   1.237
 8133SOL    HW225299   3.829   5.122   1.244
 8134SOL     OW25300   6.601   1.154   5.685
 8134SOL    HW125301   6.631   1.221   5.617
 8134SOL    HW225302   6.630   1.063   5.656
 8135SOL     OW25303   2.455   0.253   2.029
 8135SOL    HW125304   2.373   0.308   2.013
 8135SOL    HW225305   2.449   0.167   1.978
 8136SOL     OW25306   4.999   5.446   2.584
 8136SOL    HW125307   5.078   5.504   2.601
 8136SOL    HW225308   5.025   5.350   2.596
 8137SOL     OW25309   3.520   1.433   5.386
 8137SOL    HW125310   3.528   1.520   5.435
 8137SOL    HW225311   3.467   1.368   5.440
 8138SOL     OW25312   5.317   1.234   1.771
 8138SOL    HW125313   5.240   1.291   1.796
 8138SOL    HW225314   5.392   1.291   1.738
 8139SOL     OW25315   1.373   1.750   2.532
 8139SOL    HW125316   1.353   1.847   2.537
 8139SOL    HW225317   1.469   1.737   2.509
 8140SOL     OW25318   4.625   1.345   4.669
 8140SOL    HW125319   4.622   1.264   4.610
 8140SOL    HW225320   4.577   1.420   4.625
 8141SOL     OW25321   3.949   5.356   6.046
 8141SOL    HW125322   3.906   5.268   6.025
 8141SOL    HW225323   3.996   5.391   5.965
 8142SOL     OW25324   6.232   4.516   0.417
 8142SOL    HW125325   6.193   4.533   0.508
 8142SOL    HW225326   6.309   4.578   0.402
 8143SOL     OW25327   5.885   4.393   6.002
 8143SOL    HW125328   5.875   4.408   6.100
 8143SOL    HW225329   5.858   4.299   5.980
 8144SOL     OW25330   5.398   6.601   6.756
 8144SOL    HW125331   5.334   6.670   6.722
 8144SOL    HW225332   5.488   6.617   6.716
 8145SOL     OW25333   6.045   6.109   3.078
 8145SOL    HW125334   6.006   6.074   2.993
 8145SOL    HW225335   6.137   6.073   3.090
 8146SOL     OW25336   3.862   1.024   5.700
 8146SOL    HW125337   3.947   0.976   5.678
 8146SOL    HW225338   3.854   1.105   5.642
 8147SOL     OW25339   4.452   1.719   4.087
 8147SOL    HW125340   4.451   1.757   4.180
 8147SOL    HW225341   4.543   1.731   4.047
 8148SOL     OW25342   5.498   2.532   2.437
 8148SOL    HW125343   5.554   2.465   2.389
 8148SOL    HW225344   5.404   2.499   2.444
 8149SOL     OW25345   3.848   5.203   2.596
 8149SOL    HW125346   3.930   5.258   2.609
 8149SOL    HW225347   3.767   5.257   2.619
 8150SOL     OW25348   0.779   5.372   0.885
 8150SOL    HW125349   0.706   5.318   0.926
 8150SOL    HW225350   0.745   5.462   0.861
 8151SOL     OW25351   1.160   2.547   3.781
 8151SOL    HW125352   1.126   2.487   3.854
 8151SOL    HW225353   1.214   2.621   3.820
 8152SOL     OW25354   2.193   0.639   3.466
 8152SOL    HW125355   2.202   0.731   3.503
 8152SOL    HW225356   2.098   0.623   3.437
 8153SOL     OW25357   2.939   0.083   1.520
 8153SOL    HW125358   2.944   0.120   1.613
 8153SOL    HW225359   2.845   0.088   1.488
 8154SOL     OW25360   2.244   6.360   4.129
 8154SOL    HW125361   2.183   6.396   4.201
 8154SOL    HW225362   2.259   6.431   4.061
 8155SOL     OW25363   3.156   2.819   1.904
 8155SOL    HW125364   3.210   2.759   1.964
 8155SOL    HW225365   3.119   2.764   1.829
 8156SOL     OW25366   5.901   0.717   5.513
 8156SOL    HW125367   5.818   0.700   5.566
 8156SOL    HW225368   5.938   0.629   5.481
 8157SOL     OW25369   6.052   4.232   6.360
 8157SOL    HW125370   6.117   4.169   6.402
 8157SOL    HW225371   6.088   4.325   6.365
 8158SOL     OW25372   0.768   5.777   1.208
 8158SOL    HW125373   0.716   5.692   1.216
 8158SOL    HW225374   0.788   5.812   1.299
 8159SOL     OW25375   2.113   5.298   1.852
 8159SOL    HW125376   2.055   5.267   1.776
 8159SOL    HW225377   2.083   5.388   1.882
 8160SOL     OW25378   4.481   2.200   1.033
 8160SOL    HW125379   4.385   2.210   1.010
 8160SOL    HW225380   4.531   2.283   1.008
 8161SOL     OW25381   4.691   1.169   0.080
 8161SOL    HW125382   4.598   1.205   0.090
 8161SOL    HW225383   4.726   1.140   0.168
 8162SOL     OW25384   5.812   7.002   0.875
 8162SOL    HW125385   5.829   6.951   0.791
 8162SOL    HW225386   5.862   6.961   0.951
 8163SOL     OW25387   2.242   4.261   5.307
 8163SOL    HW125388   2.255   4.162   5.315
 8163SOL    HW225389   2.215   4.283   5.213
 8164SOL     OW25390   4.725   2.160   1.173
 8164SOL    HW125391   4.684   2.223   1.240
 8164SOL    HW225392   4.740   2.071   1.216
 8165SOL     OW25393   1.884   4.315   1.292
 8165SOL    HW125394   1.882   4.308   1.193
 8165SOL    HW225395   1.793   4.341   1.326
 8166SOL     OW25396   2.527   0.378   2.263
 8166SOL    HW125397   2.538   0.346   2.168
 8166SOL    HW225398   2.466   0.457   2.264
 8167SOL     OW25399   6.171   2.755   3.542
 8167SOL    HW125400   6.186   2.661   3.512
 8167SOL    HW225401   6.159   2.814   3.462
 8168SOL     OW25402   3.680   1.640   3.164
 8168SOL    HW125403   3.641   1.568   3.106
 8168SOL    HW225404   3.669   1.614   3.260
 8169SOL     OW25405   4.177   3.831   6.605
 8169SOL    HW125406   4.219   3.740   6.604
 8169SOL    HW225407   4.148   3.854   6.698
 8170SOL     OW25408   0.800   5.657   4.347
 8170SOL    HW125409   0.819   5.613   4.435
 8170SOL    HW225410   0.818   5.755   4.355
 8171SOL     OW25411   0.894   1.916   6.429
 8171SOL    HW125412   0.895   1.989   6.361
 8171SOL    HW225413   0.837   1.841   6.396
 8172SOL     OW25414   0.104   0.173   0.493
 8172SOL    HW125415   0.036   0.129   0.552
 8172SOL    HW225416   0.057   0.223   0.420
 8173SOL     OW25417   3.269   2.512   0.024
 8173SOL    HW125418   3.348   2.483   6.996
 8173SOL    HW225419   3.251   2.609   0.007
 8174SOL     OW25420   5.515   1.121   1.384
 8174SOL    HW125421   5.565   1.069   1.454
 8174SOL    HW225422   5.580   1.165   1.322
 8175SOL     OW25423   0.664   1.850   6.047
 8175SOL    HW125424   0.756   1.846   6.010
 8175SOL    HW225425   0.634   1.946   6.054
 8176SOL     OW25426   2.795   5.441   1.848
 8176SOL    HW125427   2.844   5.412   1.766
 8176SOL    HW225428   2.853   5.503   1.901
 8177SOL     OW25429   0.754   6.803   4.498
 8177SOL    HW125430   0.682   6.858   4.541
 8177SOL    HW225431   0.714   6.746   4.426
 8178SOL     OW25432   1.399   6.444   6.922
 8178SOL    HW125433   1.451   6.359   6.912
 8178SOL    HW225434   1.307   6.423   6.957
 8179SOL     OW25435   3.180   3.036   6.846
 8179SOL    HW125436   3.096   3.030   6.792
 8179SOL    HW225437   3.161   3.084   6.931
 8180SOL     OW25438   6.837   6.775   4.483
 8180SOL    HW125439   6.848   6.779   4.582
 8180SOL    HW225440   6.817   6.866   4.448
 8181SOL     OW25441   2.741   2.346   3.122
 8181SOL    HW125442   2.780   2.337   3.213
 8181SOL    HW225443   2.814   2.365   3.056
 8182SOL     OW25444   3.410   1.956   5.614
 8182SOL    HW125445   3.433   2.024   5.684
 8182SOL    HW225446   3.326   1.909   5.641
 8183SOL     OW25447   1.086   3.331   4.868
 8183SOL    HW125448   1.052   3.411   4.818
 8183SOL    HW225449   1.008   3.278   4.902
 8184SOL     OW25450   0.385   0.399   5.413
 8184SOL    HW125451   0.367   0.353   5.500
 8184SOL    HW225452   0.303   0.447   5.383
 8185SOL     OW25453   3.012   1.703   2.359
 8185SOL    HW125454   3.059   1.702   2.271
 8185SOL    HW225455   2.956   1.786   2.365
 8186SOL     OW25456   3.493   5.815   5.822
 8186SOL    HW125457   3.432   5.808   5.744
 8186SOL    HW225458   3.573   5.870   5.796
 8187SOL     OW25459   1.339   2.273   5.757
 8187SOL    HW125460   1.266   2.286   5.690
 8187SOL    HW225461   1.393   2.356   5.764
 8188SOL     OW25462   5.932   2.219   2.859
 8188SOL    HW125463   6.029   2.242   2.857
 8188SOL    HW225464   5.904   2.202   2.954
 8189SOL     OW25465   6.211   4.631   2.678
 8189SOL    HW125466   6.293   4.616   2.733
 8189SOL    HW225467   6.135   4.576   2.714
 8190SOL     OW25468   5.192   3.110   3.940
 8190SOL    HW125469   5.249   3.171   3.886
 8190SOL    HW225470   5.096   3.121   3.914
 8191SOL     OW25471   0.478   5.021   4.243
 8191SOL    HW125472   0.385   5.012   4.278
 8191SOL    HW225473   0.539   5.053   4.316
 8192SOL     OW25474   2.358   5.253   2.067
 8192SOL    HW125475   2.442   5.231   2.017
 8192SOL    HW225476   2.292   5.179   2.055
 8193SOL     OW25477   4.273   6.925   5.189
 8193SOL    HW125478   4.204   6.935   5.261
 8193SOL    HW225479   4.361   6.958   5.223
 8194SOL     OW25480   6.589   0.729   6.991
 8194SOL    HW125481   6.518   0.666   6.960
 8194SOL    HW225482   6.659   0.738   6.920
 8195SOL     OW25483   6.442   0.090   0.229
 8195SOL    HW125484   6.380   0.099   0.308
 8195SOL    HW225485   6.492   0.004   0.236
 8196SOL     OW25486   3.270   6.665   6.496
 8196SOL    HW125487   3.219   6.737   6.545
 8196SOL    HW225488   3.252   6.577   6.540
 8197SOL     OW25489   0.173   0.575   6.427
 8197SOL    HW125490   0.228   0.621   6.357
 8197SOL    HW225491   0.093   0.632   6.449
 8198SOL     OW25492   2.403   6.686   3.151
 8198SOL    HW125493   2.452   6.654   3.069
 8198SOL    HW225494   2.325   6.626   3.169
 8199SOL     OW25495   6.889   3.445   6.602
 8199SOL    HW125496   6.877   3.354   6.644
 8199SOL    HW225497   6.957   3.439   6.529
 8200SOL     OW25498   5.124   4.319   0.925
 8200SOL    HW125499   5.111   4.360   0.835
 8200SOL    HW225500   5.204   4.360   0.970
 8201SOL     OW25501   5.905   6.878   3.603
 8201SOL    HW125502   5.824   6.901   3.657
 8201SOL    HW225503   5.951   6.962   3.575
 8202SOL     OW25504   1.312   4.198   3.859
 8202SOL    HW125505   1.249   4.220   3.933
 8202SOL    HW225506   1.310   4.271   3.790
 8203SOL     OW25507   5.673   4.002   1.397
 8203SOL    HW125508   5.654   3.979   1.492
 8203SOL    HW225509   5.593   3.982   1.341
 8204SOL     OW25510   3.165   0.139   2.211
 8204SOL    HW125511   3.126   0.219   2.256
 8204SOL    HW225512   3.256   0.121   2.250
 8205SOL     OW25513   5.739   5.470   1.532
 8205SOL    HW125514   5.820   5.524   1.506
 8205SOL    HW225515   5.669   5.480   1.461
 8206SOL     OW25516   4.002   1.867   5.248
 8206SOL    HW125517   4.095   1.832   5.248
 8206SOL    HW225518   3.984   1.917   5.333
 8207SOL     OW25519   2.726   5.336   6.581
 8207SOL    HW125520   2.734   5.270   6.656
 8207SOL    HW225521   2.749   5.427   6.615
 8208SOL     OW25522   1.621   4.405   1.045
 8208SOL    HW125523   1.663   4.328   1.093
 8208SOL    HW225524   1.524   4.386   1.029
 8209SOL     OW25525   0.969   0.278   5.301
 8209SOL    HW125526   1.040   0.273   5.231
 8209SOL    HW225527   0.971   0.195   5.356
 8210SOL     OW25528   2.080   1.105   0.382
 8210SOL    HW125529   2.095   1.119   0.480
 8210SOL    HW225530   2.168   1.100   0.335
 8211SOL     OW25531   3.375   2.952   4.226
 8211SOL    HW125532   3.444   2.959   4.154
 8211SOL    HW225533   3.402   2.882   4.292
 8212SOL     OW25534   3.002   0.503   1.134
 8212SOL    HW125535   3.025   0.588   1.182
 8212SOL    HW225536   2.964   0.438   1.198
 8213SOL     OW25537   4.657   4.281   1.709
 8213SOL    HW125538   4.672   4.378   1.727
 8213SOL    HW225539   4.590   4.245   1.774
 8214SOL     OW25540   3.398   5.394   4.485
 8214SOL    HW125541   3.462   5.422   4.413
 8214SOL    HW225542   3.438   5.319   4.538
 8215SOL     OW25543   4.452   6.496   6.612
 8215SOL    HW125544   4.414   6.443   6.688
 8215SOL    HW225545   4.549   6.512   6.628
 8216SOL     OW25546   4.994   5.610   1.531
 8216SOL    HW125547   4.978   5.685   1.595
 8216SOL    HW225548   4.967   5.638   1.439
 8217SOL     OW25549   2.029   5.614   3.600
 8217SOL    HW125550   2.041   5.638   3.503
 8217SOL    HW225551   1.972   5.683   3.644
 8218SOL     OW25552   1.709   0.375   5.466
 8218SOL    HW125553   1.612   0.382   5.489
 8218SOL    HW225554   1.764   0.398   5.547
 8219SOL     OW25555   3.815   3.950   1.358
 8219SOL    HW125556   3.889   3.941   1.291
 8219SOL    HW225557   3.838   3.897   1.440
 8220SOL     OW25558   3.951   3.428   4.057
 8220SOL    HW125559   3.911   3.352   4.109
 8220SOL    HW225560   3.964   3.506   4.118
 8221SOL     OW25561   5.643   3.265   3.181
 8221SOL    HW125562   5.601   3.206   3.112
 8221SOL    HW225563   5.635   3.223   3.271
 8222SOL     OW25564   6.455   2.917   0.843
 8222SOL    HW125565   6.392   2.995   0.844
 8222SOL    HW225566   6.534   2.938   0.901
 8223SOL     OW25567   0.684   5.913   5.298
 8223SOL    HW125568   0.585   5.915   5.287
 8223SOL    HW225569   0.708   5.920   5.395
 8224SOL     OW25570   5.330   1.662   0.474
 8224SOL    HW125571   5.325   1.756   0.507
 8224SOL    HW225572   5.260   1.607   0.520
 8225SOL     OW25573   5.120   1.592   0.692
 8225SOL    HW125574   5.109   1.503   0.736
 8225SOL    HW225575   5.101   1.665   0.758
 8226SOL     OW25576   3.980   7.000   0.420
 8226SOL    HW125577   3.990   0.017   0.510
 8226SOL    HW225578   4.006   0.040   0.349
 8227SOL     OW25579   4.910   2.076   3.004
 8227SOL    HW125580   4.833   2.087   3.067
 8227SOL    HW225581   4.913   1.982   2.971
 8228SOL     OW25582   2.071   0.525   5.670
 8228SOL    HW125583   1.988   0.533   5.725
 8228SOL    HW225584   2.150   0.518   5.731
 8229SOL     OW25585   4.676   4.360   1.163
 8229SOL    HW125586   4.673   4.346   1.262
 8229SOL    HW225587   4.763   4.402   1.138
 8230SOL     OW25588   5.478   0.424   5.807
 8230SOL    HW125589   5.432   0.349   5.852
 8230SOL    HW225590   5.466   0.417   5.708
 8231SOL     OW25591   2.499   1.437   3.120
 8231SOL    HW125592   2.509   1.385   3.205
 8231SOL    HW225593   2.511   1.535   3.139
 8232SOL     OW25594   3.621   6.465   2.942
 8232SOL    HW125595   3.698   6.528   2.955
 8232SOL    HW225596   3.641   6.401   2.868
 8233SOL     OW25597   1.019   1.433   5.703
 8233SOL    HW125598   1.075   1.451   5.784
 8233SOL    HW225599   0.952   1.362   5.724
 8234SOL     OW25600   1.830   1.917   0.629
 8234SOL    HW125601   1.818   1.942   0.725
 8234SOL    HW225602   1.838   1.817   0.621
 8235SOL     OW25603   0.192   5.611   0.954
 8235SOL    HW125604   0.160   5.517   0.951
 8235SOL    HW225605   0.165   5.658   0.870
 8236SOL     OW25606   0.384   6.561   0.039
 8236SOL    HW125607   0.325   6.602   6.995
 8236SOL    HW225608   0.453   6.627   0.067
 8237SOL     OW25609   4.467   5.232   6.777
 8237SOL    HW125610   4.519   5.316   6.763
 8237SOL    HW225611   4.377   5.254   6.816
 8238SOL     OW25612   0.864   4.292   7.010
 8238SOL    HW125613   0.795   4.254   0.045
 8238SOL    HW225614   0.820   4.348   6.940
 8239SOL     OW25615   1.217   1.118   5.159
 8239SOL    HW125616   1.308   1.139   5.123
 8239SOL    HW225617   1.162   1.076   5.087
 8240SOL     OW25618   3.619   3.811   4.559
 8240SOL    HW125619   3.668   3.859   4.632
 8240SOL    HW225620   3.522   3.835   4.563
 8241SOL     OW25621   1.912   3.980   5.711
 8241SOL    HW125622   1.866   4.049   5.654
 8241SOL    HW225623   1.849   3.905   5.730
 8242SOL     OW25624   0.546   2.943   4.025
 8242SOL    HW125625   0.453   2.949   4.060
 8242SOL    HW225626   0.595   3.028   4.046
 8243SOL     OW25627   0.759   4.912   4.925
 8243SOL    HW125628   0.814   4.996   4.925
 8243SOL    HW225629   0.791   4.851   4.998
 8244SOL     OW25630   1.237   0.408   4.540
 8244SOL    HW125631   1.243   0.351   4.458
 8244SOL    HW225632   1.142   0.436   4.555
 8245SOL     OW25633   5.383   1.649   4.063
 8245SOL    HW125634   5.326   1.572   4.092
 8245SOL    HW225635   5.459   1.659   4.127
 8246SOL     OW25636   1.884   5.279   6.174
 8246SOL    HW125637   1.798   5.305   6.218
 8246SOL    HW225638   1.942   5.360   6.163
 8247SOL     OW25639   3.231   5.378   3.008
 8247SOL    HW125640   3.325   5.368   3.042
 8247SOL    HW225641   3.200   5.291   2.970
 8248SOL     OW25642   0.450   5.092   2.848
 8248SOL    HW125643   0.468   5.158   2.775
 8248SOL    HW225644   0.527   5.090   2.911
 8249SOL     OW25645   2.846   2.162   6.381
 8249SOL    HW125646   2.779   2.100   6.339
 8249SOL    HW225647   2.887   2.118   6.460
 8250SOL     OW25648   1.485   1.420   6.420
 8250SOL    HW125649   1.445   1.497   6.371
 8250SOL    HW225650   1.545   1.369   6.359
 8251SOL     OW25651   0.282   1.736   4.720
 8251SOL    HW125652   0.346   1.810   4.743
 8251SOL    HW225653   0.291   1.714   4.623
 8252SOL     OW25654   1.587   2.011   6.633
 8252SOL    HW125655   1.562   2.082   6.566
 8252SOL    HW225656   1.505   1.959   6.658
 8253SOL     OW25657   4.745   5.893   0.964
 8253SOL    HW125658   4.789   5.808   0.992
 8253SOL    HW225659   4.674   5.873   0.896
 8254SOL     OW25660   5.306   4.815   0.082
 8254SOL    HW125661   5.310   4.767   0.170
 8254SOL    HW225662   5.301   4.749   0.008
 8255SOL     OW25663   0.869   6.206   6.532
 8255SOL    HW125664   0.871   6.149   6.450
 8255SOL    HW225665   0.875   6.148   6.613
 8256SOL     OW25666   1.492   5.654   3.424
 8256SOL    HW125667   1.577   5.657   3.477
 8256SOL    HW225668   1.500   5.585   3.352
 8257SOL     OW25669   4.874   3.705   2.829
 8257SOL    HW125670   4.895   3.617   2.786
 8257SOL    HW225671   4.848   3.690   2.924
 8258SOL     OW25672   0.084   3.058   2.086
 8258SOL    HW125673   0.001   3.057   2.029
 8258SOL    HW225674   0.085   3.141   2.142
 8259SOL     OW25675   4.687   1.429   4.355
 8259SOL    HW125676   4.598   1.435   4.399
 8259SOL    HW225677   4.759   1.429   4.426
 8260SOL     OW25678   4.261   1.416   1.138
 8260SOL    HW125679   4.355   1.434   1.110
 8260SOL    HW225680   4.201   1.415   1.057
 8261SOL     OW25681   5.695   0.359   3.002
 8261SOL    HW125682   5.708   0.285   3.068
 8261SOL    HW225683   5.751   0.438   3.028
 8262SOL     OW25684   6.417   3.943   2.150
 8262SOL    HW125685   6.329   3.980   2.180
 8262SOL    HW225686   6.424   3.847   2.177
 8263SOL     OW25687   0.306   1.971   6.329
 8263SOL    HW125688   0.302   1.979   6.428
 8263SOL    HW225689   0.400   1.987   6.298
 8264SOL     OW25690   2.658   7.008   2.431
 8264SOL    HW125691   2.650   6.923   2.379
 8264SOL    HW225692   2.567   0.025   2.439
 8265SOL     OW25693   5.080   0.119   0.749
 8265SOL    HW125694   5.029   0.033   0.754
 8265SOL    HW225695   5.175   0.102   0.772
 8266SOL     OW25696   2.524   0.626   3.873
 8266SOL    HW125697   2.586   0.635   3.951
 8266SOL    HW225698   2.530   0.709   3.817
 8267SOL     OW25699   1.261   4.080   3.372
 8267SOL    HW125700   1.297   4.147   3.437
 8267SOL    HW225701   1.215   4.127   3.297
 8268SOL     OW25702   3.024   4.630   6.472
 8268SOL    HW125703   3.046   4.678   6.387
 8268SOL    HW225704   3.085   4.661   6.545
 8269SOL     OW25705   5.430   2.308   3.602
 8269SOL    HW125706   5.403   2.275   3.512
 8269SOL    HW225707   5.524   2.280   3.621
 8270SOL     OW25708   3.736   0.457   6.190
 8270SOL    HW125709   3.640   0.428   6.190
 8270SOL    HW225710   3.791   0.390   6.140
 8271SOL     OW25711   3.832   6.254   6.081
 8271SOL    HW125712   3.909   6.307   6.045
 8271SOL    HW225713   3.752   6.268   6.022
 8272SOL     OW25714   1.007   0.334   1.666
 8272SOL    HW125715   0.911   0.307   1.668
 8272SOL    HW225716   1.065   0.252   1.661
 8273SOL     OW25717   3.480   0.413   6.511
 8273SOL    HW125718   3.494   0.332   6.569
 8273SOL    HW225719   3.385   0.418   6.483
 8274SOL     OW25720   5.226   6.072   6.028
 8274SOL    HW125721   5.324   6.057   6.037
 8274SOL    HW225722   5.193   6.124   6.107
 8275SOL     OW25723   5.336   0.934   3.813
 8275SOL    HW125724   5.309   0.996   3.887
 8275SOL    HW225725   5.266   0.935   3.742
 8276SOL     OW25726   0.199   2.426   6.233
 8276SOL    HW125727   0.142   2.401   6.310
 8276SOL    HW225728   0.279   2.476   6.265
 8277SOL     OW25729   1.229   5.860   5.857
 8277SOL    HW125730   1.319   5.838   5.895
 8277SOL    HW225731   1.239   5.900   5.766
 8278SOL     OW25732   3.734   1.128   0.746
 8278SOL    HW125733   3.810   1.065   0.763
 8278SOL    HW225734   3.770   1.216   0.717
 8279SOL     OW25735   5.161   5.035   5.944
 8279SOL    HW125736   5.138   4.980   6.025
 8279SOL    HW225737   5.221   5.110   5.971
 8280SOL     OW25738   5.166   3.132   6.933
 8280SOL    HW125739   5.183   3.154   6.836
 8280SOL    HW225740   5.083   3.179   6.963
 8281SOL     OW25741   2.483   5.157   6.907
 8281SOL    HW125742   2.489   5.057   6.901
 8281SOL    HW225743   2.433   5.192   6.828
 8282SOL     OW25744   3.028   2.859   0.806
 8282SOL    HW125745   2.972   2.936   0.834
 8282SOL    HW225746   2.979   2.774   0.824
 8283SOL     OW25747   0.499   5.544   2.948
 8283SOL    HW125748   0.464   5.578   3.036
 8283SOL    HW225749   0.423   5.517   2.890
 8284SOL     OW25750   2.559   2.033   1.960
 8284SOL    HW125751   2.589   1.938   1.965
 8284SOL    HW225752   2.469   2.038   1.916
 8285SOL     OW25753   3.477   4.511   6.419
 8285SOL    HW125754   3.498   4.488   6.324
 8285SOL    HW225755   3.480   4.611   6.430
 8286SOL     OW25756   5.505   1.044   5.705
 8286SOL    HW125757   5.506   0.963   5.646
 8286SOL    HW225758   5.506   1.015   5.800
 8287SOL     OW25759   2.143   0.593   3.006
 8287SOL    HW125760   2.122   0.686   3.034
 8287SOL    HW225761   2.090   0.569   2.925
 8288SOL     OW25762   1.703   1.133   2.881
 8288SOL    HW125763   1.787   1.186   2.893
 8288SOL    HW225764   1.633   1.166   2.944
 8289SOL     OW25765   6.616   1.933   5.723
 8289SOL    HW125766   6.621   1.872   5.644
 8289SOL    HW225767   6.569   2.017   5.697
 8290SOL     OW25768   4.587   2.578   1.566
 8290SOL    HW125769   4.544   2.514   1.502
 8290SOL    HW225770   4.589   2.669   1.526
 8291SOL     OW25771   4.505   4.988   6.291
 8291SOL    HW125772   4.454   5.032   6.217
 8291SOL    HW225773   4.477   4.892   6.299
 8292SOL     OW25774   0.679   3.861   4.467
 8292SOL    HW125775   0.631   3.774   4.473
 8292SOL    HW225776   0.613   3.936   4.466
 8293SOL     OW25777   2.893   5.052   3.540
 8293SOL    HW125778   2.867   5.144   3.568
 8293SOL    HW225779   2.880   5.042   3.441
 8294SOL     OW25780   4.879   3.269   5.906
 8294SOL    HW125781   4.836   3.359   5.898
 8294SOL    HW225782   4.813   3.198   5.881
 8295SOL     OW25783   5.169   4.077   2.265
 8295SOL    HW125784   5.245   4.087   2.330
 8295SOL    HW225785   5.153   4.165   2.220
 8296SOL     OW25786   3.940   6.558   2.015
 8296SOL    HW125787   3.882   6.570   1.935
 8296SOL    HW225788   4.000   6.479   2.001
 8297SOL     OW25789   5.575   4.389   2.891
 8297SOL    HW125790   5.521   4.420   2.969
 8297SOL    HW225791   5.628   4.308   2.917
 8298SOL     OW25792   6.342   0.222   5.984
 8298SOL    HW125793   6.301   0.310   6.009
 8298SOL    HW225794   6.441   0.226   6.001
 8299SOL     OW25795   0.942   3.555   1.091
 8299SOL    HW125796   0.985   3.634   1.136
 8299SOL    HW225797   0.958   3.560   0.993
 8300SOL     OW25798   5.887   5.013   2.956
 8300SOL    HW125799   5.933   4.925   2.945
 8300SOL    HW225800   5.800   4.999   3.003
 8301SOL     OW25801   4.456   6.710   0.684
 8301SOL    HW125802   4.457   6.698   0.783
 8301SOL    HW225803   4.510   6.638   0.641
 8302SOL     OW25804   3.984   6.693   5.266
 8302SOL    HW125805   4.003   6.712   5.170
 8302SOL    HW225806   3.971   6.779   5.315
 8303SOL     OW25807   0.007   6.348   2.784
 8303SOL    HW125808   6.945   6.375   2.744
 8303SOL    HW225809   0.054   6.430   2.817
 8304SOL     OW25810   5.109   3.998   3.364
 8304SOL    HW125811   5.032   3.998   3.300
 8304SOL    HW225812   5.113   4.085   3.412
 8305SOL     OW25813   4.674   6.519   4.776
 8305SOL    HW125814   4.741   6.470   4.831
 8305SOL    HW225815   4.600   6.456   4.750
 8306SOL     OW25816   0.162   1.093   2.202
 8306SOL    HW125817   0.136   1.058   2.112
 8306SOL    HW225818   0.108   1.175   2.223
 8307SOL     OW25819   1.439   3.952   3.084
 8307SOL    HW125820   1.360   3.904   3.046
 8307SOL    HW225821   1.497   3.886   3.132
 8308SOL     OW25822   1.123   5.663   0.889
 8308SOL    HW125823   1.222   5.668   0.903
 8308SOL    HW225824   1.091   5.570   0.906
 8309SOL     OW25825   5.777   4.267   4.385
 8309SOL    HW125826   5.689   4.221   4.398
 8309SOL    HW225827   5.851   4.200   4.391
 8310SOL     OW25828   1.058   0.029   0.086
 8310SOL    HW125829   0.970   0.075   0.100
 8310SOL    HW225830   1.042   6.959   0.063
 8311SOL     OW25831   5.659   0.117   3.196
 8311SOL    HW125832   5.581   0.088   3.251
 8311SOL    HW225833   5.713   0.184   3.248
 8312SOL     OW25834   5.500   1.510   0.306
 8312SOL    HW125835   5.469   1.582   0.369
 8312SOL    HW225836   5.457   1.523   0.217
 8313SOL     OW25837   5.091   2.170   5.120
 8313SOL    HW125838   5.097   2.123   5.209
 8313SOL    HW225839   5.027   2.122   5.061
 8314SOL     OW25840   4.855   6.229   5.164
 8314SOL    HW125841   4.916   6.168   5.112
 8314SOL    HW225842   4.846   6.196   5.257
 8315SOL     OW25843   3.640   3.839   5.061
 8315SOL    HW125844   3.546   3.807   5.048
 8315SOL    HW225845   3.656   3.857   5.158
 8316SOL     OW25846   2.500   2.583   6.075
 8316SOL    HW125847   2.450   2.655   6.123
 8316SOL    HW225848   2.472   2.582   5.979
 8317SOL     OW25849   2.034   1.157   3.513
 8317SOL    HW125850   2.115   1.100   3.529
 8317SOL    HW225851   1.952   1.101   3.522
 8318SOL     OW25852   4.207   6.992   6.970
 8318SOL    HW125853   4.217   0.007   0.035
 8318SOL    HW225854   4.152   0.027   6.913
 8319SOL     OW25855   1.446   6.758   6.528
 8319SOL    HW125856   1.419   6.726   6.438
 8319SOL    HW225857   1.540   6.793   6.525
 8320SOL     OW25858   2.890   3.377   4.592
 8320SOL    HW125859   2.903   3.424   4.505
 8320SOL    HW225860   2.831   3.298   4.579
 8321SOL     OW25861   0.389   6.759   1.596
 8321SOL    HW125862   0.444   6.783   1.676
 8321SOL    HW225863   0.312   6.702   1.624
 8322SOL     OW25864   1.206   6.854   6.618
 8322SOL    HW125865   1.304   6.836   6.626
 8322SOL    HW225866   1.179   6.850   6.522
 8323SOL     OW25867   5.231   3.800   0.429
 8323SOL    HW125868   5.307   3.787   0.493
 8323SOL    HW225869   5.238   3.891   0.387
 8324SOL     OW25870   5.068   5.776   6.464
 8324SOL    HW125871   5.098   5.686   6.496
 8324SOL    HW225872   5.047   5.771   6.366
 8325SOL     OW25873   1.056   5.518   6.155
 8325SOL    HW125874   1.097   5.544   6.068
 8325SOL    HW225875   1.022   5.425   6.150
 8326SOL     OW25876   1.568   3.845   1.532
 8326SOL    HW125877   1.529   3.840   1.624
 8326SOL    HW225878   1.640   3.777   1.522
 8327SOL     OW25879   0.603   6.973   4.638
 8327SOL    HW125880   0.651   0.032   4.617
 8327SOL    HW225881   0.504   6.989   4.637
 8328SOL     OW25882   1.502   6.952   0.034
 8328SOL    HW125883   1.469   6.859   0.021
 8328SOL    HW225884   1.425   7.016   0.028
 8329SOL     OW25885   1.754   2.632   5.142
 8329SOL    HW125886   1.687   2.680   5.199
 8329SOL    HW225887   1.832   2.693   5.125
 8330SOL     OW25888   3.569   1.248   6.093
 8330SOL    HW125889   3.544   1.193   6.014
 8330SOL    HW225890   3.596   1.188   6.169
 8331SOL     OW25891   2.128   2.573   6.329
 8331SOL    HW125892   2.112   2.592   6.426
 8331SOL    HW225893   2.133   2.474   6.315
 8332SOL     OW25894   5.987   5.316   1.871
 8332SOL    HW125895   6.017   5.229   1.833
 8332SOL    HW225896   5.893   5.334   1.843
 8333SOL     OW25897   2.402   4.785   1.323
 8333SOL    HW125898   2.435   4.735   1.403
 8333SOL    HW225899   2.364   4.720   1.257
 8334SOL     OW25900   3.749   2.178   6.180
 8334SOL    HW125901   3.660   2.150   6.215
 8334SOL    HW225902   3.807   2.207   6.255
 8335SOL     OW25903   5.125   3.682   6.090
 8335SOL    HW125904   5.107   3.764   6.144
 8335SOL    HW225905   5.182   3.619   6.143
 8336SOL     OW25906   0.710   3.958   3.878
 8336SOL    HW125907   0.703   3.970   3.779
 8336SOL    HW225908   0.789   3.901   3.899
 8337SOL     OW25909   1.062   1.571   4.743
 8337SOL    HW125910   1.120   1.650   4.726
 8337SOL    HW225911   1.032   1.532   4.655
 8338SOL     OW25912   4.446   5.591   2.308
 8338SOL    HW125913   4.469   5.502   2.350
 8338SOL    HW225914   4.470   5.664   2.372
 8339SOL     OW25915   5.994   6.608   0.688
 8339SOL    HW125916   6.023   6.513   0.682
 8339SOL    HW225917   5.974   6.631   0.783
 8340SOL     OW25918   5.725   2.409   6.896
 8340SOL    HW125919   5.697   2.505   6.889
 8340SOL    HW225920   5.669   2.362   6.963
 8341SOL     OW25921   3.130   0.788   0.473
 8341SOL    HW125922   3.202   0.777   0.541
 8341SOL    HW225923   3.167   0.770   0.382
 8342SOL     OW25924   5.024   0.398   0.281
 8342SOL    HW125925   5.009   0.330   0.210
 8342SOL    HW225926   5.012   0.357   0.371
 8343SOL     OW25927   6.197   3.924   3.551
 8343SOL    HW125928   6.202   3.910   3.452
 8343SOL    HW225929   6.258   3.859   3.597
 8344SOL     OW25930   1.350   4.750   5.371
 8344SOL    HW125931   1.360   4.665   5.319
 8344SOL    HW225932   1.433   4.805   5.359
 8345SOL     OW25933   4.207   1.138   3.763
 8345SOL    HW125934   4.237   1.227   3.729
 8345SOL    HW225935   4.275   1.069   3.742
 8346SOL     OW25936   5.523   3.013   5.185
 8346SOL    HW125937   5.571   3.038   5.269
 8346SOL    HW225938   5.483   2.922   5.196
 8347SOL     OW25939   2.954   0.287   6.816
 8347SOL    HW125940   2.979   0.195   6.787
 8347SOL    HW225941   2.914   0.284   6.908
 8348SOL     OW25942   3.737   6.347   2.076
 8348SOL    HW125943   3.811   6.409   2.103
 8348SOL    HW225944   3.679   6.391   2.007
 8349SOL     OW25945   0.925   6.264   2.008
 8349SOL    HW125946   1.017   6.273   1.970
 8349SOL    HW225947   0.883   6.181   1.973
 8350SOL     OW25948   2.561   0.313   0.530
 8350SOL    HW125949   2.572   0.379   0.605
 8350SOL    HW225950   2.561   0.361   0.442
 8351SOL     OW25951   6.496   3.216   2.447
 8351SOL    HW125952   6.521   3.120   2.436
 8351SOL    HW225953   6.576   3.269   2.473
 8352SOL     OW25954   2.083   6.020   1.379
 8352SOL    HW125955   2.120   6.098   1.328
 8352SOL    HW225956   2.109   5.935   1.333
 8353SOL     OW25957   1.158   4.486   1.991
 8353SOL    HW125958   1.126   4.398   2.028
 8353SOL    HW225959   1.254   4.479   1.966
 8354SOL     OW25960   3.151   0.262   3.274
 8354SOL    HW125961   3.112   0.351   3.250
 8354SOL    HW225962   3.114   0.192   3.213
 8355SOL     OW25963   2.244   5.816   6.235
 8355SOL    HW125964   2.339   5.808   6.205
 8355SOL    HW225965   2.241   5.862   6.324
 8356SOL     OW25966   1.646   5.424   1.008
 8356SOL    HW125967   1.718   5.493   1.013
 8356SOL    HW225968   1.611   5.420   0.914
 8357SOL     OW25969   4.188   6.204   5.900
 8357SOL    HW125970   4.184   6.228   5.802
 8357SOL    HW225971   4.129   6.267   5.951
 8358SOL     OW25972   0.769   1.879   4.915
 8358SOL    HW125973   0.829   1.939   4.969
 8358SOL    HW225974   0.766   1.911   4.820
 8359SOL     OW25975   3.102   2.074   5.566
 8359SOL    HW125976   3.053   2.015   5.502
 8359SOL    HW225977   3.147   2.148   5.515
 8360SOL     OW25978   4.793   0.025   1.274
 8360SOL    HW125979   4.695   0.021   1.256
 8360SOL    HW225980   4.811   0.097   1.342
 8361SOL     OW25981   3.587   0.232   6.670
 8361SOL    HW125982   3.674   0.230   6.621
 8361SOL    HW225983   3.572   0.145   6.716
 8362SOL     OW25984   0.169   3.620   1.607
 8362SOL    HW125985   0.164   3.586   1.701
 8362SOL    HW225986   0.264   3.623   1.577
 8363SOL     OW25987   2.608   3.290   6.949
 8363SOL    HW125988   2.686   3.228   6.942
 8363SOL    HW225989   2.623   3.354   7.024
 8364SOL     OW25990   0.053   3.044   4.464
 8364SOL    HW125991   7.021   2.980   4.513
 8364SOL    HW225992   0.141   3.053   4.512
 8365SOL     OW25993   1.776   2.845   2.254
 8365SOL    HW125994   1.698   2.795   2.217
 8365SOL    HW225995   1.745   2.907   2.326
 8366SOL     OW25996   4.714   5.352   1.880
 8366SOL    HW125997   4.653   5.274   1.863
 8366SOL    HW225998   4.682   5.401   1.962
 8367SOL     OW25999   4.034   4.906   4.489
 8367SOL    HW126000   3.944   4.880   4.454
 8367SOL    HW226001   4.085   4.824   4.513
 8368SOL     OW26002   6.743   6.928   0.533
 8368SOL    HW126003   6.785   7.010   0.572
 8368SOL    HW226004   6.769   6.848   0.587
 8369SOL     OW26005   2.304   0.422   0.728
 8369SOL    HW126006   2.330   0.494   0.665
 8369SOL    HW226007   2.325   0.333   0.688
 8370SOL     OW26008   2.646   3.132   0.226
 8370SOL    HW126009   2.564   3.119   0.283
 8370SOL    HW226010   2.728   3.123   0.282
 8371SOL     OW26011   1.615   4.736   6.327
 8371SOL    HW126012   1.682   4.674   6.366
 8371SOL    HW226013   1.532   4.736   6.383
 8372SOL     OW26014   2.295   5.342   2.460
 8372SOL    HW126015   2.333   5.280   2.528
 8372SOL    HW226016   2.351   5.425   2.454
 8373SOL     OW26017   6.855   1.132   4.480
 8373SOL    HW126018   6.912   1.117   4.400
 8373SOL    HW226019   6.780   1.066   4.481
 8374SOL     OW26020   1.633   0.534   4.675
 8374SOL    HW126021   1.547   0.575   4.645
 8374SOL    HW226022   1.705   0.603   4.671
 8375SOL     OW26023   3.956   1.117   4.519
 8375SOL    HW126024   3.894   1.102   4.595
 8375SOL    HW226025   3.963   1.215   4.500
 8376SOL     OW26026   2.088   0.855   3.054
 8376SOL    HW126027   2.097   0.913   2.974
 8376SOL    HW226028   2.017   0.891   3.115
 8377SOL     OW26029   4.839   5.753   0.172
 8377SOL    HW126030   4.757   5.696   0.169
 8377SOL    HW226031   4.916   5.699   0.206
 8378SOL     OW26032   5.732   5.695   3.618
 8378SOL    HW126033   5.753   5.599   3.637
 8378SOL    HW226034   5.817   5.747   3.612
 8379SOL     OW26035   6.227   1.355   2.030
 8379SOL    HW126036   6.286   1.396   2.099
 8379SOL    HW226037   6.275   1.279   1.986
 8380SOL     OW26038   6.406   5.721   0.719
 8380SOL    HW126039   6.311   5.749   0.735
 8380SOL    HW226040   6.410   5.656   0.643
 8381SOL     OW26041   0.228   1.936   1.926
 8381SOL    HW126042   0.269   2.022   1.957
 8381SOL    HW226043   0.167   1.900   1.997
 8382SOL     OW26044   2.642   0.507   0.743
 8382SOL    HW126045   2.640   0.523   0.841
 8382SOL    HW226046   2.568   0.558   0.699
 8383SOL     OW26047   2.751   6.289   6.661
 8383SOL    HW126048   2.713   6.379   6.680
 8383SOL    HW226049   2.694   6.219   6.705
 8384SOL     OW26050   0.734   2.276   0.922
 8384SOL    HW126051   0.729   2.177   0.936
 8384SOL    HW226052   0.815   2.298   0.868
 8385SOL     OW26053   3.550   3.691   1.353
 8385SOL    HW126054   3.559   3.616   1.288
 8385SOL    HW226055   3.513   3.772   1.307
 8386SOL     OW26056   1.789   5.575   1.856
 8386SOL    HW126057   1.828   5.552   1.945
 8386SOL    HW226058   1.860   5.611   1.796
 8387SOL     OW26059   1.431   0.944   2.209
 8387SOL    HW126060   1.399   0.910   2.298
 8387SOL    HW226061   1.415   1.042   2.203
 8388SOL     OW26062   3.567   6.789   1.264
 8388SOL    HW126063   3.631   6.862   1.289
 8388SOL    HW226064   3.618   6.712   1.226
 8389SOL     OW26065   0.739   2.646   3.968
 8389SOL    HW126066   0.670   2.712   3.996
 8389SOL    HW226067   0.766   2.665   3.873
 8390SOL     OW26068   2.670   0.475   6.059
 8390SOL    HW126069   2.585   0.426   6.040
 8390SOL    HW226070   2.733   0.415   6.108
 8391SOL     OW26071   5.528   5.814   1.394
 8391SOL    HW126072   5.516   5.724   1.352
 8391SOL    HW226073   5.452   5.831   1.457
 8392SOL     OW26074   5.410   5.966   5.236
 8392SOL    HW126075   5.436   5.989   5.142
 8392SOL    HW226076   5.311   5.959   5.242
 8393SOL     OW26077   0.341   6.272   3.203
 8393SOL    HW126078   0.340   6.372   3.196
 8393SOL    HW226079   0.264   6.234   3.152
 8394SOL     OW26080   0.633   2.071   2.927
 8394SOL    HW126081   0.657   2.094   3.022
 8394SOL    HW226082   0.560   2.131   2.895
 8395SOL     OW26083   6.624   5.669   5.130
 8395SOL    HW126084   6.593   5.610   5.204
 8395SOL    HW226085   6.710   5.712   5.156
 8396SOL     OW26086   4.906   3.562   2.372
 8396SOL    HW126087   4.928   3.535   2.278
 8396SOL    HW226088   4.854   3.648   2.370
 8397SOL     OW26089   2.039   6.189   3.148
 8397SOL    HW126090   2.073   6.123   3.081
 8397SOL    HW226091   2.077   6.167   3.238
 8398SOL     OW26092   4.182   1.289   0.389
 8398SOL    HW126093   4.198   1.199   0.351
 8398SOL    HW226094   4.264   1.345   0.381
 8399SOL     OW26095   5.824   6.236   0.461
 8399SOL    HW126096   5.875   6.320   0.443
 8399SOL    HW226097   5.772   6.246   0.546
 8400SOL     OW26098   0.065   0.252   2.838
 8400SOL    HW126099   7.019   0.186   2.814
 8400SOL    HW226100   0.104   0.290   2.754
 8401SOL     OW26101   3.463   4.776   6.508
 8401SOL    HW126102   3.381   4.807   6.460
 8401SOL    HW226103   3.443   4.768   6.606
 8402SOL     OW26104   4.587   1.520   6.803
 8402SOL    HW126105   4.662   1.487   6.745
 8402SOL    HW226106   4.604   1.616   6.826
 8403SOL     OW26107   1.512   1.363   4.622
 8403SOL    HW126108   1.464   1.443   4.655
 8403SOL    HW226109   1.562   1.320   4.698
 8404SOL     OW26110   4.456   5.603   5.678
 8404SOL    HW126111   4.455   5.621   5.776
 8404SOL    HW226112   4.477   5.507   5.661
 8405SOL     OW26113   0.439   2.456   5.989
 8405SOL    HW126114   0.515   2.416   6.040
 8405SOL    HW226115   0.447   2.556   5.992
 8406SOL     OW26116   5.227   2.523   1.251
 8406SOL    HW126117   5.172   2.553   1.329
 8406SOL    HW226118   5.299   2.461   1.283
 8407SOL     OW26119   4.767   4.085   2.985
 8407SOL    HW126120   4.789   4.059   2.891
 8407SOL    HW226121   4.667   4.088   2.996
 8408SOL     OW26122   4.710   2.294   4.540
 8408SOL    HW126123   4.775   2.356   4.497
 8408SOL    HW226124   4.623   2.341   4.554
 8409SOL     OW26125   0.845   1.789   3.773
 8409SOL    HW126126   0.859   1.708   3.716
 8409SOL    HW226127   0.869   1.767   3.868
 8410SOL     OW26128   4.293   7.003   1.598
 8410SOL    HW126129   4.255   6.923   1.554
 8410SOL    HW226130   4.275   6.999   1.697
 8411SOL     OW26131   1.523   4.109   4.489
 8411SOL    HW126132   1.438   4.063   4.515
 8411SOL    HW226133   1.531   4.195   4.540
 8412SOL     OW26134   4.994   2.772   3.280
 8412SOL    HW126135   4.909   2.765   3.333
 8412SOL    HW226136   4.980   2.836   3.204
 8413SOL     OW26137   3.669   4.795   0.827
 8413SOL    HW126138   3.643   4.852   0.749
 8413SOL    HW226139   3.747   4.836   0.874
 8414SOL     OW26140   4.036   6.664   3.369
 8414SOL    HW126141   4.004   6.677   3.463
 8414SOL    HW226142   4.123   6.615   3.369
 8415SOL     OW26143   6.286   4.290   2.778
 8415SOL    HW126144   6.242   4.299   2.868
 8415SOL    HW226145   6.234   4.225   2.722
 8416SOL     OW26146   5.757   3.684   2.074
 8416SOL    HW126147   5.682   3.751   2.085
 8416SOL    HW226148   5.843   3.727   2.100
 8417SOL     OW26149   2.280   6.160   6.026
 8417SOL    HW126150   2.239   6.173   6.117
 8417SOL    HW226151   2.313   6.248   5.992
 8418SOL     OW26152   6.957   5.789   3.393
 8418SOL    HW126153   6.941   5.887   3.403
 8418SOL    HW226154   6.994   5.752   3.479
 8419SOL     OW26155   4.514   0.695   3.342
 8419SOL    HW126156   4.614   0.690   3.337
 8419SOL    HW226157   4.477   0.602   3.347
 8420SOL     OW26158   3.472   0.330   5.890
 8420SOL    HW126159   3.568   0.350   5.907
 8420SOL    HW226160   3.416   0.406   5.924
 8421SOL     OW26161   1.733   6.260   2.380
 8421SOL    HW126162   1.651   6.307   2.410
 8421SOL    HW226163   1.812   6.321   2.387
 8422SOL     OW26164   4.420   0.003   0.718
 8422SOL    HW126165   4.482   7.003   0.644
 8422SOL    HW226166   4.403   6.949   0.776
 8423SOL     OW26167   3.357   4.154   0.889
 8423SOL    HW126168   3.425   4.082   0.894
 8423SOL    HW226169   3.382   4.229   0.950
 8424SOL     OW26170   3.417   1.805   3.083
 8424SOL    HW126171   3.447   1.721   3.130
 8424SOL    HW226172   3.434   1.795   2.985
 8425SOL     OW26173   6.355   4.917   0.570
 8425SOL    HW126174   6.266   4.962   0.563
 8425SOL    HW226175   6.396   4.912   0.479
 8426SOL     OW26176   3.816   3.551   3.244
 8426SOL    HW126177   3.894   3.565   3.183
 8426SOL    HW226178   3.799   3.635   3.296
 8427SOL     OW26179   2.489   4.240   6.436
 8427SOL    HW126180   2.538   4.272   6.355
 8427SOL    HW226181   2.523   4.287   6.517
 8428SOL     OW26182   6.903   4.096   1.906
 8428SOL    HW126183   6.930   4.051   1.991
 8428SOL    HW226184   6.951   4.055   1.829
 8429SOL     OW26185   1.614   5.974   3.682
 8429SOL    HW126186   1.620   5.962   3.781
 8429SOL    HW226187   1.520   5.995   3.657
 8430SOL     OW26188   4.195   4.921   3.040
 8430SOL    HW126189   4.215   4.963   3.129
 8430SOL    HW226190   4.239   4.831   3.035
 8431SOL     OW26191   3.231   4.931   1.568
 8431SOL    HW126192   3.208   4.843   1.608
 8431SOL    HW226193   3.163   4.955   1.498
 8432SOL     OW26194   3.774   6.560   6.422
 8432SOL    HW126195   3.763   6.462   6.405
 8432SOL    HW226196   3.685   6.604   6.423
 8433SOL     OW26197   1.540   2.260   6.502
 8433SOL    HW126198   1.567   2.247   6.406
 8433SOL    HW226199   1.464   2.325   6.507
 8434SOL     OW26200   4.992   6.357   5.549
 8434SOL    HW126201   5.014   6.440   5.497
 8434SOL    HW226202   4.908   6.372   5.601
 8435SOL     OW26203   4.357   2.195   1.659
 8435SOL    HW126204   4.346   2.262   1.586
 8435SOL    HW226205   4.455   2.176   1.672
 8436SOL     OW26206   4.389   4.461   1.722
 8436SOL    HW126207   4.426   4.472   1.629
 8436SOL    HW226208   4.385   4.363   1.744
 8437SOL     OW26209   0.889   2.030   0.908
 8437SOL    HW126210   0.829   1.951   0.896
 8437SOL    HW226211   0.947   2.040   0.827
 8438SOL     OW26212   1.193   4.923   2.630
 8438SOL    HW126213   1.127   4.893   2.561
 8438SOL    HW226214   1.286   4.908   2.596
 8439SOL     OW26215   6.746   5.447   2.342
 8439SOL    HW126216   6.656   5.470   2.379
 8439SOL    HW226217   6.808   5.423   2.417
 8440SOL     OW26218   0.878   1.359   1.775
 8440SOL    HW126219   0.946   1.288   1.755
 8440SOL    HW226220   0.786   1.321   1.762
 8441SOL     OW26221   4.546   5.638   6.256
 8441SOL    HW126222   4.585   5.562   6.309
 8441SOL    HW226223   4.608   5.716   6.260
 8442SOL     OW26224   2.145   4.901   6.771
 8442SOL    HW126225   2.065   4.876   6.716
 8442SOL    HW226226   2.145   5.000   6.786
 8443SOL     OW26227   2.016   0.173   2.671
 8443SOL    HW126228   1.924   0.148   2.641
 8443SOL    HW226229   2.017   0.181   2.771
 8444SOL     OW26230   3.621   6.475   3.435
 8444SOL    HW126231   3.627   6.385   3.392
 8444SOL    HW226232   3.707   6.496   3.482
 8445SOL     OW26233   3.785   4.939   2.711
 8445SOL    HW126234   3.733   4.923   2.627
 8445SOL    HW226235   3.812   5.035   2.715
 8446SOL     OW26236   5.583   4.784   2.411
 8446SOL    HW126237   5.670   4.742   2.438
 8446SOL    HW226238   5.528   4.717   2.361
 8447SOL     OW26239   4.781   2.428   1.953
 8447SOL    HW126240   4.689   2.395   1.928
 8447SOL    HW226241   4.809   2.500   1.890
 8448SOL     OW26242   0.382   3.676   6.548
 8448SOL    HW126243   0.285   3.699   6.542
 8448SOL    HW226244   0.428   3.742   6.608
 8449SOL     OW26245   1.146   3.174   4.489
 8449SOL    HW126246   1.050   3.203   4.480
 8449SOL    HW226247   1.203   3.254   4.506
 8450SOL     OW26248   2.451   5.845   3.077
 8450SOL    HW126249   2.549   5.829   3.086
 8450SOL    HW226250   2.400   5.773   3.124
 8451SOL     OW26251   4.247   2.795   1.393
 8451SOL    HW126252   4.161   2.846   1.391
 8451SOL    HW226253   4.297   2.818   1.477
 8452SOL     OW26254   7.014   0.043   1.129
 8452SOL    HW126255   0.075   7.022   1.145
 8452SOL    HW226256   6.996   0.107   1.204
 8453SOL     OW26257   6.516   3.916   5.940
 8453SOL    HW126258   6.470   3.831   5.914
 8453SOL    HW226259   6.498   3.936   6.036
 8454SOL     OW26260   1.824   0.197   4.170
 8454SOL    HW126261   1.743   0.255   4.180
 8454SOL    HW226262   1.800   0.115   4.118
 8455SOL     OW26263   4.893   1.464   1.245
 8455SOL    HW126264   4.834   1.428   1.318
 8455SOL    HW226265   4.945   1.389   1.204
 8456SOL     OW26266   4.949   5.355   3.195
 8456SOL    HW126267   4.981   5.338   3.288
 8456SOL    HW226268   5.017   5.322   3.129
 8457SOL     OW26269   0.052   6.315   5.837
 8457SOL    HW126270   0.130   6.355   5.886
 8457SOL    HW226271   6.993   6.337   5.885
 8458SOL     OW26272   1.763   1.642   0.361
 8458SOL    HW126273   1.731   1.549   0.342
 8458SOL    HW226274   1.804   1.645   0.453
 8459SOL     OW26275   3.274   5.829   2.297
 8459SOL    HW126276   3.329   5.896   2.346
 8459SOL    HW226277   3.217   5.778   2.362
 8460SOL     OW26278   4.798   1.659   0.377
 8460SOL    HW126279   4.802   1.559   0.376
 8460SOL    HW226280   4.775   1.690   0.469
 8461SOL     OW26281   0.068   3.879   1.451
 8461SOL    HW126282   7.002   3.863   1.413
 8461SOL    HW226283   0.105   3.794   1.488
 8462SOL     OW26284   3.433   4.467   6.683
 8462SOL    HW126285   3.441   4.486   6.585
 8462SOL    HW226286   3.524   4.467   6.725
 8463SOL     OW26287   6.814   1.865   0.192
 8463SOL    HW126288   6.811   1.963   0.211
 8463SOL    HW226289   6.901   1.842   0.148
 8464SOL     OW26290   0.451   3.115   0.200
 8464SOL    HW126291   0.397   3.089   0.280
 8464SOL    HW226292   0.446   3.042   0.131
 8465SOL     OW26293   4.095   3.121   1.131
 8465SOL    HW126294   4.141   3.036   1.105
 8465SOL    HW226295   4.082   3.177   1.049
 8466SOL     OW26296   5.544   0.403   5.291
 8466SOL    HW126297   5.626   0.420   5.346
 8466SOL    HW226298   5.566   0.415   5.194
 8467SOL     OW26299   3.487   1.362   0.998
 8467SOL    HW126300   3.470   1.264   0.988
 8467SOL    HW226301   3.579   1.376   1.035
 8468SOL     OW26302   6.259   3.404   6.811
 8468SOL    HW126303   6.330   3.464   6.847
 8468SOL    HW226304   6.220   3.444   6.728
 8469SOL     OW26305   3.700   2.732   5.735
 8469SOL    HW126306   3.608   2.727   5.697
 8469SOL    HW226307   3.711   2.818   5.785
 8470SOL     OW26308   1.127   4.918   1.377
 8470SOL    HW126309   1.186   4.983   1.329
 8470SOL    HW226310   1.180   4.867   1.444
 8471SOL     OW26311   3.485   1.679   5.581
 8471SOL    HW126312   3.386   1.683   5.596
 8471SOL    HW226313   3.524   1.770   5.593
 8472SOL     OW26314   5.755   1.418   6.027
 8472SOL    HW126315   5.783   1.429   5.932
 8472SOL    HW226316   5.673   1.472   6.045
 8473SOL     OW26317   4.709   4.315   6.296
 8473SOL    HW126318   4.628   4.301   6.352
 8473SOL    HW226319   4.685   4.370   6.216
 8474SOL     OW26320   3.276   3.611   2.358
 8474SOL    HW126321   3.178   3.595   2.346
 8474SOL    HW226322   3.303   3.693   2.307
 8475SOL     OW26323   6.675   2.990   1.662
 8475SOL    HW126324   6.630   2.982   1.572
 8475SOL    HW226325   6.763   2.943   1.659
 8476SOL     OW26326   6.305   0.236   1.722
 8476SOL    HW126327   6.228   0.203   1.668
 8476SOL    HW226328   6.366   0.159   1.743
 8477SOL     OW26329   5.777   6.648   1.374
 8477SOL    HW126330   5.732   6.597   1.301
 8477SOL    HW226331   5.731   6.629   1.461
 8478SOL     OW26332   0.411   0.027   4.949
 8478SOL    HW126333   0.493   0.083   4.952
 8478SOL    HW226334   0.331   0.085   4.933
 8479SOL     OW26335   1.348   2.503   1.527
 8479SOL    HW126336   1.405   2.530   1.450
 8479SOL    HW226337   1.298   2.583   1.561
 8480SOL     OW26338   4.919   3.925   0.127
 8480SOL    HW126339   4.847   3.889   0.068
 8480SOL    HW226340   4.927   3.868   0.209
 8481SOL     OW26341   3.917   2.018   3.979
 8481SOL    HW126342   3.985   2.015   3.906
 8481SOL    HW226343   3.948   2.080   4.051
 8482SOL     OW26344   4.409   1.221   0.110
 8482SOL    HW126345   4.348   1.268   0.046
 8482SOL    HW226346   4.368   1.224   0.202
 8483SOL     OW26347   3.070   6.150   3.681
 8483SOL    HW126348   3.118   6.173   3.766
 8483SOL    HW226349   2.973   6.173   3.690
 8484SOL     OW26350   6.172   5.743   4.500
 8484SOL    HW126351   6.233   5.818   4.525
 8484SOL    HW226352   6.077   5.770   4.517
 8485SOL     OW26353   3.010   2.445   6.958
 8485SOL    HW126354   3.083   2.445   0.002
 8485SOL    HW226355   2.948   2.521   6.976
 8486SOL     OW26356   1.366   0.786   2.448
 8486SOL    HW126357   1.297   0.715   2.465
 8486SOL    HW226358   1.430   0.789   2.525
 8487SOL     OW26359   5.382   1.937   6.071
 8487SOL    HW126360   5.454   1.950   6.002
 8487SOL    HW226361   5.298   1.907   6.027
 8488SOL     OW26362   4.968   5.468   1.977
 8488SOL    HW126363   4.895   5.416   1.933
 8488SOL    HW226364   5.043   5.480   1.913
 8489SOL     OW26365   5.053   0.894   1.347
 8489SOL    HW126366   4.969   0.948   1.348
 8489SOL    HW226367   5.038   0.811   1.295
 8490SOL     OW26368   2.322   6.896   0.034
 8490SOL    HW126369   2.303   6.838   0.114
 8490SOL    HW226370   2.357   6.984   0.065
 8491SOL     OW26371   2.865   6.104   2.459
 8491SOL    HW126372   2.942   6.167   2.449
 8491SOL    HW226373   2.900   6.011   2.475
 8492SOL     OW26374   5.823   4.523   4.789
 8492SOL    HW126375   5.822   4.453   4.718
 8492SOL    HW226376   5.845   4.612   4.748
 8493SOL     OW26377   3.652   0.730   0.046
 8493SOL    HW126378   3.567   0.767   0.010
 8493SOL    HW226379   3.633   0.646   0.098
 8494SOL     OW26380   5.856   5.328   2.170
 8494SOL    HW126381   5.875   5.235   2.136
 8494SOL    HW226382   5.904   5.394   2.113
 8495SOL     OW26383   6.734   6.080   0.427
 8495SOL    HW126384   6.636   6.072   0.414
 8495SOL    HW226385   6.781   6.060   0.341
 8496SOL     OW26386   4.847   1.279   2.268
 8496SOL    HW126387   4.894   1.283   2.180
 8496SOL    HW226388   4.892   1.212   2.327
 8497SOL     OW26389   6.384   0.824   4.125
 8497SOL    HW126390   6.309   0.848   4.186
 8497SOL    HW226391   6.398   0.896   4.057
 8498SOL     OW26392   4.848   6.889   4.393
 8498SOL    HW126393   4.920   6.820   4.401
 8498SOL    HW226394   4.785   6.880   4.470
 8499SOL     OW26395   6.596   5.916   6.911
 8499SOL    HW126396   6.668   5.979   6.942
 8499SOL    HW226397   6.618   5.882   6.820
 8500SOL     OW26398   2.193   0.486   5.919
 8500SOL    HW126399   2.220   0.580   5.939
 8500SOL    HW226400   2.099   0.471   5.948
 8501SOL     OW26401   0.928   1.312   0.362
 8501SOL    HW126402   0.983   1.387   0.324
 8501SOL    HW226403   0.832   1.338   0.362
 8502SOL     OW26404   0.683   3.029   6.863
 8502SOL    HW126405   0.757   2.982   6.816
 8502SOL    HW226406   0.625   2.962   6.909
 8503SOL     OW26407   6.091   5.891   4.225
 8503SOL    HW126408   6.180   5.935   4.222
 8503SOL    HW226409   6.102   5.793   4.208
 8504SOL     OW26410   2.328   4.759   2.828
 8504SOL    HW126411   2.381   4.832   2.786
 8504SOL    HW226412   2.376   4.672   2.816
 8505SOL     OW26413   5.413   3.217   2.658
 8505SOL    HW126414   5.334   3.173   2.699
 8505SOL    HW226415   5.434   3.301   2.708
 8506SOL     OW26416   2.416   0.100   0.105
 8506SOL    HW126417   2.514   0.078   0.107
 8506SOL    HW226418   2.396   0.158   0.025
 8507SOL     OW26419   4.716   6.382   5.632
 8507SOL    HW126420   4.671   6.459   5.677
 8507SOL    HW226421   4.648   6.312   5.610
 8508SOL     OW26422   4.210   1.668   0.180
 8508SOL    HW126423   4.272   1.603   0.137
 8508SOL    HW226424   4.240   1.761   0.160
 8509SOL     OW26425   5.941   0.602   3.692
 8509SOL    HW126426   5.844   0.623   3.709
 8509SOL    HW226427   5.997   0.653   3.758
 8510SOL     OW26428   5.788   2.515   4.412
 8510SOL    HW126429   5.786   2.505   4.312
 8510SOL    HW226430   5.698   2.493   4.449
 8511SOL     OW26431   5.972   2.858   1.783
 8511SOL    HW126432   5.895   2.913   1.815
 8511SOL    HW226433   5.976   2.861   1.684
 8512SOL     OW26434   1.798   0.030   4.402
 8512SOL    HW126435   1.793   0.086   4.319
 8512SOL    HW226436   1.743   0.071   4.474
 8513SOL     OW26437   6.179   6.100   6.719
 8513SOL    HW126438   6.218   6.034   6.783
 8513SOL    HW226439   6.113   6.158   6.767
 8514SOL     OW26440   2.624   6.480   4.219
 8514SOL    HW126441   2.690   6.408   4.200
 8514SOL    HW226442   2.661   6.542   4.288
 8515SOL     OW26443   4.924   2.004   1.628
 8515SOL    HW126444   4.900   1.923   1.682
 8515SOL    HW226445   4.900   2.086   1.681
 8516SOL     OW26446   6.227   2.598   2.027
 8516SOL    HW126447   6.197   2.669   2.090
 8516SOL    HW226448   6.150   2.569   1.971
 8517SOL     OW26449   1.782   2.611   6.359
 8517SOL    HW126450   1.839   2.529   6.367
 8517SOL    HW226451   1.837   2.685   6.320
 8518SOL     OW26452   3.608   5.448   0.338
 8518SOL    HW126453   3.680   5.398   0.386
 8518SOL    HW226454   3.580   5.397   0.256
 8519SOL     OW26455   0.798   5.558   2.309
 8519SOL    HW126456   0.803   5.554   2.408
 8519SOL    HW226457   0.721   5.502   2.277
 8520SOL     OW26458   4.202   0.701   0.279
 8520SOL    HW126459   4.216   0.651   0.194
 8520SOL    HW226460   4.289   0.736   0.312
 8521SOL     OW26461   1.418   5.677   5.674
 8521SOL    HW126462   1.497   5.686   5.613
 8521SOL    HW226463   1.437   5.609   5.744
 8522SOL     OW26464   1.089   6.001   4.865
 8522SOL    HW126465   1.062   5.905   4.856
 8522SOL    HW226466   1.037   6.044   4.938
 8523SOL     OW26467   1.474   6.675   0.010
 8523SOL    HW126468   1.431   6.590   7.005
 8523SOL    HW226469   1.571   6.673   7.012
 8524SOL     OW26470   1.715   3.423   6.152
 8524SOL    HW126471   1.756   3.338   6.184
 8524SOL    HW226472   1.688   3.413   6.056
 8525SOL     OW26473   6.143   3.443   3.376
 8525SOL    HW126474   6.050   3.460   3.345
 8525SOL    HW226475   6.182   3.366   3.326
 8526SOL     OW26476   2.216   2.969   2.298
 8526SOL    HW126477   2.212   3.032   2.220
 8526SOL    HW226478   2.284   2.898   2.279
 8527SOL     OW26479   4.453   0.601   4.631
 8527SOL    HW126480   4.410   0.531   4.574
 8527SOL    HW226481   4.517   0.557   4.694
 8528SOL     OW26482   4.561   2.707   6.281
 8528SOL    HW126483   4.621   2.628   6.272
 8528SOL    HW226484   4.483   2.697   6.219
 8529SOL     OW26485   1.058   4.779   6.761
 8529SOL    HW126486   1.082   4.866   6.718
 8529SOL    HW226487   1.139   4.722   6.770
 8530SOL     OW26488   1.639   3.805   5.157
 8530SOL    HW126489   1.552   3.776   5.117
 8530SOL    HW226490   1.681   3.876   5.101
 8531SOL     OW26491   4.831   5.128   2.498
 8531SOL    HW126492   4.867   5.169   2.414
 8531SOL    HW226493   4.731   5.128   2.496
 8532SOL     OW26494   3.682   4.288   6.135
 8532SOL    HW126495   3.699   4.381   6.168
 8532SOL    HW226496   3.613   4.244   6.193
 8533SOL     OW26497   3.754   1.177   5.024
 8533SOL    HW126498   3.792   1.144   4.938
 8533SOL    HW226499   3.656   1.194   5.013
 8534SOL     OW26500   1.525   3.218   2.331
 8534SOL    HW126501   1.594   3.287   2.310
 8534SOL    HW226502   1.448   3.261   2.378
 8535SOL     OW26503   0.549   2.336   4.769
 8535SOL    HW126504   0.570   2.303   4.861
 8535SOL    HW226505   0.548   2.259   4.706
 8536SOL     OW26506   0.606   1.512   5.907
 8536SOL    HW126507   0.531   1.446   5.899
 8536SOL    HW226508   0.570   1.597   5.945
 8537SOL     OW26509   5.612   0.401   1.835
 8537SOL    HW126510   5.623   0.500   1.826
 8537SOL    HW226511   5.517   0.376   1.817
 8538SOL     OW26512   5.915   0.623   4.807
 8538SOL    HW126513   5.906   0.534   4.763
 8538SOL    HW226514   6.006   0.660   4.788
 8539SOL     OW26515   0.467   3.234   1.908
 8539SOL    HW126516   0.407   3.155   1.919
 8539SOL    HW226517   0.426   3.313   1.955
 8540SOL     OW26518   3.953   0.280   0.432
 8540SOL    HW126519   3.933   0.341   0.509
 8540SOL    HW226520   3.873   0.223   0.413
 8541SOL     OW26521   3.259   0.968   4.830
 8541SOL    HW126522   3.258   1.064   4.802
 8541SOL    HW226523   3.165   0.935   4.836
 8542SOL     OW26524   1.913   4.885   6.620
 8542SOL    HW126525   1.821   4.859   6.650
 8542SOL    HW226526   1.932   4.843   6.531
 8543SOL     OW26527   2.268   1.857   5.975
 8543SOL    HW126528   2.299   1.856   5.880
 8543SOL    HW226529   2.318   1.926   6.026
 8544SOL     OW26530   4.701   3.996   5.191
 8544SOL    HW126531   4.634   3.957   5.254
 8544SOL    HW226532   4.760   3.923   5.155
 8545SOL     OW26533   3.012   0.344   6.342
 8545SOL    HW126534   2.920   0.324   6.310
 8545SOL    HW226535   3.057   0.407   6.279
 8546SOL     OW26536   5.887   0.408   1.613
 8546SOL    HW126537   5.894   0.478   1.543
 8546SOL    HW226538   5.869   0.451   1.702
 8547SOL     OW26539   6.031   6.208   5.830
 8547SOL    HW126540   6.109   6.181   5.888
 8547SOL    HW226541   6.058   6.285   5.772
 8548SOL     OW26542   0.571   2.772   6.227
 8548SOL    HW126543   0.541   2.727   6.142
 8548SOL    HW226544   0.533   2.864   6.231
 8549SOL     OW26545   1.838   0.629   2.907
 8549SOL    HW126546   1.790   0.689   2.971
 8549SOL    HW226547   1.780   0.550   2.886
 8550SOL     OW26548   0.288   4.711   6.493
 8550SOL    HW126549   0.331   4.633   6.447
 8550SOL    HW226550   0.259   4.684   6.585
 8551SOL     OW26551   2.235   1.837   5.474
 8551SOL    HW126552   2.212   1.909   5.408
 8551SOL    HW226553   2.334   1.822   5.473
 8552SOL     OW26554   2.483   1.948   3.501
 8552SOL    HW126555   2.553   2.001   3.549
 8552SOL    HW226556   2.392   1.977   3.532
 8553SOL     OW26557   5.390   2.791   0.101
 8553SOL    HW126558   5.334   2.835   0.171
 8553SOL    HW226559   5.440   2.714   0.142
 8554SOL     OW26560   1.126   0.251   0.231
 8554SOL    HW126561   1.081   0.181   0.175
 8554SOL    HW226562   1.152   0.211   0.319
 8555SOL     OW26563   4.455   0.883   4.636
 8555SOL    HW126564   4.359   0.908   4.625
 8555SOL    HW226565   4.464   0.784   4.636
 8556SOL     OW26566   1.583   6.339   0.545
 8556SOL    HW126567   1.548   6.246   0.534
 8556SOL    HW226568   1.535   6.400   0.481
 8557SOL     OW26569   0.521   0.852   0.229
 8557SOL    HW126570   0.455   0.928   0.230
 8557SOL    HW226571   0.602   0.879   0.176
 8558SOL     OW26572   2.749   4.812   3.635
 8558SOL    HW126573   2.819   4.880   3.613
 8558SOL    HW226574   2.669   4.827   3.577
 8559SOL     OW26575   1.003   5.330   2.529
 8559SOL    HW126576   1.015   5.328   2.628
 8559SOL    HW226577   1.087   5.300   2.484
 8560SOL     OW26578   2.889   4.212   1.732
 8560SOL    HW126579   2.941   4.158   1.798
 8560SOL    HW226580   2.838   4.283   1.782
 8561SOL     OW26581   4.763   0.007   2.335
 8561SOL    HW126582   4.732   0.064   2.259
 8561SOL    HW226583   4.852   6.993   2.313
 8562SOL     OW26584   4.635   0.961   6.927
 8562SOL    HW126585   4.650   1.057   6.949
 8562SOL    HW226586   4.536   0.944   6.918
 8563SOL     OW26587   1.928   5.123   2.456
 8563SOL    HW126588   2.007   5.081   2.412
 8563SOL    HW226589   1.859   5.052   2.475
 8564SOL     OW26590   4.546   0.730   6.759
 8564SOL    HW126591   4.590   0.778   6.835
 8564SOL    HW226592   4.585   0.763   6.673
 8565SOL     OW26593   2.896   5.329   1.205
 8565SOL    HW126594   2.968   5.260   1.201
 8565SOL    HW226595   2.811   5.287   1.237
 8566SOL     OW26596   3.414   1.094   2.923
 8566SOL    HW126597   3.375   1.172   2.872
 8566SOL    HW226598   3.447   1.026   2.858
 8567SOL     OW26599   2.366   2.236   1.802
 8567SOL    HW126600   2.439   2.246   1.734
 8567SOL    HW226601   2.346   2.140   1.816
 8568SOL     OW26602   6.958   1.009   6.920
 8568SOL    HW126603   6.955   1.095   6.970
 8568SOL    HW226604   6.929   0.935   6.980
 8569SOL     OW26605   4.779   2.472   6.465
 8569SOL    HW126606   4.742   2.379   6.461
 8569SOL    HW226607   4.727   2.525   6.532
 8570SOL     OW26608   1.560   3.056   4.133
 8570SOL    HW126609   1.566   3.001   4.050
 8570SOL    HW226610   1.531   2.998   4.209
 8571SOL     OW26611   1.374   0.670   3.504
 8571SOL    HW126612   1.305   0.736   3.475
 8571SOL    HW226613   1.351   0.635   3.595
 8572SOL     OW26614   2.985   4.067   5.442
 8572SOL    HW126615   3.019   4.158   5.418
 8572SOL    HW226616   2.980   4.058   5.541
 8573SOL     OW26617   3.756   6.234   0.653
 8573SOL    HW126618   3.797   6.143   0.647
 8573SOL    HW226619   3.747   6.273   0.561
 8574SOL     OW26620   6.151   6.824   5.582
 8574SOL    HW126621   6.221   6.759   5.555
 8574SOL    HW226622   6.112   6.797   5.670
 8575SOL     OW26623   2.989   6.129   3.054
 8575SOL    HW126624   2.992   6.229   3.056
 8575SOL    HW226625   2.914   6.099   2.996
 8576SOL     OW26626   0.647   4.258   3.772
 8576SOL    HW126627   0.583   4.277   3.847
 8576SOL    HW226628   0.697   4.174   3.791
 8577SOL     OW26629   2.065   1.904   0.085
 8577SOL    HW126630   1.968   1.884   0.102
 8577SOL    HW226631   2.072   1.987   0.030
 8578SOL     OW26632   6.491   6.829   5.931
 8578SOL    HW126633   6.526   6.817   5.839
 8578SOL    HW226634   6.425   6.905   5.932
 8579SOL     OW26635   3.216   6.123   2.596
 8579SOL    HW126636   3.154   6.188   2.551
 8579SOL    HW226637   3.238   6.156   2.688
 8580SOL     OW26638   1.939   0.779   1.570
 8580SOL    HW126639   1.912   0.769   1.666
 8580SOL    HW226640   1.917   0.872   1.539
 8581SOL     OW26641   3.378   4.702   1.204
 8581SOL    HW126642   3.436   4.679   1.282
 8581SOL    HW226643   3.409   4.652   1.123
 8582SOL     OW26644   3.706   4.538   5.780
 8582SOL    HW126645   3.778   4.501   5.839
 8582SOL    HW226646   3.671   4.465   5.721
 8583SOL     OW26647   4.522   0.384   3.034
 8583SOL    HW126648   4.485   0.302   2.990
 8583SOL    HW226649   4.456   0.418   3.101
 8584SOL     OW26650   6.493   1.149   4.378
 8584SOL    HW126651   6.579   1.128   4.332
 8584SOL    HW226652   6.512   1.181   4.471
 8585SOL     OW26653   5.061   1.465   2.302
 8585SOL    HW126654   4.965   1.457   2.327
 8585SOL    HW226655   5.079   1.559   2.271
 8586SOL     OW26656   6.286   5.644   0.974
 8586SOL    HW126657   6.292   5.670   1.070
 8586SOL    HW226658   6.378   5.644   0.933
 8587SOL     OW26659   2.100   1.439   5.716
 8587SOL    HW126660   2.161   1.400   5.784
 8587SOL    HW226661   2.061   1.524   5.750
 8588SOL     OW26662   2.881   1.333   6.805
 8588SOL    HW126663   2.810   1.363   6.742
 8588SOL    HW226664   2.955   1.400   6.806
 8589SOL     OW26665   6.928   2.960   6.256
 8589SOL    HW126666   6.913   2.864   6.280
 8589SOL    HW226667   6.856   2.990   6.193
 8590SOL     OW26668   1.306   1.363   2.816
 8590SOL    HW126669   1.297   1.279   2.869
 8590SOL    HW226670   1.367   1.426   2.864
 8591SOL     OW26671   6.919   4.712   0.369
 8591SOL    HW126672   7.016   4.691   0.360
 8591SOL    HW226673   6.902   4.754   0.458
 8592SOL     OW26674   1.468   1.999   6.242
 8592SOL    HW126675   1.442   1.950   6.158
 8592SOL    HW226676   1.567   2.015   6.242
 8593SOL     OW26677   3.615   0.660   6.423
 8593SOL    HW126678   3.712   0.668   6.446
 8593SOL    HW226679   3.577   0.579   6.467
 8594SOL     OW26680   6.694   2.690   5.663
 8594SOL    HW126681   6.685   2.760   5.735
 8594SOL    HW226682   6.773   2.632   5.683
 8595SOL     OW26683   4.983   6.420   2.631
 8595SOL    HW126684   5.062   6.479   2.610
 8595SOL    HW226685   5.015   6.340   2.682
 8596SOL     OW26686   0.867   2.609   3.411
 8596SOL    HW126687   0.941   2.542   3.415
 8596SOL    HW226688   0.787   2.567   3.368
 8597SOL     OW26689   5.960   3.346   0.645
 8597SOL    HW126690   5.943   3.260   0.691
 8597SOL    HW226691   5.919   3.421   0.697
 8598SOL     OW26692   5.604   6.759   4.026
 8598SOL    HW126693   5.603   6.792   4.120
 8598SOL    HW226694   5.598   6.837   3.964
 8599SOL     OW26695   1.145   2.926   3.743
 8599SOL    HW126696   1.179   2.848   3.796
 8599SOL    HW226697   1.063   2.963   3.786
 8600SOL     OW26698   4.050   2.596   1.299
 8600SOL    HW126699   4.100   2.661   1.356
 8600SOL    HW226700   4.055   2.505   1.340
 8601SOL     OW26701   0.946   6.955   3.668
 8601SOL    HW126702   0.846   6.953   3.669
 8601SOL    HW226703   0.980   6.924   3.756
 8602SOL     OW26704   1.904   6.806   4.339
 8602SOL    HW126705   1.859   6.895   4.348
 8602SOL    HW226706   1.893   6.754   4.423
 8603SOL     OW26707   6.942   0.517   0.832
 8603SOL    HW126708   6.865   0.580   0.842
 8603SOL    HW226709   6.930   0.439   0.894
 8604SOL     OW26710   0.225   4.141   6.111
 8604SOL    HW126711   0.298   4.177   6.052
 8604SOL    HW226712   0.170   4.218   6.145
 8605SOL     OW26713   6.994   5.121   4.135
 8605SOL    HW126714   7.018   5.091   4.228
 8605SOL    HW226715   6.959   5.215   4.139
 8606SOL     OW26716   2.278   2.903   6.813
 8606SOL    HW126717   2.224   2.835   6.862
 8606SOL    HW226718   2.253   2.995   6.845
 8607SOL     OW26719   2.328   4.312   1.783
 8607SOL    HW126720   2.293   4.286   1.874
 8607SOL    HW226721   2.333   4.231   1.725
 8608SOL     OW26722   2.157   4.864   3.015
 8608SOL    HW126723   2.230   4.843   2.951
 8608SOL    HW226724   2.083   4.911   2.968
 8609SOL     OW26725   4.409   1.178   4.322
 8609SOL    HW126726   4.404   1.174   4.223
 8609SOL    HW226727   4.347   1.249   4.356
 8610SOL     OW26728   0.804   6.492   2.726
 8610SOL    HW126729   0.794   6.420   2.657
 8610SOL    HW226730   0.847   6.572   2.684
 8611SOL     OW26731   2.549   1.323   4.446
 8611SOL    HW126732   2.647   1.319   4.428
 8611SOL    HW226733   2.533   1.322   4.545
 8612SOL     OW26734   4.072   3.792   3.353
 8612SOL    HW126735   4.041   3.885   3.375
 8612SOL    HW226736   4.013   3.726   3.398
 8613SOL     OW26737   3.227   2.847   1.220
 8613SOL    HW126738   3.139   2.879   1.186
 8613SOL    HW226739   3.293   2.843   1.145
 8614SOL     OW26740   1.217   2.579   2.116
 8614SOL    HW126741   1.211   2.490   2.070
 8614SOL    HW226742   1.215   2.565   2.215
 8615SOL     OW26743   3.858   1.015   3.574
 8615SOL    HW126744   3.865   1.061   3.663
 8615SOL    HW226745   3.762   0.996   3.553
 8616SOL     OW26746   4.455   4.669   2.754
 8616SOL    HW126747   4.542   4.696   2.712
 8616SOL    HW226748   4.379   4.708   2.702
 8617SOL     OW26749   4.029   0.099   3.933
 8617SOL    HW126750   4.047   0.037   4.009
 8617SOL    HW226751   4.115   0.129   3.892
 8618SOL     OW26752   5.455   4.115   0.976
 8618SOL    HW126753   5.480   4.018   0.980
 8618SOL    HW226754   5.461   4.154   1.067
 8619SOL     OW26755   5.707   4.472   1.037
 8619SOL    HW126756   5.727   4.565   1.009
 8619SOL    HW226757   5.784   4.436   1.091
 8620SOL     OW26758   1.728   0.847   4.518
 8620SOL    HW126759   1.631   0.865   4.502
 8620SOL    HW226760   1.748   0.751   4.501
 8621SOL     OW26761   5.127   2.638   1.491
 8621SOL    HW126762   5.113   2.656   1.588
 8621SOL    HW226763   5.107   2.721   1.439
 8622SOL     OW26764   6.459   5.184   3.052
 8622SOL    HW126765   6.391   5.201   3.123
 8622SOL    HW226766   6.533   5.128   3.090
 8623SOL     OW26767   6.731   3.080   4.475
 8623SOL    HW126768   6.686   3.006   4.426
 8623SOL    HW226769   6.806   3.043   4.531
 8624SOL     OW26770   2.894   4.091   5.721
 8624SOL    HW126771   2.984   4.126   5.748
 8624SOL    HW226772   2.843   4.065   5.803
 8625SOL     OW26773   3.956   2.329   5.663
 8625SOL    HW126774   3.954   2.427   5.641
 8625SOL    HW226775   3.950   2.317   5.762
 8626SOL     OW26776   4.346   4.228   0.537
 8626SOL    HW126777   4.332   4.195   0.444
 8626SOL    HW226778   4.284   4.180   0.599
 8627SOL     OW26779   1.992   0.741   2.729
 8627SOL    HW126780   2.056   0.672   2.697
 8627SOL    HW226781   1.934   0.702   2.800
 8628SOL     OW26782   0.706   6.339   0.335
 8628SOL    HW126783   0.706   6.432   0.371
 8628SOL    HW226784   0.747   6.277   0.403
 8629SOL     OW26785   0.233   0.230   4.414
 8629SOL    HW126786   0.267   0.158   4.474
 8629SOL    HW226787   0.309   0.273   4.366
 8630SOL     OW26788   5.236   2.875   2.467
 8630SOL    HW126789   5.194   2.965   2.481
 8630SOL    HW226790   5.233   2.823   2.552
 8631SOL     OW26791   3.040   6.285   0.244
 8631SOL    HW126792   3.051   6.355   0.315
 8631SOL    HW226793   3.126   6.273   0.194
 8632SOL     OW26794   4.602   4.708   5.649
 8632SOL    HW126795   4.571   4.614   5.643
 8632SOL    HW226796   4.544   4.766   5.592
 8633SOL     OW26797   5.530   3.433   6.043
 8633SOL    HW126798   5.569   3.454   6.133
 8633SOL    HW226799   5.451   3.373   6.054
 8634SOL     OW26800   5.488   4.497   0.661
 8634SOL    HW126801   5.405   4.455   0.624
 8634SOL    HW226802   5.548   4.426   0.697
 8635SOL     OW26803   6.023   2.649   6.215
 8635SOL    HW126804   5.956   2.698   6.271
 8635SOL    HW226805   6.115   2.670   6.248
 8636SOL     OW26806   4.846   6.485   0.926
 8636SOL    HW126807   4.908   6.520   0.857
 8636SOL    HW226808   4.789   6.559   0.961
 8637SOL     OW26809   2.240   1.680   6.410
 8637SOL    HW126810   2.321   1.710   6.359
 8637SOL    HW226811   2.195   1.760   6.450
 8638SOL     OW26812   4.452   2.738   5.318
 8638SOL    HW126813   4.358   2.713   5.341
 8638SOL    HW226814   4.468   2.834   5.340
 8639SOL     OW26815   4.173   3.465   6.347
 8639SOL    HW126816   4.203   3.372   6.329
 8639SOL    HW226817   4.126   3.501   6.266
 8640SOL     OW26818   2.890   3.452   1.619
 8640SOL    HW126819   2.867   3.452   1.716
 8640SOL    HW226820   2.916   3.359   1.591
 8641SOL     OW26821   4.348   5.788   2.763
 8641SOL    HW126822   4.377   5.811   2.670
 8641SOL    HW226823   4.313   5.870   2.808
 8642SOL     OW26824   1.274   6.424   4.516
 8642SOL    HW126825   1.257   6.522   4.503
 8642SOL    HW226826   1.239   6.373   4.438
 8643SOL     OW26827   4.118   6.913   0.821
 8643SOL    HW126828   4.134   6.911   0.920
 8643SOL    HW226829   4.143   6.824   0.782
 8644SOL     OW26830   5.873   1.653   6.897
 8644SOL    HW126831   5.798   1.687   6.954
 8644SOL    HW226832   5.946   1.618   6.956
 8645SOL     OW26833   6.023   3.753   2.013
 8645SOL    HW126834   6.083   3.726   2.088
 8645SOL    HW226835   6.009   3.852   2.016
 8646SOL     OW26836   0.049   1.684   5.514
 8646SOL    HW126837   7.001   1.631   5.472
 8646SOL    HW226838   0.072   1.644   5.603
 8647SOL     OW26839   2.293   4.838   1.840
 8647SOL    HW126840   2.385   4.870   1.858
 8647SOL    HW226841   2.296   4.745   1.803
 8648SOL     OW26842   5.765   5.371   0.911
 8648SOL    HW126843   5.856   5.356   0.871
 8648SOL    HW226844   5.750   5.304   0.984
 8649SOL     OW26845   4.394   6.710   0.963
 8649SOL    HW126846   4.353   6.791   1.005
 8649SOL    HW226847   4.409   6.640   1.033
 8650SOL     OW26848   1.983   6.644   4.078
 8650SOL    HW126849   1.893   6.629   4.038
 8650SOL    HW226850   1.973   6.685   4.169
 8651SOL     OW26851   3.356   1.974   1.213
 8651SOL    HW126852   3.281   2.001   1.153
 8651SOL    HW226853   3.329   1.894   1.267
 8652SOL     OW26854   1.548   3.774   3.958
 8652SOL    HW126855   1.589   3.779   3.867
 8652SOL    HW226856   1.459   3.818   3.957
 8653SOL     OW26857   0.409   1.298   6.009
 8653SOL    HW126858   0.319   1.321   5.972
 8653SOL    HW226859   0.403   1.292   6.109
 8654SOL     OW26860   0.809   4.529   1.594
 8654SOL    HW126861   0.832   4.622   1.567
 8654SOL    HW226862   0.728   4.529   1.653
 8655SOL     OW26863   0.338   0.927   5.466
 8655SOL    HW126864   0.410   0.975   5.516
 8655SOL    HW226865   0.249   0.950   5.505
 8656SOL     OW26866   5.266   0.203   1.484
 8656SOL    HW126867   5.275   0.296   1.448
 8656SOL    HW226868   5.187   0.197   1.544
 8657SOL     OW26869   5.298   0.804   2.556
 8657SOL    HW126870   5.285   0.707   2.575
 8657SOL    HW226871   5.373   0.839   2.613
 8658SOL     OW26872   0.178   4.968   0.843
 8658SOL    HW126873   0.106   5.009   0.898
 8658SOL    HW226874   0.138   4.903   0.778
 8659SOL     OW26875   4.571   1.396   2.355
 8659SOL    HW126876   4.662   1.371   2.388
 8659SOL    HW226877   4.553   1.350   2.268
 8660SOL     OW26878   0.476   3.357   1.452
 8660SOL    HW126879   0.463   3.284   1.385
 8660SOL    HW226880   0.415   3.343   1.529
 8661SOL     OW26881   6.331   3.308   3.125
 8661SOL    HW126882   6.334   3.251   3.044
 8661SOL    HW226883   6.424   3.324   3.159
 8662SOL     OW26884   3.070   5.177   2.908
 8662SOL    HW126885   3.032   5.179   2.816
 8662SOL    HW226886   3.093   5.083   2.933
 8663SOL     OW26887   3.626   6.008   3.175
 8663SOL    HW126888   3.657   6.013   3.080
 8663SOL    HW226889   3.645   5.918   3.213
 8664SOL     OW26890   2.708   5.113   3.180
 8664SOL    HW126891   2.667   5.054   3.110
 8664SOL    HW226892   2.765   5.057   3.240
 8665SOL     OW26893   5.755   3.384   5.889
 8665SOL    HW126894   5.671   3.398   5.942
 8665SOL    HW226895   5.807   3.308   5.928
 8666SOL     OW26896   4.461   6.615   2.799
 8666SOL    HW126897   4.430   6.666   2.719
 8666SOL    HW226898   4.469   6.518   2.775
 8667SOL     OW26899   5.181   1.893   4.350
 8667SOL    HW126900   5.266   1.873   4.301
 8667SOL    HW226901   5.166   1.992   4.352
 8668SOL     OW26902   4.966   3.004   5.340
 8668SOL    HW126903   4.984   2.914   5.301
 8668SOL    HW226904   4.879   3.003   5.389
 8669SOL     OW26905   6.114   6.449   6.274
 8669SOL    HW126906   6.206   6.410   6.277
 8669SOL    HW226907   6.051   6.384   6.231
 8670SOL     OW26908   6.405   4.768   5.943
 8670SOL    HW126909   6.409   4.675   5.980
 8670SOL    HW226910   6.312   4.789   5.915
 8671SOL     OW26911   6.989   2.077   2.401
 8671SOL    HW126912   6.934   2.132   2.463
 8671SOL    HW226913   6.950   1.985   2.396
 8672SOL     OW26914   0.383   1.408   3.645
 8672SOL    HW126915   0.450   1.354   3.595
 8672SOL    HW226916   0.339   1.350   3.714
 8673SOL     OW26917   1.026   1.750   1.291
 8673SOL    HW126918   1.124   1.760   1.276
 8673SOL    HW226919   1.005   1.767   1.388
 8674SOL     OW26920   6.848   4.816   2.860
 8674SOL    HW126921   6.849   4.744   2.790
 8674SOL    HW226922   6.941   4.831   2.893
 8675SOL     OW26923   3.900   1.771   5.625
 8675SOL    HW126924   3.853   1.859   5.617
 8675SOL    HW226925   3.936   1.762   5.718
 8676SOL     OW26926   5.377   0.877   0.847
 8676SOL    HW126927   5.332   0.923   0.923
 8676SOL    HW226928   5.380   0.778   0.864
 8677SOL     OW26929   1.667   6.811   5.536
 8677SOL    HW126930   1.670   6.722   5.491
 8677SOL    HW226931   1.580   6.856   5.515
 8678SOL     OW26932   1.957   1.163   0.987
 8678SOL    HW126933   1.988   1.254   1.013
 8678SOL    HW226934   2.028   1.118   0.932
 8679SOL     OW26935   1.791   1.452   4.688
 8679SOL    HW126936   1.837   1.465   4.600
 8679SOL    HW226937   1.744   1.364   4.688
 8680SOL     OW26938   6.766   2.125   6.379
 8680SOL    HW126939   6.753   2.026   6.373
 8680SOL    HW226940   6.705   2.162   6.450
 8681SOL     OW26941   5.350   6.009   0.874
 8681SOL    HW126942   5.304   6.076   0.816
 8681SOL    HW226943   5.432   6.050   0.915
 8682SOL     OW26944   0.680   0.849   1.052
 8682SOL    HW126945   0.662   0.910   0.974
 8682SOL    HW226946   0.765   0.877   1.096
 8683SOL     OW26947   2.335   4.342   4.699
 8683SOL    HW126948   2.307   4.254   4.739
 8683SOL    HW226949   2.346   4.331   4.601
 8684SOL     OW26950   0.551   3.352   4.522
 8684SOL    HW126951   0.483   3.348   4.595
 8684SOL    HW226952   0.534   3.278   4.457
 8685SOL     OW26953   4.783   2.375   5.320
 8685SOL    HW126954   4.750   2.408   5.408
 8685SOL    HW226955   4.774   2.276   5.315
 8686SOL     OW26956   0.113   6.108   2.934
 8686SOL    HW126957   0.069   6.032   2.886
 8686SOL    HW226958   0.101   6.192   2.881
 8687SOL     OW26959   6.024   3.286   3.737
 8687SOL    HW126960   6.090   3.357   3.713
 8687SOL    HW226961   5.983   3.307   3.825
 8688SOL     OW26962   0.837   4.131   6.239
 8688SOL    HW126963   0.910   4.184   6.195
 8688SOL    HW226964   0.749   4.158   6.201
 8689SOL     OW26965   4.667   3.869   6.514
 8689SOL    HW126966   4.571   3.875   6.489
 8689SOL    HW226967   4.699   3.958   6.547
 8690SOL     OW26968   2.122   2.127   3.810
 8690SOL    HW126969   2.036   2.128   3.759
 8690SOL    HW226970   2.177   2.049   3.781
 8691SOL     OW26971   2.873   2.403   5.204
 8691SOL    HW126972   2.966   2.384   5.171
 8691SOL    HW226973   2.808   2.391   5.128
 8692SOL     OW26974   4.228   1.825   5.745
 8692SOL    HW126975   4.210   1.812   5.647
 8692SOL    HW226976   4.141   1.839   5.792
 8693SOL     OW26977   6.536   0.282   6.432
 8693SOL    HW126978   6.609   0.295   6.365
 8693SOL    HW226979   6.509   0.185   6.434
 8694SOL     OW26980   5.280   3.185   4.195
 8694SOL    HW126981   5.377   3.206   4.181
 8694SOL    HW226982   5.239   3.157   4.108
 8695SOL     OW26983   3.704   4.569   6.225
 8695SOL    HW126984   3.744   4.652   6.186
 8695SOL    HW226985   3.732   4.560   6.320
 8696SOL     OW26986   3.344   5.915   6.118
 8696SOL    HW126987   3.442   5.897   6.116
 8696SOL    HW226988   3.294   5.829   6.131
 8697SOL     OW26989   1.250   3.837   5.819
 8697SOL    HW126990   1.304   3.787   5.752
 8697SOL    HW226991   1.183   3.895   5.771
 8698SOL     OW26992   5.225   5.486   5.030
 8698SOL    HW126993   5.238   5.506   5.127
 8698SOL    HW226994   5.143   5.428   5.019
 8699SOL     OW26995   2.001   3.274   6.905
 8699SOL    HW126996   1.952   3.323   6.832
 8699SOL    HW226997   1.955   3.186   6.922
 8700SOL     OW26998   0.747   0.224   5.040
 8700SOL    HW126999   0.738   0.232   5.140
 8700SOL    HW227000   0.754   0.127   5.016
 8701SOL     OW27001   0.933   2.036   6.880
 8701SOL    HW127002   0.854   1.976   6.869
 8701SOL    HW227003   0.963   2.068   6.790
 8702SOL     OW27004   5.995   4.273   1.269
 8702SOL    HW127005   6.077   4.230   1.307
 8702SOL    HW227006   5.943   4.205   1.218
 8703SOL     OW27007   2.931   4.700   1.482
 8703SOL    HW127008   3.026   4.678   1.502
 8703SOL    HW227009   2.870   4.641   1.536
 8704SOL     OW27010   1.305   2.148   3.459
 8704SOL    HW127011   1.252   2.208   3.519
 8704SOL    HW227012   1.395   2.134   3.498
 8705SOL     OW27013   4.266   2.360   0.291
 8705SOL    HW127014   4.181   2.412   0.279
 8705SOL    HW227015   4.334   2.394   0.226
 8706SOL     OW27016   4.500   3.438   6.221
 8706SOL    HW127017   4.446   3.356   6.238
 8706SOL    HW227018   4.589   3.428   6.266
 8707SOL     OW27019   1.389   1.964   4.645
 8707SOL    HW127020   1.443   1.971   4.560
 8707SOL    HW227021   1.399   2.048   4.698
 8708SOL     OW27022   5.641   2.205   2.080
 8708SOL    HW127023   5.542   2.199   2.089
 8708SOL    HW227024   5.665   2.232   1.987
 8709SOL     OW27025   6.753   0.274   5.548
 8709SOL    HW127026   6.803   0.192   5.575
 8709SOL    HW227027   6.738   0.273   5.449
 8710SOL     OW27028   2.459   1.411   3.791
 8710SOL    HW127029   2.419   1.387   3.879
 8710SOL    HW227030   2.386   1.415   3.722
 8711SOL     OW27031   1.322   0.450   1.848
 8711SOL    HW127032   1.358   0.485   1.935
 8711SOL    HW227033   1.396   0.441   1.782
 8712SOL     OW27034   1.702   3.064   5.889
 8712SOL    HW127035   1.724   3.110   5.803
 8712SOL    HW227036   1.787   3.047   5.940
 8713SOL     OW27037   0.539   4.900   1.596
 8713SOL    HW127038   0.485   4.818   1.577
 8713SOL    HW227039   0.535   4.919   1.694
 8714SOL     OW27040   6.637   6.478   0.010
 8714SOL    HW127041   6.558   6.491   6.975
 8714SOL    HW227042   6.618   6.517   0.100
 8715SOL     OW27043   2.622   2.389   0.619
 8715SOL    HW127044   2.683   2.330   0.672
 8715SOL    HW227045   2.541   2.409   0.674
 8716SOL     OW27046   6.755   6.576   1.595
 8716SOL    HW127047   6.698   6.552   1.517
 8716SOL    HW227048   6.791   6.493   1.637
 8717SOL     OW27049   2.896   4.376   0.657
 8717SOL    HW127050   2.818   4.313   0.658
 8717SOL    HW227051   2.979   4.326   0.679
 8718SOL     OW27052   2.326   4.696   6.093
 8718SOL    HW127053   2.314   4.597   6.096
 8718SOL    HW227054   2.240   4.740   6.065
 8719SOL     OW27055   4.086   0.858   5.643
 8719SOL    HW127056   4.153   0.851   5.717
 8719SOL    HW227057   4.055   0.767   5.617
 8720SOL     OW27058   6.986   4.190   5.249
 8720SOL    HW127059   0.015   4.127   5.193
 8720SOL    HW227060   0.020   4.258   5.290
 8721SOL     OW27061   0.611   6.900   6.155
 8721SOL    HW127062   0.630   6.802   6.144
 8721SOL    HW227063   0.614   6.924   6.252
 8722SOL     OW27064   4.171   0.951   1.674
 8722SOL    HW127065   4.114   0.932   1.595
 8722SOL    HW227066   4.241   1.018   1.650
 8723SOL     OW27067   4.562   6.850   2.660
 8723SOL    HW127068   4.592   6.882   2.750
 8723SOL    HW227069   4.638   6.804   2.614
 8724SOL     OW27070   4.039   0.736   4.901
 8724SOL    HW127071   4.057   0.793   4.981
 8724SOL    HW227072   4.117   0.676   4.884
 8725SOL     OW27073   0.284   6.427   4.077
 8725SOL    HW127074   0.369   6.448   4.030
 8725SOL    HW227075   0.293   6.446   4.175
 8726SOL     OW27076   1.137   1.164   0.483
 8726SOL    HW127077   1.155   1.065   0.479
 8726SOL    HW227078   1.059   1.186   0.424
 8727SOL     OW27079   4.956   5.063   6.176
 8727SOL    HW127080   5.010   5.134   6.221
 8727SOL    HW227081   4.922   5.097   6.088
 8728SOL     OW27082   6.869   1.092   3.218
 8728SOL    HW127083   6.788   1.145   3.246
 8728SOL    HW227084   6.942   1.155   3.193
 8729SOL     OW27085   3.288   6.007   6.681
 8729SOL    HW127086   3.340   6.041   6.759
 8729SOL    HW227087   3.295   6.072   6.605
 8730SOL     OW27088   4.800   4.977   2.084
 8730SOL    HW127089   4.740   4.898   2.071
 8730SOL    HW227090   4.880   4.949   2.136
 8731SOL     OW27091   0.521   2.092   3.453
 8731SOL    HW127092   0.495   2.051   3.366
 8731SOL    HW227093   0.583   2.030   3.502
 8732SOL     OW27094   5.620   5.767   0.793
 8732SOL    HW127095   5.669   5.727   0.871
 8732SOL    HW227096   5.563   5.697   0.751
 8733SOL     OW27097   6.501   5.378   2.160
 8733SOL    HW127098   6.486   5.387   2.061
 8733SOL    HW227099   6.589   5.421   2.183
 8734SOL     OW27100   0.151   3.440   1.790
 8734SOL    HW127101   0.055   3.451   1.817
 8734SOL    HW227102   0.158   3.367   1.722
 8735SOL     OW27103   1.562   4.008   6.041
 8735SOL    HW127104   1.628   4.011   6.116
 8735SOL    HW227105   1.605   3.968   5.960
 8736SOL     OW27106   1.086   5.817   2.198
 8736SOL    HW127107   1.167   5.803   2.141
 8736SOL    HW227108   1.112   5.810   2.295
 8737SOL     OW27109   1.649   6.150   6.693
 8737SOL    HW127110   1.605   6.158   6.603
 8737SOL    HW227111   1.652   6.054   6.721
 8738SOL     OW27112   1.078   3.598   3.619
 8738SOL    HW127113   1.164   3.556   3.647
 8738SOL    HW227114   1.068   3.592   3.520
 8739SOL     OW27115   5.705   4.280   5.128
 8739SOL    HW127116   5.615   4.235   5.134
 8739SOL    HW227117   5.777   4.211   5.130
 8740SOL     OW27118   3.200   1.288   4.277
 8740SOL    HW127119   3.235   1.340   4.355
 8740SOL    HW227120   3.156   1.350   4.213
 8741SOL     OW27121   1.117   6.971   2.644
 8741SOL    HW127122   1.159   6.984   2.733
 8741SOL    HW227123   1.020   6.996   2.648
 8742SOL     OW27124   2.951   1.645   2.839
 8742SOL    HW127125   2.946   1.744   2.828
 8742SOL    HW227126   2.922   1.601   2.754
 8743SOL     OW27127   1.542   1.292   1.368
 8743SOL    HW127128   1.641   1.295   1.359
 8743SOL    HW227129   1.517   1.305   1.464
 8744SOL     OW27130   3.664   4.450   6.843
 8744SOL    HW127131   3.669   4.549   6.861
 8744SOL    HW227132   3.725   4.403   6.906
 8745SOL     OW27133   6.255   1.607   6.446
 8745SOL    HW127134   6.303   1.557   6.373
 8745SOL    HW227135   6.322   1.656   6.502
 8746SOL     OW27136   4.907   5.297   4.504
 8746SOL    HW127137   4.901   5.273   4.407
 8746SOL    HW227138   4.923   5.215   4.558
 8747SOL     OW27139   0.295   0.776   1.931
 8747SOL    HW127140   0.229   0.729   1.990
 8747SOL    HW227141   0.310   0.721   1.848
 8748SOL     OW27142   1.171   2.367   3.585
 8748SOL    HW127143   1.131   2.391   3.497
 8748SOL    HW227144   1.180   2.449   3.642
 8749SOL     OW27145   2.722   1.319   5.519
 8749SOL    HW127146   2.723   1.414   5.490
 8749SOL    HW227147   2.774   1.264   5.454
 8750SOL     OW27148   3.832   2.688   6.166
 8750SOL    HW127149   3.871   2.769   6.123
 8750SOL    HW227150   3.899   2.645   6.226
 8751SOL     OW27151   0.575   5.755   1.774
 8751SOL    HW127152   0.547   5.766   1.869
 8751SOL    HW227153   0.497   5.772   1.714
 8752SOL     OW27154   4.497   3.402   6.570
 8752SOL    HW127155   4.517   3.430   6.663
 8752SOL    HW227156   4.467   3.481   6.516
 8753SOL     OW27157   1.849   2.973   0.485
 8753SOL    HW127158   1.942   3.011   0.489
 8753SOL    HW227159   1.826   2.949   0.391
 8754SOL     OW27160   3.040   5.576   6.916
 8754SOL    HW127161   2.980   5.656   6.927
 8754SOL    HW227162   3.035   5.544   6.822
 8755SOL     OW27163   0.049   2.551   2.357
 8755SOL    HW127164   7.005   2.606   2.403
 8755SOL    HW227165   0.126   2.535   2.419
 8756SOL     OW27166   1.882   2.336   3.141
 8756SOL    HW127167   1.943   2.309   3.067
 8756SOL    HW227168   1.923   2.412   3.192
 8757SOL     OW27169   5.196   6.174   5.407
 8757SOL    HW127170   5.127   6.220   5.462
 8757SOL    HW227171   5.183   6.075   5.414
 8758SOL     OW27172   3.303   6.516   4.124
 8758SOL    HW127173   3.331   6.524   4.029
 8758SOL    HW227174   3.316   6.604   4.170
 8759SOL     OW27175   5.900   1.648   0.524
 8759SOL    HW127176   5.912   1.683   0.617
 8759SOL    HW227177   5.862   1.556   0.528
 8760SOL     OW27178   2.270   2.214   4.476
 8760SOL    HW127179   2.276   2.156   4.395
 8760SOL    HW227180   2.185   2.196   4.525
 8761SOL     OW27181   4.806   0.598   2.285
 8761SOL    HW127182   4.806   0.509   2.238
 8761SOL    HW227183   4.888   0.649   2.259
 8762SOL     OW27184   1.241   5.099   3.192
 8762SOL    HW127185   1.203   5.010   3.167
 8762SOL    HW227186   1.260   5.151   3.109
 8763SOL     OW27187   0.776   1.407   6.080
 8763SOL    HW127188   0.763   1.310   6.100
 8763SOL    HW227189   0.702   1.440   6.022
 8764SOL     OW27190   3.662   4.930   5.869
 8764SOL    HW127191   3.579   4.876   5.886
 8764SOL    HW227192   3.732   4.871   5.830
 8765SOL     OW27193   4.935   6.644   5.049
 8765SOL    HW127194   4.967   6.578   5.117
 8765SOL    HW227195   4.850   6.686   5.081
 8766SOL     OW27196   4.843   4.752   5.543
 8766SOL    HW127197   4.869   4.678   5.480
 8766SOL    HW227198   4.759   4.727   5.590
 8767SOL     OW27199   2.900   0.930   3.925
 8767SOL    HW127200   2.944   0.918   3.837
 8767SOL    HW227201   2.882   1.027   3.940
 8768SOL     OW27202   6.664   2.257   0.013
 8768SOL    HW127203   6.749   2.305   7.014
 8768SOL    HW227204   6.637   2.197   6.963
 8769SOL     OW27205   6.759   1.041   0.521
 8769SOL    HW127206   6.854   1.037   0.489
 8769SOL    HW227207   6.698   1.057   0.443
 8770SOL     OW27208   4.854   4.124   1.823
 8770SOL    HW127209   4.775   4.064   1.834
 8770SOL    HW227210   4.832   4.195   1.755
 8771SOL     OW27211   0.286   3.336   6.716
 8771SOL    HW127212   0.209   3.341   6.779
 8771SOL    HW227213   0.371   3.330   6.768
 8772SOL     OW27214   5.232   0.021   3.490
 8772SOL    HW127215   5.163   6.976   3.502
 8772SOL    HW227216   5.188   0.111   3.487
 8773SOL     OW27217   0.212   1.343   3.937
 8773SOL    HW127218   0.296   1.291   3.951
 8773SOL    HW227219   0.164   1.308   3.857
 8774SOL     OW27220   1.654   0.616   1.044
 8774SOL    HW127221   1.639   0.523   1.010
 8774SOL    HW227222   1.741   0.650   1.008
 8775SOL     OW27223   5.120   1.634   4.467
 8775SOL    HW127224   5.208   1.614   4.509
 8775SOL    HW227225   5.124   1.722   4.419
 8776SOL     OW27226   3.932   2.742   0.350
 8776SOL    HW127227   3.882   2.759   0.435
 8776SOL    HW227228   3.914   2.817   0.286
 8777SOL     OW27229   0.841   2.076   3.473
 8777SOL    HW127230   0.925   2.083   3.526
 8777SOL    HW227231   0.811   1.981   3.471
 8778SOL     OW27232   3.985   5.157   6.290
 8778SOL    HW127233   4.058   5.105   6.246
 8778SOL    HW227234   3.899   5.142   6.242
 8779SOL     OW27235   3.695   4.901   2.980
 8779SOL    HW127236   3.719   4.895   2.883
 8779SOL    HW227237   3.774   4.935   3.032
 8780SOL     OW27238   6.261   5.491   3.166
 8780SOL    HW127239   6.357   5.499   3.194
 8780SOL    HW227240   6.232   5.395   3.174
 8781SOL     OW27241   3.622   6.500   2.259
 8781SOL    HW127242   3.529   6.498   2.294
 8781SOL    HW227243   3.642   6.415   2.211
 8782SOL     OW27244   4.957   0.856   1.642
 8782SOL    HW127245   5.048   0.887   1.671
 8782SOL    HW227246   4.962   0.820   1.550
 8783SOL     OW27247   5.068   3.468   5.127
 8783SOL    HW127248   4.979   3.477   5.083
 8783SOL    HW227249   5.061   3.405   5.204
 8784SOL     OW27250   5.613   6.492   0.660
 8784SOL    HW127251   5.613   6.555   0.738
 8784SOL    HW227252   5.644   6.402   0.690
 8785SOL     OW27253   0.741   5.812   6.181
 8785SOL    HW127254   0.769   5.831   6.087
 8785SOL    HW227255   0.664   5.871   6.205
 8786SOL     OW27256   3.964   1.634   2.111
 8786SOL    HW127257   3.881   1.668   2.156
 8786SOL    HW227258   3.974   1.536   2.128
 8787SOL     OW27259   3.203   0.133   1.419
 8787SOL    HW127260   3.125   0.104   1.475
 8787SOL    HW227261   3.253   0.206   1.467
 8788SOL     OW27262   0.474   0.351   4.340
 8788SOL    HW127263   0.562   0.335   4.385
 8788SOL    HW227264   0.472   0.445   4.305
 8789SOL     OW27265   0.049   2.880   5.074
 8789SOL    HW127266   0.076   2.922   5.161
 8789SOL    HW227267   0.108   2.913   5.001
 8790SOL     OW27268   5.655   2.599   6.298
 8790SOL    HW127269   5.716   2.549   6.360
 8790SOL    HW227270   5.613   2.675   6.346
 8791SOL     OW27271   4.247   5.337   6.182
 8791SOL    HW127272   4.161   5.287   6.174
 8791SOL    HW227273   4.302   5.297   6.255
 8792SOL     OW27274   5.453   5.518   1.063
 8792SOL    HW127275   5.429   5.616   1.061
 8792SOL    HW227276   5.453   5.482   0.970
 8793SOL     OW27277   0.046   4.665   4.322
 8793SOL    HW127278   0.011   4.719   4.399
 8793SOL    HW227279   0.138   4.633   4.343
 8794SOL     OW27280   0.431   0.692   2.418
 8794SOL    HW127281   0.348   0.742   2.393
 8794SOL    HW227282   0.511   0.744   2.391
 8795SOL     OW27283   1.679   5.298   5.368
 8795SOL    HW127284   1.769   5.255   5.364
 8795SOL    HW227285   1.613   5.240   5.321
 8796SOL     OW27286   6.670   3.553   3.539
 8796SOL    HW127287   6.605   3.572   3.612
 8796SOL    HW227288   6.653   3.461   3.503
 8797SOL     OW27289   5.387   6.604   4.031
 8797SOL    HW127290   5.419   6.575   3.941
 8797SOL    HW227291   5.453   6.668   4.071
 8798SOL     OW27292   4.034   6.433   5.965
 8798SOL    HW127293   4.028   6.497   6.042
 8798SOL    HW227294   4.070   6.480   5.885
 8799SOL     OW27295   1.777   5.169   2.074
 8799SOL    HW127296   1.802   5.073   2.062
 8799SOL    HW227297   1.681   5.181   2.049
 8800SOL     OW27298   0.136   5.959   5.297
 8800SOL    HW127299   0.114   5.920   5.208
 8800SOL    HW227300   0.134   6.059   5.292
 8801SOL     OW27301   6.116   2.579   5.287
 8801SOL    HW127302   6.048   2.648   5.312
 8801SOL    HW227303   6.111   2.561   5.189
 8802SOL     OW27304   1.607   6.441   5.743
 8802SOL    HW127305   1.537   6.437   5.672
 8802SOL    HW227306   1.568   6.415   5.831
 8803SOL     OW27307   6.375   6.932   6.602
 8803SOL    HW127308   6.345   6.968   6.691
 8803SOL    HW227309   6.386   6.833   6.607
 8804SOL     OW27310   1.421   5.892   2.376
 8804SOL    HW127311   1.465   5.808   2.409
 8804SOL    HW227312   1.343   5.914   2.435
 8805SOL     OW27313   4.646   5.074   2.784
 8805SOL    HW127314   4.715   5.141   2.757
 8805SOL    HW227315   4.556   5.117   2.784
 8806SOL     OW27316   1.697   6.866   0.409
 8806SOL    HW127317   1.747   6.932   0.352
 8806SOL    HW227318   1.753   6.841   0.488
 8807SOL     OW27319   4.766   2.659   1.194
 8807SOL    HW127320   4.768   2.642   1.095
 8807SOL    HW227321   4.805   2.581   1.242
 8808SOL     OW27322   2.148   2.568   0.952
 8808SOL    HW127323   2.240   2.587   0.918
 8808SOL    HW227324   2.120   2.476   0.924
 8809SOL     OW27325   1.180   3.877   3.664
 8809SOL    HW127326   1.154   3.927   3.581
 8809SOL    HW227327   1.158   3.780   3.652
 8810SOL     OW27328   0.668   0.646   6.120
 8810SOL    HW127329   0.653   0.728   6.175
 8810SOL    HW227330   0.594   0.637   6.053
 8811SOL     OW27331   3.887   5.833   2.653
 8811SOL    HW127332   3.861   5.930   2.648
 8811SOL    HW227333   3.936   5.816   2.739
 8812SOL     OW27334   4.603   1.415   6.476
 8812SOL    HW127335   4.507   1.399   6.497
 8812SOL    HW227336   4.661   1.373   6.545
 8813SOL     OW27337   2.083   4.608   3.493
 8813SOL    HW127338   2.170   4.652   3.517
 8813SOL    HW227339   2.012   4.678   3.485
 8814SOL     OW27340   5.486   6.462   6.113
 8814SOL    HW127341   5.496   6.393   6.185
 8814SOL    HW227342   5.485   6.416   6.024
 8815SOL     OW27343   5.476   1.348   0.535
 8815SOL    HW127344   5.497   1.412   0.461
 8815SOL    HW227345   5.386   1.307   0.519
 8816SOL     OW27346   0.989   6.523   5.283
 8816SOL    HW127347   0.922   6.483   5.345
 8816SOL    HW227348   1.035   6.600   5.328
 8817SOL     OW27349   1.707   2.636   4.472
 8817SOL    HW127350   1.795   2.636   4.520
 8817SOL    HW227351   1.668   2.728   4.476
 8818SOL     OW27352   2.075   7.024   4.465
 8818SOL    HW127353   1.977   7.010   4.449
 8818SOL    HW227354   2.088   0.076   4.525
 8819SOL     OW27355   6.024   4.524   5.759
 8819SOL    HW127356   6.008   4.468   5.841
 8819SOL    HW227357   6.002   4.471   5.678
 8820SOL     OW27358   3.190   0.384   4.299
 8820SOL    HW127359   3.208   0.415   4.392
 8820SOL    HW227360   3.277   0.373   4.250
 8821SOL     OW27361   0.668   4.525   0.048
 8821SOL    HW127362   0.702   4.528   6.980
 8821SOL    HW227363   0.577   4.567   0.052
 8822SOL     OW27364   6.910   6.757   4.035
 8822SOL    HW127365   6.974   6.718   3.968
 8822SOL    HW227366   6.819   6.763   3.995
 8823SOL     OW27367   3.866   1.071   2.812
 8823SOL    HW127368   3.820   1.150   2.853
 8823SOL    HW227369   3.914   1.019   2.883
 8824SOL     OW27370   1.928   1.068   1.493
 8824SOL    HW127371   1.951   1.131   1.567
 8824SOL    HW227372   1.990   1.082   1.417
 8825SOL     OW27373   6.874   6.844   6.906
 8825SOL    HW127374   6.835   6.931   6.876
 8825SOL    HW227375   6.817   6.769   6.873
 8826SOL     OW27376   0.887   3.282   0.472
 8826SOL    HW127377   0.855   3.196   0.512
 8826SOL    HW227378   0.930   3.264   0.384
 8827SOL     OW27379   4.007   7.025   2.219
 8827SOL    HW127380   4.094   0.008   2.171
 8827SOL    HW227381   4.023   7.011   2.317
 8828SOL     OW27382   3.895   3.248   6.267
 8828SOL    HW127383   3.821   3.242   6.335
 8828SOL    HW227384   3.910   3.344   6.244
 8829SOL     OW27385   0.370   1.872   2.378
 8829SOL    HW127386   0.325   1.961   2.384
 8829SOL    HW227387   0.427   1.869   2.296
 8830SOL     OW27388   2.921   1.859   3.787
 8830SOL    HW127389   2.881   1.788   3.730
 8830SOL    HW227390   2.880   1.856   3.878
 8831SOL     OW27391   0.599   2.738   2.019
 8831SOL    HW127392   0.657   2.719   1.940
 8831SOL    HW227393   0.504   2.749   1.990
 8832SOL     OW27394   6.504   0.333   4.402
 8832SOL    HW127395   6.599   0.304   4.408
 8832SOL    HW227396   6.498   0.432   4.413
 8833SOL     OW27397   3.353   3.108   0.663
 8833SOL    HW127398   3.347   3.207   0.676
 8833SOL    HW227399   3.339   3.062   0.750
 8834SOL     OW27400   5.056   3.405   5.683
 8834SOL    HW127401   5.027   3.433   5.774
 8834SOL    HW227402   5.042   3.307   5.672
 8835SOL     OW27403   6.262   0.880   5.418
 8835SOL    HW127404   6.348   0.932   5.412
 8835SOL    HW227405   6.194   0.935   5.467
 8836SOL     OW27406   5.012   1.805   0.253
 8836SOL    HW127407   4.968   1.894   0.245
 8836SOL    HW227408   4.953   1.742   0.303
 8837SOL     OW27409   5.897   6.883   1.403
 8837SOL    HW127410   5.857   6.794   1.386
 8837SOL    HW227411   5.893   6.903   1.501
 8838SOL     OW27412   0.179   4.262   3.033
 8838SOL    HW127413   0.140   4.350   3.004
 8838SOL    HW227414   0.132   4.231   3.116
 8839SOL     OW27415   5.359   5.643   3.179
 8839SOL    HW127416   5.292   5.661   3.251
 8839SOL    HW227417   5.431   5.584   3.215
 8840SOL     OW27418   0.120   1.361   1.456
 8840SOL    HW127419   0.064   1.331   1.379
 8840SOL    HW227420   0.062   1.406   1.524
 8841SOL     OW27421   3.433   1.293   1.714
 8841SOL    HW127422   3.504   1.223   1.707
 8841SOL    HW227423   3.475   1.383   1.711
 8842SOL     OW27424   3.735   3.505   3.910
 8842SOL    HW127425   3.678   3.423   3.904
 8842SOL    HW227426   3.810   3.489   3.973
 8843SOL     OW27427   1.762   4.623   5.810
 8843SOL    HW127428   1.860   4.644   5.808
 8843SOL    HW227429   1.720   4.667   5.889
 8844SOL     OW27430   4.835   1.825   5.263
 8844SOL    HW127431   4.744   1.843   5.227
 8844SOL    HW227432   4.880   1.756   5.206
 8845SOL     OW27433   0.489   4.848   1.875
 8845SOL    HW127434   0.434   4.899   1.942
 8845SOL    HW227435   0.462   4.751   1.877
 8846SOL     OW27436   5.969   5.052   3.284
 8846SOL    HW127437   5.895   5.098   3.236
 8846SOL    HW227438   6.032   5.011   3.218
 8847SOL     OW27439   2.396   2.333   2.867
 8847SOL    HW127440   2.395   2.432   2.855
 8847SOL    HW227441   2.437   2.311   2.956
 8848SOL     OW27442   3.759   1.713   1.273
 8848SOL    HW127443   3.740   1.811   1.283
 8848SOL    HW227444   3.808   1.697   1.188
 8849SOL     OW27445   2.810   5.105   4.392
 8849SOL    HW127446   2.882   5.060   4.340
 8849SOL    HW227447   2.819   5.082   4.489
 8850SOL     OW27448   3.026   1.650   1.226
 8850SOL    HW127449   3.053   1.642   1.130
 8850SOL    HW227450   3.105   1.678   1.281
 8851SOL     OW27451   0.184   5.173   3.338
 8851SOL    HW127452   0.230   5.084   3.348
 8851SOL    HW227453   0.144   5.199   3.426
 8852SOL     OW27454   5.586   2.159   5.656
 8852SOL    HW127455   5.552   2.084   5.598
 8852SOL    HW227456   5.513   2.225   5.671
 8853SOL     OW27457   4.452   0.744   5.382
 8853SOL    HW127458   4.516   0.699   5.444
 8853SOL    HW227459   4.374   0.684   5.364
 8854SOL     OW27460   1.980   1.723   6.200
 8854SOL    HW127461   1.946   1.792   6.137
 8854SOL    HW227462   1.982   1.634   6.154
 8855SOL     OW27463   6.231   5.533   6.490
 8855SOL    HW127464   6.283   5.611   6.525
 8855SOL    HW227465   6.254   5.451   6.543
 8856SOL     OW27466   5.952   0.757   5.228
 8856SOL    HW127467   5.866   0.797   5.195
 8856SOL    HW227468   5.954   0.761   5.328
 8857SOL     OW27469   6.323   1.862   3.896
 8857SOL    HW127470   6.267   1.934   3.937
 8857SOL    HW227471   6.333   1.879   3.798
 8858SOL     OW27472   0.594   3.405   6.228
 8858SOL    HW127473   0.569   3.448   6.142
 8858SOL    HW227474   0.523   3.422   6.296
 8859SOL     OW27475   1.690   5.586   5.623
 8859SOL    HW127476   1.677   5.618   5.717
 8859SOL    HW227477   1.739   5.655   5.570
 8860SOL     OW27478   1.361   1.987   2.933
 8860SOL    HW127479   1.377   1.900   2.886
 8860SOL    HW227480   1.380   1.977   3.031
 8861SOL     OW27481   4.398   3.462   0.402
 8861SOL    HW127482   4.361   3.516   0.478
 8861SOL    HW227483   4.413   3.522   0.324
 8862SOL     OW27484   5.838   1.369   4.222
 8862SOL    HW127485   5.781   1.330   4.294
 8862SOL    HW227486   5.808   1.462   4.202
 8863SOL     OW27487   2.149   5.671   5.090
 8863SOL    HW127488   2.165   5.762   5.054
 8863SOL    HW227489   2.055   5.643   5.068
 8864SOL     OW27490   1.686   2.722   6.586
 8864SOL    HW127491   1.621   2.788   6.548
 8864SOL    HW227492   1.721   2.664   6.513
 8865SOL     OW27493   2.687   2.007   6.199
 8865SOL    HW127494   2.723   1.915   6.187
 8865SOL    HW227495   2.732   2.069   6.135
 8866SOL     OW27496   3.560   6.486   3.719
 8866SOL    HW127497   3.653   6.507   3.689
 8866SOL    HW227498   3.508   6.449   3.642
 8867SOL     OW27499   6.480   2.454   3.477
 8867SOL    HW127500   6.535   2.526   3.520
 8867SOL    HW227501   6.541   2.390   3.429
 8868SOL     OW27502   4.777   4.245   0.222
 8868SOL    HW127503   4.686   4.284   0.215
 8868SOL    HW227504   4.826   4.257   0.136
 8869SOL     OW27505   4.850   3.088   3.224
 8869SOL    HW127506   4.791   3.032   3.282
 8869SOL    HW227507   4.902   3.030   3.162
 8870SOL     OW27508   4.313   1.261   0.674
 8870SOL    HW127509   4.259   1.260   0.589
 8870SOL    HW227510   4.381   1.334   0.668
 8871SOL     OW27511   2.219   2.004   3.580
 8871SOL    HW127512   2.151   1.968   3.516
 8871SOL    HW227513   2.231   2.102   3.563
 8872SOL     OW27514   1.028   3.710   4.366
 8872SOL    HW127515   1.067   3.748   4.282
 8872SOL    HW227516   1.099   3.659   4.415
 8873SOL     OW27517   0.223   5.268   4.506
 8873SOL    HW127518   0.183   5.209   4.436
 8873SOL    HW227519   0.268   5.213   4.576
 8874SOL     OW27520   2.660   0.227   1.002
 8874SOL    HW127521   2.682   0.323   1.021
 8874SOL    HW227522   2.561   0.216   0.994
 8875SOL     OW27523   1.797   2.861   4.068
 8875SOL    HW127524   1.856   2.797   4.116
 8875SOL    HW227525   1.852   2.937   4.032
 8876SOL     OW27526   0.823   0.365   4.797
 8876SOL    HW127527   0.755   0.438   4.791
 8876SOL    HW227528   0.825   0.331   4.891
 8877SOL     OW27529   2.997   0.294   4.853
 8877SOL    HW127530   3.035   0.231   4.785
 8877SOL    HW227531   2.929   0.353   4.810
 8878SOL     OW27532   0.181   4.000   6.966
 8878SOL    HW127533   0.221   3.918   6.926
 8878SOL    HW227534   0.102   4.029   6.911
 8879SOL     OW27535   5.735   6.472   6.404
 8879SOL    HW127536   5.821   6.507   6.367
 8879SOL    HW227537   5.718   6.514   6.493
 8880SOL     OW27538   0.011   4.808   4.565
 8880SOL    HW127539   0.024   4.741   4.638
 8880SOL    HW227540   0.096   4.860   4.553
 8881SOL     OW27541   6.913   1.409   1.582
 8881SOL    HW127542   6.870   1.321   1.566
 8881SOL    HW227543   6.861   1.481   1.536
 8882SOL     OW27544   5.475   1.894   6.797
 8882SOL    HW127545   5.437   1.832   6.729
 8882SOL    HW227546   5.574   1.882   6.802
 8883SOL     OW27547   6.761   0.649   5.537
 8883SOL    HW127548   6.756   0.630   5.439
 8883SOL    HW227549   6.755   0.563   5.588
 8884SOL     OW27550   6.340   0.495   6.361
 8884SOL    HW127551   6.416   0.437   6.392
 8884SOL    HW227552   6.324   0.481   6.264
 8885SOL     OW27553   5.544   3.638   1.713
 8885SOL    HW127554   5.485   3.571   1.758
 8885SOL    HW227555   5.496   3.725   1.707
 8886SOL     OW27556   3.350   6.730   5.809
 8886SOL    HW127557   3.288   6.739   5.731
 8886SOL    HW227558   3.444   6.742   5.779
 8887SOL     OW27559   2.794   0.753   0.859
 8887SOL    HW127560   2.778   0.751   0.760
 8887SOL    HW227561   2.744   0.829   0.899
 8888SOL     OW27562   2.979   1.798   1.859
 8888SOL    HW127563   3.021   1.851   1.785
 8888SOL    HW227564   3.014   1.705   1.857
 8889SOL     OW27565   4.142   6.692   4.386
 8889SOL    HW127566   4.049   6.713   4.358
 8889SOL    HW227567   4.141   6.653   4.479
 8890SOL     OW27568   0.431   5.128   4.698
 8890SOL    HW127569   0.518   5.156   4.739
 8890SOL    HW227570   0.421   5.029   4.708
 8891SOL     OW27571   5.057   2.788   6.635
 8891SOL    HW127572   5.142   2.762   6.588
 8891SOL    HW227573   5.018   2.869   6.591
 8892SOL     OW27574   1.928   0.178   2.956
 8892SOL    HW127575   2.006   0.195   3.016
 8892SOL    HW227576   1.883   0.264   2.934
 8893SOL     OW27577   0.510   1.690   0.917
 8893SOL    HW127578   0.432   1.742   0.951
 8893SOL    HW227579   0.482   1.595   0.900
 8894SOL     OW27580   4.073   2.580   6.319
 8894SOL    HW127581   4.116   2.490   6.322
 8894SOL    HW227582   4.052   2.610   6.412
 8895SOL     OW27583   0.437   6.833   2.096
 8895SOL    HW127584   0.423   6.756   2.157
 8895SOL    HW227585   0.352   6.852   2.046
 8896SOL     OW27586   1.768   4.006   4.537
 8896SOL    HW127587   1.776   3.910   4.565
 8896SOL    HW227588   1.678   4.040   4.562
 8897SOL     OW27589   1.812   1.425   1.576
 8897SOL    HW127590   1.845   1.354   1.639
 8897SOL    HW227591   1.819   1.392   1.482
 8898SOL     OW27592   5.870   3.827   4.209
 8898SOL    HW127593   5.824   3.741   4.230
 8898SOL    HW227594   5.965   3.824   4.240
 8899SOL     OW27595   1.435   4.745   0.420
 8899SOL    HW127596   1.474   4.768   0.330
 8899SOL    HW227597   1.374   4.666   0.411
 8900SOL     OW27598   5.061   2.311   3.087
 8900SOL    HW127599   5.025   2.223   3.057
 8900SOL    HW227600   5.073   2.311   3.186
 8901SOL     OW27601   1.132   0.345   2.723
 8901SOL    HW127602   1.210   0.392   2.682
 8901SOL    HW227603   1.144   0.246   2.715
 8902SOL     OW27604   1.479   5.390   5.972
 8902SOL    HW127605   1.384   5.361   5.968
 8902SOL    HW227606   1.534   5.337   5.908
 8903SOL     OW27607   1.869   1.748   3.760
 8903SOL    HW127608   1.851   1.687   3.837
 8903SOL    HW227609   1.966   1.773   3.761
 8904SOL     OW27610   0.380   6.367   3.757
 8904SOL    HW127611   0.323   6.428   3.703
 8904SOL    HW227612   0.405   6.287   3.703
 8905SOL     OW27613   2.536   3.537   5.471
 8905SOL    HW127614   2.492   3.489   5.396
 8905SOL    HW227615   2.525   3.484   5.555
 8906SOL     OW27616   6.422   6.198   5.518
 8906SOL    HW127617   6.398   6.290   5.486
 8906SOL    HW227618   6.508   6.202   5.569
 8907SOL     OW27619   3.384   2.802   5.160
 8907SOL    HW127620   3.364   2.738   5.233
 8907SOL    HW227621   3.312   2.871   5.154
 8908SOL     OW27622   1.339   2.300   1.745
 8908SOL    HW127623   1.316   2.344   1.658
 8908SOL    HW227624   1.404   2.226   1.728
 8909SOL     OW27625   1.983   0.967   6.902
 8909SOL    HW127626   1.909   0.934   6.961
 8909SOL    HW227627   2.055   0.898   6.898
 8910SOL     OW27628   2.656   3.395   6.692
 8910SOL    HW127629   2.669   3.344   6.777
 8910SOL    HW227630   2.587   3.465   6.706
 8911SOL     OW27631   3.558   2.111   4.615
 8911SOL    HW127632   3.528   2.054   4.538
 8911SOL    HW227633   3.651   2.145   4.597
 8912SOL     OW27634   4.578   1.832   6.103
 8912SOL    HW127635   4.589   1.919   6.056
 8912SOL    HW227636   4.665   1.803   6.142
 8913SOL     OW27637   5.130   4.262   1.515
 8913SOL    HW127638   5.116   4.175   1.562
 8913SOL    HW227639   5.097   4.337   1.573
 8914SOL     OW27640   3.315   1.829   4.991
 8914SOL    HW127641   3.332   1.748   5.048
 8914SOL    HW227642   3.256   1.893   5.041
 8915SOL     OW27643   1.462   3.685   2.854
 8915SOL    HW127644   1.534   3.635   2.806
 8915SOL    HW227645   1.463   3.661   2.951
 8916SOL     OW27646   6.396   4.033   2.800
 8916SOL    HW127647   6.324   4.084   2.846
 8916SOL    HW227648   6.395   4.055   2.702
 8917SOL     OW27649   6.240   5.946   0.282
 8917SOL    HW127650   6.197   5.920   0.369
 8917SOL    HW227651   6.182   5.916   0.206
 8918SOL     OW27652   5.285   5.244   6.508
 8918SOL    HW127653   5.281   5.181   6.585
 8918SOL    HW227654   5.312   5.335   6.540
 8919SOL     OW27655   3.477   5.016   1.501
 8919SOL    HW127656   3.476   5.102   1.450
 8919SOL    HW227657   3.384   4.990   1.525
 8920SOL     OW27658   6.174   5.425   5.513
 8920SOL    HW127659   6.117   5.375   5.577
 8920SOL    HW227660   6.205   5.511   5.554
 8921SOL     OW27661   0.940   0.777   3.677
 8921SOL    HW127662   0.919   0.706   3.609
 8921SOL    HW227663   0.966   0.733   3.763
 8922SOL     OW27664   1.091   4.326   0.669
 8922SOL    HW127665   1.012   4.354   0.613
 8922SOL    HW227666   1.161   4.397   0.664
 8923SOL     OW27667   2.136   4.471   6.369
 8923SOL    HW127668   2.053   4.418   6.384
 8923SOL    HW227669   2.187   4.478   6.454
 8924SOL     OW27670   3.163   5.215   5.260
 8924SOL    HW127671   3.125   5.279   5.327
 8924SOL    HW227672   3.137   5.244   5.168
 8925SOL     OW27673   6.738   0.455   2.527
 8925SOL    HW127674   6.811   0.494   2.471
 8925SOL    HW227675   6.673   0.527   2.551
 8926SOL     OW27676   5.676   2.317   1.355
 8926SOL    HW127677   5.624   2.235   1.377
 8926SOL    HW227678   5.618   2.381   1.306
 8927SOL     OW27679   2.166   2.587   5.124
 8927SOL    HW127680   2.208   2.614   5.037
 8927SOL    HW227681   2.231   2.535   5.179
 8928SOL     OW27682   0.646   0.043   5.382
 8928SOL    HW127683   0.636   0.135   5.345
 8928SOL    HW227684   0.648   0.047   5.482
 8929SOL     OW27685   7.002   3.830   3.831
 8929SOL    HW127686   0.059   3.790   3.870
 8929SOL    HW227687   6.967   3.902   3.891
 8930SOL     OW27688   1.507   4.723   4.488
 8930SOL    HW127689   1.464   4.791   4.549
 8930SOL    HW227690   1.437   4.683   4.429
 8931SOL     OW27691   4.514   1.420   1.016
 8931SOL    HW127692   4.549   1.334   0.980
 8931SOL    HW227693   4.589   1.486   1.025
 8932SOL     OW27694   6.620   0.425   6.658
 8932SOL    HW127695   6.644   0.520   6.674
 8932SOL    HW227696   6.618   0.406   6.560
 8933SOL     OW27697   1.756   0.403   4.892
 8933SOL    HW127698   1.790   0.497   4.888
 8933SOL    HW227699   1.722   0.377   4.801
 8934SOL     OW27700   3.411   5.541   2.584
 8934SOL    HW127701   3.352   5.484   2.641
 8934SOL    HW227702   3.456   5.610   2.641
 8935SOL     OW27703   4.757   2.452   2.798
 8935SOL    HW127704   4.828   2.383   2.784
 8935SOL    HW227705   4.705   2.464   2.713
 8936SOL     OW27706   0.625   5.341   1.782
 8936SOL    HW127707   0.696   5.306   1.722
 8936SOL    HW227708   0.665   5.409   1.844
 8937SOL     OW27709   6.619   6.710   3.941
 8937SOL    HW127710   6.552   6.721   4.015
 8937SOL    HW227711   6.630   6.798   3.894
 8938SOL     OW27712   6.438   1.249   0.480
 8938SOL    HW127713   6.346   1.259   0.516
 8938SOL    HW227714   6.433   1.223   0.383
 8939SOL     OW27715   0.449   2.835   3.580
 8939SOL    HW127716   0.514   2.862   3.651
 8939SOL    HW227717   0.442   2.907   3.512
 8940SOL     OW27718   6.585   3.360   1.325
 8940SOL    HW127719   6.598   3.458   1.311
 8940SOL    HW227720   6.559   3.343   1.420
 8941SOL     OW27721   5.153   2.106   1.489
 8941SOL    HW127722   5.204   2.177   1.537
 8941SOL    HW227723   5.074   2.078   1.544
 8942SOL     OW27724   5.905   4.457   3.705
 8942SOL    HW127725   5.913   4.370   3.752
 8942SOL    HW227726   5.965   4.525   3.748
 8943SOL     OW27727   4.994   3.741   6.846
 8943SOL    HW127728   4.964   3.688   6.925
 8943SOL    HW227729   5.082   3.707   6.814
 8944SOL     OW27730   5.086   5.556   4.145
 8944SOL    HW127731   5.139   5.641   4.138
 8944SOL    HW227732   5.044   5.549   4.235
 8945SOL     OW27733   5.841   4.176   5.459
 8945SOL    HW127734   5.748   4.213   5.460
 8945SOL    HW227735   5.857   4.124   5.542
 8946SOL     OW27736   5.273   0.786   4.536
 8946SOL    HW127737   5.188   0.838   4.523
 8946SOL    HW227738   5.271   0.704   4.479
 8947SOL     OW27739   1.904   4.982   6.178
 8947SOL    HW127740   1.900   5.082   6.175
 8947SOL    HW227741   1.843   4.944   6.108
 8948SOL     OW27742   6.631   1.240   3.281
 8948SOL    HW127743   6.550   1.264   3.227
 8948SOL    HW227744   6.607   1.232   3.377
 8949SOL     OW27745   3.128   6.176   0.605
 8949SOL    HW127746   3.071   6.135   0.533
 8949SOL    HW227747   3.119   6.275   0.601
 8950SOL     OW27748   4.828   4.000   1.297
 8950SOL    HW127749   4.893   4.054   1.244
 8950SOL    HW227750   4.864   3.908   1.312
 8951SOL     OW27751   1.741   1.760   4.659
 8951SOL    HW127752   1.794   1.706   4.724
 8951SOL    HW227753   1.675   1.816   4.709
 8952SOL     OW27754   1.996   4.627   3.796
 8952SOL    HW127755   2.040   4.603   3.883
 8952SOL    HW227756   2.066   4.639   3.725
 8953SOL     OW27757   1.332   5.055   1.864
 8953SOL    HW127758   1.347   4.966   1.820
 8953SOL    HW227759   1.410   5.076   1.923
 8954SOL     OW27760   1.444   5.288   4.969
 8954SOL    HW127761   1.495   5.210   4.932
 8954SOL    HW227762   1.460   5.369   4.911
 8955SOL     OW27763   5.758   2.459   4.138
 8955SOL    HW127764   5.746   2.365   4.105
 8955SOL    HW227765   5.847   2.494   4.106
 8956SOL     OW27766   0.816   5.624   5.821
 8956SOL    HW127767   0.815   5.595   5.725
 8956SOL    HW227768   0.765   5.709   5.830
 8957SOL     OW27769   0.839   5.578   2.567
 8957SOL    HW127770   0.848   5.609   2.662
 8957SOL    HW227771   0.885   5.491   2.555
 8958SOL     OW27772   1.876   4.155   5.152
 8958SOL    HW127773   1.949   4.087   5.142
 8958SOL    HW227774   1.804   4.136   5.085
 8959SOL     OW27775   7.019   3.261   2.515
 8959SOL    HW127776   0.064   3.320   2.554
 8959SOL    HW227777   6.988   3.196   2.585
 8960SOL     OW27778   5.309   4.204   3.809
 8960SOL    HW127779   5.391   4.253   3.777
 8960SOL    HW227780   5.299   4.215   3.908
 8961SOL     OW27781   3.071   6.474   5.111
 8961SOL    HW127782   3.054   6.528   5.194
 8961SOL    HW227783   3.169   6.464   5.097
 8962SOL     OW27784   0.881   5.857   1.497
 8962SOL    HW127785   0.932   5.908   1.567
 8962SOL    HW227786   0.837   5.778   1.539
 8963SOL     OW27787   3.494   5.683   4.570
 8963SOL    HW127788   3.403   5.658   4.602
 8963SOL    HW227789   3.550   5.601   4.561
 8964SOL     OW27790   0.289   3.062   4.589
 8964SOL    HW127791   0.328   3.146   4.628
 8964SOL    HW227792   0.363   3.005   4.554
 8965SOL     OW27793   4.430   5.371   0.720
 8965SOL    HW127794   4.383   5.458   0.715
 8965SOL    HW227795   4.502   5.376   0.790
 8966SOL     OW27796   4.745   5.165   6.378
 8966SOL    HW127797   4.677   5.106   6.333
 8966SOL    HW227798   4.835   5.148   6.338
 8967SOL     OW27799   2.991   0.065   3.138
 8967SOL    HW127800   2.990   0.070   3.038
 8967SOL    HW227801   2.943   7.009   3.168
 8968SOL     OW27802   3.441   4.950   2.087
 8968SOL    HW127803   3.467   4.939   2.183
 8968SOL    HW227804   3.481   4.876   2.033
 8969SOL     OW27805   0.145   1.155   3.120
 8969SOL    HW127806   0.217   1.202   3.069
 8969SOL    HW227807   0.122   1.209   3.201
 8970SOL     OW27808   2.026   0.763   5.547
 8970SOL    HW127809   1.963   0.749   5.470
 8970SOL    HW227810   2.058   0.675   5.581
 8971SOL     OW27811   4.580   5.449   0.938
 8971SOL    HW127812   4.657   5.452   0.875
 8971SOL    HW227813   4.569   5.356   0.973
 8972SOL     OW27814   6.371   4.653   0.765
 8972SOL    HW127815   6.303   4.581   0.753
 8972SOL    HW227816   6.344   4.733   0.713
 8973SOL     OW27817   1.012   2.848   2.272
 8973SOL    HW127818   1.045   2.844   2.177
 8973SOL    HW227819   0.956   2.767   2.290
 8974SOL     OW27820   2.098   4.336   4.206
 8974SOL    HW127821   2.178   4.312   4.152
 8974SOL    HW227822   2.104   4.294   4.296
 8975SOL     OW27823   0.661   6.640   6.100
 8975SOL    HW127824   0.757   6.662   6.120
 8975SOL    HW227825   0.657   6.580   6.020
 8976SOL     OW27826   6.784   6.889   1.944
 8976SOL    HW127827   6.689   6.891   1.975
 8976SOL    HW227828   6.823   6.981   1.952
 8977SOL     OW27829   0.164   5.125   6.076
 8977SOL    HW127830   0.257   5.161   6.065
 8977SOL    HW227831   0.168   5.030   6.107
 8978SOL     OW27832   5.559   5.251   5.818
 8978SOL    HW127833   5.616   5.192   5.876
 8978SOL    HW227834   5.590   5.245   5.723
 8979SOL     OW27835   0.851   4.958   5.969
 8979SOL    HW127836   0.947   4.957   5.999
 8979SOL    HW227837   0.836   4.886   5.901
 8980SOL     OW27838   3.443   0.775   4.808
 8980SOL    HW127839   3.477   0.776   4.902
 8980SOL    HW227840   3.373   0.846   4.796
 8981SOL     OW27841   3.774   2.749   6.821
 8981SOL    HW127842   3.780   2.768   6.723
 8981SOL    HW227843   3.794   2.653   6.838
 8982SOL     OW27844   0.658   1.444   1.219
 8982SOL    HW127845   0.560   1.462   1.231
 8982SOL    HW227846   0.706   1.463   1.305
 8983SOL     OW27847   1.177   0.233   2.258
 8983SOL    HW127848   1.183   0.220   2.159
 8983SOL    HW227849   1.185   0.144   2.304
 8984SOL     OW27850   6.163   0.185   4.176
 8984SOL    HW127851   6.176   0.181   4.077
 8984SOL    HW227852   6.165   0.093   4.214
 8985SOL     OW27853   4.352   2.833   0.720
 8985SOL    HW127854   4.451   2.836   0.724
 8985SOL    HW227855   4.323   2.753   0.667
 8986SOL     OW27856   0.062   5.607   0.622
 8986SOL    HW127857   0.046   5.537   0.692
 8986SOL    HW227858   0.097   5.690   0.664
 8987SOL     OW27859   2.131   0.229   1.425
 8987SOL    HW127860   2.152   0.304   1.363
 8987SOL    HW227861   2.061   0.170   1.385
 8988SOL     OW27862   0.863   5.480   1.401
 8988SOL    HW127863   0.948   5.509   1.356
 8988SOL    HW227864   0.832   5.551   1.464
 8989SOL     OW27865   4.918   1.537   2.022
 8989SOL    HW127866   4.835   1.543   2.077
 8989SOL    HW227867   4.995   1.577   2.072
 8990SOL     OW27868   3.794   0.473   1.940
 8990SOL    HW127869   3.718   0.413   1.916
 8990SOL    HW227870   3.820   0.458   2.035
 8991SOL     OW27871   2.277   2.514   0.192
 8991SOL    HW127872   2.336   2.436   0.170
 8991SOL    HW227873   2.323   2.599   0.167
 8992SOL     OW27874   0.397   3.460   0.363
 8992SOL    HW127875   0.474   3.454   0.299
 8992SOL    HW227876   0.341   3.540   0.340
 8993SOL     OW27877   5.664   3.071   3.695
 8993SOL    HW127878   5.666   3.152   3.754
 8993SOL    HW227879   5.592   3.009   3.726
 8994SOL     OW27880   0.535   5.292   3.070
 8994SOL    HW127881   0.519   5.380   3.025
 8994SOL    HW227882   0.551   5.307   3.168
 8995SOL     OW27883   1.850   3.718   4.609
 8995SOL    HW127884   1.829   3.683   4.518
 8995SOL    HW227885   1.929   3.669   4.646
 8996SOL     OW27886   0.245   4.213   2.555
 8996SOL    HW127887   0.312   4.220   2.629
 8996SOL    HW227888   0.228   4.117   2.533
 8997SOL     OW27889   4.657   1.870   5.652
 8997SOL    HW127890   4.610   1.938   5.597
 8997SOL    HW227891   4.736   1.835   5.602
 8998SOL     OW27892   1.434   2.488   6.185
 8998SOL    HW127893   1.477   2.534   6.108
 8998SOL    HW227894   1.498   2.423   6.226
 8999SOL     OW27895   6.172   1.269   4.316
 8999SOL    HW127896   6.268   1.292   4.304
 8999SOL    HW227897   6.132   1.325   4.388
 9000SOL     OW27898   2.981   3.811   0.585
 9000SOL    HW127899   3.021   3.833   0.496
 9000SOL    HW227900   3.005   3.882   0.651
 9001SOL     OW27901   1.517   5.195   3.623
 9001SOL    HW127902   1.609   5.190   3.663
 9001SOL    HW227903   1.473   5.281   3.651
 9002SOL     OW27904   5.488   4.306   5.863
 9002SOL    HW127905   5.462   4.217   5.900
 9002SOL    HW227906   5.491   4.373   5.937
 9003SOL     OW27907   5.453   2.700   6.700
 9003SOL    HW127908   5.480   2.754   6.620
 9003SOL    HW227909   5.501   2.612   6.699
 9004SOL     OW27910   4.471   6.486   1.126
 9004SOL    HW127911   4.379   6.469   1.162
 9004SOL    HW227912   4.536   6.425   1.172
 9005SOL     OW27913   4.982   1.816   3.395
 9005SOL    HW127914   4.998   1.818   3.296
 9005SOL    HW227915   5.019   1.731   3.433
 9006SOL     OW27916   1.007   5.065   1.080
 9006SOL    HW127917   0.949   5.137   1.118
 9006SOL    HW227918   1.097   5.103   1.058
 9007SOL     OW27919   2.751   6.759   3.994
 9007SOL    HW127920   2.666   6.706   3.984
 9007SOL    HW227921   2.829   6.698   3.991
 9008SOL     OW27922   7.018   4.553   2.371
 9008SOL    HW127923   6.948   4.483   2.390
 9008SOL    HW227924   0.071   4.537   2.430
 9009SOL     OW27925   2.922   6.253   0.831
 9009SOL    HW127926   2.975   6.195   0.770
 9009SOL    HW227927   2.981   6.287   0.904
 9010SOL     OW27928   0.995   6.089   5.416
 9010SOL    HW127929   0.943   6.031   5.353
 9010SOL    HW227930   1.018   6.038   5.498
 9011SOL     OW27931   4.515   1.914   0.842
 9011SOL    HW127932   4.479   1.864   0.920
 9011SOL    HW227933   4.592   1.971   0.872
 9012SOL     OW27934   0.243   5.130   1.162
 9012SOL    HW127935   0.295   5.185   1.228
 9012SOL    HW227936   0.269   5.034   1.171
 9013SOL     OW27937   6.172   5.805   3.594
 9013SOL    HW127938   6.263   5.770   3.613
 9013SOL    HW227939   6.155   5.804   3.496
 9014SOL     OW27940   2.890   1.117   0.717
 9014SOL    HW127941   2.879   1.122   0.816
 9014SOL    HW227942   2.848   1.034   0.682
 9015SOL     OW27943   0.443   0.829   6.029
 9015SOL    HW127944   0.514   0.853   6.095
 9015SOL    HW227945   0.394   0.911   6.001
 9016SOL     OW27946   5.926   5.561   6.429
 9016SOL    HW127947   5.996   5.597   6.367
 9016SOL    HW227948   5.970   5.519   6.508
 9017SOL     OW27949   6.812   2.376   3.604
 9017SOL    HW127950   6.828   2.329   3.690
 9017SOL    HW227951   6.733   2.437   3.613
 9018SOL     OW27952   3.730   2.502   5.329
 9018SOL    HW127953   3.645   2.501   5.277
 9018SOL    HW227954   3.747   2.594   5.364
 9019SOL     OW27955   2.186   6.995   0.679
 9019SOL    HW127956   2.272   0.018   0.663
 9019SOL    HW227957   2.203   6.915   0.735
 9020SOL     OW27958   0.631   4.535   3.059
 9020SOL    HW127959   0.599   4.592   3.135
 9020SOL    HW227960   0.700   4.471   3.093
 9021SOL     OW27961   6.462   5.547   5.347
 9021SOL    HW127962   6.445   5.645   5.363
 9021SOL    HW227963   6.382   5.507   5.302
 9022SOL     OW27964   3.221   0.666   7.003
 9022SOL    HW127965   3.227   0.566   7.002
 9022SOL    HW227966   3.168   0.697   6.925
 9023SOL     OW27967   3.698   3.069   3.231
 9023SOL    HW127968   3.713   3.153   3.283
 9023SOL    HW227969   3.657   3.091   3.142
 9024SOL     OW27970   2.088   6.776   6.635
 9024SOL    HW127971   2.179   6.798   6.670
 9024SOL    HW227972   2.096   6.717   6.554
 9025SOL     OW27973   5.727   5.184   1.148
 9025SOL    HW127974   5.794   5.251   1.180
 9025SOL    HW227975   5.762   5.092   1.165
 9026SOL     OW27976   3.540   2.877   4.956
 9026SOL    HW127977   3.496   2.821   5.026
 9026SOL    HW227978   3.638   2.860   4.956
 9027SOL     OW27979   2.516   2.623   4.018
 9027SOL    HW127980   2.440   2.592   3.961
 9027SOL    HW227981   2.598   2.569   3.997
 9028SOL     OW27982   3.050   4.840   5.136
 9028SOL    HW127983   3.029   4.856   5.232
 9028SOL    HW227984   2.996   4.763   5.102
 9029SOL     OW27985   4.810   6.206   3.188
 9029SOL    HW127986   4.770   6.144   3.121
 9029SOL    HW227987   4.746   6.281   3.207
 9030SOL     OW27988   2.448   0.834   2.112
 9030SOL    HW127989   2.402   0.842   2.023
 9030SOL    HW227990   2.430   0.916   2.166
 9031SOL     OW27991   2.767   6.190   6.386
 9031SOL    HW127992   2.763   6.216   6.482
 9031SOL    HW227993   2.825   6.254   6.336
 9032SOL     OW27994   2.433   1.497   1.715
 9032SOL    HW127995   2.373   1.563   1.759
 9032SOL    HW227996   2.529   1.524   1.730
 9033SOL     OW27997   1.695   3.516   2.882
 9033SOL    HW127998   1.723   3.477   2.795
 9033SOL    HW227999   1.773   3.562   2.925
 9034SOL     OW28000   3.632   6.765   5.773
 9034SOL    HW128001   3.702   6.697   5.793
 9034SOL    HW228002   3.646   6.845   5.831
 9035SOL     OW28003   0.005   1.159   4.245
 9035SOL    HW128004   7.006   1.165   4.148
 9035SOL    HW228005   0.097   1.195   4.259
 9036SOL     OW28006   0.839   2.301   5.540
 9036SOL    HW128007   0.907   2.369   5.569
 9036SOL    HW228008   0.886   2.223   5.498
 9037SOL     OW28009   2.286   4.750   6.361
 9037SOL    HW128010   2.186   4.745   6.368
 9037SOL    HW228011   2.313   4.729   6.267
 9038SOL     OW28012   4.755   6.058   5.761
 9038SOL    HW128013   4.680   6.123   5.768
 9038SOL    HW228014   4.842   6.108   5.760
 9039SOL     OW28015   2.262   5.804   5.302
 9039SOL    HW128016   2.344   5.764   5.343
 9039SOL    HW228017   2.226   5.741   5.232
 9040SOL     OW28018   1.894   1.385   2.552
 9040SOL    HW128019   1.981   1.395   2.505
 9040SOL    HW228020   1.901   1.314   2.622
 9041SOL     OW28021   1.577   3.287   0.819
 9041SOL    HW128022   1.618   3.277   0.909
 9041SOL    HW228023   1.605   3.210   0.761
 9042SOL     OW28024   2.562   4.527   3.322
 9042SOL    HW128025   2.498   4.458   3.288
 9042SOL    HW228026   2.558   4.529   3.422
 9043SOL     OW28027   0.612   2.467   5.475
 9043SOL    HW128028   0.644   2.378   5.510
 9043SOL    HW228029   0.690   2.528   5.464
 9044SOL     OW28030   6.296   0.177   0.932
 9044SOL    HW128031   6.264   0.095   0.980
 9044SOL    HW228032   6.369   0.220   0.985
 9045SOL     OW28033   2.814   6.916   3.236
 9045SOL    HW128034   2.738   6.894   3.174
 9045SOL    HW228035   2.805   6.862   3.320
 9046SOL     OW28036   2.980   4.007   4.836
 9046SOL    HW128037   3.031   4.049   4.911
 9046SOL    HW228038   2.897   4.059   4.818
 9047SOL     OW28039   1.214   4.719   4.628
 9047SOL    HW128040   1.162   4.740   4.545
 9047SOL    HW228041   1.166   4.755   4.708
 9048SOL     OW28042   0.660   3.581   4.420
 9048SOL    HW128043   0.621   3.495   4.451
 9048SOL    HW228044   0.714   3.564   4.337
 9049SOL     OW28045   5.405   5.533   6.461
 9049SOL    HW128046   5.496   5.499   6.440
 9049SOL    HW228047   5.369   5.584   6.383
 9050SOL     OW28048   6.853   5.082   6.337
 9050SOL    HW128049   6.934   5.083   6.396
 9050SOL    HW228050   6.855   5.001   6.279
 9051SOL     OW28051   5.524   6.059   6.597
 9051SOL    HW128052   5.432   6.033   6.565
 9051SOL    HW228053   5.573   5.977   6.626
 9052SOL     OW28054   2.202   5.254   4.331
 9052SOL    HW128055   2.212   5.279   4.428
 9052SOL    HW228056   2.277   5.294   4.279
 9053SOL     OW28057   2.661   2.402   3.999
 9053SOL    HW128058   2.755   2.369   4.011
 9053SOL    HW228059   2.598   2.342   4.049
 9054SOL     OW28060   2.499   0.485   1.457
 9054SOL    HW128061   2.432   0.553   1.488
 9054SOL    HW228062   2.511   0.494   1.358
 9055SOL     OW28063   0.870   2.611   3.714
 9055SOL    HW128064   0.967   2.612   3.741
 9055SOL    HW228065   0.864   2.603   3.614
 9056SOL     OW28066   5.461   0.467   3.288
 9056SOL    HW128067   5.440   0.503   3.379
 9056SOL    HW228068   5.418   0.378   3.276
 9057SOL     OW28069   5.727   5.638   6.156
 9057SOL    HW128070   5.720   5.733   6.187
 9057SOL    HW228071   5.744   5.579   6.236
 9058SOL     OW28072   1.575   2.635   4.913
 9058SOL    HW128073   1.642   2.636   4.987
 9058SOL    HW228074   1.547   2.728   4.891
 9059SOL     OW28075   6.864   1.997   2.891
 9059SOL    HW128076   6.814   1.991   2.804
 9059SOL    HW228077   6.843   2.085   2.934
 9060SOL     OW28078   0.418   3.631   1.502
 9060SOL    HW128079   0.494   3.649   1.564
 9060SOL    HW228080   0.419   3.535   1.475
 9061SOL     OW28081   5.235   5.529   1.875
 9061SOL    HW128082   5.230   5.444   1.928
 9061SOL    HW228083   5.329   5.563   1.874
 9062SOL     OW28084   0.598   5.213   3.384
 9062SOL    HW128085   0.573   5.211   3.481
 9062SOL    HW228086   0.561   5.131   3.340
 9063SOL     OW28087   3.545   0.769   2.307
 9063SOL    HW128088   3.545   0.862   2.344
 9063SOL    HW228089   3.501   0.769   2.217
 9064SOL     OW28090   0.634   4.324   3.502
 9064SOL    HW128091   0.605   4.295   3.593
 9064SOL    HW228092   0.721   4.280   3.479
 9065SOL     OW28093   2.645   5.153   5.113
 9065SOL    HW128094   2.663   5.055   5.121
 9065SOL    HW228095   2.648   5.196   5.203
 9066SOL     OW28096   5.011   4.830   5.801
 9066SOL    HW128097   5.101   4.873   5.811
 9066SOL    HW228098   4.958   4.881   5.734
 9067SOL     OW28099   0.029   0.405   4.826
 9067SOL    HW128100   0.057   0.499   4.804
 9067SOL    HW228101   0.025   0.395   4.926
 9068SOL     OW28102   5.008   6.670   4.425
 9068SOL    HW128103   5.023   6.601   4.495
 9068SOL    HW228104   5.014   6.627   4.334
 9069SOL     OW28105   4.706   2.015   2.066
 9069SOL    HW128106   4.621   2.068   2.072
 9069SOL    HW228107   4.749   2.010   2.156
 9070SOL     OW28108   1.623   1.834   5.566
 9070SOL    HW128109   1.679   1.771   5.619
 9070SOL    HW228110   1.613   1.920   5.616
 9071SOL     OW28111   5.178   1.451   5.725
 9071SOL    HW128112   5.161   1.423   5.820
 9071SOL    HW228113   5.111   1.409   5.665
 9072SOL     OW28114   5.430   0.469   2.498
 9072SOL    HW128115   5.360   0.439   2.564
 9072SOL    HW228116   5.518   0.478   2.544
 9073SOL     OW28117   4.253   1.140   6.794
 9073SOL    HW128118   4.335   1.089   6.821
 9073SOL    HW228119   4.175   1.078   6.793
 9074SOL     OW28120   1.162   0.114   1.689
 9074SOL    HW128121   1.146   0.017   1.672
 9074SOL    HW228122   1.235   0.146   1.628
 9075SOL     OW28123   6.951   0.653   1.477
 9075SOL    HW128124   6.930   0.624   1.384
 9075SOL    HW228125   0.025   0.651   1.491
 9076SOL     OW28126   6.404   0.699   1.935
 9076SOL    HW128127   6.381   0.635   1.862
 9076SOL    HW228128   6.411   0.792   1.898
 9077SOL     OW28129   5.866   1.165   5.970
 9077SOL    HW128130   5.914   1.168   5.882
 9077SOL    HW228131   5.826   1.255   5.989
 9078SOL     OW28132   5.628   5.610   0.107
 9078SOL    HW128133   5.578   5.552   0.171
 9078SOL    HW228134   5.564   5.664   0.053
 9079SOL     OW28135   1.438   0.203   5.796
 9079SOL    HW128136   1.389   0.204   5.709
 9079SOL    HW228137   1.411   0.283   5.851
 9080SOL     OW28138   6.699   3.809   1.112
 9080SOL    HW128139   6.716   3.727   1.057
 9080SOL    HW228140   6.643   3.873   1.059
 9081SOL     OW28141   3.476   2.231   0.774
 9081SOL    HW128142   3.460   2.314   0.720
 9081SOL    HW228143   3.527   2.256   0.857
 9082SOL     OW28144   3.182   5.890   5.825
 9082SOL    HW128145   3.282   5.885   5.827
 9082SOL    HW228146   3.151   5.976   5.866
 9083SOL     OW28147   4.377   5.000   6.907
 9083SOL    HW128148   4.456   4.950   6.942
 9083SOL    HW228149   4.405   5.060   6.833
 9084SOL     OW28150   0.659   2.748   5.761
 9084SOL    HW128151   0.701   2.713   5.678
 9084SOL    HW228152   0.729   2.792   5.817
 9085SOL     OW28153   2.626   5.277   0.097
 9085SOL    HW128154   2.577   5.239   0.019
 9085SOL    HW228155   2.706   5.327   0.065
 9086SOL     OW28156   6.875   4.450   0.660
 9086SOL    HW128157   6.798   4.393   0.630
 9086SOL    HW228158   6.958   4.422   0.612
 9087SOL     OW28159   6.048   1.624   1.567
 9087SOL    HW128160   5.964   1.674   1.586
 9087SOL    HW228161   6.104   1.621   1.650
 9088SOL     OW28162   6.282   0.857   1.525
 9088SOL    HW128163   6.205   0.918   1.507
 9088SOL    HW228164   6.334   0.843   1.441
 9089SOL     OW28165   4.576   5.658   3.646
 9089SOL    HW128166   4.508   5.647   3.718
 9089SOL    HW228167   4.583   5.573   3.593
 9090SOL     OW28168   5.817   6.260   4.719
 9090SOL    HW128169   5.866   6.277   4.633
 9090SOL    HW228170   5.834   6.167   4.749
 9091SOL     OW28171   3.519   2.006   0.622
 9091SOL    HW128172   3.571   2.011   0.537
 9091SOL    HW228173   3.508   2.098   0.660
 9092SOL     OW28174   1.381   6.414   5.618
 9092SOL    HW128175   1.358   6.346   5.688
 9092SOL    HW228176   1.370   6.373   5.527
 9093SOL     OW28177   1.631   5.406   0.271
 9093SOL    HW128178   1.652   5.320   0.224
 9093SOL    HW228179   1.687   5.415   0.353
 9094SOL     OW28180   0.067   5.733   2.290
 9094SOL    HW128181   0.146   5.704   2.235
 9094SOL    HW228182   0.000   5.659   2.294
 9095SOL     OW28183   4.406   3.648   6.484
 9095SOL    HW128184   4.341   3.605   6.422
 9095SOL    HW228185   4.418   3.744   6.458
 9096SOL     OW28186   5.796   2.833   2.594
 9096SOL    HW128187   5.725   2.824   2.524
 9096SOL    HW228188   5.802   2.748   2.647
 9097SOL     OW28189   0.806   3.807   6.651
 9097SOL    HW128190   0.855   3.744   6.591
 9097SOL    HW228191   0.816   3.776   6.746
 9098SOL     OW28192   3.945   3.926   2.187
 9098SOL    HW128193   3.884   3.928   2.266
 9098SOL    HW228194   3.926   4.005   2.129
 9099SOL     OW28195   2.807   3.304   0.993
 9099SOL    HW128196   2.883   3.369   1.006
 9099SOL    HW228197   2.720   3.351   1.006
 9100SOL     OW28198   0.646   3.576   1.110
 9100SOL    HW128199   0.606   3.570   1.019
 9100SOL    HW228200   0.738   3.535   1.109
 9101SOL     OW28201   1.497   2.771   2.546
 9101SOL    HW128202   1.433   2.772   2.623
 9101SOL    HW228203   1.579   2.720   2.572
 9102SOL     OW28204   3.769   5.369   1.552
 9102SOL    HW128205   3.748   5.419   1.468
 9102SOL    HW228206   3.686   5.353   1.604
 9103SOL     OW28207   0.200   3.842   0.851
 9103SOL    HW128208   0.267   3.859   0.778
 9103SOL    HW228209   0.109   3.834   0.811
 9104SOL     OW28210   4.455   6.275   1.561
 9104SOL    HW128211   4.497   6.197   1.608
 9104SOL    HW228212   4.522   6.348   1.551
 9105SOL     OW28213   1.478   0.438   6.278
 9105SOL    HW128214   1.461   0.424   6.180
 9105SOL    HW228215   1.492   0.349   6.322
 9106SOL     OW28216   5.836   4.818   0.063
 9106SOL    HW128217   5.773   4.875   0.009
 9106SOL    HW228218   5.786   4.739   0.098
 9107SOL     OW28219   3.767   6.924   0.134
 9107SOL    HW128220   3.768   6.989   0.210
 9107SOL    HW228221   3.702   6.850   0.154
 9108SOL     OW28222   4.993   4.302   5.456
 9108SOL    HW128223   5.022   4.391   5.421
 9108SOL    HW228224   5.030   4.288   5.548
 9109SOL     OW28225   2.512   2.466   3.297
 9109SOL    HW128226   2.578   2.424   3.234
 9109SOL    HW228227   2.419   2.446   3.265
 9110SOL     OW28228   1.796   5.332   3.462
 9110SOL    HW128229   1.708   5.303   3.422
 9110SOL    HW228230   1.849   5.382   3.393
 9111SOL     OW28231   3.535   3.936   1.170
 9111SOL    HW128232   3.633   3.954   1.159
 9111SOL    HW228233   3.487   4.022   1.187
 9112SOL     OW28234   0.742   3.802   3.485
 9112SOL    HW128235   0.748   3.731   3.555
 9112SOL    HW228236   0.710   3.761   3.399
 9113SOL     OW28237   5.115   0.802   0.503
 9113SOL    HW128238   5.083   0.738   0.572
 9113SOL    HW228239   5.100   0.763   0.412
 9114SOL     OW28240   2.429   4.566   2.236
 9114SOL    HW128241   2.335   4.597   2.231
 9114SOL    HW228242   2.470   4.565   2.145
 9115SOL     OW28243   1.038   4.736   4.407
 9115SOL    HW128244   1.087   4.740   4.320
 9115SOL    HW228245   0.939   4.738   4.389
 9116SOL     OW28246   6.662   1.482   6.531
 9116SOL    HW128247   6.588   1.541   6.498
 9116SOL    HW228248   6.729   1.468   6.458
 9117SOL     OW28249   6.468   3.144   6.065
 9117SOL    HW128250   6.415   3.174   6.145
 9117SOL    HW228251   6.465   3.044   6.059
 9118SOL     OW28252   6.370   0.249   1.401
 9118SOL    HW128253   6.376   0.229   1.499
 9118SOL    HW228254   6.292   0.309   1.383
 9119SOL     OW28255   5.636   1.052   2.548
 9119SOL    HW128256   5.668   0.964   2.515
 9119SOL    HW228257   5.559   1.039   2.611
 9120SOL     OW28258   5.637   2.260   5.976
 9120SOL    HW128259   5.670   2.227   6.065
 9120SOL    HW228260   5.549   2.306   5.988
 9121SOL     OW28261   0.693   2.826   5.101
 9121SOL    HW128262   0.743   2.873   5.173
 9121SOL    HW228263   0.606   2.873   5.084
 9122SOL     OW28264   1.567   2.670   2.256
 9122SOL    HW128265   1.551   2.576   2.228
 9122SOL    HW228266   1.548   2.679   2.354
 9123SOL     OW28267   3.339   6.309   5.226
 9123SOL    HW128268   3.410   6.293   5.295
 9123SOL    HW228269   3.251   6.277   5.261
 9124SOL     OW28270   6.164   5.742   5.257
 9124SOL    HW128271   6.229   5.746   5.332
 9124SOL    HW228272   6.181   5.661   5.202
 9125SOL     OW28273   4.763   4.734   3.575
 9125SOL    HW128274   4.801   4.671   3.507
 9125SOL    HW228275   4.750   4.685   3.662
 9126SOL     OW28276   6.347   1.409   2.271
 9126SOL    HW128277   6.341   1.329   2.331
 9126SOL    HW228278   6.309   1.489   2.318
 9127SOL     OW28279   5.711   6.998   5.959
 9127SOL    HW128280   5.709   6.934   6.036
 9127SOL    HW228281   5.799   0.019   5.957
 9128SOL     OW28282   4.316   1.545   4.972
 9128SOL    HW128283   4.289   1.495   4.890
 9128SOL    HW228284   4.291   1.492   5.054
 9129SOL     OW28285   1.959   3.597   7.014
 9129SOL    HW128286   2.018   3.528   6.972
 9129SOL    HW228287   1.863   3.568   7.007
 9130SOL     OW28288   0.084   4.223   6.608
 9130SOL    HW128289   0.090   4.302   6.548
 9130SOL    HW228290   0.045   4.145   6.557
 9131SOL     OW28291   0.459   4.096   5.009
 9131SOL    HW128292   0.469   4.023   4.941
 9131SOL    HW228293   0.370   4.141   4.997
 9132SOL     OW28294   6.714   3.993   3.615
 9132SOL    HW128295   6.779   3.928   3.655
 9132SOL    HW228296   6.633   4.000   3.674
 9133SOL     OW28297   2.724   4.793   0.789
 9133SOL    HW128298   2.769   4.865   0.841
 9133SOL    HW228299   2.657   4.833   0.727
 9134SOL     OW28300   3.320   6.845   0.690
 9134SOL    HW128301   3.349   6.891   0.774
 9134SOL    HW228302   3.400   6.813   0.640
 9135SOL     OW28303   0.126   0.174   2.500
 9135SOL    HW128304   0.196   0.150   2.432
 9135SOL    HW228305   0.154   0.256   2.549
 9136SOL     OW28306   4.849   5.111   5.933
 9136SOL    HW128307   4.928   5.109   5.872
 9136SOL    HW228308   4.792   5.031   5.917
 9137SOL     OW28309   5.780   1.231   1.267
 9137SOL    HW128310   5.770   1.330   1.280
 9137SOL    HW228311   5.853   1.213   1.201
 9138SOL     OW28312   6.463   5.308   5.726
 9138SOL    HW128313   6.524   5.253   5.783
 9138SOL    HW228314   6.395   5.248   5.684
 9139SOL     OW28315   2.472   1.398   5.062
 9139SOL    HW128316   2.568   1.391   5.088
 9139SOL    HW228317   2.462   1.461   4.985
 9140SOL     OW28318   6.461   2.736   2.270
 9140SOL    HW128319   6.367   2.718   2.299
 9140SOL    HW228320   6.460   2.779   2.180
 9141SOL     OW28321   5.550   6.290   6.418
 9141SOL    HW128322   5.634   6.339   6.396
 9141SOL    HW228323   5.571   6.213   6.479
 9142SOL     OW28324   0.134   2.600   5.301
 9142SOL    HW128325   0.184   2.686   5.294
 9142SOL    HW228326   0.191   2.525   5.269
 9143SOL     OW28327   4.228   3.957   0.422
 9143SOL    HW128328   4.302   3.970   0.356
 9143SOL    HW228329   4.148   4.009   0.392
 9144SOL     OW28330   2.520   5.765   6.308
 9144SOL    HW128331   2.543   5.697   6.238
 9144SOL    HW228332   2.596   5.829   6.319
 9145SOL     OW28333   0.107   5.349   0.932
 9145SOL    HW128334   0.165   5.301   0.997
 9145SOL    HW228335   0.023   5.298   0.917
 9146SOL     OW28336   5.118   1.673   1.642
 9146SOL    HW128337   5.045   1.718   1.694
 9146SOL    HW228338   5.206   1.692   1.685
 9147SOL     OW28339   5.557   6.780   4.645
 9147SOL    HW128340   5.621   6.856   4.651
 9147SOL    HW228341   5.599   6.704   4.594
 9148SOL     OW28342   6.180   6.721   1.689
 9148SOL    HW128343   6.229   6.729   1.602
 9148SOL    HW228344   6.120   6.641   1.686
 9149SOL     OW28345   4.885   2.638   4.141
 9149SOL    HW128346   4.873   2.588   4.055
 9149SOL    HW228347   4.980   2.670   4.147
 9150SOL     OW28348   3.982   5.943   3.418
 9150SOL    HW128349   3.966   5.927   3.516
 9150SOL    HW228350   3.910   5.899   3.365
 9151SOL     OW28351   0.930   3.958   3.349
 9151SOL    HW128352   0.963   3.915   3.264
 9151SOL    HW228353   0.851   3.908   3.383
 9152SOL     OW28354   2.620   6.043   3.870
 9152SOL    HW128355   2.582   6.120   3.920
 9152SOL    HW228356   2.576   6.036   3.780
 9153SOL     OW28357   1.560   3.309   0.536
 9153SOL    HW128358   1.554   3.236   0.468
 9153SOL    HW228359   1.490   3.294   0.606
 9154SOL     OW28360   2.500   5.334   6.451
 9154SOL    HW128361   2.459   5.419   6.415
 9154SOL    HW228362   2.585   5.356   6.498
 9155SOL     OW28363   2.020   3.878   0.565
 9155SOL    HW128364   2.069   3.897   0.480
 9155SOL    HW228365   1.923   3.863   0.545
 9156SOL     OW28366   2.966   2.908   1.139
 9156SOL    HW128367   2.936   2.919   1.045
 9156SOL    HW228368   3.019   2.989   1.167
 9157SOL     OW28369   6.045   4.829   5.788
 9157SOL    HW128370   6.020   4.820   5.885
 9157SOL    HW228371   6.025   4.743   5.741
 9158SOL     OW28372   6.181   3.340   4.469
 9158SOL    HW128373   6.267   3.380   4.499
 9158SOL    HW228374   6.130   3.307   4.548
 9159SOL     OW28375   0.383   6.102   3.585
 9159SOL    HW128376   0.458   6.046   3.620
 9159SOL    HW228377   0.322   6.044   3.530
 9160SOL     OW28378   0.031   0.367   5.112
 9160SOL    HW128379   0.003   0.334   5.202
 9160SOL    HW228380   0.125   0.401   5.116
 9161SOL     OW28381   4.740   4.219   4.695
 9161SOL    HW128382   4.830   4.221   4.738
 9161SOL    HW228383   4.690   4.138   4.724
 9162SOL     OW28384   4.795   1.924   3.555
 9162SOL    HW128385   4.810   1.890   3.648
 9162SOL    HW228386   4.876   1.907   3.499
 9163SOL     OW28387   1.894   3.170   3.892
 9163SOL    HW128388   1.914   3.136   3.801
 9163SOL    HW228389   1.962   3.134   3.957
 9164SOL     OW28390   2.965   1.063   6.862
 9164SOL    HW128391   2.927   1.156   6.859
 9164SOL    HW228392   2.963   1.029   6.955
 9165SOL     OW28393   6.385   1.073   6.091
 9165SOL    HW128394   6.445   1.001   6.056
 9165SOL    HW228395   6.290   1.049   6.072
 9166SOL     OW28396   4.997   6.074   1.026
 9166SOL    HW128397   4.937   6.007   0.982
 9166SOL    HW228398   4.946   6.159   1.042
 9167SOL     OW28399   1.844   3.680   6.266
 9167SOL    HW128400   1.852   3.581   6.257
 9167SOL    HW228401   1.749   3.708   6.248
 9168SOL     OW28402   1.374   6.313   5.361
 9168SOL    HW128403   1.446   6.332   5.294
 9168SOL    HW228404   1.287   6.300   5.313
 9169SOL     OW28405   0.197   1.264   5.337
 9169SOL    HW128406   0.209   1.188   5.402
 9169SOL    HW228407   0.284   1.310   5.323
 9170SOL     OW28408   0.522   5.073   0.392
 9170SOL    HW128409   0.545   5.068   0.489
 9170SOL    HW228410   0.605   5.086   0.338
 9171SOL     OW28411   3.501   5.635   0.492
 9171SOL    HW128412   3.411   5.673   0.470
 9171SOL    HW228413   3.532   5.576   0.417
 9172SOL     OW28414   3.150   1.113   5.156
 9172SOL    HW128415   3.143   1.175   5.078
 9172SOL    HW228416   3.246   1.089   5.170
 9173SOL     OW28417   6.011   4.344   5.059
 9173SOL    HW128418   5.965   4.417   5.111
 9173SOL    HW228419   5.961   4.258   5.073
 9174SOL     OW28420   6.367   4.379   1.047
 9174SOL    HW128421   6.447   4.332   1.083
 9174SOL    HW228422   6.359   4.469   1.089
 9175SOL     OW28423   1.879   6.621   4.544
 9175SOL    HW128424   1.876   6.535   4.493
 9175SOL    HW228425   1.970   6.633   4.583
 9176SOL     OW28426   2.835   0.515   5.548
 9176SOL    HW128427   2.773   0.441   5.525
 9176SOL    HW228428   2.810   0.554   5.637
 9177SOL     OW28429   1.490   5.364   4.631
 9177SOL    HW128430   1.584   5.337   4.607
 9177SOL    HW228431   1.470   5.453   4.589
 9178SOL     OW28432   1.796   5.655   1.057
 9178SOL    HW128433   1.796   5.750   1.026
 9178SOL    HW228434   1.890   5.624   1.072
 9179SOL     OW28435   3.220   6.164   3.921
 9179SOL    HW128436   3.214   6.094   3.993
 9179SOL    HW228437   3.272   6.242   3.955
 9180SOL     OW28438   5.849   2.178   3.128
 9180SOL    HW128439   5.846   2.253   3.194
 9180SOL    HW228440   5.923   2.116   3.152
 9181SOL     OW28441   4.204   2.119   3.462
 9181SOL    HW128442   4.117   2.070   3.455
 9181SOL    HW228443   4.214   2.156   3.554
 9182SOL     OW28444   2.211   6.904   2.469
 9182SOL    HW128445   2.265   6.857   2.538
 9182SOL    HW228446   2.222   7.003   2.479
 9183SOL     OW28447   5.330   6.068   0.197
 9183SOL    HW128448   5.333   6.154   0.146
 9183SOL    HW228449   5.241   6.056   0.239
 9184SOL     OW28450   4.753   1.482   0.067
 9184SOL    HW128451   4.795   1.429   7.019
 9184SOL    HW228452   4.809   1.472   0.150
 9185SOL     OW28453   4.348   6.758   4.749
 9185SOL    HW128454   4.265   6.773   4.696
 9185SOL    HW228455   4.425   6.802   4.703
 9186SOL     OW28456   5.673   0.908   3.820
 9186SOL    HW128457   5.588   0.961   3.820
 9186SOL    HW228458   5.671   0.841   3.893
 9187SOL     OW28459   2.289   0.642   1.596
 9187SOL    HW128460   2.281   0.561   1.654
 9187SOL    HW228461   2.376   0.688   1.614
 9188SOL     OW28462   2.342   6.723   2.092
 9188SOL    HW128463   2.362   6.639   2.041
 9188SOL    HW228464   2.273   6.704   2.162
 9189SOL     OW28465   5.818   6.176   1.972
 9189SOL    HW128466   5.761   6.191   1.891
 9189SOL    HW228467   5.908   6.218   1.958
 9190SOL     OW28468   1.170   4.817   0.283
 9190SOL    HW128469   1.129   4.749   0.222
 9190SOL    HW228470   1.181   4.777   0.374
 9191SOL     OW28471   5.943   0.537   6.045
 9191SOL    HW128472   5.866   0.478   6.022
 9191SOL    HW228473   5.910   0.628   6.070
 9192SOL     OW28474   0.511   4.416   5.708
 9192SOL    HW128475   0.446   4.345   5.682
 9192SOL    HW228476   0.589   4.415   5.645
 9193SOL     OW28477   4.712   4.738   0.401
 9193SOL    HW128478   4.696   4.660   0.462
 9193SOL    HW228479   4.634   4.800   0.405
 9194SOL     OW28480   3.099   1.240   3.217
 9194SOL    HW128481   3.087   1.169   3.287
 9194SOL    HW228482   3.046   1.321   3.241
 9195SOL     OW28483   1.951   2.373   3.888
 9195SOL    HW128484   1.908   2.283   3.880
 9195SOL    HW228485   1.994   2.382   3.978
 9196SOL     OW28486   3.934   0.640   4.407
 9196SOL    HW128487   3.957   0.594   4.322
 9196SOL    HW228488   3.835   0.652   4.413
 9197SOL     OW28489   1.435   4.540   1.860
 9197SOL    HW128490   1.450   4.460   1.803
 9197SOL    HW228491   1.523   4.586   1.877
 9198SOL     OW28492   6.669   5.186   5.822
 9198SOL    HW128493   6.641   5.091   5.808
 9198SOL    HW228494   6.761   5.199   5.784
 9199SOL     OW28495   1.439   3.305   6.081
 9199SOL    HW128496   1.505   3.330   6.152
 9199SOL    HW228497   1.368   3.376   6.075
 9200SOL     OW28498   2.970   0.531   0.359
 9200SOL    HW128499   2.872   0.547   0.349
 9200SOL    HW228500   3.015   0.615   0.390
 9201SOL     OW28501   0.381   2.883   0.634
 9201SOL    HW128502   0.466   2.914   0.677
 9201SOL    HW228503   0.322   2.842   0.704
 9202SOL     OW28504   2.152   6.822   3.275
 9202SOL    HW128505   2.156   6.739   3.220
 9202SOL    HW228506   2.137   6.797   3.371
 9203SOL     OW28507   0.769   4.996   6.971
 9203SOL    HW128508   0.811   5.082   6.943
 9203SOL    HW228509   0.824   4.954   0.018
 9204SOL     OW28510   4.316   2.753   6.821
 9204SOL    HW128511   4.377   2.822   6.781
 9204SOL    HW228512   4.241   2.735   6.757
 9205SOL     OW28513   5.765   4.476   2.722
 9205SOL    HW128514   5.690   4.451   2.784
 9205SOL    HW228515   5.847   4.498   2.776
 9206SOL     OW28516   3.755   5.606   1.767
 9206SOL    HW128517   3.710   5.677   1.712
 9206SOL    HW228518   3.714   5.605   1.858
 9207SOL     OW28519   4.174   4.870   0.026
 9207SOL    HW128520   4.253   4.899   6.997
 9207SOL    HW228521   4.125   4.798   7.003
 9208SOL     OW28522   5.770   4.088   3.797
 9208SOL    HW128523   5.781   4.147   3.877
 9208SOL    HW228524   5.859   4.051   3.770
 9209SOL     OW28525   2.924   0.701   0.054
 9209SOL    HW128526   2.986   0.624   0.066
 9209SOL    HW228527   2.853   0.676   7.013
 9210SOL     OW28528   6.786   1.293   2.703
 9210SOL    HW128529   6.838   1.249   2.630
 9210SOL    HW228530   6.849   1.330   2.771
 9211SOL     OW28531   6.556   2.972   4.280
 9211SOL    HW128532   6.626   2.922   4.228
 9211SOL    HW228533   6.532   3.056   4.232
 9212SOL     OW28534   4.405   5.310   4.329
 9212SOL    HW128535   4.500   5.334   4.305
 9212SOL    HW228536   4.396   5.309   4.429
 9213SOL     OW28537   5.641   2.765   5.843
 9213SOL    HW128538   5.578   2.818   5.900
 9213SOL    HW228539   5.608   2.764   5.749
 9214SOL     OW28540   0.184   5.709   5.449
 9214SOL    HW128541   0.162   5.804   5.427
 9214SOL    HW228542   0.200   5.700   5.547
 9215SOL     OW28543   1.544   2.607   6.776
 9215SOL    HW128544   1.601   2.665   6.719
 9215SOL    HW228545   1.521   2.655   6.861
 9216SOL     OW28546   2.802   0.480   3.052
 9216SOL    HW128547   2.762   0.568   3.077
 9216SOL    HW228548   2.788   0.463   2.955
 9217SOL     OW28549   0.200   0.739   5.673
 9217SOL    HW128550   0.160   0.747   5.764
 9217SOL    HW228551   0.295   0.708   5.681
 9218SOL     OW28552   3.925   6.420   0.234
 9218SOL    HW128553   3.951   6.490   0.300
 9218SOL    HW228554   3.884   6.463   0.154
 9219SOL     OW28555   0.103   2.567   0.219
 9219SOL    HW128556   0.019   2.539   0.264
 9219SOL    HW228557   0.147   2.640   0.271
 9220SOL     OW28558   2.412   7.022   1.440
 9220SOL    HW128559   2.324   7.010   1.394
 9220SOL    HW228560   2.420   0.090   1.473
 9221SOL     OW28561   3.262   0.740   4.258
 9221SOL    HW128562   3.183   0.791   4.224
 9221SOL    HW228563   3.235   0.646   4.277
 9222SOL     OW28564   2.310   6.887   6.800
 9222SOL    HW128565   2.309   6.878   6.900
 9222SOL    HW228566   2.301   6.984   6.776
 9223SOL     OW28567   1.434   1.613   4.672
 9223SOL    HW128568   1.528   1.626   4.640
 9223SOL    HW228569   1.373   1.674   4.622
 9224SOL     OW28570   2.855   5.472   4.905
 9224SOL    HW128571   2.798   5.396   4.874
 9224SOL    HW228572   2.798   5.536   4.957
 9225SOL     OW28573   3.998   6.837   5.892
 9225SOL    HW128574   3.937   6.861   5.816
 9225SOL    HW228575   4.035   6.921   5.932
 9226SOL     OW28576   5.698   6.823   1.721
 9226SOL    HW128577   5.793   6.851   1.711
 9226SOL    HW228578   5.651   6.886   1.782
 9227SOL     OW28579   1.028   5.553   1.968
 9227SOL    HW128580   1.114   5.515   1.934
 9227SOL    HW228581   1.029   5.556   2.068
 9228SOL     OW28582   1.727   0.146   6.128
 9228SOL    HW128583   1.741   0.192   6.216
 9228SOL    HW228584   1.764   0.203   6.054
 9229SOL     OW28585   1.441   5.615   4.484
 9229SOL    HW128586   1.355   5.618   4.432
 9229SOL    HW228587   1.434   5.675   4.563
 9230SOL     OW28588   6.001   0.764   2.840
 9230SOL    HW128589   6.100   0.752   2.853
 9230SOL    HW228590   5.955   0.752   2.928
 9231SOL     OW28591   1.759   4.284   4.244
 9231SOL    HW128592   1.794   4.377   4.233
 9231SOL    HW228593   1.835   4.219   4.239
 9232SOL     OW28594   2.909   5.352   0.860
 9232SOL    HW128595   2.851   5.349   0.941
 9232SOL    HW228596   3.004   5.367   0.887
 9233SOL     OW28597   5.497   5.554   1.342
 9233SOL    HW128598   5.453   5.518   1.259
 9233SOL    HW228599   5.428   5.566   1.413
 9234SOL     OW28600   3.501   4.933   4.651
 9234SOL    HW128601   3.498   4.932   4.751
 9234SOL    HW228602   3.474   4.843   4.616
 9235SOL     OW28603   1.677   2.629   3.635
 9235SOL    HW128604   1.617   2.555   3.664
 9235SOL    HW228605   1.772   2.607   3.658
 9236SOL     OW28606   3.104   4.276   5.821
 9236SOL    HW128607   3.114   4.335   5.741
 9236SOL    HW228608   3.070   4.330   5.898
 9237SOL     OW28609   2.279   4.910   4.935
 9237SOL    HW128610   2.267   4.848   5.013
 9237SOL    HW228611   2.372   4.900   4.899
 9238SOL     OW28612   4.354   2.067   6.040
 9238SOL    HW128613   4.403   2.004   5.981
 9238SOL    HW228614   4.279   2.110   5.989
 9239SOL     OW28615   0.400   3.801   1.267
 9239SOL    HW128616   0.377   3.724   1.326
 9239SOL    HW228617   0.422   3.880   1.324
 9240SOL     OW28618   5.604   1.552   0.666
 9240SOL    HW128619   5.536   1.611   0.710
 9240SOL    HW228620   5.559   1.468   0.635
 9241SOL     OW28621   0.087   5.935   6.161
 9241SOL    HW128622   0.106   6.033   6.157
 9241SOL    HW228623   0.150   5.892   6.225
 9242SOL     OW28624   6.784   5.942   0.742
 9242SOL    HW128625   6.737   5.995   0.672
 9242SOL    HW228626   6.783   5.845   0.718
 9243SOL     OW28627   5.965   5.956   2.854
 9243SOL    HW128628   5.918   5.868   2.852
 9243SOL    HW228629   6.062   5.942   2.831
 9244SOL     OW28630   4.498   5.616   5.976
 9244SOL    HW128631   4.505   5.601   6.074
 9244SOL    HW228632   4.583   5.657   5.943
 9245SOL     OW28633   1.506   5.437   2.686
 9245SOL    HW128634   1.599   5.459   2.656
 9245SOL    HW228635   1.477   5.351   2.644
 9246SOL     OW28636   6.606   4.535   3.045
 9246SOL    HW128637   6.555   4.556   3.128
 9246SOL    HW228638   6.665   4.613   3.021
 9247SOL     OW28639   0.825   6.767   3.153
 9247SOL    HW128640   0.883   6.777   3.234
 9247SOL    HW228641   0.868   6.703   3.089
 9248SOL     OW28642   2.314   2.750   6.223
 9248SOL    HW128643   2.293   2.838   6.267
 9248SOL    HW228644   2.246   2.682   6.250
 9249SOL     OW28645   5.972   2.551   5.928
 9249SOL    HW128646   5.874   2.543   5.913
 9249SOL    HW228647   5.991   2.562   6.025
 9250SOL     OW28648   5.217   3.464   4.889
 9250SOL    HW128649   5.151   3.455   4.964
 9250SOL    HW228650   5.309   3.466   4.927
 9251SOL     OW28651   3.704   2.094   3.402
 9251SOL    HW128652   3.675   2.094   3.306
 9251SOL    HW228653   3.803   2.091   3.407
 9252SOL     OW28654   6.605   6.964   4.265
 9252SOL    HW128655   6.546   6.930   4.338
 9252SOL    HW228656   6.693   6.991   4.303
 9253SOL     OW28657   4.712   5.830   5.986
 9253SOL    HW128658   4.798   5.806   5.941
 9253SOL    HW228659   4.728   5.845   6.084
 9254SOL     OW28660   6.287   4.454   1.439
 9254SOL    HW128661   6.299   4.501   1.351
 9254SOL    HW228662   6.359   4.483   1.502
 9255SOL     OW28663   5.172   3.005   0.165
 9255SOL    HW128664   5.156   3.071   0.238
 9255SOL    HW228665   5.155   3.048   0.077
 9256SOL     OW28666   3.837   4.975   3.494
 9256SOL    HW128667   3.747   4.935   3.475
 9256SOL    HW228668   3.834   5.024   3.580
 9257SOL     OW28669   0.543   3.769   2.643
 9257SOL    HW128670   0.507   3.739   2.732
 9257SOL    HW228671   0.570   3.689   2.590
 9258SOL     OW28672   3.998   3.126   3.651
 9258SOL    HW128673   4.052   3.164   3.575
 9258SOL    HW228674   3.931   3.062   3.615
 9259SOL     OW28675   1.602   2.555   0.850
 9259SOL    HW128676   1.650   2.467   0.841
 9259SOL    HW228677   1.626   2.613   0.772
 9260SOL     OW28678   5.150   1.664   5.548
 9260SOL    HW128679   5.160   1.596   5.621
 9260SOL    HW228680   5.173   1.622   5.461
 9261SOL     OW28681   5.219   6.760   6.240
 9261SOL    HW128682   5.310   6.734   6.273
 9261SOL    HW228683   5.225   6.789   6.144
 9262SOL     OW28684   6.414   2.847   5.534
 9262SOL    HW128685   6.315   2.851   5.550
 9262SOL    HW228686   6.455   2.935   5.558
 9263SOL     OW28687   6.129   4.201   0.788
 9263SOL    HW128688   6.137   4.216   0.887
 9263SOL    HW228689   6.032   4.192   0.764
 9264SOL     OW28690   5.916   3.980   0.408
 9264SOL    HW128691   5.919   3.899   0.350
 9264SOL    HW228692   5.983   3.972   0.481
 9265SOL     OW28693   3.165   1.556   0.732
 9265SOL    HW128694   3.163   1.467   0.687
 9265SOL    HW228695   3.157   1.628   0.664
 9266SOL     OW28696   2.499   5.942   2.222
 9266SOL    HW128697   2.556   5.965   2.301
 9266SOL    HW228698   2.535   5.859   2.179
 9267SOL     OW28699   0.218   3.970   5.325
 9267SOL    HW128700   0.234   3.872   5.342
 9267SOL    HW228701   0.159   4.006   5.396
 9268SOL     OW28702   0.992   6.536   1.761
 9268SOL    HW128703   0.944   6.606   1.708
 9268SOL    HW228704   1.042   6.476   1.698
 9269SOL     OW28705   3.138   2.557   6.726
 9269SOL    HW128706   3.106   2.476   6.675
 9269SOL    HW228707   3.109   2.550   6.821
 9270SOL     OW28708   4.608   6.502   5.384
 9270SOL    HW128709   4.643   6.524   5.292
 9270SOL    HW228710   4.684   6.498   5.448
 9271SOL     OW28711   1.292   6.207   0.816
 9271SOL    HW128712   1.346   6.230   0.897
 9271SOL    HW228713   1.199   6.181   0.844
 9272SOL     OW28714   3.233   4.858   5.857
 9272SOL    HW128715   3.213   4.760   5.856
 9272SOL    HW228716   3.297   4.878   5.931
 9273SOL     OW28717   5.150   6.127   3.690
 9273SOL    HW128718   5.198   6.119   3.777
 9273SOL    HW228719   5.053   6.146   3.706
 9274SOL     OW28720   6.290   2.359   6.847
 9274SOL    HW128721   6.350   2.422   6.896
 9274SOL    HW228722   6.194   2.387   6.859
 9275SOL     OW28723   0.547   1.623   0.512
 9275SOL    HW128724   0.610   1.608   0.588
 9275SOL    HW228725   0.562   1.714   0.473
 9276SOL     OW28726   2.384   5.081   3.819
 9276SOL    HW128727   2.308   5.036   3.866
 9276SOL    HW228728   2.468   5.030   3.834
 9277SOL     OW28729   3.820   3.991   0.207
 9277SOL    HW128730   3.846   3.897   0.228
 9277SOL    HW228731   3.732   3.992   0.160
 9278SOL     OW28732   1.905   1.118   3.913
 9278SOL    HW128733   1.956   1.036   3.886
 9278SOL    HW228734   1.807   1.103   3.897
 9279SOL     OW28735   4.623   0.738   1.426
 9279SOL    HW128736   4.637   0.741   1.327
 9279SOL    HW228737   4.611   0.831   1.461
 9280SOL     OW28738   1.810   0.338   3.388
 9280SOL    HW128739   1.808   0.414   3.453
 9280SOL    HW228740   1.835   0.373   3.298
 9281SOL     OW28741   3.462   3.518   0.970
 9281SOL    HW128742   3.469   3.618   0.967
 9281SOL    HW228743   3.372   3.492   1.005
 9282SOL     OW28744   4.557   2.130   4.357
 9282SOL    HW128745   4.518   2.221   4.343
 9282SOL    HW228746   4.648   2.138   4.396
 9283SOL     OW28747   5.788   1.039   2.828
 9283SOL    HW128748   5.879   1.028   2.869
 9283SOL    HW228749   5.790   1.009   2.733
 9284SOL     OW28750   3.612   5.204   0.182
 9284SOL    HW128751   3.691   5.141   0.177
 9284SOL    HW228752   3.551   5.174   0.255
 9285SOL     OW28753   4.980   3.270   0.020
 9285SOL    HW128754   4.948   3.209   0.093
 9285SOL    HW228755   4.902   3.296   6.988
 9286SOL     OW28756   5.589   6.969   5.496
 9286SOL    HW128757   5.510   0.004   5.486
 9286SOL    HW228758   5.665   7.003   5.440
 9287SOL     OW28759   3.248   5.566   0.734
 9287SOL    HW128760   3.277   5.622   0.812
 9287SOL    HW228761   3.188   5.619   0.675
 9288SOL     OW28762   3.105   1.424   5.773
 9288SOL    HW128763   3.150   1.498   5.723
 9288SOL    HW228764   3.164   1.343   5.771
 9289SOL     OW28765   3.635   1.527   2.392
 9289SOL    HW128766   3.650   1.540   2.490
 9289SOL    HW228767   3.681   1.600   2.341
 9290SOL     OW28768   4.874   1.827   4.529
 9290SOL    HW128769   4.963   1.815   4.573
 9290SOL    HW228770   4.850   1.744   4.479
 9291SOL     OW28771   2.597   0.365   5.511
 9291SOL    HW128772   2.521   0.403   5.563
 9291SOL    HW228773   2.595   0.401   5.418
 9292SOL     OW28774   6.511   3.549   6.215
 9292SOL    HW128775   6.466   3.636   6.228
 9292SOL    HW228776   6.610   3.562   6.216
 9293SOL     OW28777   6.465   4.036   1.365
 9293SOL    HW128778   6.498   4.033   1.460
 9293SOL    HW228779   6.521   4.100   1.313
 9294SOL     OW28780   3.685   6.419   5.679
 9294SOL    HW128781   3.757   6.438   5.612
 9294SOL    HW228782   3.711   6.459   5.768
 9295SOL     OW28783   5.024   2.204   3.711
 9295SOL    HW128784   5.114   2.241   3.732
 9295SOL    HW228785   5.013   2.116   3.757
 9296SOL     OW28786   6.921   6.032   6.719
 9296SOL    HW128787   6.853   5.962   6.701
 9296SOL    HW228788   7.011   6.001   6.689
 9297SOL     OW28789   0.292   0.745   1.173
 9297SOL    HW128790   0.284   0.845   1.176
 9297SOL    HW228791   0.357   0.719   1.101
 9298SOL     OW28792   2.263   6.122   5.675
 9298SOL    HW128793   2.237   6.178   5.753
 9298SOL    HW228794   2.355   6.084   5.689
 9299SOL     OW28795   0.868   3.285   4.466
 9299SOL    HW128796   0.849   3.271   4.369
 9299SOL    HW228797   0.783   3.277   4.518
 9300SOL     OW28798   0.248   4.992   4.400
 9300SOL    HW128799   0.226   4.932   4.323
 9300SOL    HW228800   0.334   4.963   4.441
 9301SOL     OW28801   4.826   4.919   3.387
 9301SOL    HW128802   4.905   4.929   3.326
 9301SOL    HW228803   4.840   4.840   3.446
 9302SOL     OW28804   2.259   2.990   4.197
 9302SOL    HW128805   2.325   2.948   4.260
 9302SOL    HW228806   2.268   3.090   4.200
 9303SOL     OW28807   4.006   6.273   1.074
 9303SOL    HW128808   3.974   6.273   0.979
 9303SOL    HW228809   3.928   6.288   1.135
 9304SOL     OW28810   4.397   4.225   1.400
 9304SOL    HW128811   4.451   4.207   1.318
 9304SOL    HW228812   4.348   4.141   1.427
 9305SOL     OW28813   4.246   1.497   1.602
 9305SOL    HW128814   4.268   1.513   1.506
 9305SOL    HW228815   4.192   1.575   1.637
 9306SOL     OW28816   0.341   4.674   4.872
 9306SOL    HW128817   0.408   4.746   4.854
 9306SOL    HW228818   0.309   4.681   4.966
 9307SOL     OW28819   1.469   3.491   1.346
 9307SOL    HW128820   1.373   3.511   1.363
 9307SOL    HW228821   1.485   3.481   1.248
 9308SOL     OW28822   0.999   4.064   1.462
 9308SOL    HW128823   1.048   4.149   1.443
 9308SOL    HW228824   1.065   3.992   1.485
 9309SOL     OW28825   3.738   4.874   5.523
 9309SOL    HW128826   3.719   4.927   5.440
 9309SOL    HW228827   3.663   4.884   5.587
 9310SOL     OW28828   4.303   5.882   6.437
 9310SOL    HW128829   4.365   5.961   6.435
 9310SOL    HW228830   4.278   5.858   6.344
 9311SOL     OW28831   6.221   4.749   1.613
 9311SOL    HW128832   6.266   4.676   1.562
 9311SOL    HW228833   6.229   4.731   1.711
 9312SOL     OW28834   1.707   4.166   1.114
 9312SOL    HW128835   1.685   4.123   1.202
 9312SOL    HW228836   1.702   4.097   1.041
 9313SOL     OW28837   0.237   1.005   1.158
 9313SOL    HW128838   0.260   1.085   1.213
 9313SOL    HW228839   0.273   1.018   1.065
 9314SOL     OW28840   4.135   5.482   6.516
 9314SOL    HW128841   4.195   5.530   6.452
 9314SOL    HW228842   4.126   5.534   6.601
 9315SOL     OW28843   6.487   0.644   5.137
 9315SOL    HW128844   6.392   0.657   5.166
 9315SOL    HW228845   6.500   0.683   5.046
 9316SOL     OW28846   4.099   5.732   5.815
 9316SOL    HW128847   4.063   5.703   5.904
 9316SOL    HW228848   4.151   5.817   5.827
 9317SOL     OW28849   6.619   5.887   2.825
 9317SOL    HW128850   6.601   5.836   2.908
 9317SOL    HW228851   6.639   5.982   2.848
 9318SOL     OW28852   6.877   1.161   4.910
 9318SOL    HW128853   6.825   1.204   4.837
 9318SOL    HW228854   6.825   1.085   4.949
 9319SOL     OW28855   0.485   2.734   5.989
 9319SOL    HW128856   0.437   2.818   6.014
 9319SOL    HW228857   0.541   2.751   5.908
 9320SOL     OW28858   4.465   2.025   6.795
 9320SOL    HW128859   4.518   1.941   6.797
 9320SOL    HW228860   4.379   2.012   6.845
 9321SOL     OW28861   6.149   0.005   2.227
 9321SOL    HW128862   6.085   6.970   2.181
 9321SOL    HW228863   6.158   0.090   2.175
 9322SOL     OW28864   6.749   6.155   6.323
 9322SOL    HW128865   6.781   6.235   6.272
 9322SOL    HW228866   6.777   6.072   6.277
 9323SOL     OW28867   1.999   0.033   5.489
 9323SOL    HW128868   2.096   0.015   5.502
 9323SOL    HW228869   1.981   0.131   5.504
 9324SOL     OW28870   1.599   4.803   0.671
 9324SOL    HW128871   1.544   4.844   0.743
 9324SOL    HW228872   1.543   4.792   0.589
 9325SOL     OW28873   4.751   1.778   0.622
 9325SOL    HW128874   4.767   1.695   0.675
 9325SOL    HW228875   4.658   1.811   0.638
 9326SOL     OW28876   2.619   0.202   1.302
 9326SOL    HW128877   2.590   0.218   1.397
 9326SOL    HW228878   2.561   0.255   1.240
 9327SOL     OW28879   4.837   6.371   2.407
 9327SOL    HW128880   4.759   6.413   2.454
 9327SOL    HW228881   4.915   6.366   2.469
 9328SOL     OW28882   4.217   1.532   5.846
 9328SOL    HW128883   4.227   1.434   5.829
 9328SOL    HW228884   4.308   1.573   5.859
 9329SOL     OW28885   6.826   3.863   2.622
 9329SOL    HW128886   6.774   3.787   2.663
 9329SOL    HW228887   6.762   3.929   2.582
 9330SOL     OW28888   0.149   6.232   0.458
 9330SOL    HW128889   0.075   6.290   0.422
 9330SOL    HW228890   0.231   6.244   0.403
 9331SOL     OW28891   0.982   1.187   6.019
 9331SOL    HW128892   1.035   1.128   5.958
 9331SOL    HW228893   0.899   1.217   5.971
 9332SOL     OW28894   3.274   4.173   2.862
 9332SOL    HW128895   3.371   4.149   2.871
 9332SOL    HW228896   3.226   4.153   2.948
 9333SOL     OW28897   5.113   3.772   1.562
 9333SOL    HW128898   5.101   3.852   1.621
 9333SOL    HW228899   5.042   3.773   1.491
 9334SOL     OW28900   3.560   6.813   3.872
 9334SOL    HW128901   3.556   6.865   3.786
 9334SOL    HW228902   3.654   6.783   3.888
 9335SOL     OW28903   1.139   0.692   5.919
 9335SOL    HW128904   1.058   0.751   5.911
 9335SOL    HW228905   1.209   0.723   5.854
 9336SOL     OW28906   3.483   6.091   6.858
 9336SOL    HW128907   3.572   6.136   6.868
 9336SOL    HW228908   3.411   6.159   6.870
 9337SOL     OW28909   4.995   0.458   3.266
 9337SOL    HW128910   5.054   0.536   3.246
 9337SOL    HW228911   4.908   0.468   3.216
 9338SOL     OW28912   4.746   0.752   1.808
 9338SOL    HW128913   4.666   0.811   1.822
 9338SOL    HW228914   4.812   0.798   1.750
 9339SOL     OW28915   5.372   6.834   0.547
 9339SOL    HW128916   5.350   6.926   0.514
 9339SOL    HW228917   5.469   6.816   0.535
 9340SOL     OW28918   5.310   3.760   5.212
 9340SOL    HW128919   5.315   3.683   5.148
 9340SOL    HW228920   5.398   3.807   5.214
 9341SOL     OW28921   0.527   5.999   6.178
 9341SOL    HW128922   0.549   6.087   6.136
 9341SOL    HW228923   0.478   6.015   6.264
 9342SOL     OW28924   2.142   0.570   4.218
 9342SOL    HW128925   2.185   0.517   4.145
 9342SOL    HW228926   2.083   0.640   4.177
 9343SOL     OW28927   6.258   4.540   3.281
 9343SOL    HW128928   6.230   4.466   3.342
 9343SOL    HW228929   6.351   4.568   3.303
 9344SOL     OW28930   4.378   5.650   1.828
 9344SOL    HW128931   4.387   5.713   1.905
 9344SOL    HW228932   4.347   5.701   1.747
 9345SOL     OW28933   6.220   3.317   1.802
 9345SOL    HW128934   6.155   3.392   1.818
 9345SOL    HW228935   6.227   3.298   1.705
 9346SOL     OW28936   6.005   0.907   1.149
 9346SOL    HW128937   5.906   0.916   1.134
 9346SOL    HW228938   6.052   0.900   1.061
 9347SOL     OW28939   1.538   5.480   0.632
 9347SOL    HW128940   1.464   5.442   0.575
 9347SOL    HW228941   1.541   5.580   0.619
 9348SOL     OW28942   4.566   5.692   1.315
 9348SOL    HW128943   4.506   5.634   1.369
 9348SOL    HW228944   4.565   5.785   1.351
 9349SOL     OW28945   0.911   0.206   2.372
 9349SOL    HW128946   0.989   0.248   2.326
 9349SOL    HW228947   0.886   0.261   2.452
 9350SOL     OW28948   0.804   2.675   5.529
 9350SOL    HW128949   0.876   2.694   5.596
 9350SOL    HW228950   0.842   2.684   5.437
 9351SOL     OW28951   3.405   1.226   6.658
 9351SOL    HW128952   3.488   1.281   6.646
 9351SOL    HW228953   3.386   1.174   6.575
 9352SOL     OW28954   2.660   3.703   0.149
 9352SOL    HW128955   2.692   3.735   0.238
 9352SOL    HW228956   2.652   3.603   0.151
 9353SOL     OW28957   0.840   5.206   1.940
 9353SOL    HW128958   0.812   5.126   1.887
 9353SOL    HW228959   0.915   5.182   2.002
 9354SOL     OW28960   6.833   2.367   6.246
 9354SOL    HW128961   6.807   2.277   6.281
 9354SOL    HW228962   6.813   2.373   6.149
 9355SOL     OW28963   0.883   2.192   4.862
 9355SOL    HW128964   0.796   2.196   4.911
 9355SOL    HW228965   0.953   2.240   4.914
 9356SOL     OW28966   3.716   6.939   1.490
 9356SOL    HW128967   3.707   6.907   1.584
 9356SOL    HW228968   3.709   0.013   1.488
 9357SOL     OW28969   0.930   2.412   6.942
 9357SOL    HW128970   0.946   2.510   6.934
 9357SOL    HW228971   0.976   2.363   6.868
 9358SOL     OW28972   0.234   4.597   2.575
 9358SOL    HW128973   0.208   4.586   2.671
 9358SOL    HW228974   0.289   4.680   2.565
 9359SOL     OW28975   2.152   5.425   6.310
 9359SOL    HW128976   2.191   5.341   6.271
 9359SOL    HW228977   2.131   5.489   6.236
 9360SOL     OW28978   1.928   6.118   6.448
 9360SOL    HW128979   1.965   6.181   6.516
 9360SOL    HW228980   1.919   6.027   6.488
 9361SOL     OW28981   1.850   5.868   3.586
 9361SOL    HW128982   1.755   5.899   3.597
 9361SOL    HW228983   1.912   5.936   3.626
 9362SOL     OW28984   1.814   1.619   1.814
 9362SOL    HW128985   1.853   1.583   1.729
 9362SOL    HW228986   1.717   1.635   1.801
 9363SOL     OW28987   3.186   5.449   1.882
 9363SOL    HW128988   3.238   5.401   1.811
 9363SOL    HW228989   3.154   5.384   1.950
 9364SOL     OW28990   2.566   2.858   1.713
 9364SOL    HW128991   2.526   2.820   1.797
 9364SOL    HW228992   2.516   2.940   1.687
 9365SOL     OW28993   2.889   1.938   4.444
 9365SOL    HW128994   2.924   1.956   4.536
 9365SOL    HW228995   2.790   1.952   4.442
 9366SOL     OW28996   3.751   5.820   0.442
 9366SOL    HW128997   3.784   5.734   0.404
 9366SOL    HW228998   3.653   5.812   0.463
 9367SOL     OW28999   5.203   0.313   0.984
 9367SOL    HW129000   5.109   0.281   0.975
 9367SOL    HW229001   5.212   0.401   0.938
 9368SOL     OW29002   3.985   0.086   2.694
 9368SOL    HW129003   3.973   0.185   2.703
 9368SOL    HW229004   4.081   0.065   2.681
 9369SOL     OW29005   0.492   5.655   5.110
 9369SOL    HW129006   0.566   5.663   5.177
 9369SOL    HW229007   0.526   5.610   5.028
 9370SOL     OW29008   4.238   1.545   4.146
 9370SOL    HW129009   4.167   1.612   4.169
 9370SOL    HW229010   4.316   1.592   4.105
 9371SOL     OW29011   3.565   5.284   1.199
 9371SOL    HW129012   3.622   5.202   1.193
 9371SOL    HW229013   3.566   5.332   1.111
 9372SOL     OW29014   4.518   0.020   1.482
 9372SOL    HW129015   4.430   0.021   1.527
 9372SOL    HW229016   4.564   6.958   1.499
 9373SOL     OW29017   5.998   2.521   0.461
 9373SOL    HW129018   6.047   2.577   0.528
 9373SOL    HW229019   5.975   2.576   0.381
 9374SOL     OW29020   0.377   4.646   5.397
 9374SOL    HW129021   0.473   4.620   5.401
 9374SOL    HW229022   0.329   4.608   5.477
 9375SOL     OW29023   6.520   1.762   6.941
 9375SOL    HW129024   6.468   1.847   6.949
 9375SOL    HW229025   6.616   1.783   6.922
 9376SOL     OW29026   2.144   3.698   2.198
 9376SOL    HW129027   2.181   3.645   2.122
 9376SOL    HW229028   2.110   3.635   2.268
 9377SOL     OW29029   1.818   4.852   2.144
 9377SOL    HW129030   1.757   4.806   2.209
 9377SOL    HW229031   1.905   4.871   2.188
 9378SOL     OW29032   3.829   0.685   3.972
 9378SOL    HW129033   3.754   0.639   3.924
 9378SOL    HW229034   3.804   0.780   3.991
 9379SOL     OW29035   4.019   6.756   4.687
 9379SOL    HW129036   3.935   6.728   4.639
 9379SOL    HW229037   4.028   6.855   4.684
 9380SOL     OW29038   3.753   5.555   6.260
 9380SOL    HW129039   3.752   5.548   6.160
 9380SOL    HW229040   3.818   5.489   6.298
 9381SOL     OW29041   4.929   1.466   4.516
 9381SOL    HW129042   4.964   1.376   4.544
 9381SOL    HW229043   5.004   1.522   4.482
 9382SOL     OW29044   3.548   0.663   4.173
 9382SOL    HW129045   3.555   0.724   4.095
 9382SOL    HW229046   3.459   0.675   4.217
 9383SOL     OW29047   4.835   4.142   3.441
 9383SOL    HW129048   4.855   4.229   3.395
 9383SOL    HW229049   4.846   4.067   3.376
 9384SOL     OW29050   1.710   6.717   2.100
 9384SOL    HW129051   1.704   6.629   2.147
 9384SOL    HW229052   1.773   6.778   2.149
 9385SOL     OW29053   4.309   1.550   3.702
 9385SOL    HW129054   4.209   1.557   3.699
 9385SOL    HW229055   4.341   1.499   3.623
 9386SOL     OW29056   3.903   5.707   5.219
 9386SOL    HW129057   3.826   5.660   5.262
 9386SOL    HW229058   3.944   5.771   5.285
 9387SOL     OW29059   3.945   1.607   6.745
 9387SOL    HW129060   3.990   1.625   6.832
 9387SOL    HW229061   3.977   1.672   6.677
 9388SOL     OW29062   2.028   6.996   3.911
 9388SOL    HW129063   1.951   0.014   3.957
 9388SOL    HW229064   2.050   6.910   3.957
 9389SOL     OW29065   3.265   5.175   2.380
 9389SOL    HW129066   3.355   5.204   2.350
 9389SOL    HW229067   3.227   5.243   2.443
 9390SOL     OW29068   5.378   4.418   5.586
 9390SOL    HW129069   5.466   4.430   5.633
 9390SOL    HW229070   5.394   4.374   5.498
 9391SOL     OW29071   1.346   6.811   4.700
 9391SOL    HW129072   1.410   6.772   4.767
 9391SOL    HW229073   1.292   6.883   4.744
 9392SOL     OW29074   5.257   4.256   3.167
 9392SOL    HW129075   5.338   4.234   3.221
 9392SOL    HW229076   5.274   4.233   3.071
 9393SOL     OW29077   3.127   6.004   6.253
 9393SOL    HW129078   3.213   5.992   6.204
 9393SOL    HW229079   3.084   5.915   6.269
 9394SOL     OW29080   5.309   0.162   1.193
 9394SOL    HW129081   5.312   0.169   1.292
 9394SOL    HW229082   5.285   0.250   1.153
 9395SOL     OW29083   2.901   1.556   0.756
 9395SOL    HW129084   2.883   1.554   0.658
 9395SOL    HW229085   2.999   1.548   0.773
 9396SOL     OW29086   1.826   5.648   6.512
 9396SOL    HW129087   1.864   5.732   6.550
 9396SOL    HW229088   1.804   5.584   6.586
 9397SOL     OW29089   4.088   0.286   6.273
 9397SOL    HW129090   4.016   0.281   6.204
 9397SOL    HW229091   4.169   0.236   6.242
 9398SOL     OW29092   6.926   1.405   6.346
 9398SOL    HW129093   6.919   1.399   6.247
 9398SOL    HW229094   7.018   1.375   6.375
 9399SOL     OW29095   1.842   2.862   3.764
 9399SOL    HW129096   1.754   2.829   3.798
 9399SOL    HW229097   1.912   2.793   3.780
 9400SOL     OW29098   5.126   1.087   0.774
 9400SOL    HW129099   5.157   1.161   0.835
 9400SOL    HW229100   5.180   1.089   0.690
 9401SOL     OW29101   1.193   2.184   2.764
 9401SOL    HW129102   1.103   2.149   2.788
 9401SOL    HW229103   1.264   2.121   2.797
 9402SOL     OW29104   1.781   5.697   3.115
 9402SOL    HW129105   1.807   5.636   3.189
 9402SOL    HW229106   1.813   5.660   3.028
 9403SOL     OW29107   6.789   1.889   2.133
 9403SOL    HW129108   6.775   1.989   2.133
 9403SOL    HW229109   6.800   1.857   2.039
 9404SOL     OW29110   1.886   3.277   0.637
 9404SOL    HW129111   1.786   3.269   0.634
 9404SOL    HW229112   1.921   3.291   0.545
 9405SOL     OW29113   0.235   4.707   5.116
 9405SOL    HW129114   0.147   4.728   5.159
 9405SOL    HW229115   0.309   4.719   5.182
 9406SOL     OW29116   0.069   3.134   6.416
 9406SOL    HW129117   0.122   3.074   6.476
 9406SOL    HW229118   0.010   3.078   6.357
 9407SOL     OW29119   2.007   4.861   4.803
 9407SOL    HW129120   1.931   4.811   4.845
 9407SOL    HW229121   2.065   4.900   4.874
 9408SOL     OW29122   6.778   3.998   5.262
 9408SOL    HW129123   6.686   4.038   5.264
 9408SOL    HW229124   6.845   4.072   5.262
 9409SOL     OW29125   6.829   5.164   1.951
 9409SOL    HW129126   6.825   5.146   2.049
 9409SOL    HW229127   6.905   5.227   1.932
 9410SOL     OW29128   4.051   0.512   1.899
 9410SOL    HW129129   4.092   0.603   1.905
 9410SOL    HW229130   3.962   0.513   1.945
 9411SOL     OW29131   3.973   3.008   3.320
 9411SOL    HW129132   3.876   3.031   3.312
 9411SOL    HW229133   4.024   3.088   3.352
 9412SOL     OW29134   0.007   1.029   1.319
 9412SOL    HW129135   6.949   0.977   1.304
 9412SOL    HW229136   0.081   0.989   1.266
 9413SOL     OW29137   4.206   4.736   3.914
 9413SOL    HW129138   4.293   4.699   3.880
 9413SOL    HW229139   4.216   4.760   4.011
 9414SOL     OW29140   2.049   2.503   5.416
 9414SOL    HW129141   2.083   2.451   5.494
 9414SOL    HW229142   1.950   2.517   5.426
 9415SOL     OW29143   3.861   0.912   2.379
 9415SOL    HW129144   3.863   0.848   2.302
 9415SOL    HW229145   3.853   1.006   2.345
 9416SOL     OW29146   0.102   6.275   6.226
 9416SOL    HW129147   0.198   6.252   6.244
 9416SOL    HW229148   0.098   6.351   6.162
 9417SOL     OW29149   2.959   6.306   1.192
 9417SOL    HW129150   2.932   6.343   1.281
 9417SOL    HW229151   3.007   6.376   1.140
 9418SOL     OW29152   2.942   2.000   4.721
 9418SOL    HW129153   2.968   2.096   4.717
 9418SOL    HW229154   2.918   1.976   4.815
 9419SOL     OW29155   3.004   2.705   0.205
 9419SOL    HW129156   2.941   2.759   0.261
 9419SOL    HW229157   3.039   2.761   0.130
 9420SOL     OW29158   5.697   3.034   0.180
 9420SOL    HW129159   5.712   3.096   0.103
 9420SOL    HW229160   5.619   3.066   0.234
 9421SOL     OW29161   3.929   6.478   5.547
 9421SOL    HW129162   3.976   6.393   5.572
 9421SOL    HW229163   3.996   6.553   5.542
 9422SOL     OW29164   2.551   5.705   4.356
 9422SOL    HW129165   2.605   5.621   4.356
 9422SOL    HW229166   2.570   5.756   4.272
 9423SOL     OW29167   4.152   5.942   3.163
 9423SOL    HW129168   4.072   6.000   3.148
 9423SOL    HW229169   4.123   5.847   3.174
 9424SOL     OW29170   5.227   0.472   4.521
 9424SOL    HW129171   5.264   0.443   4.609
 9424SOL    HW229172   5.151   0.535   4.537
 9425SOL     OW29173   6.632   4.981   0.418
 9425SOL    HW129174   6.677   4.927   0.489
 9425SOL    HW229175   6.636   5.078   0.442
 9426SOL     OW29176   0.316   1.599   6.372
 9426SOL    HW129177   0.373   1.642   6.302
 9426SOL    HW229178   0.224   1.637   6.369
 9427SOL     OW29179   3.402   5.897   2.743
 9427SOL    HW129180   3.376   5.993   2.750
 9427SOL    HW229181   3.333   5.847   2.691
 9428SOL     OW29182   6.544   0.207   6.852
 9428SOL    HW129183   6.528   0.271   6.777
 9428SOL    HW229184   6.617   0.144   6.827
 9429SOL     OW29185   1.319   2.405   4.290
 9429SOL    HW129186   1.294   2.372   4.199
 9429SOL    HW229187   1.289   2.338   4.358
 9430SOL     OW29188   0.563   2.446   4.425
 9430SOL    HW129189   0.502   2.524   4.433
 9430SOL    HW229190   0.516   2.371   4.379
 9431SOL     OW29191   0.079   5.112   6.499
 9431SOL    HW129192   0.114   5.170   6.572
 9431SOL    HW229193   0.031   5.034   6.538
 9432SOL     OW29194   6.874   1.834   3.470
 9432SOL    HW129195   6.814   1.868   3.543
 9432SOL    HW229196   6.848   1.877   3.384
 9433SOL     OW29197   3.380   6.418   3.074
 9433SOL    HW129198   3.465   6.419   3.020
 9433SOL    HW229199   3.365   6.326   3.111
 9434SOL     OW29200   5.406   5.636   4.003
 9434SOL    HW129201   5.319   5.685   4.007
 9434SOL    HW229202   5.412   5.572   4.079
 9435SOL     OW29203   0.701   3.018   1.825
 9435SOL    HW129204   0.621   3.050   1.875
 9435SOL    HW229205   0.767   2.978   1.889
 9436SOL     OW29206   1.052   0.695   3.246
 9436SOL    HW129207   1.138   0.716   3.199
 9436SOL    HW229208   1.042   0.595   3.252
 9437SOL     OW29209   6.926   5.120   4.521
 9437SOL    HW129210   6.906   5.168   4.606
 9437SOL    HW229211   7.012   5.069   4.532
 9438SOL     OW29212   2.697   6.579   1.868
 9438SOL    HW129213   2.681   6.497   1.924
 9438SOL    HW229214   2.613   6.605   1.822
 9439SOL     OW29215   0.643   3.045   0.378
 9439SOL    HW129216   0.651   3.087   0.288
 9439SOL    HW229217   0.578   3.097   0.434
 9440SOL     OW29218   3.185   4.966   3.065
 9440SOL    HW129219   3.173   4.966   3.164
 9440SOL    HW229220   3.282   4.961   3.043
 9441SOL     OW29221   6.772   6.289   4.517
 9441SOL    HW129222   6.714   6.218   4.479
 9441SOL    HW229223   6.757   6.296   4.615
 9442SOL     OW29224   4.305   3.538   0.649
 9442SOL    HW129225   4.373   3.505   0.714
 9442SOL    HW229226   4.284   3.634   0.670
 9443SOL     OW29227   2.412   4.444   2.644
 9443SOL    HW129228   2.327   4.483   2.611
 9443SOL    HW229229   2.395   4.352   2.680
 9444SOL     OW29230   1.729   4.235   0.348
 9444SOL    HW129231   1.790   4.204   0.275
 9444SOL    HW229232   1.758   4.195   0.435
 9445SOL     OW29233   0.405   1.619   4.062
 9445SOL    HW129234   0.306   1.616   4.055
 9445SOL    HW229235   0.443   1.670   3.985
 9446SOL     OW29236   6.577   5.107   3.299
 9446SOL    HW129237   6.521   5.041   3.351
 9446SOL    HW229238   6.647   5.145   3.359
 9447SOL     OW29239   5.365   5.099   2.425
 9447SOL    HW129240   5.448   5.093   2.480
 9447SOL    HW229241   5.321   5.009   2.421
 9448SOL     OW29242   5.706   0.280   6.234
 9448SOL    HW129243   5.779   0.306   6.297
 9448SOL    HW229244   5.652   0.207   6.275
 9449SOL     OW29245   6.321   6.670   1.467
 9449SOL    HW129246   6.306   6.597   1.401
 9449SOL    HW229247   6.419   6.679   1.485
 9450SOL     OW29248   1.643   5.970   4.239
 9450SOL    HW129249   1.561   6.016   4.273
 9450SOL    HW229250   1.700   6.035   4.190
 9451SOL     OW29251   3.356   5.863   6.961
 9451SOL    HW129252   3.409   5.811   0.002
 9451SOL    HW229253   3.416   5.929   6.915
 9452SOL     OW29254   7.025   4.177   0.957
 9452SOL    HW129255   0.081   4.199   1.009
 9452SOL    HW229256   0.025   4.148   0.865
 9453SOL     OW29257   3.728   5.529   3.477
 9453SOL    HW129258   3.771   5.442   3.451
 9453SOL    HW229259   3.754   5.552   3.570
 9454SOL     OW29260   4.349   4.511   0.828
 9454SOL    HW129261   4.393   4.541   0.913
 9454SOL    HW229262   4.298   4.427   0.844
 9455SOL     OW29263   2.633   2.259   2.098
 9455SOL    HW129264   2.631   2.166   2.062
 9455SOL    HW229265   2.722   2.300   2.080
 9456SOL     OW29266   5.831   2.691   2.203
 9456SOL    HW129267   5.823   2.591   2.201
 9456SOL    HW229268   5.771   2.728   2.274
 9457SOL     OW29269   0.701   4.666   3.618
 9457SOL    HW129270   0.655   4.608   3.551
 9457SOL    HW229271   0.648   4.669   3.702
 9458SOL     OW29272   6.683   4.254   0.158
 9458SOL    HW129273   6.714   4.180   0.217
 9458SOL    HW229274   6.718   4.341   0.191
 9459SOL     OW29275   5.094   4.913   5.142
 9459SOL    HW129276   5.172   4.873   5.093
 9459SOL    HW229277   5.124   4.993   5.193
 9460SOL     OW29278   1.069   2.567   3.085
 9460SOL    HW129279   1.121   2.504   3.027
 9460SOL    HW229280   1.025   2.637   3.028
 9461SOL     OW29281   1.686   2.354   1.688
 9461SOL    HW129282   1.744   2.350   1.607
 9461SOL    HW229283   1.635   2.440   1.688
 9462SOL     OW29284   1.938   1.500   4.466
 9462SOL    HW129285   2.026   1.524   4.506
 9462SOL    HW229286   1.930   1.544   4.376
 9463SOL     OW29287   5.656   6.207   0.696
 9463SOL    HW129288   5.701   6.221   0.785
 9463SOL    HW229289   5.638   6.109   0.683
 9464SOL     OW29290   0.442   1.143   1.554
 9464SOL    HW129291   0.388   1.067   1.589
 9464SOL    HW229292   0.525   1.109   1.510
 9465SOL     OW29293   0.186   4.068   1.310
 9465SOL    HW129294   0.280   4.061   1.346
 9465SOL    HW229295   0.127   4.006   1.362
 9466SOL     OW29296   3.772   5.317   7.008
 9466SOL    HW129297   3.718   5.292   0.062
 9466SOL    HW229298   3.715   5.316   6.926
 9467SOL     OW29299   2.291   3.320   0.663
 9467SOL    HW129300   2.327   3.352   0.750
 9467SOL    HW229301   2.211   3.262   0.679
 9468SOL     OW29302   6.248   3.113   0.817
 9468SOL    HW129303   6.206   3.066   0.739
 9468SOL    HW229304   6.183   3.114   0.894
 9469SOL     OW29305   0.194   6.277   0.735
 9469SOL    HW129306   0.180   6.276   0.636
 9469SOL    HW229307   0.269   6.216   0.759
 9470SOL     OW29308   4.286   3.816   0.652
 9470SOL    HW129309   4.374   3.841   0.693
 9470SOL    HW229310   4.272   3.870   0.569
 9471SOL     OW29311   5.980   2.351   5.036
 9471SOL    HW129312   6.052   2.321   5.099
 9471SOL    HW229313   6.007   2.439   4.995
 9472SOL     OW29314   1.888   3.932   6.334
 9472SOL    HW129315   1.906   3.985   6.250
 9472SOL    HW229316   1.887   3.835   6.312
 9473SOL     OW29317   2.809   4.512   0.415
 9473SOL    HW129318   2.840   4.474   0.503
 9473SOL    HW229319   2.709   4.506   0.410
 9474SOL     OW29320   5.566   3.626   1.396
 9474SOL    HW129321   5.570   3.652   1.493
 9474SOL    HW229322   5.538   3.705   1.342
 9475SOL     OW29323   4.710   3.775   5.958
 9475SOL    HW129324   4.791   3.833   5.946
 9475SOL    HW229325   4.675   3.785   6.052
 9476SOL     OW29326   3.667   3.756   6.368
 9476SOL    HW129327   3.756   3.729   6.405
 9476SOL    HW229328   3.681   3.812   6.287
 9477SOL     OW29329   1.973   4.216   1.830
 9477SOL    HW129330   1.916   4.134   1.827
 9477SOL    HW229331   1.966   4.264   1.742
 9478SOL     OW29332   5.495   2.555   0.209
 9478SOL    HW129333   5.408   2.519   0.242
 9478SOL    HW229334   5.570   2.501   0.247
 9479SOL     OW29335   3.887   0.821   1.950
 9479SOL    HW129336   3.887   0.772   1.863
 9479SOL    HW229337   3.837   0.768   2.019
 9480SOL     OW29338   6.042   6.782   6.820
 9480SOL    HW129339   5.983   6.771   6.901
 9480SOL    HW229340   6.023   6.870   6.777
 9481SOL     OW29341   4.472   1.685   3.100
 9481SOL    HW129342   4.402   1.755   3.088
 9481SOL    HW229343   4.544   1.720   3.159
 9482SOL     OW29344   5.790   0.611   0.975
 9482SOL    HW129345   5.755   0.705   0.975
 9482SOL    HW229346   5.725   0.551   1.020
 9483SOL     OW29347   0.166   0.783   0.842
 9483SOL    HW129348   0.211   0.872   0.835
 9483SOL    HW229349   0.085   0.791   0.900
 9484SOL     OW29350   3.261   5.632   4.694
 9484SOL    HW129351   3.264   5.608   4.791
 9484SOL    HW229352   3.175   5.601   4.654
 9485SOL     OW29353   6.876   1.548   6.910
 9485SOL    HW129354   6.960   1.576   6.863
 9485SOL    HW229355   6.897   1.523   7.005
 9486SOL     OW29356   4.646   5.553   0.192
 9486SOL    HW129357   4.588   5.515   0.120
 9486SOL    HW229358   4.604   5.537   0.281
 9487SOL     OW29359   3.551   3.303   3.995
 9487SOL    HW129360   3.471   3.361   4.006
 9487SOL    HW229361   3.529   3.228   3.932
 9488SOL     OW29362   1.485   1.558   0.654
 9488SOL    HW129363   1.475   1.592   0.561
 9488SOL    HW229364   1.419   1.485   0.671
 9489SOL     OW29365   4.943   4.365   0.423
 9489SOL    HW129366   4.885   4.421   0.483
 9489SOL    HW229367   4.889   4.331   0.347
 9490SOL     OW29368   5.900   4.090   3.326
 9490SOL    HW129369   5.832   4.088   3.400
 9490SOL    HW229370   5.982   4.041   3.355
 9491SOL     OW29371   4.975   6.507   3.298
 9491SOL    HW129372   4.921   6.552   3.369
 9491SOL    HW229373   4.920   6.499   3.215
 9492SOL     OW29374   4.724   2.784   4.758
 9492SOL    HW129375   4.788   2.861   4.768
 9492SOL    HW229376   4.657   2.786   4.832
 9493SOL     OW29377   4.489   6.320   3.611
 9493SOL    HW129378   4.448   6.236   3.647
 9493SOL    HW229379   4.420   6.392   3.608
 9494SOL     OW29380   5.125   2.490   1.810
 9494SOL    HW129381   5.167   2.413   1.859
 9494SOL    HW229382   5.165   2.576   1.842
 9495SOL     OW29383   0.659   0.816   2.457
 9495SOL    HW129384   0.719   0.890   2.426
 9495SOL    HW229385   0.662   0.811   2.557
 9496SOL     OW29386   3.993   2.039   2.460
 9496SOL    HW129387   3.929   2.041   2.384
 9496SOL    HW229388   4.026   1.945   2.474
 9497SOL     OW29389   5.985   4.918   4.442
 9497SOL    HW129390   5.982   4.944   4.539
 9497SOL    HW229391   6.058   4.851   4.428
 9498SOL     OW29392   6.646   5.201   4.653
 9498SOL    HW129393   6.548   5.179   4.647
 9498SOL    HW229394   6.691   5.137   4.715
 9499SOL     OW29395   5.595   5.555   5.542
 9499SOL    HW129396   5.584   5.461   5.510
 9499SOL    HW229397   5.557   5.619   5.476
 9500SOL     OW29398   4.351   0.747   0.883
 9500SOL    HW129399   4.318   0.839   0.861
 9500SOL    HW229400   4.451   0.749   0.893
 9501SOL     OW29401   1.694   2.264   4.760
 9501SOL    HW129402   1.742   2.224   4.838
 9501SOL    HW229403   1.596   2.250   4.770
 9502SOL     OW29404   6.066   4.578   5.278
 9502SOL    HW129405   6.067   4.490   5.324
 9502SOL    HW229406   6.150   4.588   5.224
 9503SOL     OW29407   0.303   2.240   6.649
 9503SOL    HW129408   0.378   2.210   6.590
 9503SOL    HW229409   0.217   2.236   6.597
 9504SOL     OW29410   6.135   5.074   1.854
 9504SOL    HW129411   6.195   5.097   1.931
 9504SOL    HW229412   6.061   5.014   1.886
 9505SOL     OW29413   4.218   4.743   5.245
 9505SOL    HW129414   4.162   4.746   5.329
 9505SOL    HW229415   4.177   4.802   5.176
 9506SOL     OW29416   3.333   2.225   1.354
 9506SOL    HW129417   3.364   2.146   1.301
 9506SOL    HW229418   3.246   2.203   1.398
 9507SOL     OW29419   6.212   0.209   2.033
 9507SOL    HW129420   6.195   0.154   1.952
 9507SOL    HW229421   6.306   0.243   2.031
 9508SOL     OW29422   4.921   1.375   3.298
 9508SOL    HW129423   4.826   1.401   3.318
 9508SOL    HW229424   4.983   1.434   3.350
 9509SOL     OW29425   6.191   0.688   2.573
 9509SOL    HW129426   6.182   0.781   2.608
 9509SOL    HW229427   6.137   0.625   2.629
 9510SOL     OW29428   0.421   2.998   3.357
 9510SOL    HW129429   0.396   3.089   3.324
 9510SOL    HW229430   0.456   2.943   3.281
 9511SOL     OW29431   1.498   1.278   0.341
 9511SOL    HW129432   1.484   1.204   0.276
 9511SOL    HW229433   1.410   1.318   0.367
 9512SOL     OW29434   6.313   2.406   1.373
 9512SOL    HW129435   6.319   2.505   1.389
 9512SOL    HW229436   6.229   2.371   1.415
 9513SOL     OW29437   3.851   5.049   6.951
 9513SOL    HW129438   3.835   5.146   6.933
 9513SOL    HW229439   3.848   4.998   6.866
 9514SOL     OW29440   3.458   3.224   6.540
 9514SOL    HW129441   3.454   3.300   6.606
 9514SOL    HW229442   3.369   3.179   6.536
 9515SOL     OW29443   2.464   4.851   3.569
 9515SOL    HW129444   2.471   4.951   3.562
 9515SOL    HW229445   2.398   4.818   3.501
 9516SOL     OW29446   6.664   3.904   0.494
 9516SOL    HW129447   6.639   3.811   0.467
 9516SOL    HW229448   6.710   3.902   0.582
 9517SOL     OW29449   0.687   4.445   1.185
 9517SOL    HW129450   0.784   4.432   1.205
 9517SOL    HW229451   0.666   4.543   1.185
 9518SOL     OW29452   2.195   1.440   0.484
 9518SOL    HW129453   2.130   1.448   0.408
 9518SOL    HW229454   2.171   1.360   0.540
 9519SOL     OW29455   0.935   2.705   5.274
 9519SOL    HW129456   0.924   2.677   5.178
 9519SOL    HW229457   1.033   2.706   5.297
 9520SOL     OW29458   2.303   0.085   2.863
 9520SOL    HW129459   2.282   0.167   2.915
 9520SOL    HW229460   2.403   0.076   2.854
 9521SOL     OW29461   5.353   5.512   4.271
 9521SOL    HW129462   5.407   5.566   4.335
 9521SOL    HW229463   5.284   5.460   4.321
 9522SOL     OW29464   3.412   6.129   1.108
 9522SOL    HW129465   3.462   6.173   1.033
 9522SOL    HW229466   3.401   6.194   1.183
 9523SOL     OW29467   3.430   4.936   4.920
 9523SOL    HW129468   3.413   5.029   4.953
 9523SOL    HW229469   3.408   4.871   4.992
 9524SOL     OW29470   4.028   3.405   1.082
 9524SOL    HW129471   3.985   3.489   1.049
 9524SOL    HW229472   4.087   3.427   1.160
 9525SOL     OW29473   2.215   0.703   6.065
 9525SOL    HW129474   2.302   0.751   6.080
 9525SOL    HW229475   2.143   0.769   6.044
 9526SOL     OW29476   5.037   5.974   2.900
 9526SOL    HW129477   5.109   6.016   2.956
 9526SOL    HW229478   4.976   5.920   2.958
 9527SOL     OW29479   1.138   1.372   2.125
 9527SOL    HW129480   1.097   1.369   2.216
 9527SOL    HW229481   1.173   1.464   2.107
 9528SOL     OW29482   6.678   0.661   2.046
 9528SOL    HW129483   6.590   0.673   1.998
 9528SOL    HW229484   6.669   0.694   2.140
 9529SOL     OW29485   0.963   2.843   6.384
 9529SOL    HW129486   0.926   2.766   6.332
 9529SOL    HW229487   1.031   2.809   6.449
 9530SOL     OW29488   1.382   2.368   3.234
 9530SOL    HW129489   1.325   2.344   3.156
 9530SOL    HW229490   1.356   2.312   3.313
 9531SOL     OW29491   3.516   0.114   3.133
 9531SOL    HW129492   3.549   0.036   3.185
 9531SOL    HW229493   3.577   0.132   3.056
 9532SOL     OW29494   2.007   6.968   1.832
 9532SOL    HW129495   1.919   7.004   1.799
 9532SOL    HW229496   2.059   0.016   1.874
 9533SOL     OW29497   1.386   0.777   5.784
 9533SOL    HW129498   1.428   0.693   5.749
 9533SOL    HW229499   1.403   0.852   5.719
 9534SOL     OW29500   5.613   2.002   5.020
 9534SOL    HW129501   5.513   2.003   5.015
 9534SOL    HW229502   5.643   1.972   5.110
 9535SOL     OW29503   2.699   1.200   5.766
 9535SOL    HW129504   2.754   1.117   5.763
 9535SOL    HW229505   2.690   1.237   5.673
 9536SOL     OW29506   1.581   5.760   5.406
 9536SOL    HW129507   1.607   5.822   5.480
 9536SOL    HW229508   1.661   5.744   5.347
 9537SOL     OW29509   3.114   0.201   1.762
 9537SOL    HW129510   3.082   0.108   1.778
 9537SOL    HW229511   3.092   0.258   1.841
 9538SOL     OW29512   6.464   2.620   5.019
 9538SOL    HW129513   6.392   2.689   5.010
 9538SOL    HW229514   6.493   2.590   4.928
 9539SOL     OW29515   0.560   5.943   0.322
 9539SOL    HW129516   0.620   5.981   0.251
 9539SOL    HW229517   0.490   5.886   0.279
 9540SOL     OW29518   4.733   5.047   4.465
 9540SOL    HW129519   4.707   4.957   4.430
 9540SOL    HW229520   4.742   5.111   4.388
 9541SOL     OW29521   2.057   2.731   4.330
 9541SOL    HW129522   2.012   2.764   4.413
 9541SOL    HW229523   2.145   2.777   4.320
 9542SOL     OW29524   4.900   3.305   4.759
 9542SOL    HW129525   4.925   3.401   4.771
 9542SOL    HW229526   4.893   3.262   4.849
 9543SOL     OW29527   5.376   1.428   3.261
 9543SOL    HW129528   5.337   1.436   3.353
 9543SOL    HW229529   5.475   1.430   3.267
 9544SOL     OW29530   4.883   1.289   2.810
 9544SOL    HW129531   4.941   1.321   2.735
 9544SOL    HW229532   4.929   1.304   2.897
 9545SOL     OW29533   6.749   1.075   3.820
 9545SOL    HW129534   6.684   0.999   3.809
 9545SOL    HW229535   6.699   1.158   3.845
 9546SOL     OW29536   2.625   5.480   0.290
 9546SOL    HW129537   2.609   5.394   0.241
 9546SOL    HW229538   2.539   5.532   0.294
 9547SOL     OW29539   0.706   6.654   4.288
 9547SOL    HW129540   0.620   6.704   4.288
 9547SOL    HW229541   0.688   6.556   4.281
 9548SOL     OW29542   4.939   5.938   4.249
 9548SOL    HW129543   5.024   5.919   4.200
 9548SOL    HW229544   4.873   5.979   4.186
 9549SOL     OW29545   2.494   6.208   0.847
 9549SOL    HW129546   2.503   6.302   0.881
 9549SOL    HW229547   2.585   6.169   0.831
 9550SOL     OW29548   1.391   1.864   0.315
 9550SOL    HW129549   1.358   1.836   0.224
 9550SOL    HW229550   1.321   1.920   0.360
 9551SOL     OW29551   0.643   6.548   4.900
 9551SOL    HW129552   0.556   6.504   4.879
 9551SOL    HW229553   0.631   6.647   4.904
 9552SOL     OW29554   1.688   5.946   3.073
 9552SOL    HW129555   1.718   5.851   3.078
 9552SOL    HW229556   1.737   6.000   3.141
 9553SOL     OW29557   6.199   4.296   5.668
 9553SOL    HW129558   6.216   4.199   5.685
 9553SOL    HW229559   6.149   4.307   5.582
 9554SOL     OW29560   2.379   1.232   1.791
 9554SOL    HW129561   2.395   1.321   1.750
 9554SOL    HW229562   2.408   1.232   1.887
 9555SOL     OW29563   0.002   2.265   0.643
 9555SOL    HW129564   0.043   2.209   0.570
 9555SOL    HW229565   0.065   2.270   0.721
 9556SOL     OW29566   2.129   1.406   1.419
 9556SOL    HW129567   2.128   1.322   1.474
 9556SOL    HW229568   2.131   1.485   1.479
 9557SOL     OW29569   5.463   0.089   2.398
 9557SOL    HW129570   5.489   0.081   2.494
 9557SOL    HW229571   5.545   0.098   2.342
 9558SOL     OW29572   6.465   4.936   2.795
 9558SOL    HW129573   6.560   4.960   2.775
 9558SOL    HW229574   6.427   4.884   2.719
 9559SOL     OW29575   6.567   3.335   1.598
 9559SOL    HW129576   6.497   3.279   1.643
 9559SOL    HW229577   6.656   3.290   1.604
 9560SOL     OW29578   3.301   1.514   3.792
 9560SOL    HW129579   3.279   1.611   3.781
 9560SOL    HW229580   3.217   1.460   3.794
 9561SOL     OW29581   4.169   6.655   0.797
 9561SOL    HW129582   4.249   6.664   0.856
 9561SOL    HW229583   4.193   6.600   0.717
 9562SOL     OW29584   5.371   4.907   2.809
 9562SOL    HW129585   5.358   5.003   2.784
 9562SOL    HW229586   5.425   4.902   2.892
 9563SOL     OW29587   6.621   5.798   0.128
 9563SOL    HW129588   6.611   5.877   0.189
 9563SOL    HW229589   6.603   5.826   0.034
 9564SOL     OW29590   2.900   6.571   0.199
 9564SOL    HW129591   2.956   6.574   0.116
 9564SOL    HW229592   2.957   6.590   0.279
 9565SOL     OW29593   3.758   5.529   4.636
 9565SOL    HW129594   3.742   5.474   4.718
 9565SOL    HW229595   3.792   5.470   4.562
 9566SOL     OW29596   2.715   4.450   5.351
 9566SOL    HW129597   2.706   4.358   5.388
 9566SOL    HW229598   2.794   4.453   5.289
 9567SOL     OW29599   5.888   5.582   5.625
 9567SOL    HW129600   5.947   5.502   5.641
 9567SOL    HW229601   5.797   5.551   5.596
 9568SOL     OW29602   4.732   3.648   6.355
 9568SOL    HW129603   4.700   3.700   6.434
 9568SOL    HW229604   4.827   3.672   6.335
 9569SOL     OW29605   6.058   0.985   0.190
 9569SOL    HW129606   6.101   1.075   0.205
 9569SOL    HW229607   6.081   0.952   0.098
 9570SOL     OW29608   1.091   1.127   0.159
 9570SOL    HW129609   1.077   1.191   0.234
 9570SOL    HW229610   1.167   1.066   0.179
 9571SOL     OW29611   2.110   3.858   0.292
 9571SOL    HW129612   2.049   3.781   0.275
 9571SOL    HW229613   2.142   3.896   0.205
 9572SOL     OW29614   1.476   4.309   1.667
 9572SOL    HW129615   1.482   4.247   1.589
 9572SOL    HW229616   1.398   4.370   1.655
 9573SOL     OW29617   1.858   1.653   0.633
 9573SOL    HW129618   1.806   1.600   0.700
 9573SOL    HW229619   1.955   1.629   0.639
 9574SOL     OW29620   2.892   2.700   5.819
 9574SOL    HW129621   2.952   2.625   5.849
 9574SOL    HW229622   2.946   2.766   5.766
 9575SOL     OW29623   5.429   0.954   2.739
 9575SOL    HW129624   5.441   0.870   2.792
 9575SOL    HW229625   5.356   1.009   2.780
 9576SOL     OW29626   3.104   1.331   5.027
 9576SOL    HW129627   3.087   1.422   5.067
 9576SOL    HW229628   3.039   1.314   4.954
 9577SOL     OW29629   0.830   6.401   3.301
 9577SOL    HW129630   0.918   6.376   3.341
 9577SOL    HW229631   0.816   6.349   3.217
 9578SOL     OW29632   6.141   2.787   2.198
 9578SOL    HW129633   6.093   2.731   2.265
 9578SOL    HW229634   6.093   2.874   2.187
 9579SOL     OW29635   0.739   6.576   2.363
 9579SOL    HW129636   0.823   6.531   2.331
 9579SOL    HW229637   0.662   6.546   2.306
 9580SOL     OW29638   4.362   3.235   5.750
 9580SOL    HW129639   4.459   3.258   5.736
 9580SOL    HW229640   4.306   3.316   5.733
 9581SOL     OW29641   0.947   4.325   5.913
 9581SOL    HW129642   0.969   4.391   5.984
 9581SOL    HW229643   0.992   4.351   5.827
 9582SOL     OW29644   4.455   4.845   4.668
 9582SOL    HW129645   4.472   4.755   4.626
 9582SOL    HW229646   4.467   4.838   4.767
 9583SOL     OW29647   1.949   4.396   2.144
 9583SOL    HW129648   1.911   4.455   2.215
 9583SOL    HW229649   2.020   4.447   2.094
 9584SOL     OW29650   6.158   6.018   6.058
 9584SOL    HW129651   6.180   5.930   6.016
 9584SOL    HW229652   6.242   6.073   6.064
 9585SOL     OW29653   6.021   0.115   4.635
 9585SOL    HW129654   6.040   0.055   4.557
 9585SOL    HW229655   6.096   0.109   4.701
 9586SOL     OW29656   5.882   3.384   3.001
 9586SOL    HW129657   5.852   3.361   2.908
 9586SOL    HW229658   5.808   3.367   3.065
 9587SOL     OW29659   4.770   0.041   2.596
 9587SOL    HW129660   4.746   0.004   2.506
 9587SOL    HW229661   4.833   0.117   2.585
 9588SOL     OW29662   0.752   0.756   1.909
 9588SOL    HW129663   0.681   0.824   1.892
 9588SOL    HW229664   0.828   0.799   1.957
 9589SOL     OW29665   2.786   1.366   6.388
 9589SOL    HW129666   2.756   1.425   6.463
 9589SOL    HW229667   2.780   1.270   6.417
 9590SOL     OW29668   6.582   4.292   4.057
 9590SOL    HW129669   6.521   4.359   4.100
 9590SOL    HW229670   6.667   4.336   4.032
 9591SOL     OW29671   1.311   5.052   1.245
 9591SOL    HW129672   1.276   5.105   1.168
 9591SOL    HW229673   1.373   4.981   1.211
 9592SOL     OW29674   4.522   5.144   1.816
 9592SOL    HW129675   4.466   5.225   1.800
 9592SOL    HW229676   4.520   5.086   1.735
 9593SOL     OW29677   0.603   2.840   4.299
 9593SOL    HW129678   0.601   2.761   4.237
 9593SOL    HW229679   0.544   2.822   4.377
 9594SOL     OW29680   6.007   0.157   2.494
 9594SOL    HW129681   5.911   0.183   2.485
 9594SOL    HW229682   6.019   0.063   2.463
 9595SOL     OW29683   1.282   5.463   4.092
 9595SOL    HW129684   1.256   5.554   4.125
 9595SOL    HW229685   1.366   5.433   4.137
 9596SOL     OW29686   5.419   6.011   4.972
 9596SOL    HW129687   5.459   6.031   4.882
 9596SOL    HW229688   5.323   5.986   4.961
 9597SOL     OW29689   1.937   3.853   1.373
 9597SOL    HW129690   1.906   3.831   1.281
 9597SOL    HW229691   1.871   3.915   1.416
 9598SOL     OW29692   7.013   5.657   6.066
 9598SOL    HW129693   7.023   5.757   6.066
 9598SOL    HW229694   7.025   5.622   6.160
 9599SOL     OW29695   4.660   1.538   5.253
 9599SOL    HW129696   4.675   1.601   5.329
 9599SOL    HW229697   4.721   1.560   5.178
 9600SOL     OW29698   1.464   0.189   6.466
 9600SOL    HW129699   1.530   0.215   6.536
 9600SOL    HW229700   1.511   0.141   6.391
 9601SOL     OW29701   0.168   5.290   5.467
 9601SOL    HW129702   0.069   5.300   5.466
 9601SOL    HW229703   0.206   5.322   5.381
 9602SOL     OW29704   1.164   5.644   0.344
 9602SOL    HW129705   1.186   5.648   0.442
 9602SOL    HW229706   1.160   5.737   0.307
 9603SOL     OW29707   1.467   6.200   4.279
 9603SOL    HW129708   1.383   6.197   4.224
 9603SOL    HW229709   1.451   6.151   4.365
 9604SOL     OW29710   6.127   1.315   7.017
 9604SOL    HW129711   6.050   1.255   6.993
 9604SOL    HW229712   6.206   1.290   6.961
 9605SOL     OW29713   2.049   6.229   6.664
 9605SOL    HW129714   2.088   6.320   6.671
 9605SOL    HW229715   2.066   6.179   6.749
 9606SOL     OW29716   6.090   6.462   3.743
 9606SOL    HW129717   6.157   6.391   3.764
 9606SOL    HW229718   6.117   6.510   3.660
 9607SOL     OW29719   1.157   2.016   2.019
 9607SOL    HW129720   1.208   2.018   2.105
 9607SOL    HW229721   1.091   2.092   2.018
 9608SOL     OW29722   0.885   0.003   2.206
 9608SOL    HW129723   0.886   0.059   2.289
 9608SOL    HW229724   0.904   0.060   2.127
 9609SOL     OW29725   1.347   3.798   5.020
 9609SOL    HW129726   1.350   3.766   4.926
 9609SOL    HW229727   1.359   3.898   5.021
 9610SOL     OW29728   2.484   1.701   6.264
 9610SOL    HW129729   2.574   1.742   6.250
 9610SOL    HW229730   2.458   1.648   6.183
 9611SOL     OW29731   6.454   0.109   1.172
 9611SOL    HW129732   6.550   0.127   1.150
 9611SOL    HW229733   6.419   0.182   1.230
 9612SOL     OW29734   5.489   2.775   1.522
 9612SOL    HW129735   5.530   2.750   1.435
 9612SOL    HW229736   5.474   2.693   1.577
 9613SOL     OW29737   5.829   6.228   5.079
 9613SOL    HW129738   5.850   6.177   5.162
 9613SOL    HW229739   5.760   6.298   5.099
 9614SOL     OW29740   3.842   3.487   2.408
 9614SOL    HW129741   3.785   3.542   2.469
 9614SOL    HW229742   3.845   3.393   2.441
 9615SOL     OW29743   0.974   5.992   3.252
 9615SOL    HW129744   0.917   6.027   3.326
 9615SOL    HW229745   0.943   5.900   3.227
 9616SOL     OW29746   3.133   3.569   0.647
 9616SOL    HW129747   3.095   3.541   0.735
 9616SOL    HW229748   3.082   3.648   0.613
 9617SOL     OW29749   0.291   3.901   3.987
 9617SOL    HW129750   0.271   3.826   3.925
 9617SOL    HW229751   0.242   3.983   3.957
 9618SOL     OW29752   4.365   6.104   6.710
 9618SOL    HW129753   4.324   6.193   6.732
 9618SOL    HW229754   4.400   6.105   6.617
 9619SOL     OW29755   2.483   6.649   0.409
 9619SOL    HW129756   2.441   6.602   0.487
 9619SOL    HW229757   2.516   6.739   0.438
 9620SOL     OW29758   3.374   1.045   6.172
 9620SOL    HW129759   3.357   1.089   6.260
 9620SOL    HW229760   3.461   0.996   6.175
 9621SOL     OW29761   0.923   0.917   1.155
 9621SOL    HW129762   0.994   0.980   1.188
 9621SOL    HW229763   0.942   0.825   1.190
 9622SOL     OW29764   6.218   0.434   6.089
 9622SOL    HW129765   6.261   0.524   6.088
 9622SOL    HW229766   6.121   0.443   6.113
 9623SOL     OW29767   4.008   6.176   6.450
 9623SOL    HW129768   4.048   6.101   6.502
 9623SOL    HW229769   4.034   6.263   6.492
 9624SOL     OW29770   3.941   4.993   4.857
 9624SOL    HW129771   3.932   5.044   4.772
 9624SOL    HW229772   4.015   4.925   4.847
 9625SOL     OW29773   4.872   4.131   6.088
 9625SOL    HW129774   4.865   4.084   6.177
 9625SOL    HW229775   4.811   4.210   6.088
 9626SOL     OW29776   2.401   4.021   5.985
 9626SOL    HW129777   2.426   3.972   5.902
 9626SOL    HW229778   2.467   4.094   6.002
 9627SOL     OW29779   1.065   5.484   0.144
 9627SOL    HW129780   1.080   5.548   0.219
 9627SOL    HW229781   1.120   5.402   0.158
 9628SOL     OW29782   5.794   2.366   6.506
 9628SOL    HW129783   5.834   2.391   6.418
 9628SOL    HW229784   5.861   2.314   6.559
 9629SOL     OW29785   0.229   5.570   3.769
 9629SOL    HW129786   0.295   5.522   3.711
 9629SOL    HW229787   0.277   5.616   3.844
 9630SOL     OW29788   6.318   5.703   6.717
 9630SOL    HW129789   6.358   5.639   6.781
 9630SOL    HW229790   6.268   5.774   6.767
 9631SOL     OW29791   4.422   0.798   0.404
 9631SOL    HW129792   4.451   0.704   0.419
 9631SOL    HW229793   4.489   0.845   0.346
 9632SOL     OW29794   3.506   6.113   1.933
 9632SOL    HW129795   3.583   6.054   1.959
 9632SOL    HW229796   3.429   6.097   1.996
 9633SOL     OW29797   3.201   3.006   2.465
 9633SOL    HW129798   3.136   2.930   2.468
 9633SOL    HW229799   3.282   2.982   2.518
 9634SOL     OW29800   5.194   4.691   2.511
 9634SOL    HW129801   5.131   4.745   2.567
 9634SOL    HW229802   5.281   4.678   2.560
 9635SOL     OW29803   0.441   4.355   3.945
 9635SOL    HW129804   0.470   4.340   4.040
 9635SOL    HW229805   0.342   4.356   3.940
 9636SOL     OW29806   4.548   2.713   4.995
 9636SOL    HW129807   4.598   2.678   5.074
 9636SOL    HW229808   4.454   2.732   5.021
 9637SOL     OW29809   2.285   2.755   0.573
 9637SOL    HW129810   2.201   2.808   0.585
 9637SOL    HW229811   2.353   2.786   0.639
 9638SOL     OW29812   6.829   4.927   5.520
 9638SOL    HW129813   6.889   5.006   5.513
 9638SOL    HW229814   6.826   4.896   5.616
 9639SOL     OW29815   3.703   1.299   2.948
 9639SOL    HW129816   3.616   1.348   2.956
 9639SOL    HW229817   3.779   1.362   2.963
 9640SOL     OW29818   3.869   0.458   3.096
 9640SOL    HW129819   3.900   0.552   3.084
 9640SOL    HW229820   3.945   0.395   3.084
 9641SOL     OW29821   6.125   4.119   2.624
 9641SOL    HW129822   6.028   4.141   2.636
 9641SOL    HW229823   6.136   4.058   2.546
 9642SOL     OW29824   1.578   0.347   3.958
 9642SOL    HW129825   1.558   0.319   4.052
 9642SOL    HW229826   1.677   0.355   3.947
 9643SOL     OW29827   5.188   4.735   4.219
 9643SOL    HW129828   5.100   4.763   4.256
 9643SOL    HW229829   5.179   4.645   4.176
 9644SOL     OW29830   1.394   5.830   4.670
 9644SOL    HW129831   1.297   5.820   4.649
 9644SOL    HW229832   1.408   5.915   4.721
 9645SOL     OW29833   0.595   5.455   0.044
 9645SOL    HW129834   0.633   5.413   6.987
 9645SOL    HW229835   0.667   5.469   0.111
 9646SOL     OW29836   3.428   6.208   6.107
 9646SOL    HW129837   3.389   6.118   6.092
 9646SOL    HW229838   3.469   6.212   6.198
 9647SOL     OW29839   6.159   0.005   3.300
 9647SOL    HW129840   6.130   0.034   3.208
 9647SOL    HW229841   6.259   0.000   3.303
 9648SOL     OW29842   4.233   2.358   1.143
 9648SOL    HW129843   4.223   2.263   1.171
 9648SOL    HW229844   4.147   2.391   1.104
 9649SOL     OW29845   1.674   4.965   6.923
 9649SOL    HW129846   1.649   5.060   6.906
 9649SOL    HW229847   1.754   4.961   6.983
 9650SOL     OW29848   0.042   4.951   4.831
 9650SOL    HW129849   0.028   4.852   4.829
 9650SOL    HW229850   0.123   4.973   4.885
 9651SOL     OW29851   3.811   1.114   0.408
 9651SOL    HW129852   3.872   1.192   0.394
 9651SOL    HW229853   3.856   1.046   0.466
 9652SOL     OW29854   6.975   3.859   0.549
 9652SOL    HW129855   7.000   3.764   0.567
 9652SOL    HW229856   6.898   3.885   0.606
 9653SOL     OW29857   4.079   4.221   6.357
 9653SOL    HW129858   4.172   4.200   6.386
 9653SOL    HW229859   4.062   4.184   6.266
 9654SOL     OW29860   3.744   3.297   3.346
 9654SOL    HW129861   3.741   3.387   3.303
 9654SOL    HW229862   3.773   3.307   3.441
 9655SOL     OW29863   3.947   1.150   1.834
 9655SOL    HW129864   3.906   1.231   1.791
 9655SOL    HW229865   4.037   1.134   1.793
 9656SOL     OW29866   5.766   4.129   1.150
 9656SOL    HW129867   5.809   4.042   1.173
 9656SOL    HW229868   5.699   4.153   1.220
 9657SOL     OW29869   5.647   3.351   3.747
 9657SOL    HW129870   5.611   3.401   3.669
 9657SOL    HW229871   5.717   3.405   3.793
 9658SOL     OW29872   5.096   1.947   2.458
 9658SOL    HW129873   5.164   1.875   2.468
 9658SOL    HW229874   5.005   1.907   2.455
 9659SOL     OW29875   2.902   3.330   0.560
 9659SOL    HW129876   2.972   3.303   0.627
 9659SOL    HW229877   2.900   3.430   0.553
 9660SOL     OW29878   0.353   6.017   1.163
 9660SOL    HW129879   0.401   6.066   1.236
 9660SOL    HW229880   0.420   5.984   1.096
 9661SOL     OW29881   5.409   4.863   0.553
 9661SOL    HW129882   5.314   4.887   0.575
 9661SOL    HW229883   5.467   4.881   0.632
 9662SOL     OW29884   5.242   4.531   6.478
 9662SOL    HW129885   5.288   4.561   6.395
 9662SOL    HW229886   5.294   4.561   6.558
 9663SOL     OW29887   0.914   5.048   3.251
 9663SOL    HW129888   0.864   5.061   3.165
 9663SOL    HW229889   0.941   5.137   3.288
 9664SOL     OW29890   5.374   4.033   2.959
 9664SOL    HW129891   5.292   3.976   2.967
 9664SOL    HW229892   5.445   4.000   3.021
 9665SOL     OW29893   5.349   5.438   5.923
 9665SOL    HW129894   5.392   5.376   5.858
 9665SOL    HW229895   5.417   5.502   5.958
 9666SOL     OW29896   5.665   3.463   0.338
 9666SOL    HW129897   5.753   3.430   0.306
 9666SOL    HW229898   5.605   3.481   0.260
 9667SOL     OW29899   5.805   5.907   0.127
 9667SOL    HW129900   5.764   5.997   0.108
 9667SOL    HW229901   5.734   5.845   0.162
 9668SOL     OW29902   0.346   0.271   5.660
 9668SOL    HW129903   0.319   0.319   5.744
 9668SOL    HW229904   0.391   0.185   5.684
 9669SOL     OW29905   3.750   0.139   0.302
 9669SOL    HW129906   3.698   0.160   0.384
 9669SOL    HW229907   3.730   0.207   0.231
 9670SOL     OW29908   0.479   0.266   6.344
 9670SOL    HW129909   0.579   0.275   6.333
 9670SOL    HW229910   0.456   0.170   6.361
 9671SOL     OW29911   1.211   5.226   5.989
 9671SOL    HW129912   1.269   5.176   6.054
 9671SOL    HW229913   1.201   5.171   5.906
 9672SOL     OW29914   0.322   3.346   4.745
 9672SOL    HW129915   0.359   3.411   4.811
 9672SOL    HW229916   0.230   3.374   4.719
 9673SOL     OW29917   2.254   4.183   1.300
 9673SOL    HW129918   2.303   4.103   1.265
 9673SOL    HW229919   2.168   4.154   1.341
 9674SOL     OW29920   2.860   6.362   3.966
 9674SOL    HW129921   2.907   6.445   3.995
 9674SOL    HW229922   2.855   6.297   4.042
 9675SOL     OW29923   4.774   4.258   1.430
 9675SOL    HW129924   4.721   4.233   1.511
 9675SOL    HW229925   4.795   4.176   1.377
 9676SOL     OW29926   1.531   2.951   6.093
 9676SOL    HW129927   1.466   3.008   6.143
 9676SOL    HW229928   1.584   3.008   6.030
 9677SOL     OW29929   6.605   5.354   0.683
 9677SOL    HW129930   6.563   5.352   0.774
 9677SOL    HW229931   6.565   5.427   0.629
 9678SOL     OW29932   3.652   3.398   4.985
 9678SOL    HW129933   3.697   3.344   4.913
 9678SOL    HW229934   3.699   3.486   4.994
 9679SOL     OW29935   1.867   1.411   5.161
 9679SOL    HW129936   1.922   1.443   5.238
 9679SOL    HW229937   1.907   1.326   5.125
 9680SOL     OW29938   4.342   5.640   2.989
 9680SOL    HW129939   4.402   5.704   3.036
 9680SOL    HW229940   4.329   5.670   2.894
 9681SOL     OW29941   1.716   1.880   2.117
 9681SOL    HW129942   1.750   1.970   2.090
 9681SOL    HW229943   1.638   1.890   2.178
 9682SOL     OW29944   4.948   5.387   5.008
 9682SOL    HW129945   4.898   5.472   5.023
 9682SOL    HW229946   4.890   5.321   4.961
 9683SOL     OW29947   3.072   6.202   1.607
 9683SOL    HW129948   2.980   6.237   1.591
 9683SOL    HW229949   3.126   6.211   1.523
 9684SOL     OW29950   1.066   4.177   5.549
 9684SOL    HW129951   0.971   4.160   5.523
 9684SOL    HW229952   1.071   4.258   5.608
 9685SOL     OW29953   3.885   4.827   1.594
 9685SOL    HW129954   3.928   4.756   1.538
 9685SOL    HW229955   3.927   4.915   1.575
 9686SOL     OW29956   0.280   2.177   5.837
 9686SOL    HW129957   0.370   2.179   5.794
 9686SOL    HW229958   0.288   2.200   5.934
 9687SOL     OW29959   5.943   0.684   2.141
 9687SOL    HW129960   6.000   0.614   2.096
 9687SOL    HW229961   6.002   0.749   2.188
 9688SOL     OW29962   0.243   4.454   1.354
 9688SOL    HW129963   0.187   4.474   1.435
 9688SOL    HW229964   0.277   4.540   1.315
 9689SOL     OW29965   1.261   6.743   0.861
 9689SOL    HW129966   1.290   6.826   0.909
 9689SOL    HW229967   1.176   6.760   0.812
 9690SOL     OW29968   5.462   5.227   5.253
 9690SOL    HW129969   5.373   5.184   5.237
 9690SOL    HW229970   5.454   5.326   5.245
 9691SOL     OW29971   3.260   3.531   1.667
 9691SOL    HW129972   3.195   3.515   1.741
 9691SOL    HW229973   3.335   3.465   1.673
 9692SOL     OW29974   4.704   5.098   0.614
 9692SOL    HW129975   4.676   5.120   0.520
 9692SOL    HW229976   4.803   5.116   0.623
 9693SOL     OW29977   5.324   3.767   4.272
 9693SOL    HW129978   5.265   3.687   4.266
 9693SOL    HW229979   5.302   3.830   4.197
 9694SOL     OW29980   3.362   6.450   2.339
 9694SOL    HW129981   3.369   6.350   2.329
 9694SOL    HW229982   3.269   6.478   2.319
 9695SOL     OW29983   0.563   2.591   3.692
 9695SOL    HW129984   0.514   2.647   3.625
 9695SOL    HW229985   0.661   2.606   3.682
 9696SOL     OW29986   5.309   1.774   2.464
 9696SOL    HW129987   5.336   1.695   2.408
 9696SOL    HW229988   5.388   1.806   2.517
 9697SOL     OW29989   0.214   6.040   0.093
 9697SOL    HW129990   0.279   5.978   0.136
 9697SOL    HW229991   0.261   6.123   0.064
 9698SOL     OW29992   5.832   3.708   0.333
 9698SOL    HW129993   5.766   3.655   0.387
 9698SOL    HW229994   5.799   3.717   0.239
 9699SOL     OW29995   1.044   4.872   0.885
 9699SOL    HW129996   0.999   4.944   0.937
 9699SOL    HW229997   0.979   4.799   0.865
 9700SOL     OW29998   5.690   6.465   5.116
 9700SOL    HW129999   5.642   6.491   5.032
 9700SOL    HW230000   5.720   6.547   5.164
 9701SOL     OW30001   4.778   3.174   6.214
 9701SOL    HW130002   4.729   3.146   6.131
 9701SOL    HW230003   4.714   3.178   6.290
 9702SOL     OW30004   3.803   3.224   1.094
 9702SOL    HW130005   3.879   3.289   1.090
 9702SOL    HW230006   3.822   3.154   1.162
 9703SOL     OW30007   6.197   3.931   5.023
 9703SOL    HW130008   6.135   3.924   4.944
 9703SOL    HW230009   6.143   3.941   5.106
 9704SOL     OW30010   2.261   4.196   3.099
 9704SOL    HW130011   2.246   4.105   3.138
 9704SOL    HW230012   2.280   4.261   3.173
 9705SOL     OW30013   5.916   3.745   5.731
 9705SOL    HW130014   5.863   3.694   5.663
 9705SOL    HW230015   6.013   3.736   5.711
 9706SOL     OW30016   1.522   2.091   1.932
 9706SOL    HW130017   1.525   2.189   1.951
 9706SOL    HW230018   1.610   2.062   1.894
 9707SOL     OW30019   6.459   5.031   2.446
 9707SOL    HW130020   6.502   5.070   2.365
 9707SOL    HW230021   6.529   4.995   2.508
 9708SOL     OW30022   2.000   0.504   1.804
 9708SOL    HW130023   2.071   0.562   1.845
 9708SOL    HW230024   2.040   0.452   1.729
 9709SOL     OW30025   5.645   2.286   2.343
 9709SOL    HW130026   5.603   2.201   2.373
 9709SOL    HW230027   5.680   2.275   2.250
 9710SOL     OW30028   5.937   5.335   4.604
 9710SOL    HW130029   5.960   5.307   4.511
 9710SOL    HW230030   5.838   5.337   4.616
 9711SOL     OW30031   3.984   6.818   7.006
 9711SOL    HW130032   3.923   6.854   0.051
 9711SOL    HW230033   4.046   6.891   6.976
 9712SOL     OW30034   5.851   2.227   0.150
 9712SOL    HW130035   5.867   2.145   0.096
 9712SOL    HW230036   5.902   2.303   0.109
 9713SOL     OW30037   1.485   6.275   3.782
 9713SOL    HW130038   1.437   6.351   3.739
 9713SOL    HW230039   1.444   6.189   3.753
 9714SOL     OW30040   3.073   4.960   4.878
 9714SOL    HW130041   3.055   4.915   4.966
 9714SOL    HW230042   3.126   4.898   4.820
 9715SOL     OW30043   6.133   3.979   0.610
 9715SOL    HW130044   6.158   3.904   0.671
 9715SOL    HW230045   6.150   4.066   0.655
 9716SOL     OW30046   2.575   4.892   6.872
 9716SOL    HW130047   2.534   4.803   6.892
 9716SOL    HW230048   2.641   4.915   6.944
 9717SOL     OW30049   4.261   0.822   5.891
 9717SOL    HW130050   4.324   0.899   5.886
 9717SOL    HW230051   4.307   0.744   5.935
 9718SOL     OW30052   2.739   1.934   0.443
 9718SOL    HW130053   2.829   1.966   0.473
 9718SOL    HW230054   2.743   1.836   0.426
 9719SOL     OW30055   4.416   6.329   5.301
 9719SOL    HW130056   4.346   6.374   5.245
 9719SOL    HW230057   4.474   6.399   5.344
 9720SOL     OW30058   2.116   3.976   3.169
 9720SOL    HW130059   2.109   3.932   3.259
 9720SOL    HW230060   2.028   3.970   3.122
 9721SOL     OW30061   0.736   2.093   0.620
 9721SOL    HW130062   0.828   2.055   0.620
 9721SOL    HW230063   0.741   2.191   0.601
 9722SOL     OW30064   3.837   3.018   4.937
 9722SOL    HW130065   3.798   2.966   4.861
 9722SOL    HW230066   3.835   2.962   5.020
 9723SOL     OW30067   6.451   5.442   4.244
 9723SOL    HW130068   6.520   5.418   4.313
 9723SOL    HW230069   6.362   5.452   4.289
 9724SOL     OW30070   0.798   5.448   0.258
 9724SOL    HW130071   0.896   5.466   0.252
 9724SOL    HW230072   0.764   5.475   0.348
 9725SOL     OW30073   3.265   5.285   5.689
 9725SOL    HW130074   3.350   5.233   5.689
 9725SOL    HW230075   3.204   5.250   5.760
 9726SOL     OW30076   5.879   1.103   4.567
 9726SOL    HW130077   5.840   1.016   4.599
 9726SOL    HW230078   5.809   1.153   4.516
 9727SOL     OW30079   1.267   1.501   7.003
 9727SOL    HW130080   1.238   1.418   0.024
 9727SOL    HW230081   1.366   1.499   6.990
 9728SOL     OW30082   5.439   0.032   6.101
 9728SOL    HW130083   5.366   7.021   6.043
 9728SOL    HW230084   5.527   0.016   6.057
 9729SOL     OW30085   0.274   4.871   3.437
 9729SOL    HW130086   0.345   4.910   3.494
 9729SOL    HW230087   0.313   4.842   3.350
 9730SOL     OW30088   0.381   4.116   3.290
 9730SOL    HW130089   0.394   4.105   3.388
 9730SOL    HW230090   0.376   4.026   3.247
 9731SOL     OW30091   5.318   3.804   2.689
 9731SOL    HW130092   5.254   3.811   2.765
 9731SOL    HW230093   5.268   3.804   2.603
 9732SOL     OW30094   1.290   3.324   2.519
 9732SOL    HW130095   1.196   3.357   2.513
 9732SOL    HW230096   1.290   3.229   2.550
 9733SOL     OW30097   6.375   5.231   2.600
 9733SOL    HW130098   6.411   5.155   2.546
 9733SOL    HW230099   6.357   5.309   2.540
 9734SOL     OW30100   6.151   6.858   6.238
 9734SOL    HW130101   6.187   6.949   6.218
 9734SOL    HW230102   6.175   6.796   6.164
 9735SOL     OW30103   1.428   1.954   2.243
 9735SOL    HW130104   1.340   1.999   2.255
 9735SOL    HW230105   1.501   2.011   2.282
 9736SOL     OW30106   4.673   2.600   5.196
 9736SOL    HW130107   4.711   2.517   5.237
 9736SOL    HW230108   4.609   2.643   5.260
 9737SOL     OW30109   5.919   2.092   2.428
 9737SOL    HW130110   5.890   1.996   2.432
 9737SOL    HW230111   5.921   2.122   2.332
 9738SOL     OW30112   1.630   6.042   1.484
 9738SOL    HW130113   1.649   5.944   1.487
 9738SOL    HW230114   1.682   6.089   1.555
 9739SOL     OW30115   5.588   0.276   0.303
 9739SOL    HW130116   5.626   0.213   0.371
 9739SOL    HW230117   5.489   0.282   0.315
 9740SOL     OW30118   6.941   0.783   2.771
 9740SOL    HW130119   6.978   0.866   2.814
 9740SOL    HW230120   6.854   0.759   2.814
 9741SOL     OW30121   3.243   1.206   4.647
 9741SOL    HW130122   3.300   1.282   4.680
 9741SOL    HW230123   3.298   1.146   4.588
 9742SOL     OW30124   4.205   2.316   6.059
 9742SOL    HW130125   4.130   2.319   5.993
 9742SOL    HW230126   4.292   2.317   6.010
 9743SOL     OW30127   6.210   2.907   3.767
 9743SOL    HW130128   6.170   2.873   3.682
 9743SOL    HW230129   6.139   2.950   3.822
 9744SOL     OW30130   1.676   7.023   3.704
 9744SOL    HW130131   1.737   0.002   3.625
 9744SOL    HW230132   1.628   0.084   3.715
 9745SOL     OW30133   6.667   0.880   5.682
 9745SOL    HW130134   6.764   0.892   5.664
 9745SOL    HW230135   6.636   0.793   5.644
 9746SOL     OW30136   4.725   5.399   5.930
 9746SOL    HW130137   4.731   5.300   5.915
 9746SOL    HW230138   4.776   5.423   6.012
 9747SOL     OW30139   2.317   2.798   2.042
 9747SOL    HW130140   2.345   2.760   2.131
 9747SOL    HW230141   2.351   2.740   1.969
 9748SOL     OW30142   1.313   0.662   3.122
 9748SOL    HW130143   1.277   0.620   3.039
 9748SOL    HW230144   1.375   0.598   3.168
 9749SOL     OW30145   6.884   1.835   2.431
 9749SOL    HW130146   6.923   1.794   2.514
 9749SOL    HW230147   6.866   1.763   2.364
 9750SOL     OW30148   6.332   4.261   3.717
 9750SOL    HW130149   6.260   4.275   3.648
 9750SOL    HW230150   6.382   4.346   3.731
 9751SOL     OW30151   2.442   1.023   1.631
 9751SOL    HW130152   2.501   1.047   1.554
 9751SOL    HW230153   2.463   1.082   1.709
 9752SOL     OW30154   3.735   2.771   0.523
 9752SOL    HW130155   3.668   2.839   0.554
 9752SOL    HW230156   3.688   2.687   0.498
 9753SOL     OW30157   6.219   6.044   5.151
 9753SOL    HW130158   6.223   6.039   5.251
 9753SOL    HW230159   6.235   5.954   5.112
 9754SOL     OW30160   3.535   0.444   1.326
 9754SOL    HW130161   3.457   0.494   1.365
 9754SOL    HW230162   3.619   0.474   1.370
 9755SOL     OW30163   3.546   4.139   6.302
 9755SOL    HW130164   3.598   4.054   6.291
 9755SOL    HW230165   3.574   4.184   6.387
 9756SOL     OW30166   6.048   0.853   6.502
 9756SOL    HW130167   5.949   0.850   6.516
 9756SOL    HW230168   6.077   0.947   6.485
 9757SOL     OW30169   4.947   3.887   4.098
 9757SOL    HW130170   4.904   3.894   4.008
 9757SOL    HW230171   5.013   3.811   4.097
 9758SOL     OW30172   2.079   0.426   0.862
 9758SOL    HW130173   2.172   0.432   0.826
 9758SOL    HW230174   2.068   0.340   0.911
 9759SOL     OW30175   1.500   1.626   0.397
 9759SOL    HW130176   1.454   1.710   0.369
 9759SOL    HW230177   1.598   1.634   0.376
 9760SOL     OW30178   4.405   1.839   0.609
 9760SOL    HW130179   4.441   1.857   0.700
 9760SOL    HW230180   4.457   1.890   0.540
 9761SOL     OW30181   1.556   1.371   1.659
 9761SOL    HW130182   1.651   1.387   1.631
 9761SOL    HW230183   1.550   1.372   1.759
 9762SOL     OW30184   2.814   1.879   5.837
 9762SOL    HW130185   2.771   1.956   5.790
 9762SOL    HW230186   2.902   1.908   5.874
 9763SOL     OW30187   6.609   1.558   1.502
 9763SOL    HW130188   6.655   1.645   1.488
 9763SOL    HW230189   6.519   1.560   1.458
 9764SOL     OW30190   5.417   1.633   2.253
 9764SOL    HW130191   5.387   1.539   2.266
 9764SOL    HW230192   5.452   1.645   2.160
 9765SOL     OW30193   6.608   1.705   2.207
 9765SOL    HW130194   6.638   1.635   2.271
 9765SOL    HW230195   6.687   1.758   2.176
 9766SOL     OW30196   1.973   0.826   4.124
 9766SOL    HW130197   1.940   0.901   4.182
 9766SOL    HW230198   2.017   0.865   4.043
 9767SOL     OW30199   2.100   3.109   5.766
 9767SOL    HW130200   2.112   3.012   5.789
 9767SOL    HW230201   2.156   3.165   5.827
 9768SOL     OW30202   5.807   2.452   1.013
 9768SOL    HW130203   5.878   2.485   1.075
 9768SOL    HW230204   5.828   2.479   0.919
 9769SOL     OW30205   2.841   1.749   5.162
 9769SOL    HW130206   2.829   1.714   5.069
 9769SOL    HW230207   2.916   1.814   5.163
 9770SOL     OW30208   3.226   2.115   6.594
 9770SOL    HW130209   3.156   2.067   6.541
 9770SOL    HW230210   3.183   2.157   6.674
 9771SOL     OW30211   2.330   5.985   2.643
 9771SOL    HW130212   2.367   5.896   2.615
 9771SOL    HW230213   2.251   6.008   2.585
 9772SOL     OW30214   1.183   6.271   1.915
 9772SOL    HW130215   1.245   6.332   1.866
 9772SOL    HW230216   1.236   6.209   1.972
 9773SOL     OW30217   5.088   5.469   2.226
 9773SOL    HW130218   5.136   5.545   2.271
 9773SOL    HW230219   5.053   5.500   2.137
 9774SOL     OW30220   0.547   5.607   4.653
 9774SOL    HW130221   0.457   5.605   4.609
 9774SOL    HW230222   0.603   5.533   4.617
 9775SOL     OW30223   2.532   1.041   3.932
 9775SOL    HW130224   2.568   0.977   4.000
 9775SOL    HW230225   2.493   1.121   3.979
 9776SOL     OW30226   1.493   5.725   6.290
 9776SOL    HW130227   1.541   5.637   6.289
 9776SOL    HW230228   1.406   5.715   6.338
 9777SOL     OW30229   5.567   6.776   6.430
 9777SOL    HW130230   5.592   6.702   6.492
 9777SOL    HW230231   5.557   6.862   6.481
 9778SOL     OW30232   0.668   1.854   4.231
 9778SOL    HW130233   0.723   1.938   4.233
 9778SOL    HW230234   0.647   1.826   4.324
 9779SOL     OW30235   0.906   2.072   3.788
 9779SOL    HW130236   0.843   2.147   3.763
 9779SOL    HW230237   0.872   1.986   3.750
 9780SOL     OW30238   1.619   1.811   1.285
 9780SOL    HW130239   1.521   1.801   1.270
 9780SOL    HW230240   1.644   1.767   1.372
 9781SOL     OW30241   0.953   3.206   3.514
 9781SOL    HW130242   1.000   3.130   3.470
 9781SOL    HW230243   1.013   3.287   3.513
 9782SOL     OW30244   0.234   2.321   0.994
 9782SOL    HW130245   0.239   2.233   0.946
 9782SOL    HW230246   0.323   2.366   0.988
 9783SOL     OW30247   3.592   1.321   3.559
 9783SOL    HW130248   3.509   1.284   3.600
 9783SOL    HW230249   3.602   1.286   3.466
 9784SOL     OW30250   2.153   1.708   0.605
 9784SOL    HW130251   2.182   1.792   0.560
 9784SOL    HW230252   2.187   1.629   0.553
 9785SOL     OW30253   6.998   2.193   4.699
 9785SOL    HW130254   0.012   2.221   4.612
 9785SOL    HW230255   6.958   2.272   4.745
 9786SOL     OW30256   2.158   4.551   0.991
 9786SOL    HW130257   2.175   4.616   0.917
 9786SOL    HW230258   2.069   4.508   0.978
 9787SOL     OW30259   3.612   2.946   2.764
 9787SOL    HW130260   3.669   3.020   2.729
 9787SOL    HW230261   3.656   2.906   2.844
 9788SOL     OW30262   0.145   6.443   2.057
 9788SOL    HW130263   0.126   6.424   2.154
 9788SOL    HW230264   0.238   6.478   2.047
 9789SOL     OW30265   3.096   6.840   6.618
 9789SOL    HW130266   3.070   6.936   6.607
 9789SOL    HW230267   3.060   6.806   6.705
 9790SOL     OW30268   6.545   3.894   4.486
 9790SOL    HW130269   6.576   3.921   4.395
 9790SOL    HW230270   6.612   3.924   4.554
 9791SOL     OW30271   0.898   6.439   0.674
 9791SOL    HW130272   0.876   6.503   0.601
 9791SOL    HW230273   0.814   6.391   0.702
 9792SOL     OW30274   3.774   5.841   0.908
 9792SOL    HW130275   3.688   5.795   0.884
 9792SOL    HW230276   3.816   5.878   0.825
 9793SOL     OW30277   4.523   1.548   2.712
 9793SOL    HW130278   4.565   1.608   2.780
 9793SOL    HW230279   4.435   1.586   2.683
 9794SOL     OW30280   4.769   4.815   4.906
 9794SOL    HW130281   4.773   4.891   4.841
 9794SOL    HW230282   4.700   4.749   4.877
 9795SOL     OW30283   0.819   3.154   3.775
 9795SOL    HW130284   0.881   3.160   3.696
 9795SOL    HW230285   0.730   3.193   3.750
 9796SOL     OW30286   3.263   4.091   3.575
 9796SOL    HW130287   3.292   4.183   3.599
 9796SOL    HW230288   3.276   4.030   3.653
 9797SOL     OW30289   2.882   6.355   0.028
 9797SOL    HW130290   2.784   6.361   0.044
 9797SOL    HW230291   2.930   6.357   0.116
 9798SOL     OW30292   1.150   3.224   0.909
 9798SOL    HW130293   1.069   3.177   0.943
 9798SOL    HW230294   1.221   3.221   0.979
 9799SOL     OW30295   2.650   6.028   6.758
 9799SOL    HW130296   2.637   6.016   6.857
 9799SOL    HW230297   2.727   5.972   6.727
 9800SOL     OW30298   5.659   2.977   4.055
 9800SOL    HW130299   5.584   3.003   3.993
 9800SOL    HW230300   5.720   2.913   4.009
 9801SOL     OW30301   6.130   5.094   6.273
 9801SOL    HW130302   6.186   5.083   6.191
 9801SOL    HW230303   6.171   5.042   6.348
 9802SOL     OW30304   4.275   5.036   1.375
 9802SOL    HW130305   4.188   4.999   1.342
 9802SOL    HW230306   4.348   5.013   1.309
 9803SOL     OW30307   1.058   3.952   6.346
 9803SOL    HW130308   1.147   3.988   6.321
 9803SOL    HW230309   0.986   4.006   6.302
 9804SOL     OW30310   6.587   5.724   3.054
 9804SOL    HW130311   6.594   5.628   3.028
 9804SOL    HW230312   6.510   5.737   3.116
 9805SOL     OW30313   0.055   6.803   3.719
 9805SOL    HW130314   0.001   6.734   3.671
 9805SOL    HW230315   0.116   6.758   3.784
 9806SOL     OW30316   3.894   2.891   6.430
 9806SOL    HW130317   3.879   2.947   6.349
 9806SOL    HW230318   3.809   2.884   6.482
 9807SOL     OW30319   2.988   3.195   2.185
 9807SOL    HW130320   3.054   3.210   2.111
 9807SOL    HW230321   2.900   3.169   2.147
 9808SOL     OW30322   4.561   6.311   3.991
 9808SOL    HW130323   4.610   6.331   3.906
 9808SOL    HW230324   4.466   6.288   3.970
 9809SOL     OW30325   0.142   2.618   0.588
 9809SOL    HW130326   0.123   2.704   0.541
 9809SOL    HW230327   0.188   2.637   0.675
 9810SOL     OW30328   2.215   1.597   5.941
 9810SOL    HW130329   2.223   1.693   5.966
 9810SOL    HW230330   2.303   1.551   5.955
 9811SOL     OW30331   6.231   3.884   4.057
 9811SOL    HW130332   6.329   3.868   4.064
 9811SOL    HW230333   6.183   3.819   4.116
 9812SOL     OW30334   2.586   6.673   4.574
 9812SOL    HW130335   2.529   6.592   4.580
 9812SOL    HW230336   2.626   6.693   4.663
 9813SOL     OW30337   5.231   2.485   0.518
 9813SOL    HW130338   5.196   2.525   0.603
 9813SOL    HW230339   5.198   2.391   0.510
 9814SOL     OW30340   5.856   1.945   0.015
 9814SOL    HW130341   5.767   1.903   0.031
 9814SOL    HW230342   5.924   1.906   0.078
 9815SOL     OW30343   4.636   2.672   4.508
 9815SOL    HW130344   4.581   2.746   4.471
 9815SOL    HW230345   4.677   2.701   4.595
 9816SOL     OW30346   1.294   0.393   0.485
 9816SOL    HW130347   1.316   0.418   0.580
 9816SOL    HW230348   1.273   0.295   0.481
 9817SOL     OW30349   0.263   0.246   3.468
 9817SOL    HW130350   0.203   0.311   3.515
 9817SOL    HW230351   0.256   0.260   3.369
 9818SOL     OW30352   6.052   2.101   4.595
 9818SOL    HW130353   6.152   2.093   4.591
 9818SOL    HW230354   6.025   2.122   4.689
 9819SOL     OW30355   3.835   1.769   3.529
 9819SOL    HW130356   3.750   1.779   3.581
 9819SOL    HW230357   3.815   1.725   3.441
 9820SOL     OW30358   3.624   4.322   5.632
 9820SOL    HW130359   3.538   4.295   5.589
 9820SOL    HW230360   3.626   4.287   5.726
 9821SOL     OW30361   5.437   5.791   6.962
 9821SOL    HW130362   5.483   5.877   6.942
 9821SOL    HW230363   5.394   5.756   6.879
 9822SOL     OW30364   0.256   6.867   2.891
 9822SOL    HW130365   0.199   6.854   2.810
 9822SOL    HW230366   0.280   6.964   2.899
 9823SOL     OW30367   3.495   0.933   2.683
 9823SOL    HW130368   3.398   0.910   2.674
 9823SOL    HW230369   3.529   0.967   2.595
 9824SOL     OW30370   0.807   4.100   5.447
 9824SOL    HW130371   0.775   4.119   5.354
 9824SOL    HW230372   0.791   4.003   5.468
 9825SOL     OW30373   3.875   4.743   5.759
 9825SOL    HW130374   3.839   4.756   5.666
 9825SOL    HW230375   3.833   4.663   5.800
 9826SOL     OW30376   4.517   6.022   6.237
 9826SOL    HW130377   4.436   5.973   6.205
 9826SOL    HW230378   4.573   6.048   6.158
 9827SOL     OW30379   1.992   4.172   4.718
 9827SOL    HW130380   2.091   4.188   4.728
 9827SOL    HW230381   1.976   4.075   4.703
 9828SOL     OW30382   3.665   2.822   6.568
 9828SOL    HW130383   3.639   2.850   6.660
 9828SOL    HW230384   3.608   2.869   6.501
 9829SOL     OW30385   3.153   6.585   0.775
 9829SOL    HW130386   3.055   6.602   0.760
 9829SOL    HW230387   3.204   6.669   0.760
 9830SOL     OW30388   5.490   1.632   1.016
 9830SOL    HW130389   5.536   1.695   1.079
 9830SOL    HW230390   5.537   1.544   1.016
 9831SOL     OW30391   1.070   6.600   1.075
 9831SOL    HW130392   0.981   6.621   1.034
 9831SOL    HW230393   1.141   6.606   1.006
 9832SOL     OW30394   4.384   5.409   2.702
 9832SOL    HW130395   4.473   5.451   2.682
 9832SOL    HW230396   4.312   5.457   2.652
 9833SOL     OW30397   3.398   3.354   4.851
 9833SOL    HW130398   3.474   3.374   4.913
 9833SOL    HW230399   3.314   3.342   4.903
 9834SOL     OW30400   2.569   3.814   5.497
 9834SOL    HW130401   2.623   3.855   5.423
 9834SOL    HW230402   2.583   3.715   5.496
 9835SOL     OW30403   4.971   1.775   4.221
 9835SOL    HW130404   5.064   1.800   4.249
 9835SOL    HW230405   4.974   1.729   4.133
 9836SOL     OW30406   5.500   3.681   3.136
 9836SOL    HW130407   5.440   3.604   3.114
 9836SOL    HW230408   5.456   3.738   3.206
 9837SOL     OW30409   2.099   0.264   3.593
 9837SOL    HW130410   2.082   0.203   3.516
 9837SOL    HW230411   2.165   0.223   3.655
 9838SOL     OW30412   1.291   6.503   5.941
 9838SOL    HW130413   1.244   6.580   5.897
 9838SOL    HW230414   1.251   6.417   5.909
 9839SOL     OW30415   0.081   1.905   2.140
 9839SOL    HW130416   0.110   1.998   2.161
 9839SOL    HW230417   7.008   1.898   2.150
 9840SOL     OW30418   0.130   0.546   0.685
 9840SOL    HW130419   0.050   0.514   0.735
 9840SOL    HW230420   0.141   0.645   0.700
 9841SOL     OW30421   1.281   4.123   4.709
 9841SOL    HW130422   1.299   4.046   4.648
 9841SOL    HW230423   1.326   4.106   4.797
 9842SOL     OW30424   3.315   3.218   3.347
 9842SOL    HW130425   3.347   3.306   3.382
 9842SOL    HW230426   3.340   3.209   3.251
 9843SOL     OW30427   6.547   2.243   1.355
 9843SOL    HW130428   6.459   2.290   1.347
 9843SOL    HW230429   6.538   2.149   1.322
 9844SOL     OW30430   4.291   0.003   3.180
 9844SOL    HW130431   4.244   6.940   3.174
 9844SOL    HW230432   4.269   0.058   3.100
 9845SOL     OW30433   2.494   1.768   5.094
 9845SOL    HW130434   2.414   1.823   5.113
 9845SOL    HW230435   2.530   1.731   5.180
 9846SOL     OW30436   2.955   3.801   3.295
 9846SOL    HW130437   2.988   3.719   3.247
 9846SOL    HW230438   2.919   3.776   3.384
 9847SOL     OW30439   3.012   2.905   6.223
 9847SOL    HW130440   2.913   2.890   6.216
 9847SOL    HW230441   3.050   2.844   6.293
 9848SOL     OW30442   4.226   2.377   6.673
 9848SOL    HW130443   4.268   2.287   6.662
 9848SOL    HW230444   4.262   2.439   6.603
 9849SOL     OW30445   6.169   0.420   6.717
 9849SOL    HW130446   6.246   0.484   6.717
 9849SOL    HW230447   6.084   0.470   6.704
 9850SOL     OW30448   4.372   6.375   2.446
 9850SOL    HW130449   4.455   6.426   2.421
 9850SOL    HW230450   4.380   6.282   2.412
 9851SOL     OW30451   4.263   1.783   5.225
 9851SOL    HW130452   4.230   1.689   5.230
 9851SOL    HW230453   4.282   1.807   5.130
 9852SOL     OW30454   4.300   1.661   3.351
 9852SOL    HW130455   4.365   1.614   3.411
 9852SOL    HW230456   4.321   1.759   3.350
 9853SOL     OW30457   5.181   3.709   2.469
 9853SOL    HW130458   5.090   3.747   2.458
 9853SOL    HW230459   5.178   3.610   2.454
 9854SOL     OW30460   6.212   5.146   5.185
 9854SOL    HW130461   6.126   5.187   5.216
 9854SOL    HW230462   6.226   5.059   5.233
 9855SOL     OW30463   0.479   4.298   1.284
 9855SOL    HW130464   0.400   4.359   1.288
 9855SOL    HW230465   0.559   4.349   1.251
 9856SOL     OW30466   3.941   4.539   0.129
 9856SOL    HW130467   3.985   4.568   0.044
 9856SOL    HW230468   4.002   4.557   0.206
 9857SOL     OW30469   5.099   1.618   2.972
 9857SOL    HW130470   5.082   1.525   3.003
 9857SOL    HW230471   5.197   1.636   2.973
 9858SOL     OW30472   5.368   0.722   1.691
 9858SOL    HW130473   5.307   0.696   1.764
 9858SOL    HW230474   5.369   0.651   1.620
 9859SOL     OW30475   6.747   0.128   1.628
 9859SOL    HW130476   6.842   0.104   1.648
 9859SOL    HW230477   6.712   0.069   1.555
 9860SOL     OW30478   0.608   1.301   1.734
 9860SOL    HW130479   0.551   1.257   1.664
 9860SOL    HW230480   0.571   1.280   1.824
 9861SOL     OW30481   3.596   6.675   4.690
 9861SOL    HW130482   3.519   6.716   4.641
 9861SOL    HW230483   3.566   6.592   4.737
 9862SOL     OW30484   2.615   3.447   0.468
 9862SOL    HW130485   2.634   3.368   0.526
 9862SOL    HW230486   2.701   3.483   0.432
 9863SOL     OW30487   2.685   0.122   2.862
 9863SOL    HW130488   2.685   0.206   2.807
 9863SOL    HW230489   2.774   0.078   2.856
 9864SOL     OW30490   4.225   6.126   3.686
 9864SOL    HW130491   4.208   6.063   3.610
 9864SOL    HW230492   4.187   6.216   3.664
 9865SOL     OW30493   0.907   1.175   3.266
 9865SOL    HW130494   0.926   1.251   3.204
 9865SOL    HW230495   0.908   1.089   3.214
 9866SOL     OW30496   4.961   4.633   4.852
 9866SOL    HW130497   4.898   4.701   4.890
 9866SOL    HW230498   4.960   4.551   4.910
 9867SOL     OW30499   4.243   1.031   0.804
 9867SOL    HW130500   4.255   1.111   0.745
 9867SOL    HW230501   4.179   1.052   0.877
 9868SOL     OW30502   1.364   4.938   6.278
 9868SOL    HW130503   1.396   5.023   6.237
 9868SOL    HW230504   1.433   4.903   6.342
 9869SOL     OW30505   1.924   4.023   3.539
 9869SOL    HW130506   1.961   3.982   3.456
 9869SOL    HW230507   1.942   4.121   3.540
 9870SOL     OW30508   4.302   5.970   2.237
 9870SOL    HW130509   4.368   6.021   2.291
 9870SOL    HW230510   4.348   5.929   2.158
 9871SOL     OW30511   0.927   6.724   6.143
 9871SOL    HW130512   0.906   6.805   6.198
 9871SOL    HW230513   0.936   6.644   6.203
 9872SOL     OW30514   2.602   4.945   2.984
 9872SOL    HW130515   2.659   4.919   2.906
 9872SOL    HW230516   2.584   4.864   3.040
 9873SOL     OW30517   2.433   2.426   1.259
 9873SOL    HW130518   2.453   2.368   1.180
 9873SOL    HW230519   2.334   2.438   1.268
 9874SOL     OW30520   0.752   2.182   4.328
 9874SOL    HW130521   0.733   2.182   4.426
 9874SOL    HW230522   0.817   2.109   4.307
 9875SOL     OW30523   0.191   0.421   2.246
 9875SOL    HW130524   0.144   0.335   2.224
 9875SOL    HW230525   0.246   0.409   2.329
 9876SOL     OW30526   0.051   0.598   2.595
 9876SOL    HW130527   0.089   0.533   2.661
 9876SOL    HW230528   7.017   0.662   2.642
 9877SOL     OW30529   1.583   5.818   2.775
 9877SOL    HW130530   1.578   5.762   2.693
 9877SOL    HW230531   1.678   5.825   2.805
 9878SOL     OW30532   2.277   5.069   5.246
 9878SOL    HW130533   2.215   4.991   5.263
 9878SOL    HW230534   2.262   5.103   5.154
 9879SOL     OW30535   5.670   5.373   4.603
 9879SOL    HW130536   5.637   5.280   4.591
 9879SOL    HW230537   5.597   5.437   4.579
 9880SOL     OW30538   1.647   2.755   5.363
 9880SOL    HW130539   1.721   2.775   5.429
 9880SOL    HW230540   1.576   2.824   5.373
 9881SOL     OW30541   1.928   2.432   5.112
 9881SOL    HW130542   2.023   2.448   5.137
 9881SOL    HW230543   1.873   2.512   5.135
 9882SOL     OW30544   1.588   2.176   3.519
 9882SOL    HW130545   1.588   2.225   3.432
 9882SOL    HW230546   1.656   2.217   3.580
 9883SOL     OW30547   0.807   6.176   0.904
 9883SOL    HW130548   0.738   6.208   0.838
 9883SOL    HW230549   0.784   6.209   0.995
 9884SOL     OW30550   4.034   1.621   3.262
 9884SOL    HW130551   4.128   1.640   3.289
 9884SOL    HW230552   3.984   1.707   3.252
 9885SOL     OW30553   0.424   3.453   5.424
 9885SOL    HW130554   0.510   3.419   5.461
 9885SOL    HW230555   0.348   3.412   5.475
 9886SOL     OW30556   0.475   4.685   2.171
 9886SOL    HW130557   0.546   4.656   2.236
 9886SOL    HW230558   0.461   4.783   2.179
 9887SOL     OW30559   3.834   1.323   6.054
 9887SOL    HW130560   3.873   1.385   6.122
 9887SOL    HW230561   3.741   1.299   6.079
 9888SOL     OW30562   0.400   4.406   0.920
 9888SOL    HW130563   0.360   4.383   1.009
 9888SOL    HW230564   0.378   4.334   0.855
 9889SOL     OW30565   6.544   5.059   0.716
 9889SOL    HW130566   6.599   5.126   0.666
 9889SOL    HW230567   6.470   5.026   0.657
 9890SOL     OW30568   1.878   2.251   0.377
 9890SOL    HW130569   1.808   2.184   0.400
 9890SOL    HW230570   1.969   2.208   0.381
 9891SOL     OW30571   5.843   3.144   0.800
 9891SOL    HW130572   5.882   3.053   0.815
 9891SOL    HW230573   5.758   3.152   0.852
 9892SOL     OW30574   6.481   6.061   0.254
 9892SOL    HW130575   6.474   6.123   0.176
 9892SOL    HW230576   6.389   6.034   0.284
 9893SOL     OW30577   1.408   0.448   0.745
 9893SOL    HW130578   1.360   0.361   0.759
 9893SOL    HW230579   1.497   0.430   0.704
 9894SOL     OW30580   1.962   2.192   1.175
 9894SOL    HW130581   2.010   2.244   1.104
 9894SOL    HW230582   1.882   2.147   1.135
 9895SOL     OW30583   5.365   3.290   5.296
 9895SOL    HW130584   5.334   3.382   5.320
 9895SOL    HW230585   5.333   3.267   5.204
 9896SOL     OW30586   6.124   0.236   6.357
 9896SOL    HW130587   6.055   0.306   6.342
 9896SOL    HW230588   6.105   0.188   6.442
 9897SOL     OW30589   5.689   5.677   3.074
 9897SOL    HW130590   5.727   5.701   3.164
 9897SOL    HW230591   5.616   5.740   3.051
 9898SOL     OW30592   2.712   5.934   6.354
 9898SOL    HW130593   2.781   5.868   6.385
 9898SOL    HW230594   2.741   6.027   6.377
 9899SOL     OW30595   0.150   5.808   0.760
 9899SOL    HW130596   0.115   5.889   0.806
 9899SOL    HW230597   0.250   5.810   0.759
 9900SOL     OW30598   1.338   3.924   3.899
 9900SOL    HW130599   1.294   3.874   3.825
 9900SOL    HW230600   1.327   4.022   3.884
 9901SOL     OW30601   3.086   1.562   6.005
 9901SOL    HW130602   3.177   1.587   6.039
 9901SOL    HW230603   3.095   1.506   5.923
 9902SOL     OW30604   3.002   5.048   0.219
 9902SOL    HW130605   2.958   4.959   0.203
 9902SOL    HW230606   3.047   5.078   0.135
 9903SOL     OW30607   5.072   0.873   1.942
 9903SOL    HW130608   5.131   0.886   1.862
 9903SOL    HW230609   5.049   0.776   1.951
 9904SOL     OW30610   1.173   3.162   6.882
 9904SOL    HW130611   1.090   3.217   6.883
 9904SOL    HW230612   1.234   3.194   6.809
 9905SOL     OW30613   3.429   1.057   0.345
 9905SOL    HW130614   3.376   1.041   0.261
 9905SOL    HW230615   3.514   1.105   0.322
 9906SOL     OW30616   2.979   3.139   1.783
 9906SOL    HW130617   3.038   3.063   1.754
 9906SOL    HW230618   3.027   3.193   1.853
 9907SOL     OW30619   6.676   1.053   0.261
 9907SOL    HW130620   6.615   1.049   0.182
 9907SOL    HW230621   6.710   1.147   0.272
 9908SOL     OW30622   5.488   1.775   3.832
 9908SOL    HW130623   5.444   1.712   3.897
 9908SOL    HW230624   5.511   1.725   3.748
 9909SOL     OW30625   3.700   0.222   4.096
 9909SOL    HW130626   3.614   0.236   4.145
 9909SOL    HW230627   3.758   0.303   4.108
 9910SOL     OW30628   0.656   3.665   2.240
 9910SOL    HW130629   0.731   3.723   2.206
 9910SOL    HW230630   0.568   3.709   2.220
 9911SOL     OW30631   3.160   6.575   2.234
 9911SOL    HW130632   3.089   6.636   2.199
 9911SOL    HW230633   3.248   6.622   2.233
 9912SOL     OW30634   3.744   1.595   1.913
 9912SOL    HW130635   3.823   1.607   1.974
 9912SOL    HW230636   3.661   1.627   1.958
 9913SOL     OW30637   6.278   4.227   0.306
 9913SOL    HW130638   6.267   4.318   0.344
 9913SOL    HW230639   6.318   4.166   0.375
 9914SOL     OW30640   5.476   2.747   5.239
 9914SOL    HW130641   5.430   2.740   5.328
 9914SOL    HW230642   5.510   2.658   5.211
 9915SOL     OW30643   5.101   0.655   3.518
 9915SOL    HW130644   5.058   0.745   3.522
 9915SOL    HW230645   5.112   0.627   3.423
 9916SOL     OW30646   2.207   3.123   3.107
 9916SOL    HW130647   2.126   3.170   3.143
 9916SOL    HW230648   2.258   3.082   3.182
 9917SOL     OW30649   5.780   3.916   7.011
 9917SOL    HW130650   5.712   3.970   0.036
 9917SOL    HW230651   5.759   3.819   7.022
 9918SOL     OW30652   3.066   1.688   3.210
 9918SOL    HW130653   2.985   1.638   3.241
 9918SOL    HW230654   3.087   1.761   3.275
 9919SOL     OW30655   5.909   5.388   1.211
 9919SOL    HW130656   5.851   5.469   1.207
 9919SOL    HW230657   6.003   5.412   1.189
 9920SOL     OW30658   4.633   1.863   1.839
 9920SOL    HW130659   4.553   1.812   1.870
 9920SOL    HW230660   4.662   1.927   1.911
 9921SOL     OW30661   4.901   6.003   6.490
 9921SOL    HW130662   4.984   5.946   6.483
 9921SOL    HW230663   4.881   6.020   6.586
 9922SOL     OW30664   1.831   4.944   0.563
 9922SOL    HW130665   1.822   5.042   0.550
 9922SOL    HW230666   1.746   4.906   0.600
 9923SOL     OW30667   5.013   4.856   6.951
 9923SOL    HW130668   5.101   4.844   6.997
 9923SOL    HW230669   4.972   4.766   6.933
 9924SOL     OW30670   6.688   2.407   5.064
 9924SOL    HW130671   6.693   2.505   5.082
 9924SOL    HW230672   6.727   2.357   5.141
 9925SOL     OW30673   6.790   3.688   3.897
 9925SOL    HW130674   6.831   3.648   3.979
 9925SOL    HW230675   6.857   3.745   3.850
 9926SOL     OW30676   2.905   3.165   0.353
 9926SOL    HW130677   2.923   3.211   0.266
 9926SOL    HW230678   2.906   3.231   0.427
 9927SOL     OW30679   0.294   0.301   1.405
 9927SOL    HW130680   0.344   0.252   1.477
 9927SOL    HW230681   0.359   0.342   1.341
 9928SOL     OW30682   5.036   6.381   1.888
 9928SOL    HW130683   5.099   6.352   1.816
 9928SOL    HW230684   4.948   6.336   1.875
 9929SOL     OW30685   2.322   5.270   4.569
 9929SOL    HW130686   2.367   5.201   4.511
 9929SOL    HW230687   2.284   5.225   4.650
 9930SOL     OW30688   6.470   6.998   4.901
 9930SOL    HW130689   6.472   6.997   5.001
 9930SOL    HW230690   6.560   7.024   4.866
 9931SOL     OW30691   1.053   4.888   4.847
 9931SOL    HW130692   1.101   4.910   4.932
 9931SOL    HW230693   1.087   4.947   4.773
 9932SOL     OW30694   1.910   5.150   6.676
 9932SOL    HW130695   1.912   5.059   6.634
 9932SOL    HW230696   1.971   5.151   6.756
 9933SOL     OW30697   1.334   5.266   3.000
 9933SOL    HW130698   1.309   5.248   2.904
 9933SOL    HW230699   1.420   5.317   3.003
 9934SOL     OW30700   5.986   1.269   5.274
 9934SOL    HW130701   5.993   1.196   5.206
 9934SOL    HW230702   5.895   1.269   5.314
 9935SOL     OW30703   3.239   0.157   6.717
 9935SOL    HW130704   3.336   0.169   6.738
 9935SOL    HW230705   3.207   0.071   6.757
 9936SOL     OW30706   6.904   5.230   6.107
 9936SOL    HW130707   7.001   5.241   6.086
 9936SOL    HW230708   6.894   5.189   6.197
 9937SOL     OW30709   6.886   1.828   6.264
 9937SOL    HW130710   6.801   1.856   6.309
 9937SOL    HW230711   6.865   1.786   6.176
 9938SOL     OW30712   6.760   5.178   3.104
 9938SOL    HW130713   6.719   5.134   3.184
 9938SOL    HW230714   6.853   5.143   3.090
 9939SOL     OW30715   3.712   2.085   0.404
 9939SOL    HW130716   3.802   2.064   0.365
 9939SOL    HW230717   3.675   2.166   0.360
 9940SOL     OW30718   1.006   1.067   0.865
 9940SOL    HW130719   0.959   1.142   0.818
 9940SOL    HW230720   0.955   1.043   0.948
 9941SOL     OW30721   3.093   3.564   5.066
 9941SOL    HW130722   3.036   3.560   5.148
 9941SOL    HW230723   3.159   3.638   5.075
 9942SOL     OW30724   2.177   5.115   2.772
 9942SOL    HW130725   2.275   5.127   2.791
 9942SOL    HW230726   2.153   5.164   2.688
 9943SOL     OW30727   6.815   5.864   5.187
 9943SOL    HW130728   6.882   5.854   5.261
 9943SOL    HW230729   6.790   5.960   5.179
 9944SOL     OW30730   2.081   5.199   5.944
 9944SOL    HW130731   2.043   5.254   5.870
 9944SOL    HW230732   2.007   5.168   6.004
 9945SOL     OW30733   6.177   5.419   0.035
 9945SOL    HW130734   6.105   5.463   7.005
 9945SOL    HW230735   6.161   5.439   0.131
 9946SOL     OW30736   4.905   0.987   4.859
 9946SOL    HW130737   4.856   1.068   4.827
 9946SOL    HW230738   4.854   0.945   4.934
 9947SOL     OW30739   1.209   3.767   5.517
 9947SOL    HW130740   1.185   3.776   5.421
 9947SOL    HW230741   1.265   3.844   5.545
 9948SOL     OW30742   5.618   4.458   4.116
 9948SOL    HW130743   5.659   4.405   4.041
 9948SOL    HW230744   5.671   4.444   4.200
 9949SOL     OW30745   5.576   5.427   3.523
 9949SOL    HW130746   5.547   5.436   3.428
 9949SOL    HW230747   5.544   5.507   3.575
 9950SOL     OW30748   5.727   5.715   5.151
 9950SOL    HW130749   5.729   5.789   5.083
 9950SOL    HW230750   5.781   5.740   5.231
 9951SOL     OW30751   5.853   1.533   4.592
 9951SOL    HW130752   5.760   1.564   4.573
 9951SOL    HW230753   5.918   1.588   4.540
 9952SOL     OW30754   0.191   3.455   0.779
 9952SOL    HW130755   0.177   3.497   0.869
 9952SOL    HW230756   0.284   3.475   0.747
 9953SOL     OW30757   6.415   2.466   4.007
 9953SOL    HW130758   6.411   2.541   3.940
 9953SOL    HW230759   6.370   2.495   4.091
 9954SOL     OW30760   5.546   6.345   5.878
 9954SOL    HW130761   5.572   6.273   5.814
 9954SOL    HW230762   5.620   6.412   5.885
 9955SOL     OW30763   6.184   3.260   5.106
 9955SOL    HW130764   6.190   3.160   5.106
 9955SOL    HW230765   6.188   3.294   5.012
 9956SOL     OW30766   2.270   0.173   1.665
 9956SOL    HW130767   2.361   0.201   1.637
 9956SOL    HW230768   2.207   0.182   1.588
 9957SOL     OW30769   5.572   5.279   2.566
 9957SOL    HW130770   5.585   5.180   2.560
 9957SOL    HW230771   5.588   5.320   2.476
 9958SOL     OW30772   2.948   5.356   0.288
 9958SOL    HW130773   3.042   5.369   0.319
 9958SOL    HW230774   2.921   5.260   0.301
 9959SOL     OW30775   4.087   3.660   5.632
 9959SOL    HW130776   4.126   3.742   5.673
 9959SOL    HW230777   4.075   3.674   5.534
 9960SOL     OW30778   6.936   0.407   2.140
 9960SOL    HW130779   6.957   0.317   2.177
 9960SOL    HW230780   6.953   0.476   2.211
 9961SOL     OW30781   1.910   6.310   4.026
 9961SOL    HW130782   2.004   6.332   3.997
 9961SOL    HW230783   1.886   6.367   4.104
 9962SOL     OW30784   6.713   6.860   2.934
 9962SOL    HW130785   6.731   6.767   2.966
 9962SOL    HW230786   6.723   6.863   2.834
 9963SOL     OW30787   3.198   3.088   6.549
 9963SOL    HW130788   3.145   3.035   6.616
 9963SOL    HW230789   3.270   3.030   6.510
 9964SOL     OW30790   4.498   5.251   4.859
 9964SOL    HW130791   4.451   5.239   4.946
 9964SOL    HW230792   4.430   5.254   4.785
 9965SOL     OW30793   3.569   6.965   6.754
 9965SOL    HW130794   3.619   6.933   6.674
 9965SOL    HW230795   3.504   6.895   6.784
 9966SOL     OW30796   1.171   5.299   1.441
 9966SOL    HW130797   1.263   5.336   1.428
 9966SOL    HW230798   1.175   5.199   1.443
 9967SOL     OW30799   0.173   5.816   2.543
 9967SOL    HW130800   0.138   5.784   2.455
 9967SOL    HW230801   0.259   5.768   2.563
 9968SOL     OW30802   3.422   3.942   1.664
 9968SOL    HW130803   3.355   3.880   1.623
 9968SOL    HW230804   3.499   3.955   1.602
 9969SOL     OW30805   1.765   3.887   2.361
 9969SOL    HW130806   1.863   3.908   2.366
 9969SOL    HW230807   1.752   3.789   2.345
 9970SOL     OW30808   5.068   4.452   2.429
 9970SOL    HW130809   5.055   4.439   2.330
 9970SOL    HW230810   5.102   4.544   2.446
 9971SOL     OW30811   2.146   4.865   1.040
 9971SOL    HW130812   2.245   4.870   1.024
 9971SOL    HW230813   2.118   4.942   1.097
 9972SOL     OW30814   5.754   4.728   0.957
 9972SOL    HW130815   5.724   4.818   0.926
 9972SOL    HW230816   5.820   4.738   1.031
 9973SOL     OW30817   5.743   1.666   3.200
 9973SOL    HW130818   5.736   1.609   3.118
 9973SOL    HW230819   5.710   1.614   3.280
 9974SOL     OW30820   0.998   2.376   2.359
 9974SOL    HW130821   0.975   2.297   2.414
 9974SOL    HW230822   0.922   2.441   2.360
 9975SOL     OW30823   6.117   3.219   0.473
 9975SOL    HW130824   6.056   3.143   0.449
 9975SOL    HW230825   6.075   3.273   0.546
 9976SOL     OW30826   1.042   5.859   5.237
 9976SOL    HW130827   1.025   5.767   5.274
 9976SOL    HW230828   1.140   5.870   5.220
 9977SOL     OW30829   5.893   5.783   5.350
 9977SOL    HW130830   5.874   5.742   5.440
 9977SOL    HW230831   5.991   5.778   5.331
 9978SOL     OW30832   0.943   2.597   4.996
 9978SOL    HW130833   0.847   2.601   4.966
 9978SOL    HW230834   0.999   2.654   4.937
 9979SOL     OW30835   6.255   4.265   5.212
 9979SOL    HW130836   6.178   4.253   5.150
 9979SOL    HW230837   6.301   4.351   5.193
 9980SOL     OW30838   2.617   6.597   0.150
 9980SOL    HW130839   2.572   6.630   0.233
 9980SOL    HW230840   2.715   6.588   0.165
 9981SOL     OW30841   2.520   1.953   3.238
 9981SOL    HW130842   2.522   1.953   3.338
 9981SOL    HW230843   2.470   1.872   3.206
 9982SOL     OW30844   6.363   5.437   3.691
 9982SOL    HW130845   6.315   5.452   3.777
 9982SOL    HW230846   6.297   5.414   3.619
 9983SOL     OW30847   0.116   1.677   2.937
 9983SOL    HW130848   0.207   1.664   2.975
 9983SOL    HW230849   0.054   1.709   3.009
 9984SOL     OW30850   2.611   1.808   0.129
 9984SOL    HW130851   2.644   1.898   0.103
 9984SOL    HW230852   2.638   1.741   0.059
 9985SOL     OW30853   2.037   0.855   0.715
 9985SOL    HW130854   2.008   0.763   0.689
 9985SOL    HW230855   2.071   0.854   0.809
 9986SOL     OW30856   6.372   3.827   5.614
 9986SOL    HW130857   6.448   3.762   5.610
 9986SOL    HW230858   6.288   3.783   5.584
 9987SOL     OW30859   5.469   3.185   5.742
 9987SOL    HW130860   5.555   3.236   5.740
 9987SOL    HW230861   5.432   3.185   5.835
 9988SOL     OW30862   0.270   6.147   4.726
 9988SOL    HW130863   0.269   6.051   4.756
 9988SOL    HW230864   0.336   6.159   4.653
 9989SOL     OW30865   6.736   2.984   3.412
 9989SOL    HW130866   6.684   2.904   3.383
 9989SOL    HW230867   6.804   3.007   3.342
 9990SOL     OW30868   1.287   5.671   3.609
 9990SOL    HW130869   1.335   5.662   3.521
 9990SOL    HW230870   1.190   5.649   3.595
 9991SOL     OW30871   3.031   2.253   4.778
 9991SOL    HW130872   3.124   2.247   4.741
 9991SOL    HW230873   3.033   2.304   4.864
 9992SOL     OW30874   5.905   5.043   6.834
 9992SOL    HW130875   5.807   5.062   6.848
 9992SOL    HW230876   5.947   5.022   6.921
 9993SOL     OW30877   2.812   1.420   0.994
 9993SOL    HW130878   2.838   1.478   0.917
 9993SOL    HW230879   2.890   1.362   1.019
 9994SOL     OW30880   6.166   4.326   3.035
 9994SOL    HW130881   6.209   4.381   3.106
 9994SOL    HW230882   6.076   4.294   3.066
 9995SOL     OW30883   4.608   1.242   3.850
 9995SOL    HW130884   4.543   1.318   3.843
 9995SOL    HW230885   4.587   1.187   3.930
 9996SOL     OW30886   2.774   4.365   7.004
 9996SOL    HW130887   2.846   4.312   6.959
 9996SOL    HW230888   2.814   4.418   0.053
 9997SOL     OW30889   3.276   1.389   6.142
 9997SOL    HW130890   3.181   1.357   6.143
 9997SOL    HW230891   3.337   1.314   6.119
 9998SOL     OW30892   5.779   5.035   4.916
 9998SOL    HW130893   5.869   5.063   4.883
 9998SOL    HW230894   5.752   5.093   4.992
 9999SOL     OW30895   6.418   2.790   5.841
 9999SOL    HW130896   6.410   2.729   5.921
 9999SOL    HW230897   6.446   2.737   5.762
10000SOL     OW30898   6.436   3.173   7.014
10000SOL    HW130899   6.457   3.256   0.040
10000SOL    HW230900   6.337   3.162   7.008
10001SOL     OW30901   4.837   0.391   2.101
10001SOL    HW130902   4.930   0.362   2.078
10001SOL    HW230903   4.801   0.449   2.028
10002SOL     OW30904   1.517   6.454   1.987
10002SOL    HW130905   1.514   6.368   2.037
10002SOL    HW230906   1.452   6.518   2.027
10003SOL     OW30907   3.239   2.127   4.022
10003SOL    HW130908   3.249   2.098   4.117
10003SOL    HW230909   3.328   2.128   3.977
10004SOL     OW30910   6.573   2.571   4.346
10004SOL    HW130911   6.672   2.577   4.334
10004SOL    HW230912   6.543   2.477   4.328
10005SOL     OW30913   5.336   0.548   3.583
10005SOL    HW130914   5.388   0.612   3.640
10005SOL    HW230915   5.239   0.573   3.585
10006SOL     OW30916   4.470   6.887   4.223
10006SOL    HW130917   4.559   6.921   4.193
10006SOL    HW230918   4.407   6.888   4.145
10007SOL     OW30919   0.107   3.889   4.918
10007SOL    HW130920   0.154   3.937   4.992
10007SOL    HW230921   0.011   3.875   4.943
10008SOL     OW30922   3.684   0.854   4.683
10008SOL    HW130923   3.602   0.816   4.726
10008SOL    HW230924   3.709   0.798   4.604
10009SOL     OW30925   1.614   4.255   2.525
10009SOL    HW130926   1.651   4.178   2.472
10009SOL    HW230927   1.690   4.310   2.560
10010SOL     OW30928   2.341   0.946   6.857
10010SOL    HW130929   2.278   0.890   6.911
10010SOL    HW230930   2.332   1.042   6.885
10011SOL     OW30931   6.720   0.579   5.273
10011SOL    HW130932   6.631   0.610   5.238
10011SOL    HW230933   6.720   0.479   5.277
10012SOL     OW30934   6.453   0.643   3.011
10012SOL    HW130935   6.399   0.653   3.094
10012SOL    HW230936   6.455   0.547   2.984
10013SOL     OW30937   0.512   1.146   2.842
10013SOL    HW130938   0.532   1.154   2.744
10013SOL    HW230939   0.586   1.187   2.894
10014SOL     OW30940   0.524   4.311   6.389
10014SOL    HW130941   0.488   4.238   6.446
10014SOL    HW230942   0.567   4.272   6.307
10015SOL     OW30943   2.068   5.224   0.724
10015SOL    HW130944   1.993   5.268   0.774
10015SOL    HW230945   2.058   5.125   0.730
10016SOL     OW30946   1.819   0.960   6.274
10016SOL    HW130947   1.860   0.869   6.278
10016SOL    HW230948   1.836   1.009   6.359
10017SOL     OW30949   2.756   2.306   4.684
10017SOL    HW130950   2.724   2.368   4.755
10017SOL    HW230951   2.852   2.283   4.699
10018SOL     OW30952   5.547   7.010   6.556
10018SOL    HW130953   5.510   0.028   6.474
10018SOL    HW230954   5.527   0.041   6.636
10019SOL     OW30955   1.188   1.356   3.234
10019SOL    HW130956   1.277   1.398   3.219
10019SOL    HW230957   1.193   1.294   3.312
10020SOL     OW30958   1.510   2.843   1.763
10020SOL    HW130959   1.523   2.836   1.862
10020SOL    HW230960   1.549   2.763   1.718
10021SOL     OW30961   0.002   3.595   0.652
10021SOL    HW130962   0.082   3.558   0.700
10021SOL    HW230963   6.955   3.614   0.718
10022SOL     OW30964   2.168   1.041   6.352
10022SOL    HW130965   2.082   1.002   6.387
10022SOL    HW230966   2.148   1.114   6.288
10023SOL     OW30967   6.489   4.201   0.744
10023SOL    HW130968   6.404   4.219   0.792
10023SOL    HW230969   6.473   4.201   0.646
10024SOL     OW30970   1.047   5.574   3.814
10024SOL    HW130971   1.029   5.608   3.907
10024SOL    HW230972   1.118   5.504   3.818
10025SOL     OW30973   2.132   0.420   1.237
10025SOL    HW130974   2.054   0.358   1.246
10025SOL    HW230975   2.112   0.505   1.287
10026SOL     OW30976   5.486   0.329   3.535
10026SOL    HW130977   5.516   0.327   3.440
10026SOL    HW230978   5.424   0.406   3.549
10027SOL     OW30979   5.548   3.338   4.233
10027SOL    HW130980   5.550   3.287   4.319
10027SOL    HW230981   5.553   3.436   4.251
10028SOL     OW30982   1.652   1.155   0.539
10028SOL    HW130983   1.640   1.190   0.632
10028SOL    HW230984   1.594   1.208   0.477
10029SOL     OW30985   5.376   1.776   3.465
10029SOL    HW130986   5.413   1.683   3.462
10029SOL    HW230987   5.427   1.834   3.402
10030SOL     OW30988   2.029   0.846   3.814
10030SOL    HW130989   1.976   0.781   3.758
10030SOL    HW230990   2.123   0.848   3.781
10031SOL     OW30991   5.131   4.507   3.462
10031SOL    HW130992   5.118   4.498   3.364
10031SOL    HW230993   5.044   4.494   3.509
10032SOL     OW30994   2.327   2.190   5.462
10032SOL    HW130995   2.385   2.173   5.542
10032SOL    HW230996   2.377   2.247   5.397
10033SOL     OW30997   5.933   2.769   4.142
10033SOL    HW130998   5.911   2.806   4.052
10033SOL    HW230999   5.975   2.840   4.198
10034SOL     OW31000   3.757   0.363   5.106
10034SOL    HW131001   3.814   0.435   5.147
10034SOL    HW231002   3.758   0.283   5.166
10035SOL     OW31003   6.727   4.904   1.867
10035SOL    HW131004   6.786   4.829   1.837
10035SOL    HW231005   6.783   4.983   1.890
10036SOL     OW31006   6.761   1.815   6.882
10036SOL    HW131007   6.803   1.738   6.931
10036SOL    HW231008   6.826   1.849   6.814
10037SOL     OW31009   0.044   0.319   6.271
10037SOL    HW131010   0.021   0.404   6.319
10037SOL    HW231011   0.142   0.319   6.250
10038SOL     OW31012   6.621   7.000   1.428
10038SOL    HW131013   6.678   6.978   1.348
10038SOL    HW231014   6.550   0.039   1.400
10039SOL     OW31015   2.880   0.642   3.714
10039SOL    HW131016   2.801   0.669   3.770
10039SOL    HW231017   2.849   0.625   3.620
10040SOL     OW31018   6.610   3.521   0.667
10040SOL    HW131019   6.564   3.586   0.605
10040SOL    HW231020   6.542   3.461   0.708
10041SOL     OW31021   3.066   6.652   0.404
10041SOL    HW131022   3.159   6.687   0.404
10041SOL    HW231023   3.006   6.718   0.451
10042SOL     OW31024   6.725   2.033   2.666
10042SOL    HW131025   6.665   2.050   2.587
10042SOL    HW231026   6.799   2.100   2.667
10043SOL     OW31027   0.223   1.687   5.950
10043SOL    HW131028   0.143   1.645   5.994
10043SOL    HW231029   0.200   1.778   5.918
10044SOL     OW31030   2.805   2.180   5.933
10044SOL    HW131031   2.788   2.191   5.835
10044SOL    HW231032   2.803   2.270   5.977
10045SOL     OW31033   4.218   0.879   0.577
10045SOL    HW131034   4.216   0.943   0.654
10045SOL    HW231035   4.313   0.865   0.548
10046SOL     OW31036   0.854   4.936   1.323
10046SOL    HW131037   0.803   5.006   1.271
10046SOL    HW231038   0.952   4.950   1.309
10047SOL     OW31039   0.502   3.241   6.858
10047SOL    HW131040   0.569   3.307   6.823
10047SOL    HW231041   0.540   3.149   6.851
10048SOL     OW31042   6.016   6.894   2.468
10048SOL    HW131043   6.048   6.916   2.376
10048SOL    HW231044   6.082   6.834   2.513
10049SOL     OW31045   0.101   1.896   5.333
10049SOL    HW131046   0.082   1.829   5.405
10049SOL    HW231047   0.164   1.965   5.368
10050SOL     OW31048   5.584   3.195   5.406
10050SOL    HW131049   5.628   3.252   5.475
10050SOL    HW231050   5.504   3.243   5.370
10051SOL     OW31051   0.531   4.040   4.063
10051SOL    HW131052   0.459   3.981   4.027
10051SOL    HW231053   0.611   4.035   4.004
10052SOL     OW31054   1.221   0.355   3.283
10052SOL    HW131055   1.269   0.270   3.307
10052SOL    HW231056   1.287   0.430   3.277
10053SOL     OW31057   4.771   5.412   4.707
10053SOL    HW131058   4.844   5.379   4.648
10053SOL    HW231059   4.795   5.502   4.744
10054SOL     OW31060   5.211   3.921   4.534
10054SOL    HW131061   5.301   3.959   4.558
10054SOL    HW231062   5.216   3.878   4.444
10055SOL     OW31063   0.081   1.689   6.871
10055SOL    HW131064   0.067   1.729   6.961
10055SOL    HW231065   0.078   1.761   6.802
10056SOL     OW31066   5.253   3.014   3.093
10056SOL    HW131067   5.158   2.993   3.070
10056SOL    HW231068   5.261   3.024   3.193
10057SOL     OW31069   5.905   4.656   6.400
10057SOL    HW131070   5.963   4.697   6.330
10057SOL    HW231071   5.859   4.728   6.452
10058SOL     OW31072   6.180   3.431   4.897
10058SOL    HW131073   6.256   3.397   4.841
10058SOL    HW231074   6.163   3.527   4.876
10059SOL     OW31075   7.020   0.854   6.578
10059SOL    HW131076   0.004   0.842   6.479
10059SOL    HW231077   0.079   0.823   6.623
10060SOL     OW31078   2.417   1.899   2.692
10060SOL    HW131079   2.445   1.846   2.771
10060SOL    HW231080   2.425   1.996   2.712
10061SOL     OW31081   3.720   0.221   2.968
10061SOL    HW131082   3.793   0.171   3.014
10061SOL    HW231083   3.759   0.278   2.895
10062SOL     OW31084   0.145   0.109   4.178
10062SOL    HW131085   0.047   0.106   4.193
10062SOL    HW231086   0.192   0.118   4.267
10063SOL     OW31087   1.765   3.005   4.835
10063SOL    HW131088   1.689   2.958   4.881
10063SOL    HW231089   1.782   3.092   4.881
10064SOL     OW31090   2.747   6.352   0.600
10064SOL    HW131091   2.716   6.444   0.622
10064SOL    HW231092   2.781   6.307   0.683
10065SOL     OW31093   0.773   1.747   2.181
10065SOL    HW131094   0.871   1.746   2.201
10065SOL    HW231095   0.759   1.726   2.085
10066SOL     OW31096   6.639   3.340   4.472
10066SOL    HW131097   6.661   3.242   4.472
10066SOL    HW231098   6.624   3.371   4.566
10067SOL     OW31099   6.780   2.072   4.924
10067SOL    HW131100   6.861   2.130   4.912
10067SOL    HW231101   6.715   2.089   4.850
10068SOL     OW31102   2.546   2.155   2.735
10068SOL    HW131103   2.592   2.174   2.649
10068SOL    HW231104   2.491   2.235   2.762
10069SOL     OW31105   3.158   5.298   1.487
10069SOL    HW131106   3.092   5.368   1.460
10069SOL    HW231107   3.205   5.263   1.406
10070SOL     OW31108   3.604   5.821   5.407
10070SOL    HW131109   3.629   5.880   5.329
10070SOL    HW231110   3.627   5.726   5.386
10071SOL     OW31111   6.435   0.151   3.432
10071SOL    HW131112   6.490   0.153   3.348
10071SOL    HW231113   6.433   0.058   3.468
10072SOL     OW31114   6.767   2.162   2.104
10072SOL    HW131115   6.806   2.213   2.181
10072SOL    HW231116   6.787   2.211   2.019
10073SOL     OW31117   6.390   4.059   4.880
10073SOL    HW131118   6.325   4.002   4.930
10073SOL    HW231119   6.421   4.010   4.798
10074SOL     OW31120   1.127   4.599   0.500
10074SOL    HW131121   1.199   4.617   0.568
10074SOL    HW231122   1.039   4.628   0.538
10075SOL     OW31123   1.853   3.341   1.574
10075SOL    HW131124   1.894   3.429   1.550
10075SOL    HW231125   1.775   3.356   1.635
10076SOL     OW31126   5.144   5.744   3.854
10076SOL    HW131127   5.134   5.646   3.841
10076SOL    HW231128   5.175   5.786   3.769
10077SOL     OW31129   6.224   2.953   6.143
10077SOL    HW131130   6.145   3.002   6.104
10077SOL    HW231131   6.208   2.937   6.240
10078SOL     OW31132   6.919   6.353   5.477
10078SOL    HW131133   6.973   6.293   5.418
10078SOL    HW231134   6.842   6.391   5.426
10079SOL     OW31135   4.533   2.497   2.958
10079SOL    HW131136   4.456   2.453   2.910
10079SOL    HW231137   4.619   2.456   2.927
10080SOL     OW31138   5.483   0.150   6.344
10080SOL    HW131139   5.447   0.118   6.257
10080SOL    HW231140   5.432   0.231   6.373
10081SOL     OW31141   2.119   2.953   0.688
10081SOL    HW131142   2.152   2.986   0.776
10081SOL    HW231143   2.114   3.029   0.623
10082SOL     OW31144   1.365   4.361   1.306
10082SOL    HW131145   1.319   4.273   1.318
10082SOL    HW231146   1.379   4.378   1.209
10083SOL     OW31147   3.247   5.214   3.808
10083SOL    HW131148   3.324   5.159   3.776
10083SOL    HW231149   3.259   5.309   3.778
10084SOL     OW31150   1.134   0.702   4.870
10084SOL    HW131151   1.204   0.646   4.914
10084SOL    HW231152   1.056   0.714   4.932
10085SOL     OW31153   4.723   0.002   0.398
10085SOL    HW131154   4.720   0.072   0.470
10085SOL    HW231155   4.721   0.046   0.308
10086SOL     OW31156   0.007   6.772   2.739
10086SOL    HW131157   6.936   6.786   2.721
10086SOL    HW231158   0.062   6.818   2.669
10087SOL     OW31159   1.562   6.499   5.048
10087SOL    HW131160   1.612   6.417   5.077
10087SOL    HW231161   1.616   6.580   5.070
10088SOL     OW31162   0.362   2.480   0.147
10088SOL    HW131163   0.269   2.514   0.166
10088SOL    HW231164   0.409   2.545   0.087
10089SOL     OW31165   3.824   1.337   2.410
10089SOL    HW131166   3.745   1.397   2.401
10089SOL    HW231167   3.873   1.359   2.494
10090SOL     OW31168   2.227   6.297   2.060
10090SOL    HW131169   2.207   6.263   1.968
10090SOL    HW231170   2.300   6.242   2.101
10091SOL     OW31171   6.449   4.226   5.509
10091SOL    HW131172   6.458   4.237   5.608
10091SOL    HW231173   6.462   4.314   5.464
10092SOL     OW31174   0.623   1.758   4.479
10092SOL    HW131175   0.525   1.759   4.495
10092SOL    HW231176   0.667   1.692   4.540
10093SOL     OW31177   5.286   4.108   5.511
10093SOL    HW131178   5.202   4.074   5.469
10093SOL    HW231179   5.294   4.070   5.603
10094SOL     OW31180   3.345   0.769   0.649
10094SOL    HW131181   3.416   0.836   0.671
10094SOL    HW231182   3.341   0.700   0.722
10095SOL     OW31183   5.125   2.686   5.294
10095SOL    HW131184   5.092   2.600   5.254
10095SOL    HW231185   5.127   2.757   5.223
10096SOL     OW31186   5.373   1.568   2.977
10096SOL    HW131187   5.326   1.506   3.040
10096SOL    HW231188   5.456   1.523   2.943
10097SOL     OW31189   0.792   1.805   0.260
10097SOL    HW131190   0.708   1.835   0.304
10097SOL    HW231191   0.851   1.760   0.327
10098SOL     OW31192   3.665   6.316   3.909
10098SOL    HW131193   3.633   6.390   3.849
10098SOL    HW231194   3.703   6.242   3.854
10099SOL     OW31195   6.808   4.874   1.213
10099SOL    HW131196   6.833   4.970   1.224
10099SOL    HW231197   6.746   4.865   1.135
10100SOL     OW31198   4.669   4.776   4.326
10100SOL    HW131199   4.708   4.701   4.272
10100SOL    HW231200   4.603   4.826   4.271
10101SOL     OW31201   1.155   2.066   1.638
10101SOL    HW131202   1.145   1.967   1.643
10101SOL    HW231203   1.225   2.096   1.703
10102SOL     OW31204   6.782   6.477   2.173
10102SOL    HW131205   6.797   6.438   2.082
10102SOL    HW231206   6.832   6.563   2.181
10103SOL     OW31207   6.458   6.234   6.316
10103SOL    HW131208   6.401   6.229   6.398
10103SOL    HW231209   6.545   6.186   6.332
10104SOL     OW31210   2.099   0.374   4.966
10104SOL    HW131211   2.015   0.354   5.018
10104SOL    HW231212   2.163   0.298   4.977
10105SOL     OW31213   2.757   0.689   6.255
10105SOL    HW131214   2.726   0.611   6.201
10105SOL    HW231215   2.681   0.726   6.307
10106SOL     OW31216   5.308   5.871   1.566
10106SOL    HW131217   5.209   5.857   1.563
10106SOL    HW231218   5.329   5.968   1.556
10107SOL     OW31219   5.054   4.572   6.740
10107SOL    HW131220   4.983   4.615   6.795
10107SOL    HW231221   5.073   4.629   6.660
10108SOL     OW31222   2.107   2.711   6.884
10108SOL    HW131223   2.134   2.619   6.857
10108SOL    HW231224   2.009   2.722   6.869
10109SOL     OW31225   1.207   2.162   1.003
10109SOL    HW131226   1.196   2.254   1.040
10109SOL    HW231227   1.136   2.102   1.040
10110SOL     OW31228   4.825   6.090   2.453
10110SOL    HW131229   4.834   6.178   2.407
10110SOL    HW231230   4.841   6.101   2.551
10111SOL     OW31231   2.145   1.416   1.703
10111SOL    HW131232   2.144   1.406   1.802
10111SOL    HW231233   2.192   1.500   1.678
10112SOL     OW31234   7.015   2.318   3.390
10112SOL    HW131235   7.007   2.367   3.477
10112SOL    HW231236   0.057   2.245   3.398
10113SOL     OW31237   6.867   0.668   5.892
10113SOL    HW131238   6.875   0.569   5.880
10113SOL    HW231239   6.885   0.713   5.804
10114SOL     OW31240   4.766   1.614   2.229
10114SOL    HW131241   4.750   1.713   2.231
10114SOL    HW231242   4.683   1.567   2.256
10115SOL     OW31243   3.562   2.595   6.353
10115SOL    HW131244   3.579   2.540   6.272
10115SOL    HW231245   3.638   2.584   6.418
10116SOL     OW31246   6.289   0.512   4.892
10116SOL    HW131247   6.318   0.445   4.824
10116SOL    HW231248   6.240   0.586   4.846
10117SOL     OW31249   6.058   4.333   4.035
10117SOL    HW131250   6.106   4.274   3.970
10117SOL    HW231251   6.065   4.428   4.007
10118SOL     OW31252   4.036   5.415   4.587
10118SOL    HW131253   4.052   5.501   4.636
10118SOL    HW231254   3.999   5.436   4.496
10119SOL     OW31255   6.917   5.313   5.444
10119SOL    HW131256   6.818   5.306   5.455
10119SOL    HW231257   6.940   5.316   5.347
10120SOL     OW31258   2.040   3.388   2.387
10120SOL    HW131259   2.115   3.348   2.440
10120SOL    HW231260   2.058   3.373   2.289
10121SOL     OW31261   6.595   4.020   0.922
10121SOL    HW131262   6.548   4.089   0.868
10121SOL    HW231263   6.679   4.059   0.959
10122SOL     OW31264   0.998   0.414   3.648
10122SOL    HW131265   0.980   0.501   3.603
10122SOL    HW231266   0.912   0.365   3.662
10123SOL     OW31267   6.313   5.382   6.709
10123SOL    HW131268   6.365   5.297   6.706
10123SOL    HW231269   6.336   5.432   6.792
10124SOL     OW31270   0.857   5.128   3.012
10124SOL    HW131271   0.869   5.221   2.978
10124SOL    HW231272   0.911   5.065   2.956
10125SOL     OW31273   1.879   1.211   5.824
10125SOL    HW131274   1.849   1.186   5.916
10125SOL    HW231275   1.907   1.129   5.775
10126SOL     OW31276   6.282   0.150   7.022
10126SOL    HW131277   6.327   0.134   0.084
10126SOL    HW231278   6.329   0.098   6.951
10127SOL     OW31279   2.091   5.583   6.113
10127SOL    HW131280   2.028   5.586   6.036
10127SOL    HW231281   2.179   5.622   6.086
10128SOL     OW31282   2.796   1.547   6.631
10128SOL    HW131283   2.864   1.595   6.687
10128SOL    HW231284   2.738   1.613   6.584
10129SOL     OW31285   6.021   1.335   4.629
10129SOL    HW131286   5.942   1.391   4.602
10129SOL    HW231287   5.992   1.241   4.643
10130SOL     OW31288   1.318   2.026   2.554
10130SOL    HW131289   1.363   2.095   2.497
10130SOL    HW231290   1.261   2.070   2.622
10131SOL     OW31291   1.605   6.447   4.298
10131SOL    HW131292   1.621   6.494   4.211
10131SOL    HW231293   1.562   6.358   4.280
10132SOL     OW31294   6.757   1.151   1.490
10132SOL    HW131295   6.785   1.070   1.541
10132SOL    HW231296   6.705   1.122   1.409
10133SOL     OW31297   5.965   6.453   0.395
10133SOL    HW131298   6.033   6.513   0.438
10133SOL    HW231299   5.908   6.507   0.332
10134SOL     OW31300   5.950   6.896   2.088
10134SOL    HW131301   6.012   6.836   2.037
10134SOL    HW231302   5.879   6.841   2.133
10135SOL     OW31303   6.093   0.422   2.552
10135SOL    HW131304   6.064   0.420   2.647
10135SOL    HW231305   6.063   0.338   2.506
10136SOL     OW31306   5.543   1.536   2.471
10136SOL    HW131307   5.526   1.558   2.375
10136SOL    HW231308   5.559   1.621   2.522
10137SOL     OW31309   6.242   5.454   5.234
10137SOL    HW131310   6.211   5.449   5.329
10137SOL    HW231311   6.168   5.426   5.173
10138SOL     OW31312   0.327   1.955   0.427
10138SOL    HW131313   0.344   1.900   0.508
10138SOL    HW231314   0.339   2.052   0.450
10139SOL     OW31315   3.625   3.038   6.391
10139SOL    HW131316   3.581   3.119   6.429
10139SOL    HW231317   3.569   3.001   6.317
10140SOL     OW31318   0.832   6.477   5.540
10140SOL    HW131319   0.762   6.548   5.537
10140SOL    HW231320   0.790   6.387   5.530
10141SOL     OW31321   2.112   2.449   4.613
10141SOL    HW131322   2.166   2.371   4.582
10141SOL    HW231323   2.057   2.422   4.693
10142SOL     OW31324   4.244   6.437   4.335
10142SOL    HW131325   4.208   6.370   4.271
10142SOL    HW231326   4.225   6.529   4.302
10143SOL     OW31327   5.249   3.059   6.581
10143SOL    HW131328   5.288   3.012   6.660
10143SOL    HW231329   5.245   3.157   6.599
10144SOL     OW31330   3.713   0.154   6.264
10144SOL    HW131331   3.744   0.135   6.357
10144SOL    HW231332   3.638   0.220   6.266
10145SOL     OW31333   5.642   5.842   6.707
10145SOL    HW131334   5.739   5.841   6.684
10145SOL    HW231335   5.604   5.750   6.697
10146SOL     OW31336   0.210   2.677   4.401
10146SOL    HW131337   0.150   2.683   4.321
10146SOL    HW231338   0.186   2.597   4.456
10147SOL     OW31339   4.402   5.091   6.077
10147SOL    HW131340   4.310   5.068   6.108
10147SOL    HW231341   4.407   5.188   6.054
10148SOL     OW31342   0.876   4.644   0.805
10148SOL    HW131343   0.904   4.719   0.745
10148SOL    HW231344   0.778   4.627   0.794
10149SOL     OW31345   3.180   4.688   0.298
10149SOL    HW131346   3.237   4.756   0.343
10149SOL    HW231347   3.145   4.623   0.365
10150SOL     OW31348   4.065   4.506   0.778
10150SOL    HW131349   4.067   4.606   0.767
10150SOL    HW231350   3.998   4.467   0.715
10151SOL     OW31351   5.816   6.817   5.766
10151SOL    HW131352   5.912   6.797   5.785
10151SOL    HW231353   5.775   6.862   5.845
10152SOL     OW31354   4.111   6.539   3.073
10152SOL    HW131355   4.169   6.467   3.112
10152SOL    HW231356   4.141   6.559   2.980
10153SOL     OW31357   4.723   4.428   2.829
10153SOL    HW131358   4.789   4.478   2.885
10153SOL    HW231359   4.771   4.372   2.762
10154SOL     OW31360   4.711   5.156   5.596
10154SOL    HW131361   4.667   5.173   5.508
10154SOL    HW231362   4.717   5.241   5.648
10155SOL     OW31363   3.991   1.530   4.778
10155SOL    HW131364   3.916   1.464   4.776
10155SOL    HW231365   4.078   1.482   4.790
10156SOL     OW31366   5.080   1.739   6.825
10156SOL    HW131367   5.069   1.826   6.778
10156SOL    HW231368   5.134   1.753   6.908
10157SOL     OW31369   0.410   3.156   1.321
10157SOL    HW131370   0.315   3.157   1.352
10157SOL    HW231371   0.448   3.065   1.334
10158SOL     OW31372   6.263   4.942   0.313
10158SOL    HW131373   6.173   4.919   0.274
10158SOL    HW231374   6.289   5.034   0.285
10159SOL     OW31375   3.336   3.152   2.264
10159SOL    HW131376   3.257   3.172   2.206
10159SOL    HW231377   3.312   3.081   2.330
10160SOL     OW31378   0.940   4.893   2.500
10160SOL    HW131379   0.871   4.943   2.553
10160SOL    HW231380   0.913   4.891   2.404
10161SOL     OW31381   5.309   3.046   5.522
10161SOL    HW131382   5.317   3.101   5.606
10161SOL    HW231383   5.314   3.106   5.443
10162SOL     OW31384   1.246   3.071   2.574
10162SOL    HW131385   1.219   3.014   2.652
10162SOL    HW231386   1.267   3.012   2.496
10163SOL     OW31387   1.866   6.137   5.519
10163SOL    HW131388   1.863   6.047   5.562
10163SOL    HW231389   1.921   6.133   5.436
10164SOL     OW31390   1.342   2.730   2.780
10164SOL    HW131391   1.408   2.718   2.853
10164SOL    HW231392   1.290   2.646   2.767
10165SOL     OW31393   6.763   3.375   4.233
10165SOL    HW131394   6.716   3.420   4.157
10165SOL    HW231395   6.695   3.346   4.301
10166SOL     OW31396   2.479   0.540   1.820
10166SOL    HW131397   2.543   0.464   1.834
10166SOL    HW231398   2.521   0.608   1.761
10167SOL     OW31399   2.633   0.493   6.664
10167SOL    HW131400   2.621   0.407   6.714
10167SOL    HW231401   2.716   0.487   6.607
10168SOL     OW31402   7.006   1.116   6.658
10168SOL    HW131403   6.929   1.115   6.722
10168SOL    HW231404   7.023   1.024   6.625
10169SOL     OW31405   6.101   2.809   3.235
10169SOL    HW131406   6.124   2.875   3.163
10169SOL    HW231407   6.122   2.717   3.203
10170SOL     OW31408   5.656   5.467   6.404
10170SOL    HW131409   5.677   5.372   6.380
10170SOL    HW231410   5.741   5.520   6.407
10171SOL     OW31411   2.351   3.728   5.884
10171SOL    HW131412   2.442   3.719   5.927
10171SOL    HW231413   2.338   3.822   5.853
10172SOL     OW31414   6.186   0.309   3.117
10172SOL    HW131415   6.245   0.302   3.037
10172SOL    HW231416   6.111   0.243   3.109
10173SOL     OW31417   3.274   3.809   5.053
10173SOL    HW131418   3.258   3.846   5.145
10173SOL    HW231419   3.270   3.883   4.986
10174SOL     OW31420   4.095   5.689   3.147
10174SOL    HW131421   4.185   5.645   3.146
10174SOL    HW231422   4.025   5.623   3.172
10175SOL     OW31423   0.059   1.713   3.399
10175SOL    HW131424   7.021   1.778   3.441
10175SOL    HW231425   0.096   1.653   3.470
10176SOL     OW31426   6.805   1.669   6.054
10176SOL    HW131427   6.769   1.751   6.009
10176SOL    HW231428   6.748   1.590   6.030
10177SOL     OW31429   2.617   0.888   3.720
10177SOL    HW131430   2.703   0.918   3.677
10177SOL    HW231431   2.601   0.940   3.803
10178SOL     OW31432   1.644   2.258   0.706
10178SOL    HW131433   1.730   2.223   0.743
10178SOL    HW231434   1.663   2.325   0.634
10179SOL     OW31435   6.827   4.495   1.378
10179SOL    HW131436   6.904   4.556   1.365
10179SOL    HW231437   6.770   4.494   1.296
10180SOL     OW31438   4.319   0.258   5.685
10180SOL    HW131439   4.304   0.339   5.742
10180SOL    HW231440   4.366   0.285   5.601
10181SOL     OW31441   6.430   3.101   2.144
10181SOL    HW131442   6.509   3.160   2.127
10181SOL    HW231443   6.415   3.092   2.242
10182SOL     OW31444   5.612   1.981   0.255
10182SOL    HW131445   5.597   1.886   0.283
10182SOL    HW231446   5.524   2.027   0.242
10183SOL     OW31447   5.690   1.802   6.599
10183SOL    HW131448   5.783   1.803   6.635
10183SOL    HW231449   5.649   1.712   6.616
10184SOL     OW31450   5.716   2.498   5.847
10184SOL    HW131451   5.673   2.588   5.841
10184SOL    HW231452   5.653   2.433   5.887
10185SOL     OW31453   3.588   5.799   1.686
10185SOL    HW131454   3.531   5.725   1.650
10185SOL    HW231455   3.620   5.856   1.611
10186SOL     OW31456   3.728   3.648   5.885
10186SOL    HW131457   3.725   3.559   5.931
10186SOL    HW231458   3.643   3.662   5.834
10187SOL     OW31459   2.031   4.757   6.026
10187SOL    HW131460   1.977   4.682   6.067
10187SOL    HW231461   2.012   4.842   6.075
10188SOL     OW31462   3.238   0.540   6.452
10188SOL    HW131463   3.254   0.625   6.502
10188SOL    HW231464   3.158   0.494   6.489
10189SOL     OW31465   1.303   2.354   6.493
10189SOL    HW131466   1.267   2.262   6.506
10189SOL    HW231467   1.239   2.408   6.440
10190SOL     OW31468   3.906   5.732   2.169
10190SOL    HW131469   3.883   5.688   2.082
10190SOL    HW231470   3.824   5.736   2.227
10191SOL     OW31471   5.919   6.048   6.871
10191SOL    HW131472   5.856   6.120   6.841
10191SOL    HW231473   5.932   6.054   6.970
10192SOL     OW31474   1.880   1.867   4.432
10192SOL    HW131475   1.808   1.831   4.491
10192SOL    HW231476   1.963   1.883   4.486
10193SOL     OW31477   3.368   3.453   3.460
10193SOL    HW131478   3.415   3.403   3.534
10193SOL    HW231479   3.387   3.551   3.469
10194SOL     OW31480   3.081   0.501   3.183
10194SOL    HW131481   3.160   0.562   3.186
10194SOL    HW231482   2.999   0.553   3.160
10195SOL     OW31483   4.027   6.224   2.284
10195SOL    HW131484   3.931   6.248   2.271
10195SOL    HW231485   4.045   6.136   2.240
10196SOL     OW31486   5.974   2.064   3.645
10196SOL    HW131487   5.966   1.995   3.574
10196SOL    HW231488   5.889   2.116   3.652
10197SOL     OW31489   6.084   0.210   1.578
10197SOL    HW131490   6.020   0.272   1.623
10197SOL    HW231491   6.067   0.211   1.480
10198SOL     OW31492   2.605   0.048   0.786
10198SOL    HW131493   2.609   7.002   0.856
10198SOL    HW231494   2.646   0.132   0.822
10199SOL     OW31495   1.291   1.431   0.372
10199SOL    HW131496   1.359   1.502   0.390
10199SOL    HW231497   1.213   1.472   0.324
10200SOL     OW31498   4.738   4.263   4.393
10200SOL    HW131499   4.706   4.352   4.361
10200SOL    HW231500   4.729   4.258   4.492
10201SOL     OW31501   1.511   4.399   2.875
10201SOL    HW131502   1.594   4.390   2.930
10201SOL    HW231503   1.533   4.387   2.778
10202SOL     OW31504   1.103   3.535   2.535
10202SOL    HW131505   1.103   3.562   2.632
10202SOL    HW231506   1.136   3.611   2.480
10203SOL     OW31507   1.798   3.319   2.319
10203SOL    HW131508   1.795   3.269   2.232
10203SOL    HW231509   1.893   3.338   2.344
10204SOL     OW31510   3.230   4.713   5.428
10204SOL    HW131511   3.265   4.620   5.446
10204SOL    HW231512   3.130   4.710   5.425
10205SOL     OW31513   4.605   1.455   3.044
10205SOL    HW131514   4.537   1.527   3.057
10205SOL    HW231515   4.580   1.398   2.966
10206SOL     OW31516   5.207   6.790   6.740
10206SOL    HW131517   5.136   6.761   6.804
10206SOL    HW231518   5.178   6.875   6.695
10207SOL     OW31519   4.234   0.742   3.093
10207SOL    HW131520   4.255   0.837   3.113
10207SOL    HW231521   4.207   0.733   2.997
10208SOL     OW31522   6.267   4.024   5.412
10208SOL    HW131523   6.307   4.114   5.395
10208SOL    HW231524   6.321   3.977   5.481
10209SOL     OW31525   5.919   0.403   6.372
10209SOL    HW131526   5.987   0.476   6.385
10209SOL    HW231527   5.886   0.373   6.462
10210SOL     OW31528   5.170   5.824   2.223
10210SOL    HW131529   5.207   5.804   2.314
10210SOL    HW231530   5.073   5.802   2.221
10211SOL     OW31531   4.024   5.515   5.357
10211SOL    HW131532   4.003   5.569   5.275
10211SOL    HW231533   4.076   5.571   5.422
10212SOL     OW31534   0.059   0.543   5.573
10212SOL    HW131535   0.115   0.617   5.611
10212SOL    HW231536   0.023   0.572   5.484
10213SOL     OW31537   6.497   1.190   2.877
10213SOL    HW131538   6.595   1.179   2.895
10213SOL    HW231539   6.484   1.229   2.786
10214SOL     OW31540   0.144   1.005   1.854
10214SOL    HW131541   0.153   0.906   1.865
10214SOL    HW231542   0.132   1.026   1.758
10215SOL     OW31543   3.853   3.937   6.713
10215SOL    HW131544   3.938   3.943   6.765
10215SOL    HW231545   3.826   4.029   6.682
10216SOL     OW31546   5.238   6.974   1.447
10216SOL    HW131547   5.226   6.944   1.542
10216SOL    HW231548   5.262   0.046   1.446
10217SOL     OW31549   2.442   1.923   4.601
10217SOL    HW131550   2.478   1.834   4.572
10217SOL    HW231551   2.496   1.959   4.677
10218SOL     OW31552   2.497   1.277   0.803
10218SOL    HW131553   2.522   1.350   0.739
10218SOL    HW231554   2.517   1.307   0.897
10219SOL     OW31555   1.095   3.491   0.410
10219SOL    HW131556   1.075   3.436   0.491
10219SOL    HW231557   1.167   3.557   0.431
10220SOL     OW31558   4.275   2.053   0.904
10220SOL    HW131559   4.363   2.010   0.885
10220SOL    HW231560   4.221   2.057   0.820
10221SOL     OW31561   3.162   0.009   4.920
10221SOL    HW131562   3.163   0.034   4.824
10221SOL    HW231563   3.243   0.047   4.965
10222SOL     OW31564   1.950   5.358   5.716
10222SOL    HW131565   1.914   5.418   5.788
10222SOL    HW231566   2.004   5.412   5.652
10223SOL     OW31567   0.712   4.370   0.269
10223SOL    HW131568   0.708   4.429   0.188
10223SOL    HW231569   0.736   4.277   0.241
10224SOL     OW31570   1.573   0.311   4.240
10224SOL    HW131571   1.522   0.240   4.287
10224SOL    HW231572   1.587   0.389   4.301
10225SOL     OW31573   6.383   5.890   4.580
10225SOL    HW131574   6.417   5.936   4.662
10225SOL    HW231575   6.456   5.886   4.512
10226SOL     OW31576   1.801   1.844   0.138
10226SOL    HW131577   1.804   1.791   0.223
10226SOL    HW231578   1.714   1.893   0.133
10227SOL     OW31579   5.272   4.569   6.919
10227SOL    HW131580   5.364   4.546   6.950
10227SOL    HW231581   5.222   4.485   6.899
10228SOL     OW31582   0.780   5.472   2.892
10228SOL    HW131583   0.696   5.509   2.930
10228SOL    HW231584   0.853   5.478   2.961
10229SOL     OW31585   1.450   0.555   2.638
10229SOL    HW131586   1.474   0.461   2.614
10229SOL    HW231587   1.523   0.616   2.606
10230SOL     OW31588   6.426   0.831   3.578
10230SOL    HW131589   6.415   0.927   3.551
10230SOL    HW231590   6.336   0.787   3.581
10231SOL     OW31591   5.483   6.639   4.949
10231SOL    HW131592   5.453   6.638   4.853
10231SOL    HW231593   5.419   6.585   5.004
10232SOL     OW31594   3.264   2.068   5.132
10232SOL    HW131595   3.334   2.049   5.063
10232SOL    HW231596   3.212   2.148   5.104
10233SOL     OW31597   4.872   1.465   5.729
10233SOL    HW131598   4.870   1.393   5.799
10233SOL    HW231599   4.904   1.550   5.770
10234SOL     OW31600   4.801   6.822   1.869
10234SOL    HW131601   4.744   6.790   1.944
10234SOL    HW231602   4.869   6.751   1.847
10235SOL     OW31603   5.907   1.048   6.879
10235SOL    HW131604   5.863   1.093   6.957
10235SOL    HW231605   5.874   0.954   6.873
10236SOL     OW31606   2.534   5.555   1.919
10236SOL    HW131607   2.461   5.560   1.851
10236SOL    HW231608   2.616   5.516   1.878
10237SOL     OW31609   5.743   3.292   2.368
10237SOL    HW131610   5.778   3.301   2.275
10237SOL    HW231611   5.812   3.246   2.425
10238SOL     OW31612   4.972   5.002   4.659
10238SOL    HW131613   4.956   5.009   4.758
10238SOL    HW231614   4.893   4.958   4.616
10239SOL     OW31615   0.225   3.905   4.553
10239SOL    HW131616   0.272   3.819   4.537
10239SOL    HW231617   0.244   3.969   4.478
10240SOL     OW31618   0.148   4.348   3.975
10240SOL    HW131619   0.091   4.317   4.051
10240SOL    HW231620   0.111   4.433   3.938
10241SOL     OW31621   1.838   0.801   2.012
10241SOL    HW131622   1.861   0.764   2.103
10241SOL    HW231623   1.922   0.822   1.963
10242SOL     OW31624   0.210   0.152   6.016
10242SOL    HW131625   0.117   0.181   5.995
10242SOL    HW231626   0.262   0.229   6.053
10243SOL     OW31627   1.343   5.703   1.441
10243SOL    HW131628   1.366   5.744   1.529
10243SOL    HW231629   1.290   5.768   1.387
10244SOL     OW31630   1.918   5.895   6.876
10244SOL    HW131631   1.917   5.819   6.941
10244SOL    HW231632   1.906   5.981   6.925
10245SOL     OW31633   2.805   2.477   6.586
10245SOL    HW131634   2.837   2.539   6.658
10245SOL    HW231635   2.877   2.410   6.567
10246SOL     OW31636   3.062   3.961   4.327
10246SOL    HW131637   2.975   4.005   4.350
10246SOL    HW231638   3.106   3.928   4.410
10247SOL     OW31639   0.320   4.127   5.730
10247SOL    HW131640   0.355   4.061   5.796
10247SOL    HW231641   0.312   4.083   5.640
10248SOL     OW31642   3.569   0.332   1.924
10248SOL    HW131643   3.560   0.300   2.018
10248SOL    HW231644   3.558   0.256   1.861
10249SOL     OW31645   5.331   0.977   6.090
10249SOL    HW131646   5.340   0.924   6.174
10249SOL    HW231647   5.391   1.057   6.094
10250SOL     OW31648   6.466   1.239   0.184
10250SOL    HW131649   6.546   1.299   0.190
10250SOL    HW231650   6.482   1.170   0.113
10251SOL     OW31651   2.566   3.857   6.445
10251SOL    HW131652   2.649   3.811   6.412
10251SOL    HW231653   2.526   3.804   6.519
10252SOL     OW31654   6.406   5.477   1.869
10252SOL    HW131655   6.315   5.454   1.833
10252SOL    HW231656   6.468   5.399   1.854
10253SOL     OW31657   4.247   5.392   6.831
10253SOL    HW131658   4.256   5.421   6.736
10253SOL    HW231659   4.169   5.438   6.874
10254SOL     OW31660   2.127   2.246   5.250
10254SOL    HW131661   2.118   2.342   5.276
10254SOL    HW231662   2.202   2.204   5.301
10255SOL     OW31663   2.807   6.142   2.819
10255SOL    HW131664   2.838   6.237   2.817
10255SOL    HW231665   2.744   6.126   2.744
10256SOL     OW31666   5.839   0.216   6.861
10256SOL    HW131667   5.923   0.228   6.914
10256SOL    HW231668   5.766   0.185   6.921
10257SOL     OW31669   1.044   5.365   5.713
10257SOL    HW131670   0.979   5.290   5.705
10257SOL    HW231671   1.137   5.330   5.700
10258SOL     OW31672   3.798   6.991   3.249
10258SOL    HW131673   3.846   0.011   3.174
10258SOL    HW231674   3.786   6.894   3.227
10259SOL     OW31675   6.909   3.689   3.569
10259SOL    HW131676   6.949   3.712   3.658
10259SOL    HW231677   6.817   3.652   3.583
10260SOL     OW31678   1.024   0.093   1.990
10260SOL    HW131679   1.099   0.046   1.943
10260SOL    HW231680   1.039   0.192   1.986
10261SOL     OW31681   1.071   5.470   2.233
10261SOL    HW131682   1.096   5.381   2.271
10261SOL    HW231683   0.975   5.489   2.253
10262SOL     OW31684   2.188   4.649   4.743
10262SOL    HW131685   2.112   4.583   4.738
10262SOL    HW231686   2.155   4.734   4.786
10263SOL     OW31687   6.203   1.722   5.649
10263SOL    HW131688   6.195   1.674   5.737
10263SOL    HW231689   6.137   1.684   5.584
10264SOL     OW31690   6.820   0.293   6.162
10264SOL    HW131691   6.770   0.369   6.203
10264SOL    HW231692   6.895   0.266   6.222
10265SOL     OW31693   3.645   1.544   2.654
10265SOL    HW131694   3.603   1.601   2.725
10265SOL    HW231695   3.708   1.479   2.696
10266SOL     OW31696   3.019   4.102   6.123
10266SOL    HW131697   3.105   4.139   6.159
10266SOL    HW231698   3.037   4.013   6.080
10267SOL     OW31699   0.385   1.861   6.632
10267SOL    HW131700   0.396   1.762   6.638
10267SOL    HW231701   0.454   1.905   6.690
10268SOL     OW31702   5.312   6.144   1.850
10268SOL    HW131703   5.295   6.120   1.946
10268SOL    HW231704   5.320   6.061   1.796
10269SOL     OW31705   2.893   2.645   6.371
10269SOL    HW131706   2.846   2.622   6.286
10269SOL    HW231707   2.842   2.608   6.449
10270SOL     OW31708   1.487   5.746   0.514
10270SOL    HW131709   1.486   5.735   0.414
10270SOL    HW231710   1.565   5.803   0.540
10271SOL     OW31711   4.535   4.641   1.502
10271SOL    HW131712   4.634   4.632   1.503
10271SOL    HW231713   4.510   4.737   1.516
10272SOL     OW31714   0.785   1.290   5.810
10272SOL    HW131715   0.726   1.369   5.825
10272SOL    HW231716   0.729   1.210   5.789
10273SOL     OW31717   3.966   5.270   5.029
10273SOL    HW131718   4.009   5.356   5.001
10273SOL    HW231719   3.890   5.249   4.968
10274SOL     OW31720   0.927   5.021   5.508
10274SOL    HW131721   0.842   4.970   5.491
10274SOL    HW231722   0.919   5.071   5.594
10275SOL     OW31723   1.107   6.447   2.633
10275SOL    HW131724   1.171   6.372   2.649
10275SOL    HW231725   1.028   6.413   2.581
10276SOL     OW31726   6.185   5.767   5.940
10276SOL    HW131727   6.104   5.761   5.882
10276SOL    HW231728   6.218   5.675   5.961
10277SOL     OW31729   2.810   6.518   4.430
10277SOL    HW131730   2.793   6.421   4.445
10277SOL    HW231731   2.826   6.564   4.517
10278SOL     OW31732   6.371   0.678   6.119
10278SOL    HW131733   6.463   0.716   6.121
10278SOL    HW231734   6.306   0.745   6.155
10279SOL     OW31735   3.335   6.998   4.166
10279SOL    HW131736   3.393   0.014   4.096
10279SOL    HW231737   3.239   7.016   4.145
10280SOL     OW31738   1.770   4.224   6.999
10280SOL    HW131739   1.784   4.308   0.026
10280SOL    HW231740   1.859   4.186   6.973
10281SOL     OW31741   4.655   0.624   3.575
10281SOL    HW131742   4.574   0.682   3.569
10281SOL    HW231743   4.650   0.552   3.505
10282SOL     OW31744   1.233   2.051   4.232
10282SOL    HW131745   1.284   2.119   4.179
10282SOL    HW231746   1.201   2.092   4.318
10283SOL     OW31747   1.447   3.725   0.341
10283SOL    HW131748   1.412   3.818   0.346
10283SOL    HW231749   1.414   3.672   0.420
10284SOL     OW31750   5.571   2.747   5.557
10284SOL    HW131751   5.491   2.773   5.503
10284SOL    HW231752   5.638   2.703   5.497
10285SOL     OW31753   5.871   0.222   0.800
10285SOL    HW131754   5.845   0.133   0.837
10285SOL    HW231755   5.848   0.225   0.702
10286SOL     OW31756   3.892   0.080   3.512
10286SOL    HW131757   3.846   0.092   3.600
10286SOL    HW231758   3.849   0.004   3.462
10287SOL     OW31759   2.115   6.715   1.866
10287SOL    HW131760   2.117   6.660   1.950
10287SOL    HW231761   2.057   6.795   1.880
10288SOL     OW31762   6.394   6.421   3.412
10288SOL    HW131763   6.388   6.517   3.441
10288SOL    HW231764   6.463   6.374   3.465
10289SOL     OW31765   3.202   1.193   1.637
10289SOL    HW131766   3.182   1.136   1.716
10289SOL    HW231767   3.283   1.248   1.655
10290SOL     OW31768   4.106   3.352   2.802
10290SOL    HW131769   4.189   3.361   2.857
10290SOL    HW231770   4.029   3.329   2.862
10291SOL     OW31771   3.037   0.882   5.138
10291SOL    HW131772   3.076   0.812   5.198
10291SOL    HW231773   3.083   0.970   5.155
10292SOL     OW31774   0.862   1.127   4.271
10292SOL    HW131775   0.798   1.193   4.309
10292SOL    HW231776   0.836   1.107   4.176
10293SOL     OW31777   2.152   6.139   3.373
10293SOL    HW131778   2.144   6.045   3.407
10293SOL    HW231779   2.147   6.203   3.450
10294SOL     OW31780   5.496   1.540   3.485
10294SOL    HW131781   5.486   1.539   3.585
10294SOL    HW231782   5.582   1.496   3.460
10295SOL     OW31783   0.465   5.790   6.007
10295SOL    HW131784   0.442   5.819   5.914
10295SOL    HW231785   0.498   5.868   6.059
10296SOL     OW31786   6.701   3.187   0.273
10296SOL    HW131787   6.669   3.101   0.232
10296SOL    HW231788   6.637   3.215   0.345
10297SOL     OW31789   1.406   4.951   4.637
10297SOL    HW131790   1.311   4.932   4.612
10297SOL    HW231791   1.410   5.037   4.689
10298SOL     OW31792   4.841   3.853   3.850
10298SOL    HW131793   4.770   3.915   3.818
10298SOL    HW231794   4.887   3.811   3.771
10299SOL     OW31795   5.087   4.455   3.206
10299SOL    HW131796   5.143   4.372   3.202
10299SOL    HW231797   5.080   4.495   3.115
10300SOL     OW31798   0.976   3.976   3.042
10300SOL    HW131799   1.021   3.985   2.953
10300SOL    HW231800   0.932   4.062   3.065
10301SOL     OW31801   5.751   1.490   1.318
10301SOL    HW131802   5.708   1.494   1.408
10301SOL    HW231803   5.814   1.566   1.308
10302SOL     OW31804   1.454   5.688   2.982
10302SOL    HW131805   1.487   5.595   2.995
10302SOL    HW231806   1.511   5.736   2.916
10303SOL     OW31807   3.907   3.806   1.581
10303SOL    HW131808   3.910   3.865   1.662
10303SOL    HW231809   3.960   3.723   1.600
10304SOL     OW31810   6.931   0.045   2.502
10304SOL    HW131811   6.907   7.026   2.416
10304SOL    HW231812   7.009   0.106   2.486
10305SOL     OW31813   0.962   5.646   0.651
10305SOL    HW131814   1.012   5.654   0.738
10305SOL    HW231815   1.000   5.571   0.598
10306SOL     OW31816   4.318   6.233   0.808
10306SOL    HW131817   4.303   6.142   0.770
10306SOL    HW231818   4.413   6.241   0.837
10307SOL     OW31819   1.735   1.084   6.033
10307SOL    HW131820   1.665   1.017   6.008
10307SOL    HW231821   1.781   1.054   6.117
10308SOL     OW31822   3.035   6.081   3.328
10308SOL    HW131823   2.999   5.989   3.344
10308SOL    HW231824   3.008   6.113   3.237
10309SOL     OW31825   6.740   6.482   2.906
10309SOL    HW131826   6.796   6.558   2.940
10309SOL    HW231827   6.694   6.438   2.983
10310SOL     OW31828   3.643   4.105   3.298
10310SOL    HW131829   3.547   4.122   3.279
10310SOL    HW231830   3.695   4.111   3.213
10311SOL     OW31831   6.881   5.600   0.421
10311SOL    HW131832   6.968   5.613   0.468
10311SOL    HW231833   6.887   5.636   0.328
10312SOL     OW31834   2.294   4.614   0.658
10312SOL    HW131835   2.227   4.566   0.601
10312SOL    HW231836   2.340   4.548   0.717
10313SOL     OW31837   5.598   0.084   2.929
10313SOL    HW131838   5.590   0.106   3.027
10313SOL    HW231839   5.510   0.100   2.885
10314SOL     OW31840   6.732   6.990   1.149
10314SOL    HW131841   6.739   6.897   1.112
10314SOL    HW231842   6.813   0.016   1.123
10315SOL     OW31843   6.615   5.418   4.474
10315SOL    HW131844   6.633   5.330   4.519
10315SOL    HW231845   6.599   5.488   4.543
10316SOL     OW31846   0.169   4.120   3.800
10316SOL    HW131847   0.198   4.213   3.825
10316SOL    HW231848   0.232   4.083   3.732
10317SOL     OW31849   4.072   5.456   0.250
10317SOL    HW131850   4.003   5.523   0.221
10317SOL    HW231851   4.080   5.385   0.181
10318SOL     OW31852   5.858   5.599   2.032
10318SOL    HW131853   5.896   5.641   1.949
10318SOL    HW231854   5.783   5.537   2.006
10319SOL     OW31855   5.634   6.313   3.223
10319SOL    HW131856   5.577   6.396   3.219
10319SOL    HW231857   5.713   6.330   3.282
10320SOL     OW31858   6.930   6.800   1.418
10320SOL    HW131859   6.905   6.858   1.496
10320SOL    HW231860   6.858   6.733   1.402
10321SOL     OW31861   4.480   5.395   4.053
10321SOL    HW131862   4.396   5.359   4.092
10321SOL    HW231863   4.550   5.401   4.124
10322SOL     OW31864   6.190   3.777   0.775
10322SOL    HW131865   6.175   3.689   0.730
10322SOL    HW231866   6.277   3.775   0.824
10323SOL     OW31867   5.224   2.706   5.701
10323SOL    HW131868   5.163   2.713   5.622
10323SOL    HW231869   5.313   2.670   5.671
10324SOL     OW31870   3.213   2.993   3.451
10324SOL    HW131871   3.241   2.926   3.382
10324SOL    HW231872   3.259   3.080   3.433
10325SOL     OW31873   0.669   2.929   2.567
10325SOL    HW131874   0.584   2.980   2.577
10325SOL    HW231875   0.665   2.872   2.486
10326SOL     OW31876   5.483   1.783   0.771
10326SOL    HW131877   5.582   1.790   0.755
10326SOL    HW231878   5.466   1.760   0.866
10327SOL     OW31879   0.485   0.987   3.072
10327SOL    HW131880   0.549   0.911   3.073
10327SOL    HW231881   0.499   1.041   2.989
10328SOL     OW31882   5.819   2.997   1.966
10328SOL    HW131883   5.864   2.990   2.055
10328SOL    HW231884   5.754   3.073   1.967
10329SOL     OW31885   3.211   6.758   2.720
10329SOL    HW131886   3.252   6.711   2.799
10329SOL    HW231887   3.219   6.700   2.639
10330SOL     OW31888   3.898   5.224   1.791
10330SOL    HW131889   3.805   5.190   1.779
10330SOL    HW231890   3.918   5.234   1.888
10331SOL     OW31891   5.975   0.409   3.451
10331SOL    HW131892   6.057   0.362   3.418
10331SOL    HW231893   5.999   0.474   3.522
10332SOL     OW31894   6.780   2.773   6.022
10332SOL    HW131895   6.879   2.769   6.006
10332SOL    HW231896   6.738   2.831   5.953
10333SOL     OW31897   5.211   5.099   4.344
10333SOL    HW131898   5.129   5.050   4.314
10333SOL    HW231899   5.278   5.100   4.270
10334SOL     OW31900   2.193   4.915   3.975
10334SOL    HW131901   2.123   4.847   3.994
10334SOL    HW231902   2.277   4.893   4.024
10335SOL     OW31903   1.709   5.067   1.351
10335SOL    HW131904   1.691   4.970   1.366
10335SOL    HW231905   1.728   5.111   1.439
10336SOL     OW31906   3.917   6.541   2.664
10336SOL    HW131907   3.887   6.553   2.570
10336SOL    HW231908   4.016   6.525   2.667
10337SOL     OW31909   0.759   4.528   4.808
10337SOL    HW131910   0.812   4.444   4.821
10337SOL    HW231911   0.800   4.602   4.861
10338SOL     OW31912   2.698   6.004   3.054
10338SOL    HW131913   2.667   6.073   3.119
10338SOL    HW231914   2.739   6.049   2.974
10339SOL     OW31915   2.591   6.072   1.290
10339SOL    HW131916   2.523   6.099   1.221
10339SOL    HW231917   2.674   6.040   1.244
10340SOL     OW31918   1.883   6.904   0.804
10340SOL    HW131919   1.891   7.003   0.794
10340SOL    HW231920   1.789   6.877   0.784
10341SOL     OW31921   2.032   1.798   2.560
10341SOL    HW131922   2.099   1.728   2.586
10341SOL    HW231923   1.941   1.769   2.588
10342SOL     OW31924   2.568   6.993   4.937
10342SOL    HW131925   2.561   6.981   5.036
10342SOL    HW231926   2.641   0.032   4.916
10343SOL     OW31927   2.358   3.434   5.272
10343SOL    HW131928   2.288   3.466   5.335
10343SOL    HW231929   2.322   3.358   5.217
10344SOL     OW31930   3.695   4.233   5.133
10344SOL    HW131931   3.618   4.197   5.186
10344SOL    HW231932   3.703   4.184   5.047
10345SOL     OW31933   2.291   1.420   6.420
10345SOL    HW131934   2.258   1.514   6.417
10345SOL    HW231935   2.216   1.357   6.400
10346SOL     OW31936   5.311   5.806   0.176
10346SOL    HW131937   5.363   5.791   0.092
10346SOL    HW231938   5.337   5.894   0.215
10347SOL     OW31939   5.319   1.489   1.927
10347SOL    HW131940   5.358   1.464   2.016
10347SOL    HW231941   5.223   1.461   1.924
10348SOL     OW31942   0.581   6.655   5.455
10348SOL    HW131943   0.521   6.734   5.464
10348SOL    HW231944   0.650   6.673   5.384
10349SOL     OW31945   6.844   1.824   0.969
10349SOL    HW131946   6.799   1.913   0.965
10349SOL    HW231947   6.933   1.833   1.014
10350SOL     OW31948   2.479   5.023   4.502
10350SOL    HW131949   2.468   4.931   4.541
10350SOL    HW231950   2.575   5.049   4.504
10351SOL     OW31951   4.994   4.330   5.111
10351SOL    HW131952   5.089   4.354   5.129
10351SOL    HW231953   4.947   4.310   5.197
10352SOL     OW31954   5.834   2.028   0.439
10352SOL    HW131955   5.740   2.019   0.407
10352SOL    HW231956   5.895   2.043   0.360
10353SOL     OW31957   6.767   2.944   3.683
10353SOL    HW131958   6.841   2.880   3.705
10353SOL    HW231959   6.766   2.962   3.585
10354SOL     OW31960   0.541   3.224   0.575
10354SOL    HW131961   0.447   3.252   0.554
10354SOL    HW231962   0.544   3.185   0.667
10355SOL     OW31963   1.044   0.803   0.720
10355SOL    HW131964   1.139   0.784   0.698
10355SOL    HW231965   1.037   0.894   0.762
10356SOL     OW31966   6.396   3.958   6.532
10356SOL    HW131967   6.492   3.930   6.537
10356SOL    HW231968   6.391   4.058   6.533
10357SOL     OW31969   1.223   2.825   6.097
10357SOL    HW131970   1.267   2.776   6.021
10357SOL    HW231971   1.247   2.922   6.093
10358SOL     OW31972   0.921   2.853   1.960
10358SOL    HW131973   0.878   2.763   1.968
10358SOL    HW231974   1.020   2.842   1.954
10359SOL     OW31975   5.700   1.935   2.304
10359SOL    HW131976   5.603   1.959   2.317
10359SOL    HW231977   5.737   1.899   2.390
10360SOL     OW31978   5.925   4.044   2.053
10360SOL    HW131979   5.843   4.028   2.109
10360SOL    HW231980   5.899   4.084   1.966
10361SOL     OW31981   0.603   1.545   1.594
10361SOL    HW131982   0.529   1.526   1.530
10361SOL    HW231983   0.632   1.461   1.639
10362SOL     OW31984   1.038   5.066   2.180
10362SOL    HW131985   1.110   5.049   2.246
10362SOL    HW231986   1.075   5.115   2.101
10363SOL     OW31987   5.076   4.614   0.360
10363SOL    HW131988   5.063   4.515   0.365
10363SOL    HW231989   5.009   4.654   0.298
10364SOL     OW31990   6.072   4.541   2.405
10364SOL    HW131991   6.133   4.599   2.459
10364SOL    HW231992   6.089   4.557   2.307
10365SOL     OW31993   6.380   6.090   0.609
10365SOL    HW131994   6.310   6.034   0.651
10365SOL    HW231995   6.339   6.147   0.538
10366SOL     OW31996   2.592   6.176   3.228
10366SOL    HW131997   2.560   6.163   3.322
10366SOL    HW231998   2.513   6.198   3.169
10367SOL     OW31999   5.892   1.541   0.959
10367SOL    HW132000   5.931   1.604   0.892
10367SOL    HW232001   5.799   1.516   0.932
10368SOL     OW32002   1.706   5.798   2.084
10368SOL    HW132003   1.690   5.871   2.150
10368SOL    HW232004   1.776   5.735   2.118
10369SOL     OW32005   3.406   0.037   5.867
10369SOL    HW132006   3.356   0.011   5.784
10369SOL    HW232007   3.389   0.134   5.886
10370SOL     OW32008   0.576   1.165   5.035
10370SOL    HW132009   0.642   1.240   5.026
10370SOL    HW232010   0.599   1.110   5.116
10371SOL     OW32011   3.407   5.311   3.499
10371SOL    HW132012   3.442   5.386   3.444
10371SOL    HW232013   3.307   5.309   3.493
10372SOL     OW32014   2.838   6.414   1.600
10372SOL    HW132015   2.786   6.468   1.666
10372SOL    HW232016   2.794   6.325   1.586
10373SOL     OW32017   0.780   1.721   5.316
10373SOL    HW132018   0.841   1.653   5.274
10373SOL    HW232019   0.832   1.801   5.343
10374SOL     OW32020   3.313   6.519   4.674
10374SOL    HW132021   3.291   6.582   4.749
10374SOL    HW232022   3.316   6.426   4.709
10375SOL     OW32023   2.709   3.805   0.395
10375SOL    HW132024   2.633   3.799   0.459
10375SOL    HW232025   2.782   3.861   0.435
10376SOL     OW32026   1.979   4.653   2.983
10376SOL    HW132027   2.033   4.581   3.026
10376SOL    HW232028   2.039   4.712   2.928
10377SOL     OW32029   1.457   0.897   3.185
10377SOL    HW132030   1.414   0.811   3.156
10377SOL    HW232031   1.423   0.922   3.275
10378SOL     OW32032   0.016   4.220   4.864
10378SOL    HW132033   0.099   4.219   4.919
10378SOL    HW232034   6.965   4.252   4.919
10379SOL     OW32035   1.672   6.283   4.760
10379SOL    HW132036   1.594   6.286   4.698
10379SOL    HW232037   1.639   6.275   4.855
10380SOL     OW32038   1.940   2.672   4.645
10380SOL    HW132039   1.997   2.593   4.622
10380SOL    HW232040   1.927   2.675   4.744
10381SOL     OW32041   4.072   4.749   2.032
10381SOL    HW132042   4.113   4.682   2.094
10381SOL    HW232043   4.086   4.719   1.937
10382SOL     OW32044   3.438   5.594   1.586
10382SOL    HW132045   3.414   5.546   1.502
10382SOL    HW232046   3.489   5.532   1.647
10383SOL     OW32047   2.119   4.514   0.493
10383SOL    HW132048   2.104   4.587   0.427
10383SOL    HW232049   2.038   4.505   0.551
10384SOL     OW32050   6.063   6.324   1.877
10384SOL    HW132051   6.143   6.342   1.935
10384SOL    HW232052   6.078   6.363   1.786
10385SOL     OW32053   4.054   4.637   6.928
10385SOL    HW132054   4.130   4.574   6.912
10385SOL    HW232055   3.997   4.642   6.846
10386SOL     OW32056   0.294   0.670   0.282
10386SOL    HW132057   0.267   0.580   0.315
10386SOL    HW232058   0.264   0.740   0.347
10387SOL     OW32059   4.892   3.044   2.319
10387SOL    HW132060   4.815   3.057   2.256
10387SOL    HW232061   4.977   3.074   2.276
10388SOL     OW32062   3.138   0.471   6.128
10388SOL    HW132063   3.086   0.468   6.042
10388SOL    HW232064   3.205   0.545   6.124
10389SOL     OW32065   0.837   3.040   0.613
10389SOL    HW132066   0.929   3.007   0.594
10389SOL    HW232067   0.777   3.018   0.536
10390SOL     OW32068   3.272   2.584   1.294
10390SOL    HW132069   3.239   2.668   1.251
10390SOL    HW232070   3.352   2.550   1.243
10391SOL     OW32071   6.380   6.645   4.093
10391SOL    HW132072   6.429   6.608   4.172
10391SOL    HW232073   6.309   6.708   4.124
10392SOL     OW32074   6.718   5.148   4.359
10392SOL    HW132075   6.652   5.110   4.425
10392SOL    HW232076   6.811   5.135   4.395
10393SOL     OW32077   1.445   3.957   4.154
10393SOL    HW132078   1.412   3.938   4.062
10393SOL    HW232079   1.459   4.056   4.164
10394SOL     OW32080   2.894   5.791   4.451
10394SOL    HW132081   2.967   5.786   4.383
10394SOL    HW232082   2.854   5.700   4.463
10395SOL     OW32083   6.923   0.105   0.662
10395SOL    HW132084   6.962   0.042   0.729
10395SOL    HW232085   6.883   0.183   0.709
10396SOL     OW32086   2.780   1.528   4.605
10396SOL    HW132087   2.879   1.534   4.612
10396SOL    HW232088   2.738   1.572   4.684
10397SOL     OW32089   2.975   1.893   2.750
10397SOL    HW132090   2.912   1.900   2.673
10397SOL    HW232091   2.955   1.966   2.816
10398SOL     OW32092   0.344   3.235   1.652
10398SOL    HW132093   0.259   3.197   1.691
10398SOL    HW232094   0.405   3.262   1.727
10399SOL     OW32095   6.719   2.824   1.926
10399SOL    HW132096   6.737   2.774   1.841
10399SOL    HW232097   6.621   2.832   1.940
10400SOL     OW32098   4.458   6.843   0.460
10400SOL    HW132099   4.534   6.824   0.397
10400SOL    HW232100   4.460   6.778   0.535
10401SOL     OW32101   6.451   0.624   4.516
10401SOL    HW132102   6.495   0.691   4.457
10401SOL    HW232103   6.352   0.634   4.511
10402SOL     OW32104   6.395   2.760   4.512
10402SOL    HW132105   6.450   2.686   4.473
10402SOL    HW232106   6.365   2.822   4.439
10403SOL     OW32107   2.849   0.714   3.365
10403SOL    HW132108   2.907   0.721   3.284
10403SOL    HW232109   2.847   0.619   3.396
10404SOL     OW32110   6.675   6.984   6.066
10404SOL    HW132111   6.615   6.917   6.022
10404SOL    HW232112   6.650   0.050   6.035
10405SOL     OW32113   0.647   1.591   5.522
10405SOL    HW132114   0.680   1.618   5.432
10405SOL    HW232115   0.710   1.625   5.592
10406SOL     OW32116   3.352   5.010   1.815
10406SOL    HW132117   3.312   4.965   1.894
10406SOL    HW232118   3.315   4.970   1.731
10407SOL     OW32119   3.272   6.139   6.467
10407SOL    HW132120   3.364   6.155   6.433
10407SOL    HW232121   3.216   6.099   6.394
10408SOL     OW32122   5.024   1.051   0.369
10408SOL    HW132123   5.053   1.033   0.275
10408SOL    HW232124   5.045   0.972   0.426
10409SOL     OW32125   6.631   4.927   0.151
10409SOL    HW132126   6.627   4.946   0.249
10409SOL    HW232127   6.711   4.972   0.111
10410SOL     OW32128   5.420   1.632   0.047
10410SOL    HW132129   5.440   1.544   0.004
10410SOL    HW232130   5.321   1.644   0.053
10411SOL     OW32131   2.902   5.654   2.952
10411SOL    HW132132   2.972   5.583   2.965
10411SOL    HW232133   2.820   5.612   2.913
10412SOL     OW32134   6.142   1.114   0.549
10412SOL    HW132135   6.157   1.016   0.563
10412SOL    HW232136   6.123   1.131   0.453
10413SOL     OW32137   6.933   1.921   1.443
10413SOL    HW132138   7.010   1.876   1.487
10413SOL    HW232139   6.967   1.983   1.372
10414SOL     OW32140   4.510   3.620   5.782
10414SOL    HW132141   4.497   3.675   5.699
10414SOL    HW232142   4.572   3.668   5.844
10415SOL     OW32143   0.528   5.509   6.092
10415SOL    HW132144   0.541   5.607   6.075
10415SOL    HW232145   0.613   5.461   6.071
10416SOL     OW32146   5.794   1.744   3.678
10416SOL    HW132147   5.859   1.773   3.748
10416SOL    HW232148   5.777   1.820   3.615
10417SOL     OW32149   3.070   4.980   4.299
10417SOL    HW132150   3.111   4.912   4.361
10417SOL    HW232151   3.012   4.933   4.232
10418SOL     OW32152   0.119   4.786   5.791
10418SOL    HW132153   0.071   4.856   5.844
10418SOL    HW232154   0.205   4.824   5.756
10419SOL     OW32155   1.265   0.717   6.981
10419SOL    HW132156   1.249   0.632   0.006
10419SOL    HW232157   1.261   0.794   0.019
10420SOL     OW32158   0.456   3.304   2.423
10420SOL    HW132159   0.422   3.366   2.352
10420SOL    HW232160   0.531   3.347   2.472
10421SOL     OW32161   1.278   1.564   3.567
10421SOL    HW132162   1.266   1.648   3.620
10421SOL    HW232163   1.233   1.573   3.479
10422SOL     OW32164   6.642   2.468   5.439
10422SOL    HW132165   6.664   2.397   5.371
10422SOL    HW232166   6.725   2.494   5.488
10423SOL     OW32167   5.192   5.143   4.595
10423SOL    HW132168   5.109   5.088   4.609
10423SOL    HW232169   5.218   5.140   4.498
10424SOL     OW32170   5.325   2.281   6.908
10424SOL    HW132171   5.311   2.344   6.831
10424SOL    HW232172   5.423   2.263   6.919
10425SOL     OW32173   1.912   6.878   2.220
10425SOL    HW132174   1.986   6.818   2.251
10425SOL    HW232175   1.831   6.864   2.277
10426SOL     OW32176   0.064   4.104   0.707
10426SOL    HW132177   7.020   4.144   0.647
10426SOL    HW232178   0.042   4.008   0.725
10427SOL     OW32179   4.627   1.799   0.218
10427SOL    HW132180   4.562   1.727   0.194
10427SOL    HW232181   4.698   1.761   0.277
10428SOL     OW32182   3.453   1.389   4.728
10428SOL    HW132183   3.542   1.376   4.686
10428SOL    HW232184   3.413   1.475   4.697
10429SOL     OW32185   6.809   5.733   1.307
10429SOL    HW132186   6.837   5.675   1.231
10429SOL    HW232187   6.809   5.680   1.392
10430SOL     OW32188   4.799   0.532   3.846
10430SOL    HW132189   4.750   0.611   3.883
10430SOL    HW232190   4.803   0.539   3.746
10431SOL     OW32191   3.168   0.247   5.486
10431SOL    HW132192   3.204   0.210   5.400
10431SOL    HW232193   3.239   0.244   5.556
10432SOL     OW32194   6.188   1.034   3.989
10432SOL    HW132195   6.239   1.117   3.965
10432SOL    HW232196   6.146   0.996   3.906
10433SOL     OW32197   1.883   6.365   1.824
10433SOL    HW132198   1.918   6.449   1.866
10433SOL    HW232199   1.960   6.313   1.786
10434SOL     OW32200   3.415   0.333   3.267
10434SOL    HW132201   3.471   0.276   3.208
10434SOL    HW232202   3.327   0.288   3.283
10435SOL     OW32203   6.536   6.971   5.156
10435SOL    HW132204   6.599   6.953   5.232
10435SOL    HW232205   6.484   6.888   5.135
10436SOL     OW32206   0.492   4.904   4.855
10436SOL    HW132207   0.589   4.906   4.876
10436SOL    HW232208   0.439   4.929   4.936
10437SOL     OW32209   6.314   5.128   5.571
10437SOL    HW132210   6.284   5.179   5.490
10437SOL    HW232211   6.381   5.059   5.544
10438SOL     OW32212   5.455   6.493   0.224
10438SOL    HW132213   5.455   6.555   0.145
10438SOL    HW232214   5.545   6.452   0.234
10439SOL     OW32215   3.263   1.225   5.727
10439SOL    HW132216   3.226   1.191   5.814
10439SOL    HW232217   3.356   1.259   5.742
10440SOL     OW32218   0.585   6.531   1.142
10440SOL    HW132219   0.555   6.564   1.052
10440SOL    HW232220   0.536   6.581   1.213
10441SOL     OW32221   5.335   1.571   6.800
10441SOL    HW132222   5.306   1.649   6.744
10441SOL    HW232223   5.255   1.524   6.836
10442SOL     OW32224   3.548   5.072   5.653
10442SOL    HW132225   3.480   5.005   5.625
10442SOL    HW232226   3.593   5.042   5.737
10443SOL     OW32227   5.564   3.612   4.697
10443SOL    HW132228   5.587   3.518   4.672
10443SOL    HW232229   5.480   3.639   4.651
10444SOL     OW32230   3.914   5.159   4.647
10444SOL    HW132231   3.966   5.244   4.635
10444SOL    HW232232   3.937   5.096   4.573
10445SOL     OW32233   0.460   4.740   4.107
10445SOL    HW132234   0.481   4.663   4.167
10445SOL    HW232235   0.433   4.819   4.163
10446SOL     OW32236   0.748   4.501   6.829
10446SOL    HW132237   0.673   4.464   6.773
10446SOL    HW232238   0.773   4.591   6.795
10447SOL     OW32239   0.256   1.334   1.887
10447SOL    HW132240   0.263   1.264   1.816
10447SOL    HW232241   0.234   1.422   1.845
10448SOL     OW32242   4.432   3.638   1.228
10448SOL    HW132243   4.478   3.724   1.208
10448SOL    HW232244   4.368   3.616   1.155
10449SOL     OW32245   2.402   5.362   4.200
10449SOL    HW132246   2.425   5.458   4.212
10449SOL    HW232247   2.380   5.345   4.104
10450SOL     OW32248   0.307   2.582   6.800
10450SOL    HW132249   0.282   2.548   6.710
10450SOL    HW232250   0.395   2.544   6.827
10451SOL     OW32251   2.585   4.576   2.462
10451SOL    HW132252   2.532   4.517   2.524
10451SOL    HW232253   2.572   4.544   2.368
10452SOL     OW32254   0.153   3.375   3.249
10452SOL    HW132255   0.235   3.316   3.252
10452SOL    HW232256   0.128   3.402   3.342
10453SOL     OW32257   5.638   5.968   1.610
10453SOL    HW132258   5.598   5.926   1.529
10453SOL    HW232259   5.629   5.905   1.688
10454SOL     OW32260   5.400   3.183   1.595
10454SOL    HW132261   5.435   3.226   1.512
10454SOL    HW232262   5.360   3.094   1.573
10455SOL     OW32263   0.437   5.228   3.700
10455SOL    HW132264   0.443   5.325   3.676
10455SOL    HW232265   0.363   5.215   3.767
10456SOL     OW32266   2.872   6.020   1.212
10456SOL    HW132267   2.900   6.105   1.168
10456SOL    HW232268   2.952   5.973   1.249
10457SOL     OW32269   3.788   3.722   3.746
10457SOL    HW132270   3.795   3.632   3.789
10457SOL    HW232271   3.880   3.762   3.738
10458SOL     OW32272   0.815   0.164   0.118
10458SOL    HW132273   0.738   0.167   0.181
10458SOL    HW232274   0.782   0.145   0.025
10459SOL     OW32275   5.622   5.365   2.296
10459SOL    HW132276   5.712   5.348   2.256
10459SOL    HW232277   5.581   5.446   2.254
10460SOL     OW32278   2.853   5.922   1.946
10460SOL    HW132279   2.758   5.925   1.918
10460SOL    HW232280   2.869   5.988   2.019
10461SOL     OW32281   1.905   6.908   6.475
10461SOL    HW132282   1.955   6.860   6.547
10461SOL    HW232283   1.969   6.959   6.418
10462SOL     OW32284   5.899   0.608   1.423
10462SOL    HW132285   5.929   0.608   1.328
10462SOL    HW232286   5.975   0.630   1.483
10463SOL     OW32287   3.051   4.360   6.438
10463SOL    HW132288   2.987   4.328   6.368
10463SOL    HW232289   3.026   4.452   6.467
10464SOL     OW32290   4.346   0.172   1.151
10464SOL    HW132291   4.379   0.223   1.231
10464SOL    HW232292   4.277   0.226   1.103
10465SOL     OW32293   0.692   6.726   5.750
10465SOL    HW132294   0.763   6.797   5.744
10465SOL    HW232295   0.605   6.769   5.773
10466SOL     OW32296   4.690   5.431   5.180
10466SOL    HW132297   4.727   5.520   5.155
10466SOL    HW232298   4.707   5.365   5.107
10467SOL     OW32299   1.848   1.400   5.576
10467SOL    HW132300   1.905   1.442   5.506
10467SOL    HW232301   1.906   1.365   5.650
10468SOL     OW32302   3.529   6.369   4.268
10468SOL    HW132303   3.562   6.286   4.223
10468SOL    HW232304   3.491   6.432   4.199
10469SOL     OW32305   2.328   3.893   0.915
10469SOL    HW132306   2.237   3.935   0.915
10469SOL    HW232307   2.320   3.796   0.939
10470SOL     OW32308   2.295   1.458   4.380
10470SOL    HW132309   2.379   1.411   4.407
10470SOL    HW232310   2.225   1.390   4.359
10471SOL     OW32311   2.425   4.022   1.733
10471SOL    HW132312   2.440   4.020   1.832
10471SOL    HW232313   2.330   4.000   1.713
10472SOL     OW32314   3.925   6.938   2.497
10472SOL    HW132315   3.846   6.886   2.530
10472SOL    HW232316   3.931   7.024   2.546
10473SOL     OW32317   5.842   6.491   0.085
10473SOL    HW132318   5.926   6.523   0.040
10473SOL    HW232319   5.805   6.565   0.141
10474SOL     OW32320   4.200   0.766   4.466
10474SOL    HW132321   4.156   0.681   4.436
10474SOL    HW232322   4.299   0.752   4.471
10475SOL     OW32323   4.111   6.858   1.379
10475SOL    HW132324   4.144   6.773   1.337
10475SOL    HW232325   4.023   6.883   1.340
10476SOL     OW32326   6.591   5.564   6.540
10476SOL    HW132327   6.623   5.653   6.507
10476SOL    HW232328   6.647   5.536   6.618
10477SOL     OW32329   5.529   3.401   4.968
10477SOL    HW132330   5.581   3.419   4.884
10477SOL    HW232331   5.472   3.320   4.955
10478SOL     OW32332   0.586   6.768   0.080
10478SOL    HW132333   0.671   6.715   0.083
10478SOL    HW232334   0.566   6.804   0.171
10479SOL     OW32335   1.636   3.542   2.023
10479SOL    HW132336   1.546   3.586   2.031
10479SOL    HW232337   1.698   3.581   2.092
10480SOL     OW32338   5.470   6.700   1.962
10480SOL    HW132339   5.415   6.616   1.961
10480SOL    HW232340   5.566   6.676   1.973
10481SOL     OW32341   2.597   1.154   5.213
10481SOL    HW132342   2.631   1.064   5.188
10481SOL    HW232343   2.504   1.166   5.177
10482SOL     OW32344   0.709   5.952   4.909
10482SOL    HW132345   0.625   5.964   4.963
10482SOL    HW232346   0.757   6.039   4.903
10483SOL     OW32347   6.287   5.909   6.906
10483SOL    HW132348   6.232   5.890   6.987
10483SOL    HW232349   6.382   5.884   6.923
10484SOL     OW32350   0.058   1.091   1.596
10484SOL    HW132351   0.060   1.051   1.504
10484SOL    HW232352   0.034   1.188   1.590
10485SOL     OW32353   3.291   3.761   2.918
10485SOL    HW132354   3.353   3.750   2.996
10485SOL    HW232355   3.247   3.674   2.898
10486SOL     OW32356   0.259   6.688   5.664
10486SOL    HW132357   0.288   6.716   5.572
10486SOL    HW232358   0.170   6.643   5.659
10487SOL     OW32359   4.477   1.653   1.986
10487SOL    HW132360   4.380   1.645   1.966
10487SOL    HW232361   4.490   1.681   2.081
10488SOL     OW32362   0.509   2.179   5.694
10488SOL    HW132363   0.549   2.164   5.604
10488SOL    HW232364   0.574   2.230   5.751
10489SOL     OW32365   5.964   4.869   3.714
10489SOL    HW132366   5.934   4.889   3.808
10489SOL    HW232367   5.944   4.948   3.656
10490SOL     OW32368   6.124   0.337   0.804
10490SOL    HW132369   6.033   0.296   0.805
10490SOL    HW232370   6.189   0.274   0.847
10491SOL     OW32371   1.434   3.477   6.526
10491SOL    HW132372   1.391   3.552   6.576
10491SOL    HW232373   1.486   3.513   6.449
10492SOL     OW32374   4.777   0.549   0.879
10492SOL    HW132375   4.681   0.545   0.849
10492SOL    HW232376   4.801   0.463   0.924
10493SOL     OW32377   4.348   5.807   1.612
10493SOL    HW132378   4.437   5.828   1.653
10493SOL    HW232379   4.339   5.855   1.525
10494SOL     OW32380   0.453   4.330   5.982
10494SOL    HW132381   0.484   4.342   5.888
10494SOL    HW232382   0.443   4.419   6.026
10495SOL     OW32383   1.079   6.327   5.830
10495SOL    HW132384   1.063   6.415   5.785
10495SOL    HW232385   1.001   6.302   5.887
10496SOL     OW32386   6.923   3.727   5.289
10496SOL    HW132387   6.846   3.664   5.277
10496SOL    HW232388   6.893   3.820   5.268
10497SOL     OW32389   2.519   0.229   1.572
10497SOL    HW132390   2.596   0.219   1.636
10497SOL    HW232391   2.515   0.324   1.540
10498SOL     OW32392   5.007   5.413   0.907
10498SOL    HW132393   5.065   5.460   0.974
10498SOL    HW232394   4.965   5.333   0.949
10499SOL     OW32395   5.507   5.563   1.826
10499SOL    HW132396   5.555   5.649   1.810
10499SOL    HW232397   5.562   5.486   1.793
10500SOL     OW32398   6.134   3.613   5.439
10500SOL    HW132399   6.190   3.570   5.368
10500SOL    HW232400   6.053   3.654   5.398
10501SOL     OW32401   2.575   5.759   2.621
10501SOL    HW132402   2.639   5.683   2.608
10501SOL    HW232403   2.603   5.837   2.565
10502SOL     OW32404   2.896   3.421   2.578
10502SOL    HW132405   2.797   3.417   2.564
10502SOL    HW232406   2.936   3.331   2.559
10503SOL     OW32407   6.768   3.182   6.139
10503SOL    HW132408   6.792   3.237   6.219
10503SOL    HW232409   6.669   3.180   6.129
10504SOL     OW32410   1.971   2.797   6.283
10504SOL    HW132411   2.036   2.723   6.268
10504SOL    HW232412   2.003   2.855   6.358
10505SOL     OW32413   6.057   6.137   1.614
10505SOL    HW132414   6.156   6.152   1.616
10505SOL    HW232415   6.016   6.177   1.697
10506SOL     OW32416   1.190   2.715   0.158
10506SOL    HW132417   1.227   2.782   0.223
10506SOL    HW232418   1.160   2.633   0.207
10507SOL     OW32419   2.109   5.011   0.173
10507SOL    HW132420   2.171   4.948   0.126
10507SOL    HW232421   2.162   5.072   0.232
10508SOL     OW32422   1.170   4.964   5.137
10508SOL    HW132423   1.185   5.059   5.109
10508SOL    HW232424   1.072   4.948   5.149
10509SOL     OW32425   5.054   3.298   3.564
10509SOL    HW132426   5.060   3.302   3.664
10509SOL    HW232427   5.026   3.206   3.537
10510SOL     OW32428   4.528   5.551   4.787
10510SOL    HW132429   4.587   5.472   4.799
10510SOL    HW232430   4.464   5.533   4.711
10511SOL     OW32431   3.322   1.896   2.224
10511SOL    HW132432   3.356   1.920   2.315
10511SOL    HW232433   3.397   1.893   2.159
10512SOL     OW32434   4.648   0.733   4.976
10512SOL    HW132435   4.552   0.734   5.003
10512SOL    HW232436   4.655   0.744   4.877
10513SOL     OW32437   5.366   3.414   1.805
10513SOL    HW132438   5.291   3.454   1.751
10513SOL    HW232439   5.373   3.317   1.784
10514SOL     OW32440   0.992   3.066   1.486
10514SOL    HW132441   0.965   3.105   1.398
10514SOL    HW232442   1.072   3.115   1.520
10515SOL     OW32443   1.950   3.214   4.581
10515SOL    HW132444   1.858   3.248   4.560
10515SOL    HW232445   2.016   3.259   4.521
10516SOL     OW32446   3.476   2.461   0.625
10516SOL    HW132447   3.432   2.509   0.549
10516SOL    HW232448   3.485   2.524   0.702
10517SOL     OW32449   0.863   3.231   3.175
10517SOL    HW132450   0.799   3.265   3.243
10517SOL    HW232451   0.814   3.213   3.089
10518SOL     OW32452   0.656   5.321   2.197
10518SOL    HW132453   0.731   5.289   2.255
10518SOL    HW232454   0.690   5.332   2.103
10519SOL     OW32455   2.156   6.671   1.250
10519SOL    HW132456   2.128   6.590   1.301
10519SOL    HW232457   2.227   6.647   1.184
10520SOL     OW32458   0.160   1.493   5.706
10520SOL    HW132459   0.251   1.533   5.698
10520SOL    HW232460   0.141   1.471   5.801
10521SOL     OW32461   5.955   3.429   0.954
10521SOL    HW132462   5.975   3.334   0.975
10521SOL    HW232463   5.864   3.452   0.987
10522SOL     OW32464   5.381   2.513   3.183
10522SOL    HW132465   5.338   2.522   3.093
10522SOL    HW232466   5.433   2.596   3.203
10523SOL     OW32467   7.003   4.471   3.692
10523SOL    HW132468   6.973   4.379   3.716
10523SOL    HW232469   0.007   4.473   3.597
10524SOL     OW32470   6.526   6.327   3.638
10524SOL    HW132471   6.583   6.246   3.626
10524SOL    HW232472   6.574   6.393   3.696
10525SOL     OW32473   4.502   1.308   5.185
10525SOL    HW132474   4.441   1.285   5.261
10525SOL    HW232475   4.571   1.373   5.216
10526SOL     OW32476   1.229   5.317   0.291
10526SOL    HW132477   1.169   5.247   0.329
10526SOL    HW232478   1.307   5.273   0.246
10527SOL     OW32479   0.682   0.834   5.035
10527SOL    HW132480   0.629   0.865   4.956
10527SOL    HW232481   0.704   0.912   5.093
10528SOL     OW32482   0.630   4.721   6.526
10528SOL    HW132483   0.548   4.777   6.523
10528SOL    HW232484   0.674   4.730   6.615
10529SOL     OW32485   1.553   6.241   6.441
10529SOL    HW132486   1.558   6.321   6.501
10529SOL    HW232487   1.612   6.254   6.362
10530SOL     OW32488   0.928   6.837   6.943
10530SOL    HW132489   1.001   6.778   6.911
10530SOL    HW232490   0.872   6.789   7.010
10531SOL     OW32491   2.926   2.910   5.419
10531SOL    HW132492   2.832   2.928   5.389
10531SOL    HW232493   2.953   2.819   5.388
10532SOL     OW32494   5.916   5.841   6.670
10532SOL    HW132495   5.941   5.898   6.749
10532SOL    HW232496   5.969   5.869   6.590
10533SOL     OW32497   3.196   5.690   3.422
10533SOL    HW132498   3.165   5.612   3.367
10533SOL    HW232499   3.121   5.756   3.432
10534SOL     OW32500   1.166   5.943   2.525
10534SOL    HW132501   1.085   5.999   2.540
10534SOL    HW232502   1.209   5.923   2.613
10535SOL     OW32503   2.907   1.928   3.443
10535SOL    HW132504   2.886   1.977   3.358
10535SOL    HW232505   2.851   1.964   3.517
10536SOL     OW32506   5.244   1.089   4.248
10536SOL    HW132507   5.299   1.022   4.198
10536SOL    HW232508   5.300   1.167   4.273
10537SOL     OW32509   4.880   6.842   2.746
10537SOL    HW132510   4.852   6.901   2.670
10537SOL    HW232511   4.837   6.874   2.831
10538SOL     OW32512   6.231   3.352   2.409
10538SOL    HW132513   6.197   3.274   2.357
10538SOL    HW232514   6.314   3.325   2.459
10539SOL     OW32515   6.215   6.962   2.907
10539SOL    HW132516   6.291   6.897   2.915
10539SOL    HW232517   6.236   0.004   2.837
10540SOL     OW32518   2.691   3.587   5.851
10540SOL    HW132519   2.768   3.628   5.802
10540SOL    HW232520   2.651   3.655   5.913
10541SOL     OW32521   2.875   3.152   5.138
10541SOL    HW132522   2.858   3.076   5.200
10541SOL    HW232523   2.788   3.188   5.104
10542SOL     OW32524   5.853   7.010   4.392
10542SOL    HW132525   5.879   6.914   4.383
10542SOL    HW232526   5.753   7.017   4.398
10543SOL     OW32527   0.119   2.976   5.542
10543SOL    HW132528   0.131   2.877   5.550
10543SOL    HW232529   0.090   3.013   5.630
10544SOL     OW32530   1.274   1.330   3.741
10544SOL    HW132531   1.274   1.401   3.671
10544SOL    HW232532   1.255   1.241   3.699
10545SOL     OW32533   2.540   2.482   2.532
10545SOL    HW132534   2.545   2.564   2.475
10545SOL    HW232535   2.528   2.402   2.474
10546SOL     OW32536   3.132   6.994   0.942
10546SOL    HW132537   3.129   7.007   1.041
10546SOL    HW232538   3.101   0.053   0.897
10547SOL     OW32539   4.374   6.694   5.007
10547SOL    HW132540   4.325   6.764   5.059
10547SOL    HW232541   4.351   6.701   4.910
10548SOL     OW32542   1.335   4.665   4.290
10548SOL    HW132543   1.260   4.607   4.258
10548SOL    HW232544   1.307   4.761   4.287
10549SOL     OW32545   0.233   1.321   0.714
10549SOL    HW132546   0.183   1.240   0.743
10549SOL    HW232547   0.195   1.354   0.628
10550SOL     OW32548   3.358   6.143   3.138
10550SOL    HW132549   3.320   6.116   3.227
10550SOL    HW232550   3.447   6.101   3.125
10551SOL     OW32551   3.423   2.048   5.953
10551SOL    HW132552   3.498   2.065   6.017
10551SOL    HW232553   3.353   2.119   5.964
10552SOL     OW32554   3.232   0.503   4.574
10552SOL    HW132555   3.219   0.480   4.670
10552SOL    HW232556   3.329   0.502   4.551
10553SOL     OW32557   7.015   4.872   0.626
10553SOL    HW132558   7.014   4.910   0.534
10553SOL    HW232559   6.922   4.873   0.663
10554SOL     OW32560   6.204   5.084   2.845
10554SOL    HW132561   6.175   5.010   2.784
10554SOL    HW232562   6.124   5.132   2.880
10555SOL     OW32563   3.289   2.277   0.375
10555SOL    HW132564   3.221   2.245   0.441
10555SOL    HW232565   3.260   2.366   0.338
10556SOL     OW32566   2.065   2.264   2.957
10556SOL    HW132567   2.127   2.186   2.948
10556SOL    HW232568   2.070   2.320   2.874
10557SOL     OW32569   1.950   4.311   3.559
10557SOL    HW132570   1.981   4.406   3.559
10557SOL    HW232571   1.870   4.303   3.499
10558SOL     OW32572   2.874   5.464   5.733
10558SOL    HW132573   2.964   5.503   5.712
10558SOL    HW232574   2.811   5.538   5.758
10559SOL     OW32575   4.071   0.047   6.408
10559SOL    HW132576   4.066   0.131   6.354
10559SOL    HW232577   4.150   7.019   6.379
10560SOL     OW32578   4.932   6.611   1.755
10560SOL    HW132579   4.976   6.542   1.812
10560SOL    HW232580   4.970   6.607   1.663
10561SOL     OW32581   6.281   3.784   0.366
10561SOL    HW132582   6.224   3.843   0.423
10561SOL    HW232583   6.242   3.691   0.365
10562SOL     OW32584   3.184   6.210   1.358
10562SOL    HW132585   3.274   6.254   1.362
10562SOL    HW232586   3.138   6.236   1.273
10563SOL     OW32587   0.684   0.550   0.278
10563SOL    HW132588   0.686   0.624   0.345
10563SOL    HW232589   0.772   0.504   0.277
10564SOL     OW32590   5.993   5.754   3.783
10564SOL    HW132591   5.955   5.834   3.830
10564SOL    HW232592   6.037   5.783   3.698
10565SOL     OW32593   6.919   0.108   5.208
10565SOL    HW132594   6.977   0.181   5.241
10565SOL    HW232595   6.861   0.141   5.133
10566SOL     OW32596   2.630   2.960   6.977
10566SOL    HW132597   2.724   2.992   6.985
10566SOL    HW232598   2.567   3.033   7.004
10567SOL     OW32599   1.274   2.119   6.380
10567SOL    HW132600   1.350   2.063   6.346
10567SOL    HW232601   1.264   2.200   6.323
10568SOL     OW32602   5.203   2.541   6.238
10568SOL    HW132603   5.275   2.472   6.233
10568SOL    HW232604   5.113   2.497   6.231
10569SOL     OW32605   5.379   6.783   1.663
10569SOL    HW132606   5.466   6.754   1.704
10569SOL    HW232607   5.337   6.853   1.720
10570SOL     OW32608   0.749   4.852   4.373
10570SOL    HW132609   0.814   4.924   4.348
10570SOL    HW232610   0.765   4.771   4.316
10571SOL     OW32611   0.164   4.348   5.704
10571SOL    HW132612   0.146   4.362   5.606
10571SOL    HW232613   0.214   4.262   5.716
10572SOL     OW32614   5.799   4.458   1.321
10572SOL    HW132615   5.722   4.414   1.367
10572SOL    HW232616   5.873   4.393   1.309
10573SOL     OW32617   5.716   0.926   3.530
10573SOL    HW132618   5.704   0.829   3.511
10573SOL    HW232619   5.727   0.940   3.628
10574SOL     OW32620   0.129   1.786   3.814
10574SOL    HW132621   0.210   1.749   3.768
10574SOL    HW232622   0.109   1.731   3.895
10575SOL     OW32623   6.149   1.103   1.715
10575SOL    HW132624   6.201   1.186   1.733
10575SOL    HW232625   6.122   1.100   1.619
10576SOL     OW32626   1.936   5.115   3.403
10576SOL    HW132627   1.879   5.182   3.452
10576SOL    HW232628   2.023   5.105   3.450
10577SOL     OW32629   3.955   6.330   0.828
10577SOL    HW132630   4.038   6.331   0.772
10577SOL    HW232631   3.878   6.298   0.772
10578SOL     OW32632   6.746   2.594   3.914
10578SOL    HW132633   6.742   2.494   3.914
10578SOL    HW232634   6.657   2.631   3.939
10579SOL     OW32635   2.119   3.423   1.063
10579SOL    HW132636   2.044   3.422   0.997
10579SOL    HW232637   2.086   3.389   1.151
10580SOL     OW32638   6.444   6.656   6.566
10580SOL    HW132639   6.471   6.572   6.614
10580SOL    HW232640   6.358   6.641   6.518
10581SOL     OW32641   5.313   0.063   2.970
10581SOL    HW132642   5.272   0.087   2.882
10581SOL    HW232643   5.275   7.003   3.003
10582SOL     OW32644   5.850   4.306   6.544
10582SOL    HW132645   5.919   4.236   6.525
10582SOL    HW232646   5.895   4.393   6.563
10583SOL     OW32647   2.518   0.379   4.228
10583SOL    HW132648   2.533   0.303   4.291
10583SOL    HW232649   2.481   0.344   4.141
10584SOL     OW32650   0.035   0.296   5.366
10584SOL    HW132651   0.047   0.381   5.417
10584SOL    HW232652   0.093   0.225   5.407
10585SOL     OW32653   0.763   1.005   6.005
10585SOL    HW132654   0.685   1.043   5.955
10585SOL    HW232655   0.760   1.036   6.100
10586SOL     OW32656   4.576   4.405   5.580
10586SOL    HW132657   4.518   4.330   5.612
10586SOL    HW232658   4.574   4.408   5.480
10587SOL     OW32659   1.021   5.628   5.354
10587SOL    HW132660   1.049   5.637   5.449
10587SOL    HW232661   1.060   5.543   5.316
10588SOL     OW32662   1.270   4.314   4.447
10588SOL    HW132663   1.334   4.277   4.379
10588SOL    HW232664   1.322   4.364   4.517
10589SOL     OW32665   5.422   6.296   3.870
10589SOL    HW132666   5.452   6.309   3.776
10589SOL    HW232667   5.498   6.258   3.924
10590SOL     OW32668   0.343   5.570   2.375
10590SOL    HW132669   0.330   5.606   2.283
10590SOL    HW232670   0.381   5.642   2.434
10591SOL     OW32671   1.367   2.083   1.312
10591SOL    HW132672   1.419   2.087   1.397
10591SOL    HW232673   1.279   2.129   1.325
10592SOL     OW32674   6.081   1.963   5.384
10592SOL    HW132675   5.991   1.989   5.347
10592SOL    HW232676   6.142   2.042   5.380
10593SOL     OW32677   3.159   6.406   1.840
10593SOL    HW132678   3.113   6.344   1.776
10593SOL    HW232679   3.093   6.469   1.880
10594SOL     OW32680   3.348   0.385   3.617
10594SOL    HW132681   3.424   0.326   3.588
10594SOL    HW232682   3.325   0.448   3.543
10595SOL     OW32683   5.871   0.248   1.089
10595SOL    HW132684   5.775   0.248   1.115
10595SOL    HW232685   5.880   0.220   0.994
10596SOL     OW32686   4.818   1.428   6.668
10596SOL    HW132687   4.783   1.334   6.674
10596SOL    HW232688   4.850   1.446   6.575
10597SOL     OW32689   2.404   0.346   6.053
10597SOL    HW132690   2.329   0.355   5.988
10597SOL    HW232691   2.381   0.395   6.137
10598SOL     OW32692   2.483   1.525   6.036
10598SOL    HW132693   2.560   1.573   5.995
10598SOL    HW232694   2.515   1.467   6.111
10599SOL     OW32695   0.080   3.613   6.177
10599SOL    HW132696   0.123   3.523   6.188
10599SOL    HW232697   0.120   3.660   6.098
10600SOL     OW32698   2.811   2.137   1.676
10600SOL    HW132699   2.740   2.067   1.687
10600SOL    HW232700   2.772   2.227   1.697
10601SOL     OW32701   0.447   6.787   5.819
10601SOL    HW132702   0.377   6.757   5.753
10601SOL    HW232703   0.408   6.857   5.879
10602SOL     OW32704   0.612   0.166   0.280
10602SOL    HW132705   0.527   0.191   0.234
10602SOL    HW232706   0.598   0.171   0.379
10603SOL     OW32707   4.398   6.864   1.974
10603SOL    HW132708   4.312   6.816   1.956
10603SOL    HW232709   4.468   6.798   2.003
10604SOL     OW32710   0.239   6.892   4.765
10604SOL    HW132711   0.168   6.838   4.719
10604SOL    HW232712   0.267   6.845   4.849
10605SOL     OW32713   2.559   1.382   1.050
10605SOL    HW132714   2.544   1.322   1.128
10605SOL    HW232715   2.657   1.396   1.037
10606SOL     OW32716   6.400   0.782   1.275
10606SOL    HW132717   6.303   0.758   1.276
10606SOL    HW232718   6.455   0.701   1.298
10607SOL     OW32719   3.800   4.812   6.140
10607SOL    HW132720   3.764   4.905   6.150
10607SOL    HW232721   3.900   4.816   6.134
10608SOL     OW32722   6.028   3.159   3.055
10608SOL    HW132723   5.942   3.116   3.081
10608SOL    HW232724   6.022   3.258   3.070
10609SOL     OW32725   4.351   0.846   6.921
10609SOL    HW132726   4.389   0.820   6.833
10609SOL    HW232727   4.347   0.766   6.981
10610SOL     OW32728   0.625   1.242   4.345
10610SOL    HW132729   0.610   1.339   4.327
10610SOL    HW232730   0.537   1.194   4.342
10611SOL     OW32731   2.712   5.564   5.442
10611SOL    HW132732   2.808   5.585   5.465
10611SOL    HW232733   2.700   5.465   5.439
10612SOL     OW32734   5.196   1.423   4.054
10612SOL    HW132735   5.132   1.347   4.063
10612SOL    HW232736   5.188   1.462   3.963
10613SOL     OW32737   5.972   6.769   4.414
10613SOL    HW132738   6.008   6.731   4.329
10613SOL    HW232739   5.945   6.694   4.475
10614SOL     OW32740   5.270   0.236   6.674
10614SOL    HW132741   5.234   0.302   6.740
10614SOL    HW232742   5.269   0.277   6.583
10615SOL     OW32743   2.364   2.414   6.618
10615SOL    HW132744   2.373   2.506   6.579
10615SOL    HW232745   2.364   2.420   6.717
10616SOL     OW32746   2.304   6.243   6.433
10616SOL    HW132747   2.286   6.278   6.525
10616SOL    HW232748   2.237   6.281   6.369
10617SOL     OW32749   2.341   3.452   1.239
10617SOL    HW132750   2.334   3.548   1.264
10617SOL    HW232751   2.281   3.433   1.161
10618SOL     OW32752   0.680   5.311   5.049
10618SOL    HW132753   0.678   5.411   5.053
10618SOL    HW232754   0.682   5.282   4.954
10619SOL     OW32755   1.196   1.997   3.214
10619SOL    HW132756   1.184   2.061   3.290
10619SOL    HW232757   1.107   1.977   3.173
10620SOL     OW32758   2.747   0.205   6.580
10620SOL    HW132759   2.794   0.291   6.563
10620SOL    HW232760   2.804   0.128   6.552
10621SOL     OW32761   1.074   3.615   3.334
10621SOL    HW132762   1.107   3.590   3.243
10621SOL    HW232763   1.128   3.692   3.368
10622SOL     OW32764   4.149   3.287   0.640
10622SOL    HW132765   4.229   3.344   0.654
10622SOL    HW232766   4.177   3.197   0.607
10623SOL     OW32767   5.589   6.034   6.909
10623SOL    HW132768   5.616   6.108   6.971
10623SOL    HW232769   5.660   6.021   6.840
10624SOL     OW32770   0.208   2.333   5.206
10624SOL    HW132771   0.152   2.260   5.245
10624SOL    HW232772   0.214   2.321   5.107
10625SOL     OW32773   6.668   4.330   6.567
10625SOL    HW132774   6.712   4.262   6.508
10625SOL    HW232775   6.632   4.284   6.649
10626SOL     OW32776   4.705   3.284   1.143
10626SOL    HW132777   4.680   3.265   1.048
10626SOL    HW232778   4.803   3.306   1.148
10627SOL     OW32779   5.655   6.150   5.669
10627SOL    HW132780   5.724   6.219   5.650
10627SOL    HW232781   5.615   6.118   5.583
10628SOL     OW32782   4.726   0.399   0.550
10628SOL    HW132783   4.657   0.455   0.595
10628SOL    HW232784   4.783   0.458   0.491
10629SOL     OW32785   3.710   5.259   4.829
10629SOL    HW132786   3.617   5.237   4.798
10629SOL    HW232787   3.776   5.230   4.760
10630SOL     OW32788   4.358   0.282   3.549
10630SOL    HW132789   4.292   0.231   3.495
10630SOL    HW232790   4.442   0.296   3.496
10631SOL     OW32791   4.673   5.851   6.994
10631SOL    HW132792   4.594   5.789   6.989
10631SOL    HW232793   4.753   5.798   7.022
10632SOL     OW32794   4.698   5.734   3.252
10632SOL    HW132795   4.749   5.752   3.336
10632SOL    HW232796   4.689   5.636   3.239
10633SOL     OW32797   1.859   3.192   2.074
10633SOL    HW132798   1.953   3.223   2.086
10633SOL    HW232799   1.859   3.100   2.035
10634SOL     OW32800   0.406   4.628   0.079
10634SOL    HW132801   0.378   4.669   7.018
10634SOL    HW232802   0.349   4.548   0.098
10635SOL     OW32803   2.397   3.821   0.336
10635SOL    HW132804   2.415   3.765   0.417
10635SOL    HW232805   2.299   3.817   0.314
10636SOL     OW32806   6.534   2.141   6.073
10636SOL    HW132807   6.506   2.135   6.169
10636SOL    HW232808   6.495   2.224   6.033
10637SOL     OW32809   2.929   6.790   6.868
10637SOL    HW132810   2.938   6.695   6.840
10637SOL    HW232811   2.961   6.800   6.962
10638SOL     OW32812   0.200   5.493   1.719
10638SOL    HW132813   0.247   5.424   1.663
10638SOL    HW232814   0.212   5.583   1.678
10639SOL     OW32815   1.886   3.705   1.692
10639SOL    HW132816   1.935   3.682   1.607
10639SOL    HW232817   1.901   3.633   1.760
10640SOL     OW32818   4.493   6.942   3.681
10640SOL    HW132819   4.521   6.947   3.777
10640SOL    HW232820   4.557   6.993   3.624
10641SOL     OW32821   0.795   0.168   3.293
10641SOL    HW132822   0.861   0.116   3.239
10641SOL    HW232823   0.703   0.154   3.256
10642SOL     OW32824   5.583   2.238   0.028
10642SOL    HW132825   5.525   2.266   0.104
10642SOL    HW232826   5.661   2.185   0.063
10643SOL     OW32827   1.976   4.731   5.108
10643SOL    HW132828   2.058   4.682   5.077
10643SOL    HW232829   1.899   4.708   5.049
10644SOL     OW32830   6.850   2.671   2.464
10644SOL    HW132831   6.857   2.771   2.460
10644SOL    HW232832   6.784   2.640   2.397
10645SOL     OW32833   2.129   3.028   2.852
10645SOL    HW132834   2.033   3.003   2.843
10645SOL    HW232835   2.152   3.040   2.949
10646SOL     OW32836   5.112   1.010   4.679
10646SOL    HW132837   5.038   0.998   4.744
10646SOL    HW232838   5.082   0.982   4.588
10647SOL     OW32839   3.751   4.953   5.024
10647SOL    HW132840   3.681   4.897   4.978
10647SOL    HW232841   3.823   4.977   4.959
10648SOL     OW32842   5.565   4.951   5.123
10648SOL    HW132843   5.549   4.904   5.036
10648SOL    HW232844   5.616   5.036   5.106
10649SOL     OW32845   0.247   3.145   2.852
10649SOL    HW132846   0.171   3.100   2.897
10649SOL    HW232847   0.245   3.243   2.872
10650SOL     OW32848   6.709   0.278   4.062
10650SOL    HW132849   6.692   0.295   3.965
10650SOL    HW232850   6.766   0.197   4.072
10651SOL     OW32851   5.047   6.120   5.678
10651SOL    HW132852   5.078   6.215   5.682
10651SOL    HW232853   5.117   6.061   5.719
10652SOL     OW32854   1.578   6.773   6.218
10652SOL    HW132855   1.509   6.703   6.234
10652SOL    HW232856   1.669   6.733   6.233
10653SOL     OW32857   3.792   6.214   4.345
10653SOL    HW132858   3.706   6.165   4.358
10653SOL    HW232859   3.782   6.308   4.378
10654SOL     OW32860   5.243   1.202   4.923
10654SOL    HW132861   5.200   1.286   4.889
10654SOL    HW232862   5.202   1.123   4.877
10655SOL     OW32863   1.252   4.459   1.519
10655SOL    HW132864   1.160   4.419   1.512
10655SOL    HW232865   1.308   4.426   1.443
10656SOL     OW32866   6.934   1.400   1.856
10656SOL    HW132867   6.907   1.404   1.759
10656SOL    HW232868   6.945   1.493   1.891
10657SOL     OW32869   6.026   0.940   3.741
10657SOL    HW132870   5.962   1.017   3.742
10657SOL    HW232871   5.999   0.873   3.810
10658SOL     OW32872   5.893   3.755   4.510
10658SOL    HW132873   5.834   3.804   4.575
10658SOL    HW232874   5.852   3.666   4.490
10659SOL     OW32875   0.636   4.745   1.237
10659SOL    HW132876   0.707   4.795   1.288
10659SOL    HW232877   0.624   4.786   1.147
10660SOL     OW32878   6.271   3.120   5.415
10660SOL    HW132879   6.246   3.126   5.511
10660SOL    HW232880   6.190   3.131   5.358
10661SOL     OW32881   1.374   4.038   7.003
10661SOL    HW132882   1.414   4.065   0.065
10661SOL    HW232883   1.424   4.081   6.928
10662SOL     OW32884   3.057   1.540   3.566
10662SOL    HW132885   3.140   1.578   3.608
10662SOL    HW232886   2.985   1.609   3.565
10663SOL     OW32887   1.832   0.980   3.567
10663SOL    HW132888   1.793   1.020   3.650
10663SOL    HW232889   1.853   0.883   3.584
10664SOL     OW32890   1.146   5.236   4.313
10664SOL    HW132891   1.077   5.308   4.314
10664SOL    HW232892   1.216   5.256   4.245
10665SOL     OW32893   2.144   3.679   6.462
10665SOL    HW132894   2.085   3.706   6.385
10665SOL    HW232895   2.240   3.697   6.439
10666SOL     OW32896   3.873   3.355   2.065
10666SOL    HW132897   3.965   3.318   2.056
10666SOL    HW232898   3.820   3.297   2.128
10667SOL     OW32899   5.738   2.190   2.652
10667SOL    HW132900   5.794   2.210   2.732
10667SOL    HW232901   5.797   2.158   2.577
10668SOL     OW32902   3.115   2.363   5.458
10668SOL    HW132903   3.017   2.383   5.447
10668SOL    HW232904   3.162   2.378   5.371
10669SOL     OW32905   5.546   1.093   1.012
10669SOL    HW132906   5.475   1.031   1.044
10669SOL    HW232907   5.529   1.117   0.917
10670SOL     OW32908   4.887   3.886   4.351
10670SOL    HW132909   4.918   3.898   4.257
10670SOL    HW232910   4.809   3.824   4.353
10671SOL     OW32911   1.241   1.858   4.041
10671SOL    HW132912   1.286   1.916   3.973
10671SOL    HW232913   1.232   1.909   4.127
10672SOL     OW32914   6.136   4.014   1.613
10672SOL    HW132915   6.137   4.030   1.514
10672SOL    HW232916   6.214   4.060   1.655
10673SOL     OW32917   1.945   0.616   1.006
10673SOL    HW132918   1.897   0.547   1.061
10673SOL    HW232919   2.015   0.570   0.950
10674SOL     OW32920   3.859   3.071   4.528
10674SOL    HW132921   3.881   3.122   4.612
10674SOL    HW232922   3.889   3.123   4.449
10675SOL     OW32923   3.663   1.167   6.352
10675SOL    HW132924   3.755   1.160   6.390
10675SOL    HW232925   3.604   1.098   6.394
10676SOL     OW32926   0.766   5.662   5.224
10676SOL    HW132927   0.740   5.754   5.253
10676SOL    HW232928   0.851   5.635   5.270
10677SOL     OW32929   0.956   1.670   0.451
10677SOL    HW132930   1.016   1.748   0.469
10677SOL    HW232931   0.891   1.660   0.526
10678SOL     OW32932   4.266   5.229   3.860
10678SOL    HW132933   4.322   5.181   3.928
10678SOL    HW232934   4.310   5.221   3.770
10679SOL     OW32935   3.821   5.040   0.459
10679SOL    HW132936   3.821   5.006   0.365
10679SOL    HW232937   3.880   4.981   0.515
10680SOL     OW32938   3.357   1.489   4.434
10680SOL    HW132939   3.436   1.430   4.447
10680SOL    HW232940   3.361   1.564   4.501
10681SOL     OW32941   6.504   3.351   6.530
10681SOL    HW132942   6.541   3.260   6.550
10681SOL    HW232943   6.406   3.345   6.514
10682SOL     OW32944   6.044   3.187   4.661
10682SOL    HW132945   6.099   3.104   4.662
10682SOL    HW232946   6.013   3.208   4.754
10683SOL     OW32947   4.264   6.888   3.541
10683SOL    HW132948   4.182   6.862   3.591
10683SOL    HW232949   4.340   6.899   3.605
10684SOL     OW32950   5.233   4.769   1.257
10684SOL    HW132951   5.202   4.674   1.248
10684SOL    HW232952   5.193   4.809   1.339
10685SOL     OW32953   6.992   5.367   1.803
10685SOL    HW132954   6.941   5.338   1.721
10685SOL    HW232955   0.048   5.418   1.775
10686SOL     OW32956   2.336   4.001   6.413
10686SOL    HW132957   2.357   4.097   6.428
10686SOL    HW232958   2.421   3.950   6.397
10687SOL     OW32959   6.401   4.526   2.887
10687SOL    HW132960   6.475   4.528   2.954
10687SOL    HW232961   6.383   4.431   2.861
10688SOL     OW32962   5.609   1.310   1.979
10688SOL    HW132963   5.532   1.259   2.018
10688SOL    HW232964   5.694   1.275   2.018
10689SOL     OW32965   0.402   0.419   2.018
10689SOL    HW132966   0.471   0.485   1.989
10689SOL    HW232967   0.331   0.466   2.071
10690SOL     OW32968   6.757   5.245   3.454
10690SOL    HW132969   6.709   5.318   3.503
10690SOL    HW232970   6.825   5.285   3.394
10691SOL     OW32971   2.854   1.859   2.141
10691SOL    HW132972   2.928   1.805   2.101
10691SOL    HW232973   2.893   1.940   2.187
10692SOL     OW32974   2.952   0.549   4.532
10692SOL    HW132975   3.049   0.569   4.548
10692SOL    HW232976   2.905   0.540   4.619
10693SOL     OW32977   0.702   6.133   1.451
10693SOL    HW132978   0.770   6.180   1.395
10693SOL    HW232979   0.742   6.051   1.491
10694SOL     OW32980   4.938   6.296   5.922
10694SOL    HW132981   5.035   6.288   5.941
10694SOL    HW232982   4.926   6.344   5.835
10695SOL     OW32983   1.360   3.252   1.076
10695SOL    HW132984   1.456   3.279   1.076
10695SOL    HW232985   1.338   3.207   1.163
10696SOL     OW32986   6.168   3.678   4.808
10696SOL    HW132987   6.174   3.723   4.719
10696SOL    HW232988   6.257   3.682   4.854
10697SOL     OW32989   0.723   6.241   5.481
10697SOL    HW132990   0.682   6.252   5.390
10697SOL    HW232991   0.744   6.145   5.496
10698SOL     OW32992   4.939   4.333   6.985
10698SOL    HW132993   5.022   4.324   6.930
10698SOL    HW232994   4.871   4.386   6.935
10699SOL     OW32995   4.082   4.961   0.820
10699SOL    HW132996   4.142   4.881   0.826
10699SOL    HW232997   4.129   5.034   0.769
10700SOL     OW32998   5.980   6.662   0.958
10700SOL    HW132999   5.977   6.757   0.988
10700SOL    HW233000   6.075   6.634   0.946
10701SOL     OW33001   3.123   0.134   6.457
10701SOL    HW133002   3.175   0.157   6.539
10701SOL    HW233003   3.086   0.218   6.417
10702SOL     OW33004   5.175   3.164   2.761
10702SOL    HW133005   5.076   3.156   2.762
10702SOL    HW233006   5.203   3.249   2.807
10703SOL     OW33007   2.278   3.006   5.555
10703SOL    HW133008   2.336   3.058   5.492
10703SOL    HW233009   2.227   3.069   5.613
10704SOL     OW33010   6.832   5.236   2.635
10704SOL    HW133011   6.872   5.173   2.569
10704SOL    HW233012   6.881   5.322   2.633
10705SOL     OW33013   5.795   5.035   0.785
10705SOL    HW133014   5.853   5.111   0.814
10705SOL    HW233015   5.807   5.020   0.687
10706SOL     OW33016   4.870   6.961   1.625
10706SOL    HW133017   4.851   6.946   1.722
10706SOL    HW233018   4.823   6.892   1.571
10707SOL     OW33019   6.850   6.595   4.254
10707SOL    HW133020   6.904   6.646   4.187
10707SOL    HW233021   6.822   6.655   4.328
10708SOL     OW33022   4.908   1.144   1.995
10708SOL    HW133023   4.934   1.047   1.999
10708SOL    HW233024   4.809   1.152   2.002
10709SOL     OW33025   5.790   5.614   4.086
10709SOL    HW133026   5.724   5.662   4.028
10709SOL    HW233027   5.748   5.595   4.175
10710SOL     OW33028   5.438   0.682   3.791
10710SOL    HW133029   5.386   0.610   3.837
10710SOL    HW233030   5.405   0.771   3.820
10711SOL     OW33031   2.371   0.030   3.465
10711SOL    HW133032   2.410   6.990   3.529
10711SOL    HW233033   2.391   0.001   3.371
10712SOL     OW33034   4.176   0.235   2.998
10712SOL    HW133035   4.183   0.305   2.927
10712SOL    HW233036   4.188   0.276   3.088
10713SOL     OW33037   1.447   2.638   0.010
10713SOL    HW133038   1.365   2.627   0.066
10713SOL    HW233039   1.485   2.548   7.014
10714SOL     OW33040   4.549   3.250   5.445
10714SOL    HW133041   4.580   3.273   5.538
10714SOL    HW233042   4.498   3.326   5.407
10715SOL     OW33043   4.300   0.332   2.414
10715SOL    HW133044   4.299   0.275   2.496
10715SOL    HW233045   4.383   0.313   2.361
10716SOL     OW33046   6.149   2.790   2.827
10716SOL    HW133047   6.201   2.705   2.820
10716SOL    HW233048   6.163   2.830   2.918
10717SOL     OW33049   1.806   2.946   0.914
10717SOL    HW133050   1.840   2.908   1.000
10717SOL    HW233051   1.861   3.026   0.889
10718SOL     OW33052   0.993   4.269   6.632
10718SOL    HW133053   0.950   4.334   6.570
10718SOL    HW233054   0.950   4.179   6.623
10719SOL     OW33055   6.403   5.914   3.210
10719SOL    HW133056   6.348   5.899   3.128
10719SOL    HW233057   6.400   6.011   3.235
10720SOL     OW33058   6.005   5.203   4.387
10720SOL    HW133059   6.025   5.112   4.425
10720SOL    HW233060   6.056   5.215   4.302
10721SOL     OW33061   5.175   4.011   5.132
10721SOL    HW133062   5.213   4.094   5.173
10721SOL    HW233063   5.131   4.035   5.046
10722SOL     OW33064   6.423   4.256   0.087
10722SOL    HW133065   6.517   4.260   0.121
10722SOL    HW233066   6.361   4.233   0.162
10723SOL     OW33067   6.954   1.625   6.551
10723SOL    HW133068   6.948   1.611   6.453
10723SOL    HW233069   6.886   1.568   6.597
10724SOL     OW33070   6.588   6.470   6.184
10724SOL    HW133071   6.543   6.406   6.246
10724SOL    HW233072   6.669   6.426   6.146
10725SOL     OW33073   2.390   6.065   5.235
10725SOL    HW133074   2.332   6.128   5.287
10725SOL    HW233075   2.352   5.972   5.241
10726SOL     OW33076   4.737   0.556   4.409
10726SOL    HW133077   4.783   0.535   4.322
10726SOL    HW233078   4.713   0.653   4.410
10727SOL     OW33079   0.430   5.242   6.027
10727SOL    HW133080   0.453   5.235   5.931
10727SOL    HW233081   0.456   5.332   6.062
10728SOL     OW33082   0.651   5.278   6.866
10728SOL    HW133083   0.731   5.232   6.904
10728SOL    HW233084   0.679   5.339   6.792
10729SOL     OW33085   6.323   1.198   2.465
10729SOL    HW133086   6.391   1.131   2.434
10729SOL    HW233087   6.347   1.230   2.557
10730SOL     OW33088   3.108   0.186   0.722
10730SOL    HW133089   3.174   0.219   0.654
10730SOL    HW233090   3.092   0.256   0.791
10731SOL     OW33091   3.684   0.678   0.683
10731SOL    HW133092   3.686   0.762   0.629
10731SOL    HW233093   3.593   0.638   0.680
10732SOL     OW33094   0.719   4.848   5.493
10732SOL    HW133095   0.705   4.778   5.423
10732SOL    HW233096   0.631   4.875   5.532
10733SOL     OW33097   5.958   1.766   6.681
10733SOL    HW133098   5.969   1.705   6.602
10733SOL    HW233099   5.934   1.711   6.762
10734SOL     OW33100   1.734   1.398   0.307
10734SOL    HW133101   1.644   1.365   0.334
10734SOL    HW233102   1.764   1.350   0.225
10735SOL     OW33103   0.939   3.096   2.198
10735SOL    HW133104   0.861   3.110   2.137
10735SOL    HW233105   0.958   2.998   2.206
10736SOL     OW33106   1.445   0.500   3.285
10736SOL    HW133107   1.429   0.564   3.359
10736SOL    HW233108   1.491   0.419   3.320
10737SOL     OW33109   1.210   2.168   0.730
10737SOL    HW133110   1.187   2.264   0.714
10737SOL    HW233111   1.221   2.153   0.829
10738SOL     OW33112   2.837   6.627   2.478
10738SOL    HW133113   2.775   6.557   2.442
10738SOL    HW233114   2.889   6.667   2.403
10739SOL     OW33115   2.077   1.426   1.145
10739SOL    HW133116   2.102   1.437   1.241
10739SOL    HW233117   2.004   1.490   1.122
10740SOL     OW33118   0.107   5.010   5.491
10740SOL    HW133119   0.137   5.095   5.449
10740SOL    HW233120   0.115   5.016   5.590
10741SOL     OW33121   4.482   1.223   1.461
10741SOL    HW133122   4.429   1.239   1.545
10741SOL    HW233123   4.435   1.264   1.384
10742SOL     OW33124   6.149   6.979   1.317
10742SOL    HW133125   6.125   0.049   1.332
10742SOL    HW233126   6.076   6.920   1.352
10743SOL     OW33127   1.294   2.678   5.874
10743SOL    HW133128   1.390   2.665   5.847
10743SOL    HW233129   1.261   2.765   5.838
10744SOL     OW33130   3.592   0.927   0.579
10744SOL    HW133131   3.534   1.007   0.568
10744SOL    HW233132   3.674   0.952   0.631
10745SOL     OW33133   6.884   5.851   5.721
10745SOL    HW133134   6.882   5.762   5.676
10745SOL    HW233135   6.865   5.841   5.818
10746SOL     OW33136   1.573   4.504   0.799
10746SOL    HW133137   1.595   4.599   0.774
10746SOL    HW233138   1.601   4.487   0.894
10747SOL     OW33139   3.635   1.531   4.980
10747SOL    HW133140   3.562   1.582   5.025
10747SOL    HW233141   3.710   1.516   5.045
10748SOL     OW33142   5.317   0.886   1.335
10748SOL    HW133143   5.373   0.918   1.411
10748SOL    HW233144   5.220   0.900   1.358
10749SOL     OW33145   6.941   6.011   4.197
10749SOL    HW133146   6.937   5.913   4.176
10749SOL    HW233147   6.986   6.060   4.122
10750SOL     OW33148   3.973   6.432   4.732
10750SOL    HW133149   4.033   6.405   4.656
10750SOL    HW233150   3.993   6.526   4.759
10751SOL     OW33151   1.532   4.899   3.836
10751SOL    HW133152   1.481   4.813   3.832
10751SOL    HW233153   1.623   4.885   3.797
10752SOL     OW33154   5.944   4.762   5.000
10752SOL    HW133155   5.894   4.696   5.056
10752SOL    HW233156   5.880   4.827   4.959
10753SOL     OW33157   6.466   4.926   4.384
10753SOL    HW133158   6.451   5.008   4.439
10753SOL    HW233159   6.467   4.950   4.287
10754SOL     OW33160   0.977   6.858   3.380
10754SOL    HW133161   0.986   6.948   3.422
10754SOL    HW233162   0.904   6.807   3.425
10755SOL     OW33163   6.715   0.263   0.815
10755SOL    HW133164   6.658   0.327   0.866
10755SOL    HW233165   6.664   0.177   0.802
10756SOL     OW33166   6.834   5.524   5.925
10756SOL    HW133167   6.906   5.573   5.974
10756SOL    HW233168   6.876   5.461   5.859
10757SOL     OW33169   1.802   2.552   7.006
10757SOL    HW133170   1.885   2.504   0.006
10757SOL    HW233171   1.725   2.487   7.004
10758SOL     OW33172   0.793   6.238   4.312
10758SOL    HW133173   0.844   6.289   4.242
10758SOL    HW233174   0.798   6.287   4.399
10759SOL     OW33175   2.044   3.968   0.868
10759SOL    HW133176   2.023   3.930   0.778
10759SOL    HW233177   2.055   4.067   0.860
10760SOL     OW33178   5.728   0.365   3.344
10760SOL    HW133179   5.693   0.440   3.287
10760SOL    HW233180   5.818   0.389   3.379
10761SOL     OW33181   0.217   5.592   5.839
10761SOL    HW133182   0.144   5.579   5.906
10761SOL    HW233183   0.224   5.511   5.782
10762SOL     OW33184   2.994   1.127   4.678
10762SOL    HW133185   3.086   1.161   4.656
10762SOL    HW233186   3.001   1.036   4.719
10763SOL     OW33187   3.712   6.808   2.553
10763SOL    HW133188   3.761   6.728   2.520
10763SOL    HW233189   3.644   6.780   2.621
10764SOL     OW33190   5.250   1.918   5.562
10764SOL    HW133191   5.215   1.825   5.564
10764SOL    HW233192   5.209   1.971   5.636
10765SOL     OW33193   4.931   2.898   0.540
10765SOL    HW133194   4.908   2.801   0.532
10765SOL    HW233195   4.948   2.920   0.636
10766SOL     OW33196   4.504   4.821   0.673
10766SOL    HW133197   4.516   4.882   0.594
10766SOL    HW233198   4.589   4.814   0.724
10767SOL     OW33199   2.515   0.510   1.205
10767SOL    HW133200   2.433   0.565   1.193
10767SOL    HW233201   2.571   0.515   1.122
10768SOL     OW33202   5.121   5.285   1.250
10768SOL    HW133203   5.148   5.202   1.201
10768SOL    HW233204   5.127   5.363   1.188
10769SOL     OW33205   1.978   4.291   5.812
10769SOL    HW133206   1.979   4.238   5.727
10769SOL    HW233207   2.024   4.379   5.796
10770SOL     OW33208   4.995   6.324   3.929
10770SOL    HW133209   4.955   6.291   3.844
10770SOL    HW233210   5.082   6.277   3.945
10771SOL     OW33211   4.078   6.790   3.984
10771SOL    HW133212   4.101   6.848   4.062
10771SOL    HW233213   4.151   6.723   3.970
10772SOL     OW33214   5.995   6.593   4.984
10772SOL    HW133215   5.925   6.551   5.042
10772SOL    HW233216   6.055   6.521   4.947
10773SOL     OW33217   5.638   4.984   6.943
10773SOL    HW133218   5.563   5.024   6.995
10773SOL    HW233219   5.607   4.960   6.851
10774SOL     OW33220   1.809   0.977   5.687
10774SOL    HW133221   1.838   0.881   5.689
10774SOL    HW233222   1.716   0.984   5.721
10775SOL     OW33223   0.559   4.883   2.601
10775SOL    HW133224   0.583   4.805   2.659
10775SOL    HW233225   0.634   4.949   2.600
10776SOL     OW33226   0.802   1.282   6.919
10776SOL    HW133227   0.894   1.245   6.904
10776SOL    HW233228   0.804   1.381   6.908
10777SOL     OW33229   3.959   5.581   1.325
10777SOL    HW133230   3.866   5.574   1.362
10777SOL    HW233231   3.956   5.630   1.237
10778SOL     OW33232   5.010   6.895   3.523
10778SOL    HW133233   4.936   6.948   3.565
10778SOL    HW233234   4.997   6.798   3.541
10779SOL     OW33235   5.508   2.771   2.937
10779SOL    HW133236   5.511   2.859   2.890
10779SOL    HW233237   5.446   2.710   2.888
10780SOL     OW33238   1.244   0.636   4.123
10780SOL    HW133239   1.249   0.630   4.222
10780SOL    HW233240   1.328   0.600   4.082
10781SOL     OW33241   4.022   0.538   3.775
10781SOL    HW133242   3.963   0.467   3.814
10781SOL    HW233243   3.996   0.627   3.813
10782SOL     OW33244   7.025   1.035   2.903
10782SOL    HW133245   0.053   1.064   2.823
10782SOL    HW233246   0.044   1.069   2.986
10783SOL     OW33247   0.503   2.537   2.745
10783SOL    HW133248   0.480   2.603   2.816
10783SOL    HW233249   0.599   2.546   2.720
10784SOL     OW33250   3.792   0.943   4.076
10784SOL    HW133251   3.721   1.000   4.117
10784SOL    HW233252   3.865   0.928   4.142
10785SOL     OW33253   1.042   3.886   0.924
10785SOL    HW133254   1.087   3.925   0.843
10785SOL    HW233255   0.950   3.923   0.931
10786SOL     OW33256   6.216   5.207   3.163
10786SOL    HW133257   6.219   5.144   3.241
10786SOL    HW233258   6.177   5.160   3.084
10787SOL     OW33259   1.200   1.005   5.856
10787SOL    HW133260   1.216   0.944   5.933
10787SOL    HW233261   1.139   0.961   5.790
10788SOL     OW33262   0.759   4.120   0.183
10788SOL    HW133263   0.714   4.045   0.134
10788SOL    HW233264   0.817   4.083   0.255
10789SOL     OW33265   6.338   3.667   6.613
10789SOL    HW133266   6.361   3.763   6.598
10789SOL    HW233267   6.421   3.616   6.635
10790SOL     OW33268   0.844   6.877   1.856
10790SOL    HW133269   0.874   6.922   1.771
10790SOL    HW233270   0.840   6.944   1.930
10791SOL     OW33271   0.269   5.683   2.124
10791SOL    HW133272   0.342   5.735   2.079
10791SOL    HW233273   0.220   5.629   2.056
10792SOL     OW33274   3.315   3.011   4.831
10792SOL    HW133275   3.256   3.029   4.910
10792SOL    HW233276   3.391   2.953   4.859
10793SOL     OW33277   6.250   4.048   5.726
10793SOL    HW133278   6.240   4.058   5.825
10793SOL    HW233279   6.305   3.968   5.705
10794SOL     OW33280   3.976   3.675   4.167
10794SOL    HW133281   3.931   3.729   4.239
10794SOL    HW233282   4.017   3.737   4.101
10795SOL     OW33283   0.185   4.997   2.961
10795SOL    HW133284   0.185   4.900   2.935
10795SOL    HW233285   0.272   5.039   2.935
10796SOL     OW33286   6.697   0.127   5.025
10796SOL    HW133287   6.672   0.057   5.091
10796SOL    HW233288   6.625   0.196   5.020
10797SOL     OW33289   3.445   2.731   1.507
10797SOL    HW133290   3.400   2.692   1.426
10797SOL    HW233291   3.413   2.682   1.588
10798SOL     OW33292   2.466   1.411   0.252
10798SOL    HW133293   2.454   1.360   0.337
10798SOL    HW233294   2.548   1.379   0.205
10799SOL     OW33295   4.227   0.818   2.517
10799SOL    HW133296   4.267   0.899   2.473
10799SOL    HW233297   4.139   0.843   2.559
10800SOL     OW33298   1.009   5.990   5.971
10800SOL    HW133299   1.014   6.009   6.069
10800SOL    HW233300   1.099   5.962   5.937
10801SOL     OW33301   1.308   0.084   6.999
10801SOL    HW133302   1.285   0.104   6.904
10801SOL    HW233303   1.225   0.055   0.022
10802SOL     OW33304   0.257   0.115   2.995
10802SOL    HW133305   0.186   0.162   2.941
10802SOL    HW233306   0.346   0.128   2.952
10803SOL     OW33307   1.596   5.322   5.639
10803SOL    HW133308   1.632   5.270   5.562
10803SOL    HW233309   1.647   5.407   5.650
10804SOL     OW33310   6.473   2.637   3.099
10804SOL    HW133311   6.460   2.716   3.040
10804SOL    HW233312   6.400   2.571   3.083
10805SOL     OW33313   5.369   0.550   4.967
10805SOL    HW133314   5.364   0.647   4.944
10805SOL    HW233315   5.326   0.496   4.895
10806SOL     OW33316   3.815   4.929   6.724
10806SOL    HW133317   3.883   4.857   6.709
10806SOL    HW233318   3.793   4.973   6.637
10807SOL     OW33319   1.201   5.905   3.752
10807SOL    HW133320   1.103   5.897   3.767
10807SOL    HW233321   1.228   5.849   3.674
10808SOL     OW33322   6.974   2.269   5.930
10808SOL    HW133323   6.972   2.177   5.970
10808SOL    HW233324   0.026   2.319   5.969
10809SOL     OW33325   2.485   4.436   3.929
10809SOL    HW133326   2.389   4.444   3.901
10809SOL    HW233327   2.528   4.361   3.878
10810SOL     OW33328   6.941   0.152   3.580
10810SOL    HW133329   6.923   0.084   3.509
10810SOL    HW233330   7.002   0.112   3.649
10811SOL     OW33331   4.270   5.063   5.374
10811SOL    HW133332   4.363   5.094   5.356
10811SOL    HW233333   4.210   5.095   5.301
10812SOL     OW33334   6.781   4.191   6.351
10812SOL    HW133335   6.809   4.095   6.345
10812SOL    HW233336   6.786   4.233   6.261
10813SOL     OW33337   0.888   3.906   6.047
10813SOL    HW133338   0.949   3.985   6.051
10813SOL    HW233339   0.807   3.923   6.103
10814SOL     OW33340   2.063   6.938   0.109
10814SOL    HW133341   2.153   6.915   0.072
10814SOL    HW233342   2.064   6.930   0.208
10815SOL     OW33343   5.200   2.343   2.853
10815SOL    HW133344   5.174   2.333   2.950
10815SOL    HW233345   5.159   2.269   2.800
10816SOL     OW33346   3.697   3.744   2.526
10816SOL    HW133347   3.734   3.733   2.618
10816SOL    HW233348   3.602   3.714   2.524
10817SOL     OW33349   3.227   1.013   3.362
10817SOL    HW133350   3.236   0.978   3.269
10817SOL    HW233351   3.225   0.937   3.427
10818SOL     OW33352   4.721   4.912   5.782
10818SOL    HW133353   4.705   4.815   5.764
10818SOL    HW233354   4.719   4.964   5.696
10819SOL     OW33355   5.920   5.313   6.229
10819SOL    HW133356   5.979   5.239   6.260
10819SOL    HW233357   5.968   5.400   6.238
10820SOL     OW33358   0.108   5.458   4.740
10820SOL    HW133359   0.156   5.535   4.698
10820SOL    HW233360   0.130   5.374   4.690
10821SOL     OW33361   4.170   6.724   2.802
10821SOL    HW133362   4.188   6.651   2.736
10821SOL    HW233363   4.205   6.811   2.767
10822SOL     OW33364   6.516   1.979   1.246
10822SOL    HW133365   6.462   1.921   1.308
10822SOL    HW233366   6.545   1.925   1.167
10823SOL     OW33367   0.343   0.704   3.382
10823SOL    HW133368   0.305   0.797   3.389
10823SOL    HW233369   0.273   0.643   3.346
10824SOL     OW33370   1.040   1.745   2.236
10824SOL    HW133371   1.067   1.710   2.325
10824SOL    HW233372   1.107   1.718   2.167
10825SOL     OW33373   1.515   2.393   0.340
10825SOL    HW133374   1.590   2.395   0.406
10825SOL    HW233375   1.544   2.344   0.258
10826SOL     OW33376   0.762   2.166   2.272
10826SOL    HW133377   0.693   2.104   2.234
10826SOL    HW233378   0.716   2.240   2.322
10827SOL     OW33379   6.420   3.041   4.935
10827SOL    HW133380   6.435   3.000   5.025
10827SOL    HW233381   6.372   2.975   4.877
10828SOL     OW33382   0.379   3.996   0.392
10828SOL    HW133383   0.280   4.010   0.394
10828SOL    HW233384   0.424   4.084   0.377
10829SOL     OW33385   4.457   3.887   7.001
10829SOL    HW133386   4.551   3.853   6.997
10829SOL    HW233387   4.435   3.936   6.917
10830SOL     OW33388   4.699   1.771   3.933
10830SOL    HW133389   4.790   1.731   3.943
10830SOL    HW233390   4.703   1.868   3.957
10831SOL     OW33391   3.189   6.847   2.050
10831SOL    HW133392   3.206   6.847   1.952
10831SOL    HW233393   3.121   6.918   2.072
10832SOL     OW33394   6.079   3.569   6.616
10832SOL    HW133395   6.168   3.611   6.595
10832SOL    HW233396   6.039   3.533   6.532
10833SOL     OW33397   0.452   2.446   0.642
10833SOL    HW133398   0.514   2.523   0.628
10833SOL    HW233399   0.395   2.434   0.562
10834SOL     OW33400   0.085   1.456   0.051
10834SOL    HW133401   0.077   1.515   0.132
10834SOL    HW233402   0.166   1.482   7.025
10835SOL     OW33403   5.416   3.105   0.016
10835SOL    HW133404   5.335   3.136   6.992
10835SOL    HW233405   5.400   3.013   0.053
10836SOL     OW33406   1.043   1.525   2.865
10836SOL    HW133407   1.063   1.516   2.767
10836SOL    HW233408   0.948   1.552   2.877
10837SOL     OW33409   6.324   4.770   2.125
10837SOL    HW133410   6.389   4.720   2.182
10837SOL    HW233411   6.374   4.839   2.072
10838SOL     OW33412   5.631   6.310   4.085
10838SOL    HW133413   5.730   6.324   4.079
10838SOL    HW233414   5.613   6.224   4.134
10839SOL     OW33415   4.810   3.263   0.865
10839SOL    HW133416   4.765   3.187   0.819
10839SOL    HW233417   4.803   3.346   0.809
10840SOL     OW33418   3.884   0.390   2.739
10840SOL    HW133419   3.825   0.354   2.666
10840SOL    HW233420   3.852   0.481   2.765
10841SOL     OW33421   6.231   4.725   5.040
10841SOL    HW133422   6.289   4.771   4.973
10841SOL    HW233423   6.136   4.749   5.025
10842SOL     OW33424   4.623   2.315   1.378
10842SOL    HW133425   4.639   2.298   1.475
10842SOL    HW233426   4.529   2.343   1.363
10843SOL     OW33427   1.699   1.507   1.131
10843SOL    HW133428   1.712   1.447   1.052
10843SOL    HW233429   1.645   1.587   1.103
10844SOL     OW33430   6.990   4.702   3.848
10844SOL    HW133431   7.001   4.675   3.943
10844SOL    HW233432   6.976   4.620   3.792
10845SOL     OW33433   4.256   5.906   4.991
10845SOL    HW133434   4.344   5.859   4.978
10845SOL    HW233435   4.185   5.858   4.940
10846SOL     OW33436   5.643   6.850   6.954
10846SOL    HW133437   5.591   6.935   6.959
10846SOL    HW233438   5.699   6.850   6.870
10847SOL     OW33439   3.127   2.196   0.148
10847SOL    HW133440   3.113   2.295   0.160
10847SOL    HW233441   3.158   2.157   0.235
10848SOL     OW33442   0.668   3.868   0.859
10848SOL    HW133443   0.698   3.932   0.929
10848SOL    HW233444   0.597   3.808   0.896
10849SOL     OW33445   2.574   4.665   4.073
10849SOL    HW133446   2.566   4.573   4.035
10849SOL    HW233447   2.549   4.664   4.170
10850SOL     OW33448   4.093   6.197   0.022
10850SOL    HW133449   4.187   6.229   0.025
10850SOL    HW233450   4.031   6.275   0.011
10851SOL     OW33451   2.849   4.049   1.273
10851SOL    HW133452   2.876   4.119   1.339
10851SOL    HW233453   2.786   4.089   1.206
10852SOL     OW33454   2.081   1.494   6.865
10852SOL    HW133455   2.074   1.403   6.905
10852SOL    HW233456   2.097   1.561   6.937
10853SOL     OW33457   2.631   3.364   5.993
10853SOL    HW133458   2.631   3.440   5.928
10853SOL    HW233459   2.659   3.280   5.946
10854SOL     OW33460   4.554   5.238   5.395
10854SOL    HW133461   4.609   5.308   5.348
10854SOL    HW233462   4.474   5.281   5.437
10855SOL     OW33463   3.826   0.478   0.736
10855SOL    HW133464   3.765   0.544   0.691
10855SOL    HW233465   3.921   0.497   0.711
10856SOL     OW33466   0.101   1.296   6.505
10856SOL    HW133467   0.046   1.233   6.559
10856SOL    HW233468   0.172   1.244   6.457
10857SOL     OW33469   0.248   1.865   2.821
10857SOL    HW133470   0.301   1.838   2.740
10857SOL    HW233471   0.190   1.788   2.849
10858SOL     OW33472   1.816   0.229   0.843
10858SOL    HW133473   1.876   0.268   0.914
10858SOL    HW233474   1.872   0.178   0.777
10859SOL     OW33475   6.942   4.469   4.762
10859SOL    HW133476   6.986   4.555   4.790
10859SOL    HW233477   6.997   4.392   4.793
10860SOL     OW33478   0.017   3.418   3.907
10860SOL    HW133479   6.974   3.431   3.835
10860SOL    HW233480   0.002   3.484   3.980
10861SOL     OW33481   3.301   2.909   2.921
10861SOL    HW133482   3.267   2.841   2.856
10861SOL    HW233483   3.308   2.998   2.876
10862SOL     OW33484   2.434   0.964   5.484
10862SOL    HW133485   2.394   0.959   5.392
10862SOL    HW233486   2.364   0.940   5.551
10863SOL     OW33487   2.273   0.473   4.756
10863SOL    HW133488   2.236   0.523   4.677
10863SOL    HW233489   2.211   0.482   4.833
10864SOL     OW33490   2.749   6.603   1.095
10864SOL    HW133491   2.722   6.682   1.040
10864SOL    HW233492   2.846   6.610   1.118
10865SOL     OW33493   6.856   1.585   0.286
10865SOL    HW133494   6.824   1.671   0.247
10865SOL    HW233495   6.870   1.597   0.385
10866SOL     OW33496   5.641   5.158   0.179
10866SOL    HW133497   5.587   5.077   0.200
10866SOL    HW233498   5.731   5.149   0.222
10867SOL     OW33499   3.220   4.280   0.400
10867SOL    HW133500   3.182   4.369   0.424
10867SOL    HW233501   3.262   4.238   0.481
10868SOL     OW33502   5.100   1.689   3.755
10868SOL    HW133503   5.144   1.605   3.724
10868SOL    HW233504   5.156   1.768   3.731
10869NA      NA33505   6.532   2.650   5.499
10870NA      NA33506   4.384   4.573   5.264
10871NA      NA33507   1.836   3.097   1.542
10872NA      NA33508   5.120   3.857   5.294
10873NA      NA33509   4.020   2.233   5.052
10874NA      NA33510   3.713   4.859   1.791
10875NA      NA33511   6.712   5.350   6.087
10876NA      NA33512   3.393   3.388   4.620
10877NA      NA33513   4.752   6.056   6.888
10878NA      NA33514   3.862   6.492   5.319
10879NA      NA33515   6.419   5.188   2.818
10880NA      NA33516   2.507   0.434   3.716
10881NA      NA33517   3.932   5.447   1.701
10882NA      NA33518   3.920   3.567   2.204
   7.02571   7.02571   7.02571
