Generated by trjconv : CNT in water t= 274.00000
33518
    1C        C    1   2.845   2.771   4.746
    1C        C    2   2.898   2.721   4.867
    1C        C    3   2.844   2.769   4.987
    1C        C    4   2.847   2.771   4.258
    1C        C    5   2.901   2.728   4.382
    1C        C    6   2.850   2.776   4.505
    1C        C    7   3.016   2.641   4.625
    1C        C    8   2.901   2.724   4.625
    1C        C    9   3.079   2.609   4.747
    1C        C   10   3.011   2.636   4.868
    1C        C   11   3.183   2.500   4.979
    1C        C   12   3.058   2.563   4.978
    1C        C   13   2.851   2.770   3.771
    1C        C   14   2.901   2.722   3.894
    1C        C   15   2.849   2.770   4.016
    1C        C   16   3.015   2.638   4.139
    1C        C   17   2.900   2.721   4.138
    1C        C   18   3.077   2.606   4.262
    1C        C   19   3.017   2.648   4.383
    1C        C   20   3.210   2.556   4.504
    1C        C   21   3.079   2.609   4.503
    1C        C   22   3.277   2.527   4.625
    1C        C   23   3.208   2.549   4.746
    1C        C   24   3.411   2.485   4.865
    1C        C   25   3.269   2.500   4.864
    1C        C   26   3.490   2.474   4.981
    1C        C   27   2.847   2.767   3.281
    1C        C   28   2.902   2.722   3.403
    1C        C   29   2.853   2.771   3.526
    1C        C   30   3.016   2.637   3.648
    1C        C   31   2.904   2.723   3.648
    1C        C   32   3.075   2.600   3.771
    1C        C   33   3.016   2.639   3.894
    1C        C   34   3.204   2.544   4.014
    1C        C   35   3.074   2.600   4.016
    1C        C   36   3.273   2.526   4.136
    1C        C   37   3.207   2.552   4.259
    1C        C   38   3.415   2.504   4.382
    1C        C   39   3.277   2.536   4.381
    1C        C   40   3.487   2.495   4.503
    1C        C   41   3.415   2.495   4.625
    1C        C   42   3.629   2.478   4.746
    1C        C   43   3.487   2.481   4.745
    1C        C   44   3.705   2.481   4.864
    1C        C   45   3.629   2.478   4.982
    1C        C   46   2.837   2.754   2.792
    1C        C   47   2.897   2.716   2.914
    1C        C   48   2.846   2.764   3.036
    1C        C   49   3.019   2.643   3.158
    1C        C   50   2.900   2.719   3.159
    1C        C   51   3.079   2.607   3.281
    1C        C   52   3.018   2.640   3.404
    1C        C   53   3.203   2.537   3.528
    1C        C   54   3.078   2.604   3.526
    1C        C   55   3.273   2.523   3.650
    1C        C   56   3.205   2.546   3.771
    1C        C   57   3.414   2.505   3.893
    1C        C   58   3.274   2.524   3.893
    1C        C   59   3.484   2.497   4.015
    1C        C   60   3.412   2.502   4.136
    1C        C   61   3.624   2.503   4.258
    1C        C   62   3.483   2.494   4.258
    1C        C   63   3.697   2.503   4.379
    1C        C   64   3.628   2.490   4.502
    1C        C   65   3.833   2.541   4.621
    1C        C   66   3.698   2.497   4.624
    1C        C   67   3.901   2.565   4.742
    1C        C   68   3.838   2.528   4.863
    1C        C   69   4.046   2.592   4.977
    1C        C   70   3.922   2.528   4.975
    1C        C   71   2.828   2.737   2.306
    1C        C   72   2.884   2.695   2.429
    1C        C   73   2.833   2.748   2.550
    1C        C   74   3.008   2.626   2.672
    1C        C   75   2.888   2.701   2.671
    1C        C   76   3.072   2.592   2.793
    1C        C   77   3.012   2.633   2.914
    1C        C   78   3.207   2.547   3.034
    1C        C   79   3.077   2.603   3.036
    1C        C   80   3.272   2.525   3.158
    1C        C   81   3.206   2.544   3.281
    1C        C   82   3.410   2.498   3.404
    1C        C   83   3.270   2.517   3.405
    1C        C   84   3.482   2.491   3.525
    1C        C   85   3.412   2.498   3.648
    1C        C   86   3.623   2.505   3.766
    1C        C   87   3.483   2.494   3.770
    1C        C   88   3.692   2.515   3.889
    1C        C   89   3.625   2.500   4.012
    1C        C   90   3.830   2.547   4.136
    1C        C   91   3.693   2.511   4.136
    1C        C   92   3.897   2.574   4.257
    1C        C   93   3.832   2.543   4.379
    1C        C   94   4.023   2.639   4.497
    1C        C   95   3.899   2.572   4.500
    1C        C   96   4.088   2.671   4.618
    1C        C   97   4.028   2.630   4.739
    1C        C   98   4.191   2.764   4.862
    1C        C   99   4.098   2.656   4.860
    1C        C  100   4.213   2.844   4.975
    1C        C  101   2.822   2.728   2.066
    1C        C  102   2.991   2.592   2.192
    1C        C  103   2.880   2.682   2.185
    1C        C  104   3.066   2.578   2.312
    1C        C  105   3.002   2.619   2.431
    1C        C  106   3.202   2.537   2.551
    1C        C  107   3.070   2.588   2.551
    1C        C  108   3.273   2.517   2.671
    1C        C  109   3.203   2.540   2.792
    1C        C  110   3.412   2.496   2.914
    1C        C  111   3.273   2.517   2.913
    1C        C  112   3.481   2.493   3.038
    1C        C  113   3.411   2.503   3.160
    1C        C  114   3.623   2.494   3.277
    1C        C  115   3.481   2.493   3.282
    1C        C  116   3.692   2.511   3.399
    1C        C  117   3.623   2.501   3.522
    1C        C  118   3.831   2.547   3.646
    1C        C  119   3.694   2.510   3.644
    1C        C  120   3.893   2.577   3.770
    1C        C  121   3.829   2.547   3.892
    1C        C  122   4.021   2.640   4.011
    1C        C  123   3.896   2.573   4.014
    1C        C  124   4.082   2.677   4.133
    1C        C  125   4.024   2.638   4.255
    1C        C  126   4.192   2.769   4.375
    1C        C  127   4.087   2.675   4.376
    1C        C  128   4.240   2.821   4.498
    1C        C  129   4.191   2.768   4.619
    1C        C  130   4.323   2.935   4.737
    1C        C  131   4.242   2.819   4.741
    1C        C  132   4.354   3.004   4.857
    1C        C  133   4.289   2.960   4.973
    1C        C  134   3.173   2.469   2.082
    1C        C  135   3.038   2.506   2.088
    1C        C  136   3.261   2.482   2.190
    1C        C  137   3.199   2.527   2.309
    1C        C  138   3.408   2.483   2.426
    1C        C  139   3.269   2.506   2.430
    1C        C  140   3.482   2.484   2.546
    1C        C  141   3.412   2.491   2.669
    1C        C  142   3.623   2.491   2.791
    1C        C  143   3.482   2.489   2.791
    1C        C  144   3.692   2.504   2.913
    1C        C  145   3.622   2.497   3.036
    1C        C  146   3.833   2.532   3.155
    1C        C  147   3.696   2.495   3.156
    1C        C  148   3.895   2.563   3.278
    1C        C  149   3.830   2.542   3.401
    1C        C  150   4.021   2.636   3.520
    1C        C  151   3.895   2.572   3.523
    1C        C  152   4.078   2.674   3.643
    1C        C  153   4.016   2.645   3.767
    1C        C  154   4.187   2.772   3.884
    1C        C  155   4.078   2.682   3.889
    1C        C  156   4.238   2.819   4.007
    1C        C  157   4.188   2.771   4.130
    1C        C  158   4.336   2.922   4.254
    1C        C  159   4.243   2.816   4.252
    1C        C  160   4.376   2.987   4.373
    1C        C  161   4.327   2.932   4.494
    1C        C  162   4.439   3.114   4.611
    1C        C  163   4.365   2.994   4.615
    1C        C  164   4.469   3.181   4.732
    1C        C  165   4.431   3.122   4.854
    1C        C  166   4.510   3.320   4.970
    1C        C  167   4.482   3.184   4.969
    1C        C  168   3.474   2.439   2.070
    1C        C  169   3.399   2.453   2.187
    1C        C  170   3.618   2.460   2.305
    1C        C  171   3.476   2.458   2.305
    1C        C  172   3.692   2.483   2.423
    1C        C  173   3.623   2.487   2.546
    1C        C  174   3.830   2.534   2.667
    1C        C  175   3.693   2.499   2.669
    1C        C  176   3.899   2.552   2.788
    1C        C  177   3.830   2.533   2.910
    1C        C  178   4.020   2.628   3.031
    1C        C  179   3.897   2.558   3.032
    1C        C  180   4.079   2.666   3.154
    1C        C  181   4.020   2.628   3.276
    1C        C  182   4.195   2.753   3.397
    1C        C  183   4.083   2.668   3.397
    1C        C  184   4.243   2.806   3.518
    1C        C  185   4.190   2.760   3.641
    1C        C  186   4.339   2.917   3.764
    1C        C  187   4.243   2.813   3.761
    1C        C  188   4.380   2.974   3.886
    1C        C  189   4.335   2.921   4.009
    1C        C  190   4.450   3.100   4.126
    1C        C  191   4.377   2.979   4.131
    1C        C  192   4.471   3.172   4.246
    1C        C  193   4.441   3.112   4.371
    1C        C  194   4.509   3.316   4.489
    1C        C  195   4.471   3.180   4.491
    1C        C  196   4.527   3.386   4.610
    1C        C  197   4.508   3.318   4.733
    1C        C  198   4.553   3.534   4.850
    1C        C  199   4.528   3.393   4.852
    1C        C  200   4.583   3.620   4.960
    1C        C  201   3.613   2.428   2.067
    1C        C  202   3.825   2.509   2.183
    1C        C  203   3.691   2.460   2.183
    1C        C  204   3.900   2.538   2.301
    1C        C  205   3.829   2.517   2.422
    1C        C  206   4.020   2.614   2.543
    1C        C  207   3.897   2.545   2.543
    1C        C  208   4.083   2.653   2.663
    1C        C  209   4.021   2.624   2.787
    1C        C  210   4.193   2.750   2.907
    1C        C  211   4.081   2.663   2.908
    1C        C  212   4.243   2.797   3.030
    1C        C  213   4.191   2.752   3.153
    1C        C  214   4.336   2.910   3.271
    1C        C  215   4.245   2.802   3.274
    1C        C  216   4.372   2.970   3.394
    1C        C  217   4.333   2.916   3.518
    1C        C  218   4.438   3.100   3.637
    1C        C  219   4.376   2.973   3.639
    1C        C  220   4.465   3.167   3.758
    1C        C  221   4.441   3.101   3.881
    1C        C  222   4.503   3.303   4.001
    1C        C  223   4.475   3.164   4.003
    1C        C  224   4.519   3.376   4.120
    1C        C  225   4.512   3.307   4.244
    1C        C  226   4.525   3.521   4.364
    1C        C  227   4.523   3.380   4.364
    1C        C  228   4.525   3.596   4.484
    1C        C  229   4.526   3.527   4.607
    1C        C  230   4.501   3.740   4.725
    1C        C  231   4.534   3.602   4.727
    1C        C  232   4.500   3.821   4.841
    1C        C  233   4.549   3.756   4.955
    1C        C  234   4.013   2.611   2.061
    1C        C  235   3.891   2.544   2.064
    1C        C  236   4.081   2.649   2.177
    1C        C  237   4.022   2.611   2.300
    1C        C  238   4.198   2.733   2.423
    1C        C  239   4.083   2.648   2.421
    1C        C  240   4.247   2.789   2.543
    1C        C  241   4.193   2.741   2.664
    1C        C  242   4.336   2.902   2.784
    1C        C  243   4.246   2.794   2.784
    1C        C  244   4.379   2.962   2.904
    1C        C  245   4.336   2.904   3.026
    1C        C  246   4.433   3.094   3.147
    1C        C  247   4.375   2.965   3.147
    1C        C  248   4.460   3.159   3.269
    1C        C  249   4.435   3.097   3.394
    1C        C  250   4.502   3.301   3.512
    1C        C  251   4.466   3.165   3.514
    1C        C  252   4.516   3.371   3.634
    1C        C  253   4.507   3.302   3.757
    1C        C  254   4.531   3.513   3.877
    1C        C  255   4.520   3.372   3.879
    1C        C  256   4.523   3.586   3.997
    1C        C  257   4.520   3.517   4.121
    1C        C  258   4.495   3.731   4.242
    1C        C  259   4.516   3.591   4.242
    1C        C  260   4.472   3.798   4.363
    1C        C  261   4.499   3.735   4.487
    1C        C  262   4.425   3.941   4.601
    1C        C  263   4.476   3.809   4.605
    1C        C  264   4.399   4.009   4.722
    1C        C  265   4.445   3.951   4.842
    1C        C  266   4.325   4.130   4.958
    1C        C  267   4.395   4.010   4.960
    1C        C  268   4.266   2.766   2.064
    1C        C  269   4.196   2.731   2.179
    1C        C  270   4.347   2.882   2.298
    1C        C  271   4.252   2.777   2.301
    1C        C  272   4.379   2.954   2.416
    1C        C  273   4.338   2.898   2.539
    1C        C  274   4.444   3.081   2.661
    1C        C  275   4.382   2.955   2.661
    1C        C  276   4.470   3.150   2.782
    1C        C  277   4.445   3.087   2.906
    1C        C  278   4.510   3.293   3.023
    1C        C  279   4.471   3.157   3.026
    1C        C  280   4.513   3.364   3.145
    1C        C  281   4.497   3.295   3.267
    1C        C  282   4.516   3.509   3.388
    1C        C  283   4.510   3.368   3.388
    1C        C  284   4.517   3.582   3.510
    1C        C  285   4.523   3.512   3.633
    1C        C  286   4.486   3.720   3.755
    1C        C  287   4.520   3.583   3.755
    1C        C  288   4.474   3.792   3.876
    1C        C  289   4.494   3.724   3.998
    1C        C  290   4.425   3.928   4.117
    1C        C  291   4.475   3.797   4.118
    1C        C  292   4.395   3.996   4.237
    1C        C  293   4.422   3.931   4.359
    1C        C  294   4.316   4.120   4.477
    1C        C  295   4.394   4.002   4.478
    1C        C  296   4.285   4.189   4.596
    1C        C  297   4.327   4.132   4.718
    1C        C  298   4.203   4.310   4.838
    1C        C  299   4.289   4.195   4.840
    1C        C  300   4.163   4.399   4.943
    1C        C  301   4.345   2.881   2.065
    1C        C  302   4.474   3.062   2.175
    1C        C  303   4.400   2.940   2.179
    1C        C  304   4.486   3.138   2.295
    1C        C  305   4.445   3.079   2.416
    1C        C  306   4.508   3.281   2.534
    1C        C  307   4.472   3.145   2.538
    1C        C  308   4.516   3.354   2.655
    1C        C  309   4.501   3.288   2.779
    1C        C  310   4.522   3.501   2.900
    1C        C  311   4.522   3.360   2.899
    1C        C  312   4.517   3.574   3.022
    1C        C  313   4.519   3.505   3.145
    1C        C  314   4.495   3.718   3.264
    1C        C  315   4.518   3.579   3.265
    1C        C  316   4.479   3.789   3.385
    1C        C  317   4.493   3.721   3.509
    1C        C  318   4.419   3.919   3.627
    1C        C  319   4.467   3.786   3.631
    1C        C  320   4.386   3.982   3.749
    1C        C  321   4.421   3.923   3.873
    1C        C  322   4.316   4.109   3.991
    1C        C  323   4.395   3.991   3.994
    1C        C  324   4.270   4.167   4.112
    1C        C  325   4.318   4.114   4.234
    1C        C  326   4.184   4.283   4.353
    1C        C  327   4.279   4.177   4.354
    1C        C  328   4.135   4.339   4.473
    1C        C  329   4.191   4.295   4.595
    1C        C  330   4.029   4.435   4.709
    1C        C  331   4.143   4.350   4.716
    1C        C  332   3.968   4.490   4.824
    1C        C  333   4.049   4.480   4.937
    1C        C  334   4.552   3.265   2.060
    1C        C  335   4.529   3.127   2.059
    1C        C  336   4.544   3.347   2.174
    1C        C  337   4.518   3.277   2.294
    1C        C  338   4.524   3.493   2.412
    1C        C  339   4.521   3.352   2.413
    1C        C  340   4.523   3.566   2.533
    1C        C  341   4.525   3.495   2.656
    1C        C  342   4.498   3.708   2.773
    1C        C  343   4.521   3.568   2.776
    1C        C  344   4.473   3.777   2.894
    1C        C  345   4.485   3.711   3.018
    1C        C  346   4.417   3.912   3.136
    1C        C  347   4.471   3.781   3.140
    1C        C  348   4.391   3.979   3.258
    1C        C  349   4.423   3.919   3.381
    1C        C  350   4.316   4.101   3.503
    1C        C  351   4.391   3.981   3.504
    1C        C  352   4.271   4.160   3.623
    1C        C  353   4.307   4.099   3.745
    1C        C  354   4.175   4.264   3.867
    1C        C  355   4.271   4.160   3.868
    1C        C  356   4.122   4.317   3.987
    1C        C  357   4.175   4.271   4.110
    1C        C  358   4.011   4.405   4.228
    1C        C  359   4.129   4.328   4.231
    1C        C  360   3.954   4.453   4.349
    1C        C  361   4.019   4.418   4.469
    1C        C  362   3.830   4.520   4.590
    1C        C  363   3.959   4.461   4.590
    1C        C  364   3.763   4.549   4.711
    1C        C  365   3.834   4.535   4.831
    1C        C  366   3.627   4.591   4.948
    1C        C  367   3.763   4.564   4.949
    1C        C  368   4.518   3.560   2.052
    1C        C  369   4.535   3.487   2.171
    1C        C  370   4.498   3.703   2.286
    1C        C  371   4.519   3.563   2.289
    1C        C  372   4.483   3.774   2.407
    1C        C  373   4.498   3.705   2.529
    1C        C  374   4.427   3.906   2.651
    1C        C  375   4.477   3.774   2.651
    1C        C  376   4.394   3.972   2.772
    1C        C  377   4.426   3.911   2.895
    1C        C  378   4.316   4.098   3.010
    1C        C  379   4.392   3.978   3.014
    1C        C  380   4.267   4.147   3.133
    1C        C  381   4.310   4.095   3.257
    1C        C  382   4.170   4.253   3.377
    1C        C  383   4.267   4.150   3.380
    1C        C  384   4.122   4.307   3.498
    1C        C  385   4.173   4.262   3.622
    1C        C  386   4.004   4.388   3.740
    1C        C  387   4.122   4.310   3.744
    1C        C  388   3.945   4.431   3.861
    1C        C  389   4.008   4.401   3.984
    1C        C  390   3.815   4.486   4.105
    1C        C  391   3.944   4.429   4.106
    1C        C  392   3.750   4.513   4.227
    1C        C  393   3.821   4.499   4.349
    1C        C  394   3.618   4.554   4.471
    1C        C  395   3.758   4.535   4.470
    1C        C  396   3.548   4.557   4.594
    1C        C  397   3.622   4.566   4.713
    1C        C  398   3.410   4.542   4.837
    1C        C  399   3.549   4.568   4.834
    1C        C  400   3.339   4.510   4.953
    1C        C  401   4.506   3.699   2.050
    1C        C  402   4.450   3.911   2.164
    1C        C  403   4.492   3.776   2.165
    1C        C  404   4.411   3.971   2.286
    1C        C  405   4.435   3.906   2.409
    1C        C  406   4.327   4.092   2.523
    1C        C  407   4.403   3.973   2.529
    1C        C  408   4.274   4.143   2.644
    1C        C  409   4.317   4.090   2.768
    1C        C  410   4.173   4.253   2.886
    1C        C  411   4.271   4.151   2.887
    1C        C  412   4.119   4.295   3.010
    1C        C  413   4.169   4.249   3.134
    1C        C  414   3.998   4.377   3.249
    1C        C  415   4.115   4.298   3.255
    1C        C  416   3.940   4.411   3.373
    1C        C  417   4.005   4.387   3.497
    1C        C  418   3.811   4.476   3.620
    1C        C  419   3.942   4.422   3.618
    1C        C  420   3.745   4.505   3.741
    1C        C  421   3.816   4.488   3.862
    1C        C  422   3.609   4.542   3.987
    1C        C  423   3.747   4.512   3.983
    1C        C  424   3.539   4.554   4.109
    1C        C  425   3.613   4.546   4.230
    1C        C  426   3.402   4.549   4.355
    1C        C  427   3.543   4.557   4.352
    1C        C  428   3.330   4.549   4.477
    1C        C  429   3.406   4.551   4.596
    1C        C  430   3.195   4.520   4.724
    1C        C  431   3.335   4.541   4.718
    1C        C  432   3.121   4.499   4.844
    1C        C  433   3.201   4.490   4.958
    1C        C  434   4.378   4.116   2.049
    1C        C  435   4.449   3.995   2.053
    1C        C  436   4.303   4.159   2.163
    1C        C  437   4.330   4.089   2.283
    1C        C  438   4.178   4.244   2.399
    1C        C  439   4.282   4.149   2.402
    1C        C  440   4.125   4.294   2.520
    1C        C  441   4.176   4.245   2.642
    1C        C  442   4.006   4.377   2.762
    1C        C  443   4.124   4.298   2.762
    1C        C  444   3.944   4.416   2.883
    1C        C  445   4.005   4.378   3.005
    1C        C  446   3.813   4.474   3.128
    1C        C  447   3.942   4.415   3.125
    1C        C  448   3.748   4.492   3.252
    1C        C  449   3.810   4.467   3.376
    1C        C  450   3.605   4.523   3.496
    1C        C  451   3.745   4.499   3.497
    1C        C  452   3.538   4.542   3.619
    1C        C  453   3.608   4.540   3.741
    1C        C  454   3.398   4.543   3.867
    1C        C  455   3.539   4.547   3.865
    1C        C  456   3.327   4.535   3.989
    1C        C  457   3.399   4.542   4.110
    1C        C  458   3.194   4.502   4.235
    1C        C  459   3.330   4.538   4.234
    1C        C  460   3.128   4.484   4.358
    1C        C  461   3.194   4.511   4.480
    1C        C  462   2.999   4.434   4.600
    1C        C  463   3.127   4.494   4.603
    1C        C  464   2.935   4.399   4.721
    1C        C  465   2.985   4.453   4.842
    1C        C  466   2.806   4.333   4.959
    1C        C  467   2.908   4.428   4.961
    1C        C  468   4.122   4.282   2.042
    1C        C  469   4.191   4.248   2.159
    1C        C  470   4.009   4.373   2.276
    1C        C  471   4.127   4.294   2.277
    1C        C  472   3.944   4.402   2.398
    1C        C  473   4.005   4.369   2.521
    1C        C  474   3.815   4.469   2.641
    1C        C  475   3.944   4.412   2.640
    1C        C  476   3.745   4.496   2.761
    1C        C  477   3.814   4.473   2.882
    1C        C  478   3.609   4.520   3.008
    1C        C  479   3.747   4.491   3.005
    1C        C  480   3.536   4.529   3.130
    1C        C  481   3.610   4.524   3.250
    1C        C  482   3.397   4.534   3.376
    1C        C  483   3.538   4.529   3.372
    1C        C  484   3.326   4.529   3.498
    1C        C  485   3.397   4.539   3.620
    1C        C  486   3.192   4.500   3.745
    1C        C  487   3.329   4.533   3.744
    1C        C  488   3.126   4.475   3.868
    1C        C  489   3.191   4.497   3.991
    1C        C  490   2.998   4.416   4.115
    1C        C  491   3.124   4.479   4.114
    1C        C  492   2.942   4.379   4.240
    1C        C  493   3.000   4.424   4.361
    1C        C  494   2.823   4.305   4.482
    1C        C  495   2.935   4.391   4.482
    1C        C  496   2.772   4.255   4.604
    1C        C  497   2.822   4.313   4.723
    1C        C  498   2.669   4.163   4.847
    1C        C  499   2.756   4.274   4.842
    1C        C  500   2.593   4.123   4.958
    1C        C  501   4.002   4.353   2.039
    1C        C  502   3.811   4.455   2.152
    1C        C  503   3.943   4.405   2.155
    1C        C  504   3.746   4.479   2.275
    1C        C  505   3.814   4.459   2.397
    1C        C  506   3.606   4.506   2.521
    1C        C  507   3.746   4.484   2.518
    1C        C  508   3.534   4.512   2.642
    1C        C  509   3.605   4.513   2.764
    1C        C  510   3.395   4.527   2.888
    1C        C  511   3.536   4.525   2.887
    1C        C  512   3.323   4.526   3.010
    1C        C  513   3.395   4.531   3.132
    1C        C  514   3.189   4.490   3.254
    1C        C  515   3.326   4.524   3.255
    1C        C  516   3.125   4.467   3.377
    1C        C  517   3.189   4.494   3.500
    1C        C  518   2.998   4.409   3.625
    1C        C  519   3.123   4.475   3.624
    1C        C  520   2.940   4.372   3.748
    1C        C  521   3.001   4.409   3.869
    1C        C  522   2.834   4.282   3.995
    1C        C  523   2.942   4.374   3.992
    1C        C  524   2.787   4.233   4.119
    1C        C  525   2.835   4.287   4.240
    1C        C  526   2.696   4.130   4.367
    1C        C  527   2.778   4.245   4.362
    1C        C  528   2.651   4.074   4.488
    1C        C  529   2.688   4.141   4.607
    1C        C  530   2.586   3.958   4.732
    1C        C  531   2.644   4.088   4.730
    1C        C  532   2.542   3.902   4.855
    1C        C  533   2.525   4.001   4.957
    1C        C  534   3.620   4.560   2.043
    1C        C  535   3.751   4.510   2.039
    1C        C  536   3.535   4.535   2.156
    1C        C  537   3.606   4.506   2.276
    1C        C  538   3.395   4.518   2.402
    1C        C  539   3.536   4.509   2.398
    1C        C  540   3.321   4.511   2.522
    1C        C  541   3.393   4.511   2.644
    1C        C  542   3.185   4.487   2.766
    1C        C  543   3.324   4.512   2.767
    1C        C  544   3.117   4.470   2.889
    1C        C  545   3.186   4.492   3.011
    1C        C  546   2.997   4.396   3.135
    1C        C  547   3.121   4.464   3.133
    1C        C  548   2.940   4.361   3.259
    1C        C  549   2.999   4.402   3.381
    1C        C  550   2.830   4.277   3.504
    1C        C  551   2.936   4.370   3.504
    1C        C  552   2.779   4.232   3.628
    1C        C  553   2.828   4.285   3.749
    1C        C  554   2.695   4.123   3.876
    1C        C  555   2.782   4.234   3.873
    1C        C  556   2.659   4.062   3.998
    1C        C  557   2.706   4.117   4.119
    1C        C  558   2.602   3.940   4.244
    1C        C  559   2.662   4.068   4.244
    1C        C  560   2.567   3.878   4.366
    1C        C  561   2.588   3.948   4.487
    1C        C  562   2.531   3.750   4.614
    1C        C  563   2.567   3.886   4.612
    1C        C  564   2.515   3.682   4.737
    1C        C  565   2.518   3.761   4.855
    1C        C  566   2.536   3.548   4.976
    1C        C  567   2.527   3.687   4.974
    1C        C  568   3.328   4.479   2.041
    1C        C  569   3.395   4.515   2.159
    1C        C  570   3.183   4.484   2.280
    1C        C  571   3.322   4.516   2.281
    1C        C  572   3.115   4.464   2.403
    1C        C  573   3.182   4.485   2.525
    1C        C  574   2.988   4.399   2.649
    1C        C  575   3.113   4.463   2.647
    1C        C  576   2.929   4.362   2.772
    1C        C  577   2.992   4.405   2.891
    1C        C  578   2.824   4.274   3.016
    1C        C  579   2.934   4.363   3.013
    1C        C  580   2.778   4.222   3.139
    1C        C  581   2.829   4.274   3.260
    1C        C  582   2.695   4.112   3.383
    1C        C  583   2.779   4.225   3.383
    1C        C  584   2.662   4.055   3.508
    1C        C  585   2.697   4.117   3.630
    1C        C  586   2.595   3.935   3.754
    1C        C  587   2.659   4.061   3.754
    1C        C  588   2.575   3.870   3.878
    1C        C  589   2.597   3.936   4.001
    1C        C  590   2.534   3.735   4.126
    1C        C  591   2.572   3.871   4.125
    1C        C  592   2.525   3.670   4.251
    1C        C  593   2.529   3.742   4.373
    1C        C  594   2.510   3.533   4.500
    1C        C  595   2.521   3.673   4.496
    1C        C  596   2.509   3.460   4.621
    1C        C  597   2.513   3.540   4.738
    1C        C  598   2.531   3.329   4.863
    1C        C  599   2.525   3.470   4.860
    1C        C  600   2.530   3.249   4.978
    1C        C  601   3.194   4.447   2.045
    1C        C  602   2.984   4.392   2.160
    1C        C  603   3.115   4.450   2.161
    1C        C  604   2.925   4.361   2.285
    1C        C  605   2.991   4.397   2.405
    1C        C  606   2.818   4.274   2.529
    1C        C  607   2.928   4.362   2.526
    1C        C  608   2.771   4.218   2.650
    1C        C  609   2.823   4.268   2.771
    1C        C  610   2.689   4.109   2.892
    1C        C  611   2.775   4.221   2.895
    1C        C  612   2.656   4.050   3.016
    1C        C  613   2.692   4.109   3.140
    1C        C  614   2.584   3.929   3.263
    1C        C  615   2.649   4.054   3.262
    1C        C  616   2.566   3.865   3.388
    1C        C  617   2.598   3.928   3.510
    1C        C  618   2.526   3.731   3.637
    1C        C  619   2.573   3.864   3.634
    1C        C  620   2.515   3.665   3.762
    1C        C  621   2.531   3.736   3.883
    1C        C  622   2.507   3.525   4.008
    1C        C  623   2.520   3.665   4.005
    1C        C  624   2.514   3.457   4.132
    1C        C  625   2.515   3.529   4.254
    1C        C  626   2.537   3.322   4.377
    1C        C  627   2.514   3.461   4.378
    1C        C  628   2.558   3.254   4.500
    1C        C  629   2.536   3.321   4.622
    1C        C  630   2.600   3.120   4.743
    1C        C  631   2.549   3.253   4.745
    1C        C  632   2.626   3.053   4.865
    1C        C  633   2.560   3.112   4.978
    1C        C  634   2.786   4.302   2.056
    1C        C  635   2.891   4.395   2.051
    1C        C  636   2.749   4.228   2.169
    1C        C  637   2.810   4.278   2.286
    1C        C  638   2.679   4.111   2.410
    1C        C  639   2.768   4.220   2.408
    1C        C  640   2.639   4.049   2.530
    1C        C  641   2.681   4.110   2.651
    1C        C  642   2.591   3.917   2.774
    1C        C  643   2.645   4.047   2.772
    1C        C  644   2.566   3.857   2.900
    1C        C  645   2.589   3.927   3.020
    1C        C  646   2.521   3.725   3.147
    1C        C  647   2.557   3.861   3.142
    1C        C  648   2.511   3.659   3.272
    1C        C  649   2.532   3.728   3.393
    1C        C  650   2.505   3.519   3.516
    1C        C  651   2.512   3.661   3.516
    1C        C  652   2.508   3.453   3.641
    1C        C  653   2.505   3.524   3.763
    1C        C  654   2.539   3.315   3.885
    1C        C  655   2.511   3.454   3.886
    1C        C  656   2.555   3.250   4.009
    1C        C  657   2.534   3.317   4.132
    1C        C  658   2.610   3.122   4.257
    1C        C  659   2.552   3.251   4.256
    1C        C  660   2.643   3.060   4.379
    1C        C  661   2.606   3.121   4.501
    1C        C  662   2.709   2.937   4.623
    1C        C  663   2.628   3.052   4.622
    1C        C  664   2.754   2.880   4.745
    1C        C  665   2.706   2.934   4.867
    1C        C  666   2.745   2.866   4.983
    1C        C  667   2.677   4.022   2.054
    1C        C  668   2.681   4.105   2.167
    1C        C  669   2.585   3.916   2.293
    1C        C  670   2.640   4.048   2.290
    1C        C  671   2.561   3.849   2.414
    1C        C  672   2.582   3.920   2.535
    1C        C  673   2.514   3.715   2.661
    1C        C  674   2.558   3.849   2.655
    1C        C  675   2.510   3.646   2.784
    1C        C  676   2.526   3.721   2.903
    1C        C  677   2.506   3.512   3.029
    1C        C  678   2.515   3.653   3.026
    1C        C  679   2.507   3.442   3.152
    1C        C  680   2.507   3.517   3.272
    1C        C  681   2.529   3.309   3.397
    1C        C  682   2.502   3.448   3.394
    1C        C  683   2.550   3.243   3.520
    1C        C  684   2.535   3.314   3.641
    1C        C  685   2.610   3.116   3.767
    1C        C  686   2.553   3.245   3.763
    1C        C  687   2.643   3.056   3.890
    1C        C  688   2.611   3.121   4.012
    1C        C  689   2.716   2.938   4.135
    1C        C  690   2.642   3.058   4.135
    1C        C  691   2.757   2.880   4.258
    1C        C  692   2.715   2.939   4.379
    1C        C  693   2.760   2.885   4.502
    1C        C  694   2.620   3.894   2.057
    1C        C  695   2.529   3.703   2.177
    1C        C  696   2.573   3.837   2.176
    1C        C  697   2.502   3.639   2.299
    1C        C  698   2.522   3.713   2.418
    1C        C  699   2.481   3.505   2.543
    1C        C  700   2.499   3.645   2.540
    1C        C  701   2.498   3.435   2.664
    1C        C  702   2.500   3.505   2.787
    1C        C  703   2.519   3.296   2.910
    1C        C  704   2.501   3.436   2.910
    1C        C  705   2.540   3.228   3.033
    1C        C  706   2.531   3.303   3.152
    1C        C  707   2.600   3.106   3.277
    1C        C  708   2.550   3.239   3.276
    1C        C  709   2.631   3.045   3.401
    1C        C  710   2.606   3.113   3.522
    1C        C  711   2.716   2.932   3.648
    1C        C  712   2.642   3.053   3.645
    1C        C  713   2.760   2.878   3.770
    1C        C  714   2.717   2.936   3.892
    1C        C  715   2.758   2.878   4.014
    1C        C  716   2.452   3.501   2.063
    1C        C  717   2.488   3.636   2.060
    1C        C  718   2.468   3.424   2.183
    1C        C  719   2.478   3.499   2.303
    1C        C  720   2.514   3.289   2.424
    1C        C  721   2.481   3.427   2.425
    1C        C  722   2.531   3.221   2.546
    1C        C  723   2.519   3.295   2.666
    1C        C  724   2.587   3.095   2.790
    1C        C  725   2.534   3.226   2.788
    1C        C  726   2.615   3.030   2.912
    1C        C  727   2.576   3.091   3.033
    1C        C  728   2.707   2.924   3.157
    1C        C  729   2.625   3.040   3.155
    1C        C  730   2.752   2.872   3.280
    1C        C  731   2.712   2.929   3.403
    1C        C  732   2.754   2.872   3.525
    1C        C  733   2.485   3.197   2.071
    1C        C  734   2.489   3.283   2.181
    1C        C  735   2.588   3.090   2.302
    1C        C  736   2.530   3.220   2.302
    1C        C  737   2.617   3.025   2.425
    1C        C  738   2.586   3.090   2.546
    1C        C  739   2.701   2.915   2.669
    1C        C  740   2.618   3.029   2.669
    1C        C  741   2.741   2.858   2.792
    1C        C  742   2.697   2.914   2.913
    1C        C  743   2.747   2.864   3.036
    1C        C  744   2.552   3.075   2.070
    1C        C  745   2.687   2.899   2.184
    1C        C  746   2.612   3.019   2.183
    1C        C  747   2.735   2.844   2.305
    1C        C  748   2.690   2.905   2.425
    1C        C  749   2.741   2.855   2.547
    1C        C  750   2.743   2.842   2.069
    1C        C  751   3.663   2.327   1.971
    1C        O  752   3.673   2.205   2.005
    1C        O  753   3.717   2.350   1.844
    1C        C  754   4.619   3.049   1.971
    1C        O  755   4.583   3.022   1.854
    1C        O  756   4.759   3.045   1.971
    1C        C  757   4.411   4.205   1.935
    1C        O  758   4.526   4.256   1.945
    1C        O  759   4.394   4.172   1.800
    1C        C  760   3.605   4.683   1.962
    1C        O  761   3.667   4.791   1.980
    1C        O  762   3.528   4.679   1.845
    1C        C  763   2.857   4.528   1.994
    1C        O  764   2.845   4.535   1.868
    1C        O  765   2.769   4.607   2.067
    1C        C  766   2.364   3.448   1.956
    1C        O  767   2.416   3.436   1.842
    1C        O  768   2.227   3.473   1.941
    1C        C  769   4.679   3.587   5.068
    1C        O  770   4.649   3.525   5.173
    1C        O  771   4.816   3.614   5.058
    1C        C  772   4.257   4.432   5.053
    1C        O  773   4.237   4.397   5.172
    1C        O  774   4.308   4.562   5.064
    1C        C  775   4.141   2.529   5.072
    1C        O  776   4.226   2.438   5.059
    1C        O  777   4.133   2.556   5.209
    1C        C  778   2.877   4.546   5.045
    1C        O  779   2.768   4.608   5.038
    1C        O  780   2.925   4.554   5.177
    1C        C  781   2.446   3.037   5.034
    1C        O  782   2.352   2.996   4.960
    1C        O  783   2.417   3.036   5.170
    1C        C  784   2.398   3.999   5.034
    1C        O  785   2.287   3.979   4.977
    1C        O  786   2.401   3.998   5.174
    1C        C  787   2.954   2.443   1.983
    1C        O  788   2.985   2.456   1.862
    1C        O  789   2.867   2.337   2.006
    1C        C  790   3.188   2.393   5.081
    1C        O  791   3.131   2.282   5.063
    1C        O  792   3.223   2.417   5.215
    1C        H  793   4.353   2.972   5.059
    1C        H  794   4.145   2.833   5.057
    1C        H  795   4.527   3.123   5.044
    1C        H  796   4.490   3.376   5.059
    1C        H  797   4.599   3.820   5.025
    1C        H  798   4.436   3.975   5.052
    1C        H  799   4.264   4.149   5.044
    1C        H  800   4.029   4.546   5.019
    1C        H  801   3.815   4.576   5.041
    1C        H  802   3.585   4.654   5.024
    1C        H  803   3.394   4.459   5.029
    1C        H  804   3.153   4.481   5.053
    1C        H  805   3.901   2.465   5.060
    1C        H  806   3.677   2.475   5.078
    1C        H  807   2.980   2.513   5.032
    1C        H  808   3.444   2.507   5.071
    1C        H  809   2.893   2.740   5.078
    1C        H  810   2.680   2.862   5.068
    1C        H  811   2.507   3.293   5.072
    1C        H  812   2.498   3.509   5.067
    1C        H  813   2.476   3.720   5.063
    1C        H  814   2.618   4.159   5.055
    1C        H  815   2.767   4.313   5.056
    1C        H  816   2.738   2.891   1.974
    1C        H  817   2.812   2.665   1.980
    1C        H  818   3.204   2.472   1.980
    1C        H  819   3.425   2.382   1.993
    1C        H  820   3.883   2.469   1.988
    1C        H  821   4.033   2.654   1.965
    1C        H  822   4.283   2.692   1.988
    1C        H  823   4.334   2.938   1.975
    1C        H  824   4.575   3.314   1.968
    1C        H  825   4.489   3.511   1.961
    1C        H  826   4.543   3.754   1.966
    1C        H  827   3.803   4.541   1.951
    1C        H  828   3.966   4.387   1.944
    1C        H  829   4.139   4.234   1.948
    1C        H  830   4.534   3.990   1.987
    1C        H  831   2.651   3.828   1.979
    1C        H  832   2.747   4.040   1.975
    1C        H  833   2.732   4.282   1.966
    1C        H  834   3.388   4.446   1.959
    1C        H  835   3.155   4.390   1.963
    1C        H  836   2.545   3.019   1.979
    1C        H  837   2.397   3.198   2.009
    1C        H  838   2.452   3.702   1.984
    2V3OU   H29  839   2.802   3.550   2.513
    2V3OU   C27  840   2.791   3.504   2.614
    2V3OU   H27  841   2.729   3.566   2.685
    2V3OU   H28  842   2.737   3.408   2.595
    2V3OU   O11  843   2.913   3.479   2.684
    2V3OU   C15  844   2.928   3.402   2.798
    2V3OU   C13  845   3.054   3.371   2.853
    2V3OU   C14  846   3.077   3.269   2.945
    2V3OU   C16  847   2.976   3.186   2.994
    2V3OU    H6  848   2.988   3.108   3.070
    2V3OU   C12  849   3.210   3.230   2.997
    2V3OU    O2  850   3.236   3.119   3.048
    2V3OU   C10  851   3.324   3.308   2.948
    2V3OU    C8  852   3.454   3.270   2.982
    2V3OU   O10  853   3.485   3.158   3.053
    2V3OU   H26  854   3.401   3.115   3.077
    2V3OU    C6  855   3.565   3.350   2.943
    2V3OU    C5  856   3.541   3.471   2.878
    2V3OU    C4  857   3.704   3.295   2.944
    2V3OU    H4  858   3.718   3.230   3.036
    2V3OU    H5  859   3.717   3.229   2.853
    2V3OU    C2  860   3.817   3.398   2.948
    2V3OU    O6  861   3.806   3.470   3.071
    2V3OU   H21  862   3.761   3.550   3.040
    2V3OU    C3  863   3.783   3.492   2.832
    2V3OU    H2  864   3.860   3.572   2.820
    2V3OU    H3  865   3.787   3.437   2.734
    2V3OU   C25  866   3.951   3.327   2.932
    2V3OU    O7  867   3.995   3.296   2.821
    2V3OU   C26  868   4.029   3.290   3.057
    2V3OU   H22  869   4.061   3.384   3.109
    2V3OU   H23  870   4.121   3.232   3.029
    2V3OU    O8  871   3.962   3.203   3.145
    2V3OU   H24  872   3.925   3.258   3.215
    2V3OU    C1  873   3.652   3.567   2.848
    2V3OU    H1  874   3.631   3.616   2.748
    2V3OU    O3  875   3.661   3.655   2.960
    2V3OU   C19  876   3.619   3.791   2.957
    2V3OU    H9  877   3.527   3.805   2.894
    2V3OU    O4  878   3.716   3.846   2.871
    2V3OU   C20  879   3.842   3.870   2.933
    2V3OU   H10  880   3.886   3.767   2.950
    2V3OU   C24  881   3.608   3.862   3.092
    2V3OU   H16  882   3.541   3.805   3.161
    2V3OU   H17  883   3.562   3.962   3.069
    2V3OU   C23  884   3.746   3.878   3.158
    2V3OU   H15  885   3.782   3.774   3.186
    2V3OU    N1  886   3.735   3.958   3.278
    2V3OU   H19  887   3.815   3.926   3.329
    2V3OU   H20  888   3.648   3.941   3.324
    2V3OU   C21  889   3.846   3.951   3.063
    2V3OU   H11  890   3.953   3.934   3.094
    2V3OU    O5  891   3.826   4.091   3.063
    2V3OU   H18  892   3.782   4.100   3.149
    2V3OU   C22  893   3.913   3.944   2.821
    2V3OU   H12  894   3.863   4.042   2.799
    2V3OU   H13  895   3.900   3.888   2.725
    2V3OU   H14  896   4.023   3.956   2.840
    2V3OU   C11  897   3.162   3.470   2.841
    2V3OU    O1  898   3.142   3.582   2.790
    2V3OU    C9  899   3.299   3.422   2.867
    2V3OU    C7  900   3.408   3.504   2.840
    2V3OU    O9  901   3.392   3.620   2.766
    2V3OU   H25  902   3.296   3.633   2.763
    2V3OU   C17  903   2.828   3.317   2.850
    2V3OU    H7  904   2.731   3.347   2.812
    2V3OU   C18  905   2.850   3.215   2.942
    2V3OU    H8  906   2.779   3.168   3.012
    3SOL     OW  907   2.040   5.413   6.626
    3SOL    HW1  908   2.061   5.343   6.557
    3SOL    HW2  909   2.056   5.504   6.587
    4SOL     OW  910   6.757   0.621   2.089
    4SOL    HW1  911   6.766   0.545   2.024
    4SOL    HW2  912   6.662   0.653   2.091
    5SOL     OW  913   4.188   2.140   2.292
    5SOL    HW1  914   4.265   2.083   2.319
    5SOL    HW2  915   4.157   2.114   2.200
    6SOL     OW  916   4.312   1.361   1.447
    6SOL    HW1  917   4.358   1.403   1.525
    6SOL    HW2  918   4.356   1.392   1.362
    7SOL     OW  919   0.902   4.042   3.706
    7SOL    HW1  920   0.995   4.005   3.703
    7SOL    HW2  921   0.890   4.093   3.792
    8SOL     OW  922   3.216   1.250   5.641
    8SOL    HW1  923   3.192   1.320   5.708
    8SOL    HW2  924   3.313   1.227   5.652
    9SOL     OW  925   4.775   1.372   5.827
    9SOL    HW1  926   4.732   1.391   5.738
    9SOL    HW2  927   4.746   1.441   5.893
   10SOL     OW  928   2.270   4.933   5.148
   10SOL    HW1  929   2.281   4.977   5.059
   10SOL    HW2  930   2.248   4.836   5.135
   11SOL     OW  931   3.096   1.058   5.500
   11SOL    HW1  932   3.131   1.035   5.409
   11SOL    HW2  933   3.140   1.142   5.533
   12SOL     OW  934   2.822   5.348   3.450
   12SOL    HW1  935   2.855   5.262   3.411
   12SOL    HW2  936   2.891   5.419   3.437
   13SOL     OW  937   3.780   6.768   4.201
   13SOL    HW1  938   3.732   6.681   4.198
   13SOL    HW2  939   3.758   6.815   4.287
   14SOL     OW  940   3.696   4.853   6.368
   14SOL    HW1  941   3.724   4.913   6.293
   14SOL    HW2  942   3.743   4.882   6.452
   15SOL     OW  943   1.037   6.687   1.139
   15SOL    HW1  944   1.136   6.690   1.151
   15SOL    HW2  945   1.004   6.595   1.163
   16SOL     OW  946   5.695   2.928   6.149
   16SOL    HW1  947   5.746   2.869   6.212
   16SOL    HW2  948   5.759   2.986   6.098
   17SOL     OW  949   5.791   5.278   6.438
   17SOL    HW1  950   5.846   5.268   6.521
   17SOL    HW2  951   5.829   5.220   6.366
   18SOL     OW  952   3.404   1.133   5.364
   18SOL    HW1  953   3.366   1.059   5.419
   18SOL    HW2  954   3.503   1.137   5.378
   19SOL     OW  955   0.214   1.529   2.642
   19SOL    HW1  956   0.231   1.628   2.640
   19SOL    HW2  957   0.300   1.481   2.656
   20SOL     OW  958   4.918   1.759   4.165
   20SOL    HW1  959   4.990   1.820   4.132
   20SOL    HW2  960   4.837   1.812   4.190
   21SOL     OW  961   3.495   0.849   1.911
   21SOL    HW1  962   3.566   0.795   1.956
   21SOL    HW2  963   3.457   0.798   1.834
   22SOL     OW  964   1.094   6.330   0.047
   22SOL    HW1  965   1.191   6.304   0.051
   22SOL    HW2  966   1.072   6.362   6.977
   23SOL     OW  967   5.226   5.500   2.494
   23SOL    HW1  968   5.233   5.489   2.395
   23SOL    HW2  969   5.296   5.565   2.525
   24SOL     OW  970   3.475   0.449   2.663
   24SOL    HW1  971   3.434   0.409   2.581
   24SOL    HW2  972   3.441   0.543   2.674
   25SOL     OW  973   3.681   0.143   3.618
   25SOL    HW1  974   3.642   0.166   3.529
   25SOL    HW2  975   3.720   0.051   3.616
   26SOL     OW  976   6.532   1.034   0.735
   26SOL    HW1  977   6.587   1.099   0.788
   26SOL    HW2  978   6.452   1.007   0.788
   27SOL     OW  979   1.897   0.910   2.303
   27SOL    HW1  980   1.973   0.902   2.369
   27SOL    HW2  981   1.838   0.830   2.311
   28SOL     OW  982   2.121   0.567   4.916
   28SOL    HW1  983   2.071   0.630   4.857
   28SOL    HW2  984   2.066   0.485   4.931
   29SOL     OW  985   6.250   1.783   1.553
   29SOL    HW1  986   6.221   1.710   1.491
   29SOL    HW2  987   6.261   1.868   1.501
   30SOL     OW  988   4.121   0.807   3.246
   30SOL    HW1  989   4.211   0.818   3.286
   30SOL    HW2  990   4.055   0.864   3.294
   31SOL     OW  991   0.801   2.196   6.368
   31SOL    HW1  992   0.747   2.280   6.362
   31SOL    HW2  993   0.886   2.214   6.417
   32SOL     OW  994   6.996   1.523   3.022
   32SOL    HW1  995   7.019   1.463   2.945
   32SOL    HW2  996   0.053   1.533   3.081
   33SOL     OW  997   0.829   4.416   4.733
   33SOL    HW1  998   0.777   4.475   4.795
   33SOL    HW2  999   0.778   4.331   4.718
   34SOL     OW 1000   2.666   6.779   4.842
   34SOL    HW1 1001   2.673   6.824   4.931
   34SOL    HW2 1002   2.685   6.682   4.852
   35SOL     OW 1003   4.944   3.164   5.953
   35SOL    HW1 1004   4.992   3.251   5.948
   35SOL    HW2 1005   4.854   3.173   5.909
   36SOL     OW 1006   4.837   1.642   4.464
   36SOL    HW1 1007   4.874   1.627   4.372
   36SOL    HW2 1008   4.737   1.643   4.460
   37SOL     OW 1009   1.324   1.669   5.557
   37SOL    HW1 1010   1.322   1.625   5.647
   37SOL    HW2 1011   1.402   1.636   5.505
   38SOL     OW 1012   0.982   5.283   2.513
   38SOL    HW1 1013   1.057   5.218   2.514
   38SOL    HW2 1014   1.009   5.365   2.564
   39SOL     OW 1015   6.309   4.585   6.293
   39SOL    HW1 1016   6.394   4.543   6.263
   39SOL    HW2 1017   6.294   4.670   6.243
   40SOL     OW 1018   4.882   1.851   0.575
   40SOL    HW1 1019   4.790   1.889   0.574
   40SOL    HW2 1020   4.935   1.892   0.500
   41SOL     OW 1021   0.072   4.463   3.369
   41SOL    HW1 1022   0.014   4.383   3.389
   41SOL    HW2 1023   0.061   4.488   3.272
   42SOL     OW 1024   3.215   5.209   3.845
   42SOL    HW1 1025   3.118   5.234   3.841
   42SOL    HW2 1026   3.264   5.276   3.901
   43SOL     OW 1027   5.170   6.904   5.490
   43SOL    HW1 1028   5.100   6.875   5.426
   43SOL    HW2 1029   5.212   6.824   5.533
   44SOL     OW 1030   4.815   2.253   6.033
   44SOL    HW1 1031   4.873   2.329   6.003
   44SOL    HW2 1032   4.733   2.289   6.077
   45SOL     OW 1033   4.826   5.306   1.301
   45SOL    HW1 1034   4.820   5.237   1.374
   45SOL    HW2 1035   4.735   5.341   1.282
   46SOL     OW 1036   0.694   2.781   3.594
   46SOL    HW1 1037   0.783   2.825   3.605
   46SOL    HW2 1038   0.699   2.686   3.625
   47SOL     OW 1039   4.678   4.403   1.033
   47SOL    HW1 1040   4.748   4.402   0.961
   47SOL    HW2 1041   4.597   4.452   1.000
   48SOL     OW 1042   6.637   2.525   5.886
   48SOL    HW1 1043   6.697   2.466   5.939
   48SOL    HW2 1044   6.665   2.620   5.897
   49SOL     OW 1045   5.669   3.455   2.130
   49SOL    HW1 1046   5.586   3.404   2.149
   49SOL    HW2 1047   5.670   3.485   2.035
   50SOL     OW 1048   5.582   1.016   4.863
   50SOL    HW1 1049   5.565   1.106   4.902
   50SOL    HW2 1050   5.678   1.008   4.837
   51SOL     OW 1051   2.517   6.463   3.170
   51SOL    HW1 1052   2.602   6.440   3.218
   51SOL    HW2 1053   2.499   6.561   3.179
   52SOL     OW 1054   6.229   3.009   2.059
   52SOL    HW1 1055   6.317   2.978   2.096
   52SOL    HW2 1056   6.155   2.960   2.105
   53SOL     OW 1057   4.136   1.010   3.815
   53SOL    HW1 1058   4.068   1.082   3.796
   53SOL    HW2 1059   4.139   0.946   3.738
   54SOL     OW 1060   5.312   5.534   0.913
   54SOL    HW1 1061   5.234   5.556   0.854
   54SOL    HW2 1062   5.320   5.435   0.923
   55SOL     OW 1063   2.050   2.975   6.108
   55SOL    HW1 1064   1.999   3.002   6.190
   55SOL    HW2 1065   2.144   2.950   6.134
   56SOL     OW 1066   0.260   0.643   1.491
   56SOL    HW1 1067   0.345   0.686   1.522
   56SOL    HW2 1068   0.199   0.631   1.570
   57SOL     OW 1069   4.597   0.986   1.188
   57SOL    HW1 1070   4.671   1.033   1.236
   57SOL    HW2 1071   4.532   1.053   1.152
   58SOL     OW 1072   1.215   0.058   4.981
   58SOL    HW1 1073   1.289   7.014   4.991
   58SOL    HW2 1074   1.236   0.140   5.033
   59SOL     OW 1075   0.306   2.650   5.984
   59SOL    HW1 1076   0.242   2.652   6.061
   59SOL    HW2 1077   0.256   2.662   5.898
   60SOL     OW 1078   5.309   2.680   4.366
   60SOL    HW1 1079   5.337   2.774   4.345
   60SOL    HW2 1080   5.211   2.678   4.383
   61SOL     OW 1081   6.606   2.174   4.318
   61SOL    HW1 1082   6.613   2.075   4.305
   61SOL    HW2 1083   6.640   2.221   4.236
   62SOL     OW 1084   2.104   0.767   2.083
   62SOL    HW1 1085   2.097   0.678   2.038
   62SOL    HW2 1086   2.013   0.798   2.111
   63SOL     OW 1087   4.980   0.817   4.215
   63SOL    HW1 1088   4.892   0.856   4.242
   63SOL    HW2 1089   5.052   0.850   4.276
   64SOL     OW 1090   0.221   3.018   5.745
   64SOL    HW1 1091   0.242   2.976   5.657
   64SOL    HW2 1092   0.143   2.972   5.786
   65SOL     OW 1093   0.549   4.611   6.229
   65SOL    HW1 1094   0.514   4.694   6.184
   65SOL    HW2 1095   0.473   4.567   6.278
   66SOL     OW 1096   3.694   0.606   4.120
   66SOL    HW1 1097   3.753   0.628   4.198
   66SOL    HW2 1098   3.668   0.510   4.124
   67SOL     OW 1099   6.365   2.440   5.863
   67SOL    HW1 1100   6.348   2.429   5.765
   67SOL    HW2 1101   6.454   2.484   5.877
   68SOL     OW 1102   0.026   1.243   0.265
   68SOL    HW1 1103   0.076   1.277   0.185
   68SOL    HW2 1104   6.961   1.290   0.272
   69SOL     OW 1105   0.742   3.342   6.465
   69SOL    HW1 1106   0.653   3.376   6.436
   69SOL    HW2 1107   0.741   3.327   6.564
   70SOL     OW 1108   5.247   4.459   4.357
   70SOL    HW1 1109   5.199   4.378   4.390
   70SOL    HW2 1110   5.281   4.441   4.264
   71SOL     OW 1111   4.275   2.231   3.004
   71SOL    HW1 1112   4.262   2.139   3.041
   71SOL    HW2 1113   4.230   2.239   2.915
   72SOL     OW 1114   1.381   1.102   3.412
   72SOL    HW1 1115   1.395   1.071   3.506
   72SOL    HW2 1116   1.394   1.201   3.407
   73SOL     OW 1117   3.924   0.378   1.421
   73SOL    HW1 1118   3.869   0.344   1.345
   73SOL    HW2 1119   4.021   0.357   1.403
   74SOL     OW 1120   3.878   0.569   0.019
   74SOL    HW1 1121   3.810   0.633   7.005
   74SOL    HW2 1122   3.951   0.557   6.974
   75SOL     OW 1123   4.270   0.519   1.249
   75SOL    HW1 1124   4.272   0.619   1.253
   75SOL    HW2 1125   4.256   0.482   1.341
   76SOL     OW 1126   2.595   3.023   1.033
   76SOL    HW1 1127   2.543   3.023   1.118
   76SOL    HW2 1128   2.566   3.100   0.976
   77SOL     OW 1129   1.068   0.368   3.645
   77SOL    HW1 1130   1.021   0.344   3.730
   77SOL    HW2 1131   1.033   0.312   3.570
   78SOL     OW 1132   5.089   1.689   0.252
   78SOL    HW1 1133   5.060   1.616   0.190
   78SOL    HW2 1134   5.093   1.655   0.345
   79SOL     OW 1135   3.331   5.708   1.115
   79SOL    HW1 1136   3.310   5.614   1.140
   79SOL    HW2 1137   3.247   5.756   1.090
   80SOL     OW 1138   4.673   0.900   3.382
   80SOL    HW1 1139   4.678   0.817   3.438
   80SOL    HW2 1140   4.762   0.946   3.382
   81SOL     OW 1141   2.303   0.070   2.308
   81SOL    HW1 1142   2.317   0.138   2.235
   81SOL    HW2 1143   2.220   0.018   2.289
   82SOL     OW 1144   5.801   5.192   0.732
   82SOL    HW1 1145   5.888   5.149   0.709
   82SOL    HW2 1146   5.744   5.128   0.783
   83SOL     OW 1147   0.273   0.048   0.421
   83SOL    HW1 1148   0.295   0.062   0.324
   83SOL    HW2 1149   0.281   6.973   0.443
   84SOL     OW 1150   6.340   3.484   2.428
   84SOL    HW1 1151   6.384   3.403   2.466
   84SOL    HW2 1152   6.290   3.532   2.499
   85SOL     OW 1153   1.727   1.150   3.351
   85SOL    HW1 1154   1.782   1.230   3.375
   85SOL    HW2 1155   1.716   1.092   3.432
   86SOL     OW 1156   0.523   1.441   6.422
   86SOL    HW1 1157   0.565   1.360   6.464
   86SOL    HW2 1158   0.480   1.496   6.493
   87SOL     OW 1159   5.149   4.292   0.923
   87SOL    HW1 1160   5.122   4.211   0.871
   87SOL    HW2 1161   5.156   4.371   0.862
   88SOL     OW 1162   2.884   1.804   6.540
   88SOL    HW1 1163   2.886   1.743   6.460
   88SOL    HW2 1164   2.956   1.874   6.529
   89SOL     OW 1165   2.597   3.077   0.040
   89SOL    HW1 1166   2.565   2.985   0.061
   89SOL    HW2 1167   2.680   3.096   0.092
   90SOL     OW 1168   3.780   5.628   1.923
   90SOL    HW1 1169   3.718   5.555   1.893
   90SOL    HW2 1170   3.867   5.587   1.952
   91SOL     OW 1171   6.422   4.187   6.124
   91SOL    HW1 1172   6.359   4.238   6.065
   91SOL    HW2 1173   6.515   4.223   6.113
   92SOL     OW 1174   4.673   4.474   1.307
   92SOL    HW1 1175   4.657   4.483   1.209
   92SOL    HW2 1176   4.748   4.410   1.323
   93SOL     OW 1177   3.139   3.518   0.350
   93SOL    HW1 1178   3.125   3.531   0.252
   93SOL    HW2 1179   3.118   3.603   0.399
   94SOL     OW 1180   3.121   5.468   6.531
   94SOL    HW1 1181   3.192   5.439   6.467
   94SOL    HW2 1182   3.154   5.547   6.583
   95SOL     OW 1183   1.696   0.760   2.691
   95SOL    HW1 1184   1.717   0.849   2.731
   95SOL    HW2 1185   1.776   0.725   2.642
   96SOL     OW 1186   4.093   6.989   5.892
   96SOL    HW1 1187   4.156   0.042   5.914
   96SOL    HW2 1188   4.146   6.906   5.875
   97SOL     OW 1189   2.304   2.977   6.122
   97SOL    HW1 1190   2.344   2.953   6.210
   97SOL    HW2 1191   2.352   3.056   6.084
   98SOL     OW 1192   1.206   2.968   0.858
   98SOL    HW1 1193   1.125   2.912   0.873
   98SOL    HW2 1194   1.181   3.049   0.804
   99SOL     OW 1195   4.465   3.296   1.482
   99SOL    HW1 1196   4.454   3.278   1.580
   99SOL    HW2 1197   4.414   3.379   1.458
  100SOL     OW 1198   1.002   6.391   3.421
  100SOL    HW1 1199   0.978   6.333   3.499
  100SOL    HW2 1200   1.044   6.475   3.453
  101SOL     OW 1201   1.516   4.635   2.226
  101SOL    HW1 1202   1.466   4.577   2.291
  101SOL    HW2 1203   1.469   4.633   2.138
  102SOL     OW 1204   3.175   5.333   2.076
  102SOL    HW1 1205   3.249   5.313   2.012
  102SOL    HW2 1206   3.193   5.286   2.162
  103SOL     OW 1207   2.508   1.748   2.069
  103SOL    HW1 1208   2.550   1.659   2.052
  103SOL    HW2 1209   2.410   1.743   2.050
  104SOL     OW 1210   1.321   5.628   2.612
  104SOL    HW1 1211   1.379   5.593   2.684
  104SOL    HW2 1212   1.308   5.727   2.624
  105SOL     OW 1213   5.901   1.284   6.436
  105SOL    HW1 1214   5.809   1.251   6.458
  105SOL    HW2 1215   5.895   1.376   6.396
  106SOL     OW 1216   3.396   5.998   3.627
  106SOL    HW1 1217   3.493   5.998   3.651
  106SOL    HW2 1218   3.357   6.089   3.640
  107SOL     OW 1219   0.787   1.113   0.039
  107SOL    HW1 1220   0.790   1.035   6.999
  107SOL    HW2 1221   0.840   1.092   0.121
  108SOL     OW 1222   4.141   6.852   6.216
  108SOL    HW1 1223   4.042   6.853   6.210
  108SOL    HW2 1224   4.176   6.766   6.177
  109SOL     OW 1225   2.461   1.383   2.733
  109SOL    HW1 1226   2.466   1.381   2.633
  109SOL    HW2 1227   2.415   1.301   2.767
  110SOL     OW 1228   2.971   5.148   4.184
  110SOL    HW1 1229   2.922   5.227   4.220
  110SOL    HW2 1230   2.918   5.105   4.112
  111SOL     OW 1231   2.382   1.005   3.892
  111SOL    HW1 1232   2.468   1.051   3.915
  111SOL    HW2 1233   2.401   0.929   3.829
  112SOL     OW 1234   3.398   5.761   0.163
  112SOL    HW1 1235   3.314   5.711   0.184
  112SOL    HW2 1236   3.456   5.765   0.244
  113SOL     OW 1237   0.863   6.412   2.453
  113SOL    HW1 1238   0.963   6.410   2.453
  113SOL    HW2 1239   0.830   6.433   2.545
  114SOL     OW 1240   0.956   6.443   1.172
  114SOL    HW1 1241   0.896   6.429   1.251
  114SOL    HW2 1242   0.930   6.381   1.098
  115SOL     OW 1243   4.716   0.718   2.885
  115SOL    HW1 1244   4.733   0.706   2.983
  115SOL    HW2 1245   4.804   0.727   2.837
  116SOL     OW 1246   6.890   6.278   0.725
  116SOL    HW1 1247   6.981   6.316   0.709
  116SOL    HW2 1248   6.851   6.319   0.807
  117SOL     OW 1249   6.774   1.825   1.061
  117SOL    HW1 1250   6.709   1.831   1.137
  117SOL    HW2 1251   6.816   1.914   1.046
  118SOL     OW 1252   1.677   1.253   2.508
  118SOL    HW1 1253   1.605   1.323   2.514
  118SOL    HW2 1254   1.649   1.181   2.446
  119SOL     OW 1255   0.286   0.260   6.994
  119SOL    HW1 1256   0.193   0.243   6.961
  119SOL    HW2 1257   0.312   0.355   6.973
  120SOL     OW 1258   5.159   1.591   5.695
  120SOL    HW1 1259   5.119   1.518   5.639
  120SOL    HW2 1260   5.217   1.649   5.638
  121SOL     OW 1261   1.647   3.120   0.462
  121SOL    HW1 1262   1.642   3.028   0.501
  121SOL    HW2 1263   1.735   3.161   0.486
  122SOL     OW 1264   1.462   3.872   0.330
  122SOL    HW1 1265   1.559   3.892   0.337
  122SOL    HW2 1266   1.416   3.901   0.414
  123SOL     OW 1267   1.366   1.935   2.834
  123SOL    HW1 1268   1.313   1.874   2.776
  123SOL    HW2 1269   1.340   1.921   2.930
  124SOL     OW 1270   3.548   2.645   0.658
  124SOL    HW1 1271   3.456   2.610   0.639
  124SOL    HW2 1272   3.545   2.745   0.657
  125SOL     OW 1273   4.035   2.586   0.577
  125SOL    HW1 1274   4.007   2.656   0.511
  125SOL    HW2 1275   3.956   2.531   0.603
  126SOL     OW 1276   3.544   3.583   1.642
  126SOL    HW1 1277   3.483   3.572   1.720
  126SOL    HW2 1278   3.581   3.494   1.616
  127SOL     OW 1279   0.925   5.055   6.437
  127SOL    HW1 1280   0.990   4.997   6.487
  127SOL    HW2 1281   0.872   4.999   6.373
  128SOL     OW 1282   4.568   3.275   1.097
  128SOL    HW1 1283   4.507   3.196   1.106
  128SOL    HW2 1284   4.604   3.299   1.187
  129SOL     OW 1285   3.050   3.438   6.405
  129SOL    HW1 1286   3.004   3.382   6.336
  129SOL    HW2 1287   3.117   3.498   6.360
  130SOL     OW 1288   1.228   1.209   4.211
  130SOL    HW1 1289   1.154   1.154   4.250
  130SOL    HW2 1290   1.313   1.156   4.211
  131SOL     OW 1291   4.770   0.710   3.168
  131SOL    HW1 1292   4.793   0.677   3.260
  131SOL    HW2 1293   4.712   0.791   3.175
  132SOL     OW 1294   2.862   2.488   1.635
  132SOL    HW1 1295   2.852   2.587   1.623
  132SOL    HW2 1296   2.881   2.468   1.731
  133SOL     OW 1297   4.991   0.844   4.552
  133SOL    HW1 1298   5.043   0.760   4.541
  133SOL    HW2 1299   4.899   0.832   4.513
  134SOL     OW 1300   0.168   1.203   2.583
  134SOL    HW1 1301   0.268   1.197   2.589
  134SOL    HW2 1302   0.129   1.111   2.581
  135SOL     OW 1303   4.948   3.576   4.266
  135SOL    HW1 1304   4.885   3.511   4.310
  135SOL    HW2 1305   4.941   3.565   4.167
  136SOL     OW 1306   1.457   5.045   5.471
  136SOL    HW1 1307   1.547   5.047   5.429
  136SOL    HW2 1308   1.457   5.099   5.555
  137SOL     OW 1309   4.407   1.486   3.253
  137SOL    HW1 1310   4.457   1.434   3.184
  137SOL    HW2 1311   4.461   1.490   3.337
  138SOL     OW 1312   1.170   3.906   2.911
  138SOL    HW1 1313   1.210   3.997   2.917
  138SOL    HW2 1314   1.223   3.851   2.846
  139SOL     OW 1315   2.050   6.571   5.502
  139SOL    HW1 1316   2.092   6.522   5.426
  139SOL    HW2 1317   2.034   6.508   5.578
  140SOL     OW 1318   1.973   6.753   3.927
  140SOL    HW1 1319   2.041   6.706   3.984
  140SOL    HW2 1320   2.018   6.820   3.870
  141SOL     OW 1321   0.296   2.597   4.954
  141SOL    HW1 1322   0.255   2.534   4.888
  141SOL    HW2 1323   0.374   2.553   4.999
  142SOL     OW 1324   1.974   3.776   2.201
  142SOL    HW1 1325   1.897   3.713   2.208
  142SOL    HW2 1326   2.045   3.736   2.143
  143SOL     OW 1327   6.009   5.156   0.392
  143SOL    HW1 1328   6.081   5.132   0.457
  143SOL    HW2 1329   5.998   5.256   0.391
  144SOL     OW 1330   1.829   4.704   6.215
  144SOL    HW1 1331   1.792   4.753   6.136
  144SOL    HW2 1332   1.810   4.607   6.205
  145SOL     OW 1333   1.518   4.638   1.945
  145SOL    HW1 1334   1.605   4.686   1.954
  145SOL    HW2 1335   1.530   4.554   1.893
  146SOL     OW 1336   5.453   0.414   6.295
  146SOL    HW1 1337   5.424   0.328   6.336
  146SOL    HW2 1338   5.430   0.414   6.197
  147SOL     OW 1339   5.451   1.997   6.104
  147SOL    HW1 1340   5.527   2.047   6.063
  147SOL    HW2 1341   5.423   2.044   6.188
  148SOL     OW 1342   6.978   5.483   0.892
  148SOL    HW1 1343   6.963   5.501   0.990
  148SOL    HW2 1344   0.054   5.473   0.876
  149SOL     OW 1345   3.487   2.086   5.087
  149SOL    HW1 1346   3.491   2.156   5.159
  149SOL    HW2 1347   3.402   2.098   5.035
  150SOL     OW 1348   5.391   6.650   6.789
  150SOL    HW1 1349   5.490   6.635   6.780
  150SOL    HW2 1350   5.368   6.657   6.886
  151SOL     OW 1351   3.335   0.465   1.435
  151SOL    HW1 1352   3.236   0.477   1.436
  151SOL    HW2 1353   3.358   0.375   1.473
  152SOL     OW 1354   0.151   1.674   1.156
  152SOL    HW1 1355   0.065   1.657   1.109
  152SOL    HW2 1356   0.140   1.659   1.254
  153SOL     OW 1357   2.948   6.956   3.392
  153SOL    HW1 1358   3.016   6.992   3.328
  153SOL    HW2 1359   2.901   6.879   3.349
  154SOL     OW 1360   1.019   3.443   0.659
  154SOL    HW1 1361   1.101   3.442   0.717
  154SOL    HW2 1362   1.030   3.513   0.589
  155SOL     OW 1363   1.010   1.096   4.298
  155SOL    HW1 1364   0.928   1.078   4.244
  155SOL    HW2 1365   0.989   1.163   4.369
  156SOL     OW 1366   6.917   0.859   0.755
  156SOL    HW1 1367   6.939   0.954   0.776
  156SOL    HW2 1368   6.995   0.815   0.712
  157SOL     OW 1369   5.772   3.906   0.707
  157SOL    HW1 1370   5.872   3.909   0.705
  157SOL    HW2 1371   5.735   3.935   0.619
  158SOL     OW 1372   1.577   3.185   1.955
  158SOL    HW1 1373   1.560   3.134   2.039
  158SOL    HW2 1374   1.630   3.129   1.891
  159SOL     OW 1375   4.561   4.839   1.710
  159SOL    HW1 1376   4.652   4.845   1.750
  159SOL    HW2 1377   4.518   4.929   1.709
  160SOL     OW 1378   5.411   6.712   0.819
  160SOL    HW1 1379   5.344   6.738   0.888
  160SOL    HW2 1380   5.492   6.672   0.863
  161SOL     OW 1381   1.300   0.296   3.321
  161SOL    HW1 1382   1.357   0.330   3.395
  161SOL    HW2 1383   1.238   0.368   3.290
  162SOL     OW 1384   4.041   6.136   0.334
  162SOL    HW1 1385   4.078   6.164   0.245
  162SOL    HW2 1386   4.039   6.036   0.339
  163SOL     OW 1387   6.797   5.787   2.047
  163SOL    HW1 1388   6.699   5.803   2.048
  163SOL    HW2 1389   6.843   5.859   1.994
  164SOL     OW 1390   1.203   4.244   3.459
  164SOL    HW1 1391   1.297   4.253   3.426
  164SOL    HW2 1392   1.184   4.148   3.478
  165SOL     OW 1393   4.991   4.060   0.350
  165SOL    HW1 1394   4.955   3.968   0.367
  165SOL    HW2 1395   5.012   4.070   0.253
  166SOL     OW 1396   1.045   2.936   2.260
  166SOL    HW1 1397   1.004   2.857   2.305
  166SOL    HW2 1398   0.973   3.000   2.232
  167SOL     OW 1399   5.546   2.108   6.914
  167SOL    HW1 1400   5.553   2.010   6.932
  167SOL    HW2 1401   5.614   2.134   6.845
  168SOL     OW 1402   3.574   1.736   0.634
  168SOL    HW1 1403   3.659   1.691   0.661
  168SOL    HW2 1404   3.570   1.828   0.673
  169SOL     OW 1405   6.521   2.404   0.965
  169SOL    HW1 1406   6.473   2.490   0.982
  169SOL    HW2 1407   6.571   2.409   0.879
  170SOL     OW 1408   0.015   6.434   2.372
  170SOL    HW1 1409   6.996   6.457   2.460
  170SOL    HW2 1410   0.109   6.405   2.385
  171SOL     OW 1411   2.885   4.633   0.138
  171SOL    HW1 1412   2.899   4.731   0.151
  171SOL    HW2 1413   2.899   4.609   0.042
  172SOL     OW 1414   6.178   1.437   3.495
  172SOL    HW1 1415   6.241   1.400   3.426
  172SOL    HW2 1416   6.228   1.499   3.555
  173SOL     OW 1417   5.841   1.215   3.920
  173SOL    HW1 1418   5.865   1.140   3.858
  173SOL    HW2 1419   5.761   1.189   3.974
  174SOL     OW 1420   4.001   5.195   3.966
  174SOL    HW1 1421   3.965   5.270   4.022
  174SOL    HW2 1422   3.941   5.180   3.888
  175SOL     OW 1423   3.067   0.583   1.564
  175SOL    HW1 1424   2.977   0.604   1.604
  175SOL    HW2 1425   3.139   0.620   1.623
  176SOL     OW 1426   6.595   4.649   2.140
  176SOL    HW1 1427   6.538   4.650   2.058
  176SOL    HW2 1428   6.551   4.704   2.212
  177SOL     OW 1429   5.244   3.270   4.304
  177SOL    HW1 1430   5.249   3.363   4.339
  177SOL    HW2 1431   5.163   3.261   4.244
  178SOL     OW 1432   3.129   4.142   5.391
  178SOL    HW1 1433   3.069   4.092   5.329
  178SOL    HW2 1434   3.222   4.147   5.353
  179SOL     OW 1435   3.987   1.387   6.346
  179SOL    HW1 1436   3.956   1.482   6.354
  179SOL    HW2 1437   4.013   1.368   6.252
  180SOL     OW 1438   1.935   0.045   0.851
  180SOL    HW1 1439   1.993   6.988   0.870
  180SOL    HW2 1440   1.855   0.043   0.911
  181SOL     OW 1441   3.052   3.304   5.856
  181SOL    HW1 1442   3.010   3.338   5.941
  181SOL    HW2 1443   3.030   3.366   5.781
  182SOL     OW 1444   4.193   1.778   6.109
  182SOL    HW1 1445   4.209   1.684   6.141
  182SOL    HW2 1446   4.223   1.842   6.179
  183SOL     OW 1447   3.391   1.742   3.715
  183SOL    HW1 1448   3.446   1.816   3.756
  183SOL    HW2 1449   3.437   1.655   3.730
  184SOL     OW 1450   0.440   6.031   4.266
  184SOL    HW1 1451   0.454   5.998   4.173
  184SOL    HW2 1452   0.352   5.999   4.300
  185SOL     OW 1453   1.066   1.204   4.718
  185SOL    HW1 1454   1.063   1.120   4.664
  185SOL    HW2 1455   1.132   1.267   4.678
  186SOL     OW 1456   6.239   1.379   4.173
  186SOL    HW1 1457   6.164   1.322   4.206
  186SOL    HW2 1458   6.325   1.350   4.214
  187SOL     OW 1459   5.300   6.516   2.475
  187SOL    HW1 1460   5.318   6.448   2.404
  187SOL    HW2 1461   5.251   6.593   2.435
  188SOL     OW 1462   1.152   3.320   3.630
  188SOL    HW1 1463   1.241   3.291   3.594
  188SOL    HW2 1464   1.108   3.381   3.565
  189SOL     OW 1465   1.683   5.861   0.267
  189SOL    HW1 1466   1.585   5.845   0.258
  189SOL    HW2 1467   1.728   5.839   0.181
  190SOL     OW 1468   6.300   4.260   5.591
  190SOL    HW1 1469   6.200   4.269   5.587
  190SOL    HW2 1470   6.335   4.243   5.499
  191SOL     OW 1471   6.231   0.478   0.212
  191SOL    HW1 1472   6.215   0.507   0.306
  191SOL    HW2 1473   6.161   0.518   0.153
  192SOL     OW 1474   0.822   5.295   1.409
  192SOL    HW1 1475   0.819   5.236   1.489
  192SOL    HW2 1476   0.731   5.333   1.393
  193SOL     OW 1477   4.724   3.718   5.364
  193SOL    HW1 1478   4.813   3.764   5.361
  193SOL    HW2 1479   4.704   3.677   5.275
  194SOL     OW 1480   4.098   6.739   3.460
  194SOL    HW1 1481   4.006   6.748   3.498
  194SOL    HW2 1482   4.097   6.757   3.362
  195SOL     OW 1483   1.468   0.994   4.668
  195SOL    HW1 1484   1.395   1.047   4.624
  195SOL    HW2 1485   1.446   0.897   4.661
  196SOL     OW 1486   2.318   0.082   6.729
  196SOL    HW1 1487   2.373   0.030   6.663
  196SOL    HW2 1488   2.273   0.158   6.682
  197SOL     OW 1489   2.691   6.856   1.355
  197SOL    HW1 1490   2.708   6.954   1.359
  197SOL    HW2 1491   2.649   6.833   1.267
  198SOL     OW 1492   4.734   6.293   1.964
  198SOL    HW1 1493   4.726   6.214   1.904
  198SOL    HW2 1494   4.648   6.343   1.965
  199SOL     OW 1495   6.517   1.376   3.827
  199SOL    HW1 1496   6.597   1.417   3.872
  199SOL    HW2 1497   6.543   1.347   3.735
  200SOL     OW 1498   1.087   4.504   1.964
  200SOL    HW1 1499   1.117   4.518   2.059
  200SOL    HW2 1500   1.000   4.552   1.950
  201SOL     OW 1501   5.612   6.922   6.232
  201SOL    HW1 1502   5.665   6.999   6.198
  201SOL    HW2 1503   5.626   6.913   6.330
  202SOL     OW 1504   5.366   0.483   5.442
  202SOL    HW1 1505   5.320   0.536   5.513
  202SOL    HW2 1506   5.299   0.451   5.375
  203SOL     OW 1507   4.518   2.397   4.666
  203SOL    HW1 1508   4.568   2.483   4.676
  203SOL    HW2 1509   4.470   2.376   4.751
  204SOL     OW 1510   6.467   0.562   6.400
  204SOL    HW1 1511   6.526   0.597   6.473
  204SOL    HW2 1512   6.482   0.615   6.317
  205SOL     OW 1513   0.709   0.766   2.943
  205SOL    HW1 1514   0.677   0.711   2.865
  205SOL    HW2 1515   0.637   0.769   3.013
  206SOL     OW 1516   0.437   5.465   2.033
  206SOL    HW1 1517   0.412   5.544   1.978
  206SOL    HW2 1518   0.463   5.389   1.972
  207SOL     OW 1519   4.555   0.735   4.239
  207SOL    HW1 1520   4.455   0.726   4.240
  207SOL    HW2 1521   4.585   0.756   4.146
  208SOL     OW 1522   5.528   3.675   5.665
  208SOL    HW1 1523   5.519   3.593   5.721
  208SOL    HW2 1524   5.516   3.652   5.568
  209SOL     OW 1525   0.790   4.694   4.601
  209SOL    HW1 1526   0.857   4.639   4.551
  209SOL    HW2 1527   0.763   4.646   4.684
  210SOL     OW 1528   4.281   2.106   1.257
  210SOL    HW1 1529   4.218   2.184   1.250
  210SOL    HW2 1530   4.234   2.023   1.228
  211SOL     OW 1531   1.674   6.257   3.497
  211SOL    HW1 1532   1.694   6.187   3.565
  211SOL    HW2 1533   1.751   6.321   3.491
  212SOL     OW 1534   1.629   4.690   0.886
  212SOL    HW1 1535   1.651   4.629   0.962
  212SOL    HW2 1536   1.584   4.772   0.920
  213SOL     OW 1537   3.474   1.171   5.671
  213SOL    HW1 1538   3.483   1.201   5.766
  213SOL    HW2 1539   3.518   1.082   5.661
  214SOL     OW 1540   4.344   5.507   1.896
  214SOL    HW1 1541   4.378   5.599   1.911
  214SOL    HW2 1542   4.244   5.508   1.894
  215SOL     OW 1543   2.312   3.878   1.381
  215SOL    HW1 1544   2.394   3.926   1.413
  215SOL    HW2 1545   2.330   3.780   1.376
  216SOL     OW 1546   2.307   6.044   4.328
  216SOL    HW1 1547   2.341   6.007   4.415
  216SOL    HW2 1548   2.383   6.054   4.264
  217SOL     OW 1549   2.221   2.787   3.460
  217SOL    HW1 1550   2.206   2.862   3.524
  217SOL    HW2 1551   2.152   2.717   3.474
  218SOL     OW 1552   1.128   2.780   4.677
  218SOL    HW1 1553   1.173   2.691   4.667
  218SOL    HW2 1554   1.115   2.821   4.587
  219SOL     OW 1555   3.676   6.630   5.910
  219SOL    HW1 1556   3.664   6.648   6.008
  219SOL    HW2 1557   3.597   6.664   5.860
  220SOL     OW 1558   3.812   6.529   0.070
  220SOL    HW1 1559   3.714   6.550   0.080
  220SOL    HW2 1560   3.864   6.614   0.065
  221SOL     OW 1561   6.642   3.743   2.651
  221SOL    HW1 1562   6.700   3.759   2.731
  221SOL    HW2 1563   6.697   3.751   2.568
  222SOL     OW 1564   2.838   4.940   5.728
  222SOL    HW1 1565   2.852   4.897   5.818
  222SOL    HW2 1566   2.741   4.935   5.704
  223SOL     OW 1567   5.828   3.382   1.250
  223SOL    HW1 1568   5.854   3.393   1.346
  223SOL    HW2 1569   5.728   3.376   1.243
  224SOL     OW 1570   2.637   2.007   4.177
  224SOL    HW1 1571   2.590   2.010   4.089
  224SOL    HW2 1572   2.658   2.100   4.206
  225SOL     OW 1573   6.172   2.129   5.790
  225SOL    HW1 1574   6.134   2.038   5.777
  225SOL    HW2 1575   6.098   2.193   5.810
  226SOL     OW 1576   1.927   0.571   6.378
  226SOL    HW1 1577   2.010   0.613   6.342
  226SOL    HW2 1578   1.888   0.629   6.449
  227SOL     OW 1579   1.702   3.614   2.938
  227SOL    HW1 1580   1.791   3.652   2.913
  227SOL    HW2 1581   1.657   3.579   2.855
  228SOL     OW 1582   3.343   6.241   3.692
  228SOL    HW1 1583   3.370   6.222   3.787
  228SOL    HW2 1584   3.261   6.299   3.692
  229SOL     OW 1585   4.988   6.024   0.262
  229SOL    HW1 1586   4.925   6.055   0.333
  229SOL    HW2 1587   4.938   5.975   0.191
  230SOL     OW 1588   2.790   4.915   2.438
  230SOL    HW1 1589   2.834   4.890   2.351
  230SOL    HW2 1590   2.710   4.856   2.453
  231SOL     OW 1591   6.358   1.509   6.390
  231SOL    HW1 1592   6.406   1.533   6.474
  231SOL    HW2 1593   6.341   1.410   6.388
  232SOL     OW 1594   1.246   4.066   5.998
  232SOL    HW1 1595   1.264   4.077   6.095
  232SOL    HW2 1596   1.326   4.026   5.953
  233SOL     OW 1597   2.325   1.562   4.186
  233SOL    HW1 1598   2.342   1.515   4.273
  233SOL    HW2 1599   2.264   1.507   4.129
  234SOL     OW 1600   4.393   6.131   5.227
  234SOL    HW1 1601   4.481   6.106   5.187
  234SOL    HW2 1602   4.407   6.189   5.307
  235SOL     OW 1603   3.288   3.010   1.519
  235SOL    HW1 1604   3.362   3.052   1.570
  235SOL    HW2 1605   3.321   2.981   1.429
  236SOL     OW 1606   5.509   2.755   6.413
  236SOL    HW1 1607   5.562   2.780   6.494
  236SOL    HW2 1608   5.485   2.837   6.362
  237SOL     OW 1609   6.388   5.542   1.838
  237SOL    HW1 1610   6.350   5.549   1.930
  237SOL    HW2 1611   6.344   5.465   1.790
  238SOL     OW 1612   5.956   2.091   0.042
  238SOL    HW1 1613   5.896   2.021   0.004
  238SOL    HW2 1614   5.944   2.177   7.015
  239SOL     OW 1615   0.189   5.796   6.162
  239SOL    HW1 1616   0.127   5.806   6.240
  239SOL    HW2 1617   0.179   5.704   6.124
  240SOL     OW 1618   0.656   2.639   5.509
  240SOL    HW1 1619   0.660   2.541   5.487
  240SOL    HW2 1620   0.570   2.660   5.554
  241SOL     OW 1621   1.474   6.893   5.056
  241SOL    HW1 1622   1.418   6.843   4.990
  241SOL    HW2 1623   1.485   6.838   5.139
  242SOL     OW 1624   2.944   3.400   5.622
  242SOL    HW1 1625   3.005   3.335   5.578
  242SOL    HW2 1626   2.849   3.380   5.598
  243SOL     OW 1627   4.933   0.810   5.977
  243SOL    HW1 1628   4.918   0.897   6.026
  243SOL    HW2 1629   4.968   0.742   6.041
  244SOL     OW 1630   5.095   2.895   4.474
  244SOL    HW1 1631   5.137   2.928   4.559
  244SOL    HW2 1632   5.081   2.797   4.480
  245SOL     OW 1633   0.340   3.434   5.337
  245SOL    HW1 1634   0.434   3.464   5.351
  245SOL    HW2 1635   0.323   3.350   5.388
  246SOL     OW 1636   5.031   2.541   2.770
  246SOL    HW1 1637   5.092   2.620   2.778
  246SOL    HW2 1638   5.036   2.487   2.854
  247SOL     OW 1639   2.833   0.828   1.601
  247SOL    HW1 1640   2.786   0.910   1.631
  247SOL    HW2 1641   2.931   0.845   1.595
  248SOL     OW 1642   3.815   1.716   3.349
  248SOL    HW1 1643   3.776   1.768   3.425
  248SOL    HW2 1644   3.912   1.738   3.339
  249SOL     OW 1645   4.486   0.193   6.164
  249SOL    HW1 1646   4.493   0.100   6.129
  249SOL    HW2 1647   4.405   0.237   6.127
  250SOL     OW 1648   5.690   2.780   0.865
  250SOL    HW1 1649   5.754   2.844   0.823
  250SOL    HW2 1650   5.714   2.687   0.839
  251SOL     OW 1651   4.586   4.138   6.516
  251SOL    HW1 1652   4.548   4.059   6.468
  251SOL    HW2 1653   4.512   4.196   6.551
  252SOL     OW 1654   5.800   0.405   6.761
  252SOL    HW1 1655   5.889   0.450   6.776
  252SOL    HW2 1656   5.776   0.412   6.664
  253SOL     OW 1657   2.001   4.313   6.932
  253SOL    HW1 1658   1.915   4.269   6.958
  253SOL    HW2 1659   1.983   4.408   6.905
  254SOL     OW 1660   5.131   3.457   3.358
  254SOL    HW1 1661   5.143   3.392   3.433
  254SOL    HW2 1662   5.158   3.414   3.272
  255SOL     OW 1663   1.657   3.170   4.333
  255SOL    HW1 1664   1.756   3.154   4.341
  255SOL    HW2 1665   1.624   3.131   4.247
  256SOL     OW 1666   6.211   4.839   6.464
  256SOL    HW1 1667   6.132   4.813   6.521
  256SOL    HW2 1668   6.234   4.763   6.403
  257SOL     OW 1669   4.469   6.853   4.283
  257SOL    HW1 1670   4.392   6.903   4.323
  257SOL    HW2 1671   4.511   6.908   4.212
  258SOL     OW 1672   6.137   5.079   4.799
  258SOL    HW1 1673   6.164   5.013   4.728
  258SOL    HW2 1674   6.202   5.156   4.798
  259SOL     OW 1675   1.463   2.528   2.171
  259SOL    HW1 1676   1.367   2.550   2.157
  259SOL    HW2 1677   1.511   2.609   2.205
  260SOL     OW 1678   4.175   0.727   1.007
  260SOL    HW1 1679   4.085   0.722   1.051
  260SOL    HW2 1680   4.188   0.818   0.967
  261SOL     OW 1681   0.136   3.893   1.295
  261SOL    HW1 1682   0.166   3.935   1.210
  261SOL    HW2 1683   0.044   3.855   1.284
  262SOL     OW 1684   0.398   4.017   1.125
  262SOL    HW1 1685   0.464   3.957   1.081
  262SOL    HW2 1686   0.312   4.015   1.075
  263SOL     OW 1687   1.131   1.624   3.840
  263SOL    HW1 1688   1.199   1.628   3.913
  263SOL    HW2 1689   1.093   1.716   3.825
  264SOL     OW 1690   4.804   4.085   5.831
  264SOL    HW1 1691   4.841   4.080   5.738
  264SOL    HW2 1692   4.879   4.094   5.896
  265SOL     OW 1693   4.620   4.546   3.572
  265SOL    HW1 1694   4.618   4.534   3.671
  265SOL    HW2 1695   4.547   4.610   3.545
  266SOL     OW 1696   3.736   3.711   5.494
  266SOL    HW1 1697   3.739   3.704   5.594
  266SOL    HW2 1698   3.687   3.632   5.456
  267SOL     OW 1699   5.907   2.306   5.989
  267SOL    HW1 1700   5.897   2.259   5.902
  267SOL    HW2 1701   5.994   2.279   6.032
  268SOL     OW 1702   4.348   6.809   5.274
  268SOL    HW1 1703   4.385   6.885   5.327
  268SOL    HW2 1704   4.412   6.786   5.201
  269SOL     OW 1705   1.868   3.130   0.851
  269SOL    HW1 1706   1.887   3.216   0.804
  269SOL    HW2 1707   1.879   3.142   0.950
  270SOL     OW 1708   6.620   0.116   1.613
  270SOL    HW1 1709   6.568   0.083   1.692
  270SOL    HW2 1710   6.599   0.059   1.534
  271SOL     OW 1711   2.461   1.970   0.426
  271SOL    HW1 1712   2.486   1.874   0.411
  271SOL    HW2 1713   2.483   1.996   0.520
  272SOL     OW 1714   3.521   5.333   3.828
  272SOL    HW1 1715   3.535   5.236   3.846
  272SOL    HW2 1716   3.587   5.387   3.880
  273SOL     OW 1717   1.908   4.938   5.013
  273SOL    HW1 1718   1.820   4.905   5.049
  273SOL    HW2 1719   1.972   4.861   5.007
  274SOL     OW 1720   4.683   2.436   4.032
  274SOL    HW1 1721   4.596   2.417   4.078
  274SOL    HW2 1722   4.737   2.498   4.088
  275SOL     OW 1723   6.084   5.832   5.954
  275SOL    HW1 1724   6.078   5.734   5.937
  275SOL    HW2 1725   6.108   5.880   5.869
  276SOL     OW 1726   0.677   5.308   3.374
  276SOL    HW1 1727   0.662   5.394   3.422
  276SOL    HW2 1728   0.620   5.237   3.414
  277SOL     OW 1729   2.507   3.281   0.931
  277SOL    HW1 1730   2.551   3.351   0.874
  277SOL    HW2 1731   2.522   3.303   1.028
  278SOL     OW 1732   0.205   4.926   1.575
  278SOL    HW1 1733   0.254   4.881   1.651
  278SOL    HW2 1734   0.208   5.025   1.588
  279SOL     OW 1735   0.427   3.004   4.293
  279SOL    HW1 1736   0.433   3.035   4.198
  279SOL    HW2 1737   0.519   2.993   4.331
  280SOL     OW 1738   2.892   6.876   2.962
  280SOL    HW1 1739   2.810   6.839   2.921
  280SOL    HW2 1740   2.928   6.812   3.030
  281SOL     OW 1741   3.533   4.934   2.221
  281SOL    HW1 1742   3.458   4.964   2.163
  281SOL    HW2 1743   3.606   4.895   2.164
  282SOL     OW 1744   4.015   2.110   5.437
  282SOL    HW1 1745   3.921   2.089   5.466
  282SOL    HW2 1746   4.013   2.162   5.352
  283SOL     OW 1747   6.879   0.944   5.960
  283SOL    HW1 1748   6.804   0.952   6.025
  283SOL    HW2 1749   6.966   0.961   6.008
  284SOL     OW 1750   6.972   4.478   4.867
  284SOL    HW1 1751   6.947   4.449   4.774
  284SOL    HW2 1752   6.903   4.543   4.901
  285SOL     OW 1753   5.396   5.290   6.442
  285SOL    HW1 1754   5.471   5.342   6.481
  285SOL    HW2 1755   5.410   5.192   6.458
  286SOL     OW 1756   3.173   4.923   4.754
  286SOL    HW1 1757   3.224   5.000   4.791
  286SOL    HW2 1758   3.103   4.895   4.821
  287SOL     OW 1759   0.538   4.869   6.143
  287SOL    HW1 1760   0.535   4.942   6.074
  287SOL    HW2 1761   0.619   4.881   6.200
  288SOL     OW 1762   4.050   2.384   0.292
  288SOL    HW1 1763   4.014   2.477   0.283
  288SOL    HW2 1764   4.138   2.386   0.338
  289SOL     OW 1765   0.242   5.439   4.924
  289SOL    HW1 1766   0.260   5.373   4.997
  289SOL    HW2 1767   0.145   5.437   4.900
  290SOL     OW 1768   5.006   1.699   3.912
  290SOL    HW1 1769   4.934   1.738   3.970
  290SOL    HW2 1770   5.038   1.769   3.848
  291SOL     OW 1771   3.237   0.682   4.636
  291SOL    HW1 1772   3.267   0.609   4.576
  291SOL    HW2 1773   3.310   0.703   4.701
  292SOL     OW 1774   3.731   2.117   2.921
  292SOL    HW1 1775   3.733   2.170   3.005
  292SOL    HW2 1776   3.824   2.090   2.896
  293SOL     OW 1777   4.366   5.440   2.153
  293SOL    HW1 1778   4.285   5.483   2.191
  293SOL    HW2 1779   4.353   5.424   2.055
  294SOL     OW 1780   6.797   5.431   6.380
  294SOL    HW1 1781   6.698   5.442   6.384
  294SOL    HW2 1782   6.819   5.337   6.350
  295SOL     OW 1783   3.268   1.265   4.952
  295SOL    HW1 1784   3.192   1.201   4.961
  295SOL    HW2 1785   3.295   1.298   5.042
  296SOL     OW 1786   6.075   1.877   1.986
  296SOL    HW1 1787   5.989   1.872   2.037
  296SOL    HW2 1788   6.084   1.968   1.945
  297SOL     OW 1789   3.049   4.834   2.625
  297SOL    HW1 1790   2.971   4.820   2.563
  297SOL    HW2 1791   3.015   4.868   2.713
  298SOL     OW 1792   3.411   6.622   0.647
  298SOL    HW1 1793   3.352   6.691   0.605
  298SOL    HW2 1794   3.360   6.572   0.717
  299SOL     OW 1795   4.658   2.719   0.053
  299SOL    HW1 1796   4.625   2.626   0.073
  299SOL    HW2 1797   4.674   2.727   6.977
  300SOL     OW 1798   5.037   1.063   1.544
  300SOL    HW1 1799   5.102   0.987   1.541
  300SOL    HW2 1800   4.946   1.028   1.569
  301SOL     OW 1801   5.253   2.711   0.807
  301SOL    HW1 1802   5.302   2.787   0.849
  301SOL    HW2 1803   5.228   2.644   0.877
  302SOL     OW 1804   0.173   0.722   3.415
  302SOL    HW1 1805   0.244   0.792   3.413
  302SOL    HW2 1806   0.113   0.737   3.494
  303SOL     OW 1807   6.978   6.506   2.124
  303SOL    HW1 1808   0.021   6.470   2.057
  303SOL    HW2 1809   7.018   6.502   2.215
  304SOL     OW 1810   2.326   6.461   5.754
  304SOL    HW1 1811   2.302   6.458   5.851
  304SOL    HW2 1812   2.268   6.399   5.703
  305SOL     OW 1813   1.430   2.875   0.643
  305SOL    HW1 1814   1.428   2.884   0.743
  305SOL    HW2 1815   1.338   2.889   0.607
  306SOL     OW 1816   1.724   0.810   3.289
  306SOL    HW1 1817   1.690   0.856   3.208
  306SOL    HW2 1818   1.741   0.877   3.362
  307SOL     OW 1819   5.041   5.276   0.829
  307SOL    HW1 1820   5.000   5.227   0.906
  307SOL    HW2 1821   4.997   5.247   0.744
  308SOL     OW 1822   5.561   3.149   4.505
  308SOL    HW1 1823   5.630   3.218   4.482
  308SOL    HW2 1824   5.515   3.175   4.590
  309SOL     OW 1825   2.211   5.702   0.611
  309SOL    HW1 1826   2.263   5.617   0.600
  309SOL    HW2 1827   2.274   5.780   0.611
  310SOL     OW 1828   5.246   6.667   5.617
  310SOL    HW1 1829   5.269   6.710   5.704
  310SOL    HW2 1830   5.180   6.593   5.632
  311SOL     OW 1831   3.799   5.519   2.697
  311SOL    HW1 1832   3.831   5.432   2.734
  311SOL    HW2 1833   3.708   5.540   2.733
  312SOL     OW 1834   4.440   1.072   4.152
  312SOL    HW1 1835   4.428   1.029   4.241
  312SOL    HW2 1836   4.529   1.117   4.149
  313SOL     OW 1837   3.021   3.328   2.130
  313SOL    HW1 1838   3.039   3.233   2.103
  313SOL    HW2 1839   2.985   3.329   2.223
  314SOL     OW 1840   2.770   4.626   6.800
  314SOL    HW1 1841   2.688   4.579   6.768
  314SOL    HW2 1842   2.770   4.720   6.765
  315SOL     OW 1843   1.423   3.292   4.386
  315SOL    HW1 1844   1.510   3.243   4.387
  315SOL    HW2 1845   1.434   3.380   4.431
  316SOL     OW 1846   2.819   1.321   4.491
  316SOL    HW1 1847   2.730   1.288   4.457
  316SOL    HW2 1848   2.804   1.391   4.561
  317SOL     OW 1849   6.867   1.409   1.348
  317SOL    HW1 1850   6.882   1.437   1.254
  317SOL    HW2 1851   6.802   1.333   1.350
  318SOL     OW 1852   0.523   5.457   6.441
  318SOL    HW1 1853   0.550   5.463   6.537
  318SOL    HW2 1854   0.427   5.484   6.432
  319SOL     OW 1855   6.347   1.575   3.674
  319SOL    HW1 1856   6.373   1.658   3.624
  319SOL    HW2 1857   6.426   1.542   3.725
  320SOL     OW 1858   6.145   2.489   1.054
  320SOL    HW1 1859   6.197   2.561   1.008
  320SOL    HW2 1860   6.185   2.400   1.031
  321SOL     OW 1861   3.232   1.312   0.009
  321SOL    HW1 1862   3.216   1.259   6.948
  321SOL    HW2 1863   3.160   1.381   0.018
  322SOL     OW 1864   3.027   3.166   3.626
  322SOL    HW1 1865   2.940   3.177   3.577
  322SOL    HW2 1866   3.010   3.175   3.724
  323SOL     OW 1867   1.374   3.071   6.101
  323SOL    HW1 1868   1.370   3.170   6.085
  323SOL    HW2 1869   1.388   3.024   6.014
  324SOL     OW 1870   2.812   0.744   3.940
  324SOL    HW1 1871   2.743   0.701   3.998
  324SOL    HW2 1872   2.819   0.694   3.854
  325SOL     OW 1873   0.575   2.919   1.830
  325SOL    HW1 1874   0.538   2.891   1.741
  325SOL    HW2 1875   0.503   2.914   1.899
  326SOL     OW 1876   1.318   5.292   6.937
  326SOL    HW1 1877   1.331   5.205   6.984
  326SOL    HW2 1878   1.364   5.289   6.848
  327SOL     OW 1879   1.340   4.505   2.699
  327SOL    HW1 1880   1.246   4.470   2.704
  327SOL    HW2 1881   1.357   4.566   2.776
  328SOL     OW 1882   1.580   5.623   1.982
  328SOL    HW1 1883   1.662   5.578   2.017
  328SOL    HW2 1884   1.606   5.712   1.943
  329SOL     OW 1885   3.240   2.956   3.929
  329SOL    HW1 1886   3.293   2.877   3.959
  329SOL    HW2 1887   3.281   2.994   3.846
  330SOL     OW 1888   3.610   6.110   1.510
  330SOL    HW1 1889   3.584   6.120   1.606
  330SOL    HW2 1890   3.593   6.196   1.462
  331SOL     OW 1891   3.895   5.788   0.192
  331SOL    HW1 1892   3.858   5.713   0.246
  331SOL    HW2 1893   3.825   5.822   0.129
  332SOL     OW 1894   4.997   2.165   5.293
  332SOL    HW1 1895   5.044   2.100   5.233
  332SOL    HW2 1896   5.050   2.250   5.297
  333SOL     OW 1897   3.478   0.474   6.307
  333SOL    HW1 1898   3.531   0.439   6.385
  333SOL    HW2 1899   3.510   0.430   6.223
  334SOL     OW 1900   3.265   1.243   1.133
  334SOL    HW1 1901   3.307   1.334   1.135
  334SOL    HW2 1902   3.206   1.235   1.054
  335SOL     OW 1903   4.256   6.702   5.629
  335SOL    HW1 1904   4.291   6.613   5.657
  335SOL    HW2 1905   4.157   6.706   5.646
  336SOL     OW 1906   2.788   0.894   3.600
  336SOL    HW1 1907   2.837   0.938   3.675
  336SOL    HW2 1908   2.751   0.806   3.631
  337SOL     OW 1909   0.958   2.629   6.655
  337SOL    HW1 1910   0.986   2.662   6.565
  337SOL    HW2 1911   0.902   2.698   6.701
  338SOL     OW 1912   3.152   2.478   1.469
  338SOL    HW1 1913   3.186   2.555   1.414
  338SOL    HW2 1914   3.070   2.440   1.426
  339SOL     OW 1915   4.112   5.781   4.140
  339SOL    HW1 1916   4.209   5.791   4.118
  339SOL    HW2 1917   4.076   5.701   4.093
  340SOL     OW 1918   4.831   4.227   4.710
  340SOL    HW1 1919   4.777   4.169   4.649
  340SOL    HW2 1920   4.843   4.181   4.798
  341SOL     OW 1921   6.534   0.141   4.483
  341SOL    HW1 1922   6.618   0.086   4.484
  341SOL    HW2 1923   6.558   0.238   4.492
  342SOL     OW 1924   6.741   3.248   0.201
  342SOL    HW1 1925   6.776   3.166   0.156
  342SOL    HW2 1926   6.816   3.314   0.213
  343SOL     OW 1927   1.943   5.942   1.224
  343SOL    HW1 1928   1.942   5.908   1.318
  343SOL    HW2 1929   2.038   5.943   1.190
  344SOL     OW 1930   1.223   3.233   1.973
  344SOL    HW1 1931   1.289   3.249   2.047
  344SOL    HW2 1932   1.205   3.319   1.925
  345SOL     OW 1933   4.171   2.211   2.735
  345SOL    HW1 1934   4.134   2.255   2.653
  345SOL    HW2 1935   4.217   2.126   2.710
  346SOL     OW 1936   2.138   1.120   2.951
  346SOL    HW1 1937   2.113   1.160   3.039
  346SOL    HW2 1938   2.095   1.031   2.941
  347SOL     OW 1939   2.504   5.920   6.555
  347SOL    HW1 1940   2.583   5.931   6.615
  347SOL    HW2 1941   2.508   5.987   6.481
  348SOL     OW 1942   5.331   4.412   2.102
  348SOL    HW1 1943   5.303   4.317   2.117
  348SOL    HW2 1944   5.327   4.462   2.188
  349SOL     OW 1945   6.543   5.617   0.931
  349SOL    HW1 1946   6.515   5.549   0.864
  349SOL    HW2 1947   6.485   5.698   0.923
  350SOL     OW 1948   3.204   3.123   0.781
  350SOL    HW1 1949   3.144   3.202   0.764
  350SOL    HW2 1950   3.154   3.055   0.835
  351SOL     OW 1951   1.945   3.436   1.306
  351SOL    HW1 1952   1.914   3.400   1.394
  351SOL    HW2 1953   1.866   3.470   1.254
  352SOL     OW 1954   3.068   0.245   4.651
  352SOL    HW1 1955   3.076   0.326   4.710
  352SOL    HW2 1956   3.137   0.249   4.580
  353SOL     OW 1957   2.085   0.238   0.735
  353SOL    HW1 1958   2.128   0.263   0.822
  353SOL    HW2 1959   2.010   0.174   0.753
  354SOL     OW 1960   4.016   2.586   0.985
  354SOL    HW1 1961   3.949   2.542   0.925
  354SOL    HW2 1962   3.971   2.621   1.067
  355SOL     OW 1963   1.672   3.527   2.304
  355SOL    HW1 1964   1.609   3.473   2.359
  355SOL    HW2 1965   1.637   3.620   2.294
  356SOL     OW 1966   2.900   6.867   6.144
  356SOL    HW1 1967   2.873   6.893   6.052
  356SOL    HW2 1968   2.827   6.813   6.186
  357SOL     OW 1969   6.709   5.707   5.976
  357SOL    HW1 1970   6.677   5.683   6.067
  357SOL    HW2 1971   6.648   5.775   5.935
  358SOL     OW 1972   4.222   6.580   0.420
  358SOL    HW1 1973   4.199   6.491   0.459
  358SOL    HW2 1974   4.317   6.579   0.388
  359SOL     OW 1975   2.344   2.160   1.819
  359SOL    HW1 1976   2.279   2.227   1.854
  359SOL    HW2 1977   2.429   2.164   1.872
  360SOL     OW 1978   1.098   5.207   6.135
  360SOL    HW1 1979   1.031   5.158   6.190
  360SOL    HW2 1980   1.075   5.198   6.038
  361SOL     OW 1981   6.030   6.397   2.923
  361SOL    HW1 1982   6.103   6.444   2.972
  361SOL    HW2 1983   5.941   6.426   2.959
  362SOL     OW 1984   3.444   3.202   1.086
  362SOL    HW1 1985   3.349   3.231   1.084
  362SOL    HW2 1986   3.481   3.215   1.179
  363SOL     OW 1987   5.347   3.938   3.248
  363SOL    HW1 1988   5.273   3.971   3.189
  363SOL    HW2 1989   5.343   3.838   3.253
  364SOL     OW 1990   6.628   5.241   6.727
  364SOL    HW1 1991   6.607   5.338   6.741
  364SOL    HW2 1992   6.631   5.194   6.815
  365SOL     OW 1993   6.208   5.840   1.810
  365SOL    HW1 1994   6.247   5.917   1.861
  365SOL    HW2 1995   6.247   5.837   1.718
  366SOL     OW 1996   5.723   0.725   5.942
  366SOL    HW1 1997   5.720   0.687   6.034
  366SOL    HW2 1998   5.630   0.743   5.910
  367SOL     OW 1999   5.554   3.316   1.259
  367SOL    HW1 2000   5.511   3.226   1.266
  367SOL    HW2 2001   5.485   3.383   1.232
  368SOL     OW 2002   0.292   2.961   4.655
  368SOL    HW1 2003   0.206   2.919   4.684
  368SOL    HW2 2004   0.274   3.050   4.613
  369SOL     OW 2005   6.392   5.316   2.281
  369SOL    HW1 2006   6.331   5.241   2.307
  369SOL    HW2 2007   6.354   5.403   2.312
  370SOL     OW 2008   2.597   1.215   5.482
  370SOL    HW1 2009   2.627   1.308   5.502
  370SOL    HW2 2010   2.666   1.150   5.514
  371SOL     OW 2011   2.323   3.783   6.152
  371SOL    HW1 2012   2.340   3.691   6.188
  371SOL    HW2 2013   2.408   3.821   6.115
  372SOL     OW 2014   0.882   0.035   6.009
  372SOL    HW1 2015   0.922   6.967   5.998
  372SOL    HW2 2016   0.879   0.059   6.107
  373SOL     OW 2017   6.428   6.502   4.643
  373SOL    HW1 2018   6.334   6.518   4.675
  373SOL    HW2 2019   6.461   6.584   4.597
  374SOL     OW 2020   2.903   1.861   3.828
  374SOL    HW1 2021   2.991   1.855   3.874
  374SOL    HW2 2022   2.837   1.803   3.876
  375SOL     OW 2023   0.890   4.231   4.287
  375SOL    HW1 2024   0.982   4.262   4.262
  375SOL    HW2 2025   0.885   4.132   4.279
  376SOL     OW 2026   2.673   0.845   5.288
  376SOL    HW1 2027   2.696   0.940   5.308
  376SOL    HW2 2028   2.646   0.836   5.192
  377SOL     OW 2029   1.329   2.045   1.399
  377SOL    HW1 2030   1.348   1.994   1.483
  377SOL    HW2 2031   1.376   2.001   1.323
  378SOL     OW 2032   4.273   2.629   6.595
  378SOL    HW1 2033   4.273   2.643   6.496
  378SOL    HW2 2034   4.330   2.698   6.638
  379SOL     OW 2035   6.236   3.139   1.019
  379SOL    HW1 2036   6.186   3.225   1.004
  379SOL    HW2 2037   6.204   3.097   1.104
  380SOL     OW 2038   1.996   1.428   0.734
  380SOL    HW1 2039   1.943   1.343   0.735
  380SOL    HW2 2040   1.935   1.505   0.718
  381SOL     OW 2041   1.422   3.723   2.889
  381SOL    HW1 2042   1.394   3.644   2.943
  381SOL    HW2 2043   1.513   3.752   2.916
  382SOL     OW 2044   6.041   0.383   6.526
  382SOL    HW1 2045   6.102   0.308   6.553
  382SOL    HW2 2046   6.059   0.407   6.431
  383SOL     OW 2047   4.049   3.873   6.015
  383SOL    HW1 2048   4.018   3.968   6.018
  383SOL    HW2 2049   4.037   3.830   6.105
  384SOL     OW 2050   6.930   5.663   4.086
  384SOL    HW1 2051   6.853   5.692   4.142
  384SOL    HW2 2052   6.908   5.674   3.989
  385SOL     OW 2053   3.677   5.228   5.465
  385SOL    HW1 2054   3.611   5.276   5.407
  385SOL    HW2 2055   3.736   5.170   5.408
  386SOL     OW 2056   1.966   6.802   5.397
  386SOL    HW1 2057   1.985   6.721   5.452
  386SOL    HW2 2058   1.896   6.781   5.329
  387SOL     OW 2059   1.087   6.743   3.218
  387SOL    HW1 2060   1.005   6.741   3.161
  387SOL    HW2 2061   1.137   6.828   3.203
  388SOL     OW 2062   1.221   1.716   4.771
  388SOL    HW1 2063   1.250   1.765   4.853
  388SOL    HW2 2064   1.142   1.658   4.793
  389SOL     OW 2065   3.790   4.314   1.119
  389SOL    HW1 2066   3.822   4.305   1.214
  389SOL    HW2 2067   3.756   4.226   1.087
  390SOL     OW 2068   3.459   1.303   0.176
  390SOL    HW1 2069   3.472   1.224   0.236
  390SOL    HW2 2070   3.385   1.284   0.111
  391SOL     OW 2071   2.278   3.277   6.239
  391SOL    HW1 2072   2.302   3.254   6.145
  391SOL    HW2 2073   2.291   3.375   6.254
  392SOL     OW 2074   1.202   4.504   0.681
  392SOL    HW1 2075   1.192   4.422   0.625
  392SOL    HW2 2076   1.125   4.566   0.664
  393SOL     OW 2077   1.447   4.535   6.320
  393SOL    HW1 2078   1.528   4.501   6.369
  393SOL    HW2 2079   1.426   4.473   6.244
  394SOL     OW 2080   6.981   2.378   0.625
  394SOL    HW1 2081   0.058   2.372   0.635
  394SOL    HW2 2082   6.949   2.304   0.566
  395SOL     OW 2083   5.353   4.255   3.019
  395SOL    HW1 2084   5.257   4.279   3.033
  395SOL    HW2 2085   5.401   4.258   3.106
  396SOL     OW 2086   2.807   3.672   1.868
  396SOL    HW1 2087   2.878   3.637   1.929
  396SOL    HW2 2088   2.845   3.746   1.812
  397SOL     OW 2089   6.028   1.842   6.182
  397SOL    HW1 2090   5.976   1.926   6.190
  397SOL    HW2 2091   6.038   1.801   6.273
  398SOL     OW 2092   1.494   0.147   3.028
  398SOL    HW1 2093   1.453   0.166   2.938
  398SOL    HW2 2094   1.432   0.180   3.099
  399SOL     OW 2095   5.195   6.313   3.008
  399SOL    HW1 2096   5.235   6.345   2.922
  399SOL    HW2 2097   5.266   6.271   3.064
  400SOL     OW 2098   6.249   6.364   5.285
  400SOL    HW1 2099   6.298   6.287   5.245
  400SOL    HW2 2100   6.299   6.398   5.365
  401SOL     OW 2101   5.675   0.231   6.560
  401SOL    HW1 2102   5.584   0.213   6.523
  401SOL    HW2 2103   5.672   0.232   6.660
  402SOL     OW 2104   6.378   0.111   3.700
  402SOL    HW1 2105   6.337   0.196   3.732
  402SOL    HW2 2106   6.437   0.073   3.772
  403SOL     OW 2107   4.079   1.481   4.853
  403SOL    HW1 2108   4.168   1.509   4.891
  403SOL    HW2 2109   4.043   1.555   4.796
  404SOL     OW 2110   1.451   5.042   3.630
  404SOL    HW1 2111   1.533   5.071   3.581
  404SOL    HW2 2112   1.463   5.059   3.728
  405SOL     OW 2113   2.224   3.033   2.612
  405SOL    HW1 2114   2.220   3.133   2.606
  405SOL    HW2 2115   2.234   2.994   2.520
  406SOL     OW 2116   0.938   4.483   4.491
  406SOL    HW1 2117   0.876   4.441   4.558
  406SOL    HW2 2118   1.027   4.438   4.496
  407SOL     OW 2119   0.302   1.061   4.692
  407SOL    HW1 2120   0.282   1.123   4.767
  407SOL    HW2 2121   0.316   1.114   4.608
  408SOL     OW 2122   2.323   2.178   3.053
  408SOL    HW1 2123   2.366   2.106   2.999
  408SOL    HW2 2124   2.269   2.237   2.993
  409SOL     OW 2125   6.444   3.232   2.487
  409SOL    HW1 2126   6.503   3.158   2.518
  409SOL    HW2 2127   6.386   3.200   2.412
  410SOL     OW 2128   1.198   1.726   1.154
  410SOL    HW1 2129   1.235   1.643   1.195
  410SOL    HW2 2130   1.117   1.704   1.099
  411SOL     OW 2131   6.695   0.854   1.319
  411SOL    HW1 2132   6.711   0.858   1.417
  411SOL    HW2 2133   6.598   0.866   1.300
  412SOL     OW 2134   3.019   5.913   3.158
  412SOL    HW1 2135   3.056   5.876   3.073
  412SOL    HW2 2136   3.087   5.903   3.231
  413SOL     OW 2137   5.535   3.937   1.952
  413SOL    HW1 2138   5.551   4.022   1.901
  413SOL    HW2 2139   5.621   3.891   1.969
  414SOL     OW 2140   3.381   5.225   3.411
  414SOL    HW1 2141   3.366   5.187   3.320
  414SOL    HW2 2142   3.358   5.322   3.411
  415SOL     OW 2143   0.618   6.360   6.053
  415SOL    HW1 2144   0.608   6.345   6.152
  415SOL    HW2 2145   0.539   6.322   6.005
  416SOL     OW 2146   4.398   6.229   4.718
  416SOL    HW1 2147   4.353   6.187   4.797
  416SOL    HW2 2148   4.486   6.183   4.701
  417SOL     OW 2149   2.092   6.342   5.687
  417SOL    HW1 2150   2.100   6.278   5.611
  417SOL    HW2 2151   2.007   6.323   5.737
  418SOL     OW 2152   3.882   6.768   6.532
  418SOL    HW1 2153   3.867   6.704   6.608
  418SOL    HW2 2154   3.859   6.861   6.563
  419SOL     OW 2155   1.264   6.221   2.211
  419SOL    HW1 2156   1.335   6.160   2.247
  419SOL    HW2 2157   1.295   6.315   2.217
  420SOL     OW 2158   6.048   1.552   0.442
  420SOL    HW1 2159   6.065   1.456   0.420
  420SOL    HW2 2160   5.982   1.590   0.376
  421SOL     OW 2161   6.627   3.874   5.257
  421SOL    HW1 2162   6.720   3.838   5.259
  421SOL    HW2 2163   6.627   3.971   5.282
  422SOL     OW 2164   5.298   4.003   1.458
  422SOL    HW1 2165   5.335   4.049   1.377
  422SOL    HW2 2166   5.199   4.014   1.460
  423SOL     OW 2167   0.980   2.844   6.203
  423SOL    HW1 2168   0.980   2.801   6.112
  423SOL    HW2 2169   1.074   2.855   6.234
  424SOL     OW 2170   1.499   4.942   0.963
  424SOL    HW1 2171   1.501   4.902   1.055
  424SOL    HW2 2172   1.570   5.013   0.956
  425SOL     OW 2173   4.960   1.978   3.348
  425SOL    HW1 2174   5.005   2.005   3.263
  425SOL    HW2 2175   4.963   1.878   3.356
  426SOL     OW 2176   2.675   1.824   4.589
  426SOL    HW1 2177   2.671   1.836   4.688
  426SOL    HW2 2178   2.621   1.745   4.562
  427SOL     OW 2179   5.585   6.720   3.801
  427SOL    HW1 2180   5.636   6.805   3.796
  427SOL    HW2 2181   5.623   6.654   3.736
  428SOL     OW 2182   4.343   6.930   3.287
  428SOL    HW1 2183   4.420   6.992   3.279
  428SOL    HW2 2184   4.338   6.893   3.380
  429SOL     OW 2185   0.791   5.079   3.048
  429SOL    HW1 2186   0.707   5.118   3.012
  429SOL    HW2 2187   0.851   5.152   3.079
  430SOL     OW 2188   1.630   6.374   3.974
  430SOL    HW1 2189   1.658   6.380   4.069
  430SOL    HW2 2190   1.655   6.458   3.926
  431SOL     OW 2191   3.008   0.493   1.277
  431SOL    HW1 2192   3.026   0.569   1.340
  431SOL    HW2 2193   2.931   0.515   1.218
  432SOL     OW 2194   6.577   2.565   1.225
  432SOL    HW1 2195   6.653   2.606   1.275
  432SOL    HW2 2196   6.611   2.488   1.171
  433SOL     OW 2197   2.156   6.645   5.170
  433SOL    HW1 2198   2.061   6.625   5.147
  433SOL    HW2 2199   2.174   6.742   5.157
  434SOL     OW 2200   3.721   5.484   3.186
  434SOL    HW1 2201   3.694   5.536   3.105
  434SOL    HW2 2202   3.672   5.519   3.266
  435SOL     OW 2203   4.523   1.937   6.701
  435SOL    HW1 2204   4.446   1.952   6.763
  435SOL    HW2 2205   4.581   2.018   6.700
  436SOL     OW 2206   3.032   4.736   1.573
  436SOL    HW1 2207   3.095   4.739   1.496
  436SOL    HW2 2208   3.057   4.806   1.639
  437SOL     OW 2209   0.331   1.427   6.095
  437SOL    HW1 2210   0.380   1.482   6.163
  437SOL    HW2 2211   0.233   1.439   6.106
  438SOL     OW 2212   2.187   3.896   4.247
  438SOL    HW1 2213   2.154   3.911   4.154
  438SOL    HW2 2214   2.170   3.802   4.274
  439SOL     OW 2215   6.275   6.043   2.684
  439SOL    HW1 2216   6.341   6.118   2.683
  439SOL    HW2 2217   6.299   5.976   2.614
  440SOL     OW 2218   2.595   1.977   5.347
  440SOL    HW1 2219   2.512   1.944   5.303
  440SOL    HW2 2220   2.606   2.075   5.329
  441SOL     OW 2221   0.597   3.076   3.575
  441SOL    HW1 2222   0.606   2.977   3.582
  441SOL    HW2 2223   0.520   3.107   3.631
  442SOL     OW 2224   4.102   5.893   5.070
  442SOL    HW1 2225   4.092   5.988   5.100
  442SOL    HW2 2226   4.022   5.866   5.017
  443SOL     OW 2227   5.993   4.446   4.242
  443SOL    HW1 2228   6.081   4.399   4.230
  443SOL    HW2 2229   5.960   4.432   4.335
  444SOL     OW 2230   5.200   0.846   6.310
  444SOL    HW1 2231   5.219   0.890   6.397
  444SOL    HW2 2232   5.154   0.759   6.326
  445SOL     OW 2233   1.750   5.531   2.869
  445SOL    HW1 2234   1.819   5.491   2.929
  445SOL    HW2 2235   1.718   5.462   2.804
  446SOL     OW 2236   4.035   4.832   2.862
  446SOL    HW1 2237   3.954   4.834   2.803
  446SOL    HW2 2238   4.097   4.760   2.833
  447SOL     OW 2239   7.017   3.199   5.655
  447SOL    HW1 2240   6.966   3.213   5.740
  447SOL    HW2 2241   0.081   3.153   5.674
  448SOL     OW 2242   2.277   0.748   2.795
  448SOL    HW1 2243   2.359   0.790   2.833
  448SOL    HW2 2244   2.202   0.815   2.795
  449SOL     OW 2245   2.632   1.418   3.996
  449SOL    HW1 2246   2.616   1.377   3.907
  449SOL    HW2 2247   2.702   1.490   3.988
  450SOL     OW 2248   1.652   4.800   3.471
  450SOL    HW1 2249   1.603   4.884   3.451
  450SOL    HW2 2250   1.586   4.725   3.485
  451SOL     OW 2251   1.371   2.460   4.980
  451SOL    HW1 2252   1.303   2.405   4.931
  451SOL    HW2 2253   1.325   2.517   5.047
  452SOL     OW 2254   4.897   6.584   0.690
  452SOL    HW1 2255   4.894   6.605   0.592
  452SOL    HW2 2256   4.983   6.616   0.729
  453SOL     OW 2257   3.549   0.503   6.766
  453SOL    HW1 2258   3.555   0.592   6.810
  453SOL    HW2 2259   3.454   0.474   6.762
  454SOL     OW 2260   6.727   3.901   6.421
  454SOL    HW1 2261   6.717   3.997   6.449
  454SOL    HW2 2262   6.809   3.862   6.465
  455SOL     OW 2263   5.228   2.570   4.753
  455SOL    HW1 2264   5.140   2.564   4.707
  455SOL    HW2 2265   5.295   2.514   4.705
  456SOL     OW 2266   0.520   7.013   3.874
  456SOL    HW1 2267   0.493   0.050   3.798
  456SOL    HW2 2268   0.606   6.967   3.851
  457SOL     OW 2269   1.827   4.003   4.830
  457SOL    HW1 2270   1.779   4.005   4.743
  457SOL    HW2 2271   1.836   3.908   4.861
  458SOL     OW 2272   3.046   6.066   2.736
  458SOL    HW1 2273   3.040   6.138   2.806
  458SOL    HW2 2274   2.954   6.034   2.714
  459SOL     OW 2275   2.442   6.908   6.316
  459SOL    HW1 2276   2.445   6.916   6.416
  459SOL    HW2 2277   2.368   6.965   6.280
  460SOL     OW 2278   2.082   0.064   4.392
  460SOL    HW1 2279   2.034   7.016   4.339
  460SOL    HW2 2280   2.022   0.096   4.466
  461SOL     OW 2281   6.948   5.427   5.638
  461SOL    HW1 2282   6.869   5.416   5.578
  461SOL    HW2 2283   6.942   5.514   5.686
  462SOL     OW 2284   4.134   3.423   6.499
  462SOL    HW1 2285   4.039   3.431   6.468
  462SOL    HW2 2286   4.136   3.389   6.593
  463SOL     OW 2287   6.641   6.277   4.268
  463SOL    HW1 2288   6.565   6.342   4.268
  463SOL    HW2 2289   6.697   6.290   4.350
  464SOL     OW 2290   2.803   0.665   5.482
  464SOL    HW1 2291   2.750   0.709   5.408
  464SOL    HW2 2292   2.882   0.722   5.505
  465SOL     OW 2293   0.590   2.147   0.344
  465SOL    HW1 2294   0.560   2.066   0.393
  465SOL    HW2 2295   0.512   2.189   0.298
  466SOL     OW 2296   2.303   6.543   3.768
  466SOL    HW1 2297   2.376   6.507   3.710
  466SOL    HW2 2298   2.221   6.486   3.758
  467SOL     OW 2299   1.609   1.532   2.274
  467SOL    HW1 2300   1.618   1.448   2.222
  467SOL    HW2 2301   1.657   1.606   2.227
  468SOL     OW 2302   3.131   6.360   5.237
  468SOL    HW1 2303   3.084   6.281   5.197
  468SOL    HW2 2304   3.098   6.444   5.194
  469SOL     OW 2305   2.666   3.480   6.140
  469SOL    HW1 2306   2.757   3.521   6.145
  469SOL    HW2 2307   2.673   3.386   6.107
  470SOL     OW 2308   4.151   6.227   0.798
  470SOL    HW1 2309   4.152   6.290   0.721
  470SOL    HW2 2310   4.240   6.180   0.805
  471SOL     OW 2311   2.252   2.737   3.790
  471SOL    HW1 2312   2.342   2.719   3.749
  471SOL    HW2 2313   2.196   2.654   3.784
  472SOL     OW 2314   5.258   4.542   6.666
  472SOL    HW1 2315   5.247   4.444   6.683
  472SOL    HW2 2316   5.295   4.555   6.574
  473SOL     OW 2317   1.240   1.773   2.668
  473SOL    HW1 2318   1.220   1.687   2.716
  473SOL    HW2 2319   1.303   1.754   2.592
  474SOL     OW 2320   5.291   5.699   4.464
  474SOL    HW1 2321   5.336   5.779   4.503
  474SOL    HW2 2322   5.290   5.625   4.531
  475SOL     OW 2323   6.531   2.691   0.075
  475SOL    HW1 2324   6.502   2.634   0.152
  475SOL    HW2 2325   6.631   2.697   0.073
  476SOL     OW 2326   0.027   3.767   2.087
  476SOL    HW1 2327   0.040   3.680   2.134
  476SOL    HW2 2328   0.073   3.840   2.138
  477SOL     OW 2329   2.427   5.818   3.052
  477SOL    HW1 2330   2.453   5.821   3.149
  477SOL    HW2 2331   2.505   5.787   2.998
  478SOL     OW 2332   4.028   6.265   2.703
  478SOL    HW1 2333   4.026   6.214   2.789
  478SOL    HW2 2334   4.094   6.223   2.641
  479SOL     OW 2335   3.751   3.331   5.183
  479SOL    HW1 2336   3.849   3.324   5.203
  479SOL    HW2 2337   3.736   3.319   5.085
  480SOL     OW 2338   2.293   0.472   0.847
  480SOL    HW1 2339   2.232   0.401   0.880
  480SOL    HW2 2340   2.250   0.521   0.770
  481SOL     OW 2341   0.996   6.381   1.666
  481SOL    HW1 2342   0.899   6.403   1.656
  481SOL    HW2 2343   1.017   6.366   1.763
  482SOL     OW 2344   4.552   4.795   2.249
  482SOL    HW1 2345   4.490   4.851   2.304
  482SOL    HW2 2346   4.575   4.711   2.299
  483SOL     OW 2347   6.520   2.266   2.943
  483SOL    HW1 2348   6.512   2.170   2.916
  483SOL    HW2 2349   6.428   2.304   2.958
  484SOL     OW 2350   1.647   4.068   5.097
  484SOL    HW1 2351   1.565   4.103   5.142
  484SOL    HW2 2352   1.715   4.141   5.090
  485SOL     OW 2353   4.428   4.955   2.479
  485SOL    HW1 2354   4.372   5.014   2.421
  485SOL    HW2 2355   4.410   4.977   2.575
  486SOL     OW 2356   6.346   1.520   0.588
  486SOL    HW1 2357   6.403   1.536   0.669
  486SOL    HW2 2358   6.269   1.583   0.589
  487SOL     OW 2359   0.639   0.513   3.259
  487SOL    HW1 2360   0.738   0.519   3.273
  487SOL    HW2 2361   0.619   0.443   3.191
  488SOL     OW 2362   0.904   0.541   2.724
  488SOL    HW1 2363   0.935   0.510   2.814
  488SOL    HW2 2364   0.909   0.641   2.720
  489SOL     OW 2365   4.962   6.000   5.907
  489SOL    HW1 2366   4.923   5.998   5.815
  489SOL    HW2 2367   5.055   6.036   5.904
  490SOL     OW 2368   1.826   6.145   3.728
  490SOL    HW1 2369   1.812   6.046   3.738
  490SOL    HW2 2370   1.900   6.161   3.663
  491SOL     OW 2371   1.152   2.805   1.744
  491SOL    HW1 2372   1.107   2.833   1.659
  491SOL    HW2 2373   1.145   2.879   1.811
  492SOL     OW 2374   1.230   1.136   5.854
  492SOL    HW1 2375   1.228   1.204   5.781
  492SOL    HW2 2376   1.322   1.099   5.863
  493SOL     OW 2377   3.180   6.531   5.764
  493SOL    HW1 2378   3.151   6.475   5.842
  493SOL    HW2 2379   3.180   6.627   5.790
  494SOL     OW 2380   1.188   6.546   6.843
  494SOL    HW1 2381   1.100   6.579   6.878
  494SOL    HW2 2382   1.172   6.484   6.766
  495SOL     OW 2383   4.195   5.731   3.689
  495SOL    HW1 2384   4.240   5.642   3.692
  495SOL    HW2 2385   4.238   5.787   3.617
  496SOL     OW 2386   5.896   2.817   1.906
  496SOL    HW1 2387   5.946   2.902   1.888
  496SOL    HW2 2388   5.806   2.822   1.862
  497SOL     OW 2389   3.233   1.137   4.685
  497SOL    HW1 2390   3.231   1.063   4.617
  497SOL    HW2 2391   3.326   1.144   4.723
  498SOL     OW 2392   0.720   5.171   2.475
  498SOL    HW1 2393   0.818   5.194   2.471
  498SOL    HW2 2394   0.698   5.140   2.567
  499SOL     OW 2395   1.921   5.403   4.641
  499SOL    HW1 2396   1.918   5.413   4.740
  499SOL    HW2 2397   1.849   5.341   4.611
  500SOL     OW 2398   6.598   2.554   6.545
  500SOL    HW1 2399   6.556   2.567   6.634
  500SOL    HW2 2400   6.539   2.496   6.488
  501SOL     OW 2401   4.208   6.920   0.719
  501SOL    HW1 2402   4.139   6.872   0.665
  501SOL    HW2 2403   4.167   7.001   0.761
  502SOL     OW 2404   0.832   4.678   6.042
  502SOL    HW1 2405   0.919   4.680   5.992
  502SOL    HW2 2406   0.761   4.724   5.988
  503SOL     OW 2407   0.585   4.771   6.595
  503SOL    HW1 2408   0.662   4.763   6.532
  503SOL    HW2 2409   0.504   4.727   6.556
  504SOL     OW 2410   1.013   5.606   2.366
  504SOL    HW1 2411   0.927   5.568   2.333
  504SOL    HW2 2412   1.084   5.536   2.361
  505SOL     OW 2413   3.767   6.066   4.466
  505SOL    HW1 2414   3.833   6.019   4.407
  505SOL    HW2 2415   3.702   5.999   4.502
  506SOL     OW 2416   3.938   5.659   2.505
  506SOL    HW1 2417   3.883   5.622   2.580
  506SOL    HW2 2418   3.882   5.721   2.450
  507SOL     OW 2419   3.242   6.447   2.835
  507SOL    HW1 2420   3.222   6.385   2.911
  507SOL    HW2 2421   3.339   6.468   2.833
  508SOL     OW 2422   0.109   3.287   2.642
  508SOL    HW1 2423   0.183   3.352   2.628
  508SOL    HW2 2424   0.141   3.213   2.701
  509SOL     OW 2425   2.943   1.579   0.979
  509SOL    HW1 2426   2.867   1.621   1.028
  509SOL    HW2 2427   2.998   1.650   0.935
  510SOL     OW 2428   6.029   3.881   0.099
  510SOL    HW1 2429   6.121   3.897   0.062
  510SOL    HW2 2430   6.023   3.788   0.133
  511SOL     OW 2431   0.565   3.152   6.317
  511SOL    HW1 2432   0.610   3.187   6.399
  511SOL    HW2 2433   0.587   3.211   6.240
  512SOL     OW 2434   0.021   2.029   6.483
  512SOL    HW1 2435   0.115   2.001   6.466
  512SOL    HW2 2436   6.985   1.947   6.490
  513SOL     OW 2437   5.254   6.805   3.080
  513SOL    HW1 2438   5.314   6.838   3.152
  513SOL    HW2 2439   5.159   6.817   3.107
  514SOL     OW 2440   6.534   0.408   4.510
  514SOL    HW1 2441   6.512   0.449   4.421
  514SOL    HW2 2442   6.525   0.477   4.582
  515SOL     OW 2443   1.154   1.072   1.089
  515SOL    HW1 2444   1.075   1.039   1.140
  515SOL    HW2 2445   1.127   1.150   1.033
  516SOL     OW 2446   2.513   4.589   2.007
  516SOL    HW1 2447   2.611   4.579   1.993
  516SOL    HW2 2448   2.464   4.561   1.924
  517SOL     OW 2449   3.313   4.872   1.937
  517SOL    HW1 2450   3.396   4.817   1.925
  517SOL    HW2 2451   3.265   4.879   1.850
  518SOL     OW 2452   2.305   2.345   3.819
  518SOL    HW1 2453   2.391   2.394   3.834
  518SOL    HW2 2454   2.235   2.381   3.881
  519SOL     OW 2455   0.802   6.472   3.055
  519SOL    HW1 2456   0.893   6.476   3.014
  519SOL    HW2 2457   0.802   6.406   3.130
  520SOL     OW 2458   6.326   3.558   6.600
  520SOL    HW1 2459   6.350   3.655   6.602
  520SOL    HW2 2460   6.352   3.520   6.511
  521SOL     OW 2461   6.630   6.348   5.357
  521SOL    HW1 2462   6.628   6.383   5.263
  521SOL    HW2 2463   6.552   6.383   5.407
  522SOL     OW 2464   3.743   3.373   4.035
  522SOL    HW1 2465   3.791   3.457   4.058
  522SOL    HW2 2466   3.648   3.393   4.013
  523SOL     OW 2467   0.107   5.799   1.119
  523SOL    HW1 2468   0.153   5.863   1.058
  523SOL    HW2 2469   0.009   5.817   1.120
  524SOL     OW 2470   1.456   2.534   3.091
  524SOL    HW1 2471   1.469   2.435   3.093
  524SOL    HW2 2472   1.496   2.574   3.173
  525SOL     OW 2473   1.960   4.215   6.209
  525SOL    HW1 2474   1.896   4.143   6.237
  525SOL    HW2 2475   2.024   4.178   6.142
  526SOL     OW 2476   3.525   6.650   3.922
  526SOL    HW1 2477   3.610   6.599   3.940
  526SOL    HW2 2478   3.451   6.612   3.977
  527SOL     OW 2479   6.961   3.055   0.515
  527SOL    HW1 2480   6.986   3.145   0.480
  527SOL    HW2 2481   6.986   2.985   0.447
  528SOL     OW 2482   1.683   2.305   3.401
  528SOL    HW1 2483   1.725   2.252   3.474
  528SOL    HW2 2484   1.672   2.247   3.320
  529SOL     OW 2485   2.075   6.016   5.130
  529SOL    HW1 2486   2.005   6.001   5.060
  529SOL    HW2 2487   2.104   5.928   5.168
  530SOL     OW 2488   4.079   3.667   3.169
  530SOL    HW1 2489   4.128   3.590   3.208
  530SOL    HW2 2490   4.027   3.714   3.240
  531SOL     OW 2491   0.799   1.730   2.806
  531SOL    HW1 2492   0.779   1.813   2.858
  531SOL    HW2 2493   0.870   1.750   2.739
  532SOL     OW 2494   0.883   2.382   0.468
  532SOL    HW1 2495   0.898   2.456   0.534
  532SOL    HW2 2496   0.965   2.325   0.463
  533SOL     OW 2497   4.167   6.759   3.181
  533SOL    HW1 2498   4.226   6.838   3.199
  533SOL    HW2 2499   4.155   6.748   3.083
  534SOL     OW 2500   5.537   5.955   2.608
  534SOL    HW1 2501   5.529   5.909   2.696
  534SOL    HW2 2502   5.575   6.047   2.622
  535SOL     OW 2503   6.499   3.493   3.787
  535SOL    HW1 2504   6.513   3.592   3.796
  535SOL    HW2 2505   6.405   3.470   3.809
  536SOL     OW 2506   5.938   4.664   2.907
  536SOL    HW1 2507   5.973   4.676   2.814
  536SOL    HW2 2508   5.849   4.619   2.904
  537SOL     OW 2509   3.221   6.885   4.749
  537SOL    HW1 2510   3.240   6.872   4.651
  537SOL    HW2 2511   3.125   6.911   4.760
  538SOL     OW 2512   0.912   4.581   3.977
  538SOL    HW1 2513   0.870   4.557   4.064
  538SOL    HW2 2514   0.922   4.680   3.971
  539SOL     OW 2515   1.999   4.489   1.479
  539SOL    HW1 2516   1.929   4.560   1.472
  539SOL    HW2 2517   2.049   4.483   1.393
  540SOL     OW 2518   1.655   1.735   3.007
  540SOL    HW1 2519   1.677   1.670   2.934
  540SOL    HW2 2520   1.583   1.697   3.065
  541SOL     OW 2521   5.865   5.644   4.345
  541SOL    HW1 2522   5.790   5.706   4.326
  541SOL    HW2 2523   5.943   5.696   4.381
  542SOL     OW 2524   5.429   6.942   6.638
  542SOL    HW1 2525   5.349   6.933   6.579
  542SOL    HW2 2526   5.458   6.852   6.670
  543SOL     OW 2527   6.553   3.965   4.677
  543SOL    HW1 2528   6.558   4.016   4.763
  543SOL    HW2 2529   6.641   3.920   4.660
  544SOL     OW 2530   1.642   4.931   0.055
  544SOL    HW1 2531   1.713   4.861   0.042
  544SOL    HW2 2532   1.678   5.005   0.111
  545SOL     OW 2533   3.123   1.108   0.582
  545SOL    HW1 2534   3.182   1.188   0.573
  545SOL    HW2 2535   3.170   1.038   0.636
  546SOL     OW 2536   1.624   3.696   0.510
  546SOL    HW1 2537   1.640   3.792   0.532
  546SOL    HW2 2538   1.551   3.660   0.569
  547SOL     OW 2539   3.301   1.801   6.773
  547SOL    HW1 2540   3.339   1.888   6.740
  547SOL    HW2 2541   3.212   1.818   6.816
  548SOL     OW 2542   3.373   3.403   1.850
  548SOL    HW1 2543   3.340   3.310   1.835
  548SOL    HW2 2544   3.326   3.442   1.930
  549SOL     OW 2545   5.615   1.967   1.280
  549SOL    HW1 2546   5.587   1.974   1.184
  549SOL    HW2 2547   5.538   1.992   1.339
  550SOL     OW 2548   1.411   5.484   3.885
  550SOL    HW1 2549   1.412   5.448   3.792
  550SOL    HW2 2550   1.351   5.564   3.889
  551SOL     OW 2551   0.973   0.079   1.999
  551SOL    HW1 2552   1.070   0.062   1.979
  551SOL    HW2 2553   0.957   0.177   2.009
  552SOL     OW 2554   6.265   4.813   6.999
  552SOL    HW1 2555   6.204   4.798   0.055
  552SOL    HW2 2556   6.222   4.878   6.936
  553SOL     OW 2557   2.431   6.800   3.694
  553SOL    HW1 2558   2.504   6.841   3.748
  553SOL    HW2 2559   2.412   6.708   3.728
  554SOL     OW 2560   5.861   6.849   6.855
  554SOL    HW1 2561   5.921   6.780   6.896
  554SOL    HW2 2562   5.907   6.938   6.856
  555SOL     OW 2563   3.006   4.963   4.541
  555SOL    HW1 2564   3.045   4.934   4.453
  555SOL    HW2 2565   3.074   4.952   4.613
  556SOL     OW 2566   4.929   1.697   3.398
  556SOL    HW1 2567   4.969   1.613   3.361
  556SOL    HW2 2568   4.831   1.699   3.378
  557SOL     OW 2569   0.143   5.143   0.613
  557SOL    HW1 2570   0.062   5.149   0.671
  557SOL    HW2 2571   0.173   5.234   0.586
  558SOL     OW 2572   3.073   3.606   3.253
  558SOL    HW1 2573   3.011   3.627   3.178
  558SOL    HW2 2574   3.077   3.507   3.267
  559SOL     OW 2575   0.235   5.515   6.449
  559SOL    HW1 2576   0.207   5.501   6.354
  559SOL    HW2 2577   0.154   5.520   6.507
  560SOL     OW 2578   5.710   3.701   4.212
  560SOL    HW1 2579   5.746   3.711   4.119
  560SOL    HW2 2580   5.618   3.739   4.216
  561SOL     OW 2581   0.255   2.379   1.169
  561SOL    HW1 2582   0.167   2.333   1.163
  561SOL    HW2 2583   0.242   2.478   1.158
  562SOL     OW 2584   4.423   0.157   6.435
  562SOL    HW1 2585   4.328   0.126   6.428
  562SOL    HW2 2586   4.462   0.166   6.344
  563SOL     OW 2587   3.048   0.076   3.598
  563SOL    HW1 2588   3.070   0.167   3.562
  563SOL    HW2 2589   2.999   0.024   3.528
  564SOL     OW 2590   1.328   2.663   6.900
  564SOL    HW1 2591   1.277   2.716   6.832
  564SOL    HW2 2592   1.288   2.571   6.907
  565SOL     OW 2593   3.538   3.189   4.892
  565SOL    HW1 2594   3.495   3.152   4.810
  565SOL    HW2 2595   3.471   3.241   4.945
  566SOL     OW 2596   0.363   4.517   3.835
  566SOL    HW1 2597   0.391   4.613   3.841
  566SOL    HW2 2598   0.282   4.509   3.777
  567SOL     OW 2599   2.906   2.935   1.349
  567SOL    HW1 2600   2.887   2.851   1.401
  567SOL    HW2 2601   2.863   3.013   1.395
  568SOL     OW 2602   4.959   0.191   6.994
  568SOL    HW1 2603   5.012   0.117   6.953
  568SOL    HW2 2604   5.022   0.259   0.010
  569SOL     OW 2605   1.613   2.372   0.299
  569SOL    HW1 2606   1.655   2.451   0.344
  569SOL    HW2 2607   1.666   2.290   0.320
  570SOL     OW 2608   3.945   6.238   6.104
  570SOL    HW1 2609   3.939   6.295   6.186
  570SOL    HW2 2610   4.013   6.277   6.042
  571SOL     OW 2611   3.306   5.578   2.430
  571SOL    HW1 2612   3.318   5.648   2.360
  571SOL    HW2 2613   3.394   5.536   2.451
  572SOL     OW 2614   2.576   4.967   5.633
  572SOL    HW1 2615   2.552   4.948   5.537
  572SOL    HW2 2616   2.538   5.055   5.660
  573SOL     OW 2617   5.232   1.276   5.878
  573SOL    HW1 2618   5.250   1.223   5.961
  573SOL    HW2 2619   5.319   1.313   5.843
  574SOL     OW 2620   3.427   1.444   4.555
  574SOL    HW1 2621   3.405   1.403   4.466
  574SOL    HW2 2622   3.350   1.433   4.617
  575SOL     OW 2623   5.439   3.798   0.981
  575SOL    HW1 2624   5.478   3.889   0.976
  575SOL    HW2 2625   5.477   3.741   0.908
  576SOL     OW 2626   1.600   2.102   3.187
  576SOL    HW1 2627   1.627   2.049   3.107
  576SOL    HW2 2628   1.501   2.116   3.185
  577SOL     OW 2629   1.442   1.564   3.090
  577SOL    HW1 2630   1.498   1.483   3.105
  577SOL    HW2 2631   1.368   1.543   3.027
  578SOL     OW 2632   6.428   5.133   4.332
  578SOL    HW1 2633   6.506   5.099   4.280
  578SOL    HW2 2634   6.349   5.073   4.318
  579SOL     OW 2635   1.760   3.340   3.898
  579SOL    HW1 2636   1.767   3.421   3.838
  579SOL    HW2 2637   1.843   3.332   3.953
  580SOL     OW 2638   5.132   5.549   6.092
  580SOL    HW1 2639   5.114   5.646   6.078
  580SOL    HW2 2640   5.097   5.522   6.182
  581SOL     OW 2641   1.940   3.341   1.617
  581SOL    HW1 2642   1.955   3.278   1.693
  581SOL    HW2 2643   1.844   3.338   1.590
  582SOL     OW 2644   4.422   5.774   1.968
  582SOL    HW1 2645   4.451   5.831   1.891
  582SOL    HW2 2646   4.331   5.803   1.999
  583SOL     OW 2647   2.470   6.766   5.431
  583SOL    HW1 2648   2.524   6.830   5.485
  583SOL    HW2 2649   2.489   6.673   5.462
  584SOL     OW 2650   3.036   5.237   6.702
  584SOL    HW1 2651   3.021   5.317   6.645
  584SOL    HW2 2652   3.127   5.242   6.744
  585SOL     OW 2653   4.771   1.690   6.531
  585SOL    HW1 2654   4.797   1.712   6.437
  585SOL    HW2 2655   4.676   1.658   6.532
  586SOL     OW 2656   3.490   0.721   6.098
  586SOL    HW1 2657   3.487   0.814   6.135
  586SOL    HW2 2658   3.480   0.655   6.173
  587SOL     OW 2659   4.522   1.664   4.505
  587SOL    HW1 2660   4.496   1.649   4.600
  587SOL    HW2 2661   4.487   1.590   4.448
  588SOL     OW 2662   2.077   4.945   1.794
  588SOL    HW1 2663   2.167   4.985   1.812
  588SOL    HW2 2664   2.009   4.986   1.856
  589SOL     OW 2665   3.363   4.527   1.685
  589SOL    HW1 2666   3.279   4.507   1.735
  589SOL    HW2 2667   3.413   4.600   1.731
  590SOL     OW 2668   5.470   2.963   2.468
  590SOL    HW1 2669   5.495   2.904   2.392
  590SOL    HW2 2670   5.383   2.933   2.507
  591SOL     OW 2671   2.957   5.322   3.744
  591SOL    HW1 2672   3.003   5.409   3.762
  591SOL    HW2 2673   2.973   5.295   3.649
  592SOL     OW 2674   3.790   1.810   1.105
  592SOL    HW1 2675   3.696   1.779   1.094
  592SOL    HW2 2676   3.835   1.755   1.176
  593SOL     OW 2677   4.184   2.195   4.700
  593SOL    HW1 2678   4.205   2.235   4.611
  593SOL    HW2 2679   4.091   2.158   4.699
  594SOL     OW 2680   6.842   1.445   0.246
  594SOL    HW1 2681   6.775   1.433   0.319
  594SOL    HW2 2682   6.810   1.398   0.164
  595SOL     OW 2683   5.289   0.728   3.740
  595SOL    HW1 2684   5.213   0.784   3.773
  595SOL    HW2 2685   5.257   0.635   3.724
  596SOL     OW 2686   1.159   5.378   3.378
  596SOL    HW1 2687   1.251   5.415   3.389
  596SOL    HW2 2688   1.157   5.283   3.409
  597SOL     OW 2689   2.882   0.579   0.425
  597SOL    HW1 2690   2.926   0.512   0.486
  597SOL    HW2 2691   2.796   0.542   0.391
  598SOL     OW 2692   4.093   3.944   5.290
  598SOL    HW1 2693   4.045   3.875   5.345
  598SOL    HW2 2694   4.189   3.948   5.319
  599SOL     OW 2695   2.381   6.009   1.780
  599SOL    HW1 2696   2.430   6.078   1.833
  599SOL    HW2 2697   2.415   6.010   1.686
  600SOL     OW 2698   6.812   1.339   7.009
  600SOL    HW1 2699   6.861   1.426   7.005
  600SOL    HW2 2700   6.860   1.271   6.953
  601SOL     OW 2701   1.589   0.269   4.793
  601SOL    HW1 2702   1.554   0.361   4.778
  601SOL    HW2 2703   1.586   0.247   4.890
  602SOL     OW 2704   1.594   1.843   6.401
  602SOL    HW1 2705   1.527   1.793   6.346
  602SOL    HW2 2706   1.632   1.917   6.346
  603SOL     OW 2707   2.768   2.485   5.311
  603SOL    HW1 2708   2.818   2.526   5.387
  603SOL    HW2 2709   2.829   2.427   5.258
  604SOL     OW 2710   1.163   2.178   2.130
  604SOL    HW1 2711   1.188   2.081   2.127
  604SOL    HW2 2712   1.070   2.188   2.164
  605SOL     OW 2713   6.714   6.234   0.531
  605SOL    HW1 2714   6.634   6.185   0.566
  605SOL    HW2 2715   6.784   6.240   0.602
  606SOL     OW 2716   4.756   6.586   6.803
  606SOL    HW1 2717   4.675   6.539   6.839
  606SOL    HW2 2718   4.812   6.520   6.752
  607SOL     OW 2719   6.370   5.999   5.684
  607SOL    HW1 2720   6.450   6.036   5.731
  607SOL    HW2 2721   6.289   6.050   5.713
  608SOL     OW 2722   4.030   6.000   6.633
  608SOL    HW1 2723   3.937   5.980   6.601
  608SOL    HW2 2724   4.026   6.031   6.729
  609SOL     OW 2725   3.890   2.957   2.652
  609SOL    HW1 2726   3.818   3.011   2.696
  609SOL    HW2 2727   3.969   3.015   2.634
  610SOL     OW 2728   5.474   4.350   1.854
  610SOL    HW1 2729   5.405   4.372   1.923
  610SOL    HW2 2730   5.451   4.263   1.811
  611SOL     OW 2731   4.175   6.798   1.267
  611SOL    HW1 2732   4.217   6.818   1.179
  611SOL    HW2 2733   4.078   6.780   1.255
  612SOL     OW 2734   3.772   6.599   4.812
  612SOL    HW1 2735   3.817   6.560   4.893
  612SOL    HW2 2736   3.673   6.596   4.825
  613SOL     OW 2737   4.413   6.314   5.462
  613SOL    HW1 2738   4.491   6.343   5.518
  613SOL    HW2 2739   4.373   6.394   5.417
  614SOL     OW 2740   5.556   5.598   0.585
  614SOL    HW1 2741   5.516   5.690   0.586
  614SOL    HW2 2742   5.550   5.561   0.492
  615SOL     OW 2743   6.400   2.398   1.580
  615SOL    HW1 2744   6.394   2.474   1.515
  615SOL    HW2 2745   6.438   2.318   1.534
  616SOL     OW 2746   0.209   2.953   3.626
  616SOL    HW1 2747   0.253   2.939   3.714
  616SOL    HW2 2748   0.223   2.872   3.568
  617SOL     OW 2749   6.634   4.530   5.661
  617SOL    HW1 2750   6.600   4.448   5.705
  617SOL    HW2 2751   6.729   4.546   5.687
  618SOL     OW 2752   0.048   2.228   6.874
  618SOL    HW1 2753   0.002   2.300   6.823
  618SOL    HW2 2754   0.134   2.205   6.829
  619SOL     OW 2755   4.338   0.871   0.112
  619SOL    HW1 2756   4.255   0.841   0.158
  619SOL    HW2 2757   4.384   0.940   0.168
  620SOL     OW 2758   4.458   2.997   1.409
  620SOL    HW1 2759   4.516   3.070   1.445
  620SOL    HW2 2760   4.466   2.916   1.467
  621SOL     OW 2761   2.664   0.059   0.114
  621SOL    HW1 2762   2.672   7.003   0.175
  621SOL    HW2 2763   2.665   0.028   0.019
  622SOL     OW 2764   1.216   0.328   6.297
  622SOL    HW1 2765   1.314   0.307   6.290
  622SOL    HW2 2766   1.183   0.363   6.209
  623SOL     OW 2767   0.789   5.704   4.997
  623SOL    HW1 2768   0.832   5.677   5.084
  623SOL    HW2 2769   0.743   5.792   5.009
  624SOL     OW 2770   6.564   3.111   1.024
  624SOL    HW1 2771   6.488   3.050   1.001
  624SOL    HW2 2772   6.649   3.058   1.028
  625SOL     OW 2773   1.973   1.805   2.223
  625SOL    HW1 2774   2.031   1.885   2.212
  625SOL    HW2 2775   2.027   1.722   2.206
  626SOL     OW 2776   2.080   5.621   3.676
  626SOL    HW1 2777   2.083   5.706   3.728
  626SOL    HW2 2778   2.036   5.550   3.731
  627SOL     OW 2779   5.823   6.273   0.524
  627SOL    HW1 2780   5.759   6.235   0.458
  627SOL    HW2 2781   5.895   6.206   0.544
  628SOL     OW 2782   5.822   5.451   6.187
  628SOL    HW1 2783   5.910   5.473   6.145
  628SOL    HW2 2784   5.822   5.355   6.214
  629SOL     OW 2785   6.685   0.080   6.951
  629SOL    HW1 2786   6.633   0.056   0.010
  629SOL    HW2 2787   6.783   0.079   6.972
  630SOL     OW 2788   7.012   1.728   1.440
  630SOL    HW1 2789   6.920   1.695   1.418
  630SOL    HW2 2790   7.016   1.755   1.536
  631SOL     OW 2791   3.693   6.698   5.367
  631SOL    HW1 2792   3.709   6.674   5.463
  631SOL    HW2 2793   3.595   6.715   5.354
  632SOL     OW 2794   2.577   1.105   0.595
  632SOL    HW1 2795   2.675   1.104   0.615
  632SOL    HW2 2796   2.525   1.096   0.680
  633SOL     OW 2797   3.903   3.644   0.141
  633SOL    HW1 2798   3.855   3.702   0.207
  633SOL    HW2 2799   3.938   3.701   0.066
  634SOL     OW 2800   4.227   4.184   1.143
  634SOL    HW1 2801   4.160   4.124   1.186
  634SOL    HW2 2802   4.319   4.158   1.173
  635SOL     OW 2803   4.493   5.144   1.469
  635SOL    HW1 2804   4.457   5.122   1.560
  635SOL    HW2 2805   4.430   5.110   1.399
  636SOL     OW 2806   3.820   5.305   6.852
  636SOL    HW1 2807   3.857   5.397   6.835
  636SOL    HW2 2808   3.721   5.312   6.865
  637SOL     OW 2809   6.571   3.085   3.168
  637SOL    HW1 2810   6.550   3.134   3.253
  637SOL    HW2 2811   6.486   3.067   3.119
  638SOL     OW 2812   5.338   2.195   3.576
  638SOL    HW1 2813   5.311   2.180   3.481
  638SOL    HW2 2814   5.299   2.281   3.609
  639SOL     OW 2815   5.308   3.484   2.786
  639SOL    HW1 2816   5.359   3.458   2.868
  639SOL    HW2 2817   5.357   3.559   2.740
  640SOL     OW 2818   7.013   5.303   3.586
  640SOL    HW1 2819   6.955   5.325   3.665
  640SOL    HW2 2820   0.082   5.279   3.618
  641SOL     OW 2821   6.430   5.363   5.016
  641SOL    HW1 2822   6.332   5.378   5.002
  641SOL    HW2 2823   6.472   5.336   4.930
  642SOL     OW 2824   6.870   3.067   4.988
  642SOL    HW1 2825   6.812   2.985   4.993
  642SOL    HW2 2826   6.812   3.148   4.980
  643SOL     OW 2827   5.936   6.308   5.039
  643SOL    HW1 2828   5.901   6.386   4.987
  643SOL    HW2 2829   6.034   6.299   5.022
  644SOL     OW 2830   1.342   5.742   4.583
  644SOL    HW1 2831   1.429   5.780   4.614
  644SOL    HW2 2832   1.359   5.675   4.511
  645SOL     OW 2833   4.277   1.025   3.404
  645SOL    HW1 2834   4.342   1.102   3.397
  645SOL    HW2 2835   4.327   0.939   3.397
  646SOL     OW 2836   2.577   0.958   4.758
  646SOL    HW1 2837   2.551   1.048   4.722
  646SOL    HW2 2838   2.657   0.925   4.709
  647SOL     OW 2839   5.005   1.870   4.546
  647SOL    HW1 2840   4.970   1.950   4.497
  647SOL    HW2 2841   4.939   1.796   4.539
  648SOL     OW 2842   0.226   3.287   4.173
  648SOL    HW1 2843   0.173   3.305   4.090
  648SOL    HW2 2844   0.179   3.219   4.229
  649SOL     OW 2845   2.751   3.730   0.856
  649SOL    HW1 2846   2.766   3.679   0.941
  649SOL    HW2 2847   2.787   3.822   0.866
  650SOL     OW 2848   6.002   4.815   1.185
  650SOL    HW1 2849   6.007   4.799   1.087
  650SOL    HW2 2850   6.094   4.806   1.224
  651SOL     OW 2851   6.530   5.939   6.207
  651SOL    HW1 2852   6.535   5.904   6.114
  651SOL    HW2 2853   6.463   6.013   6.212
  652SOL     OW 2854   4.763   5.882   3.963
  652SOL    HW1 2855   4.750   5.810   3.894
  652SOL    HW2 2856   4.751   5.971   3.920
  653SOL     OW 2857   2.109   5.797   5.314
  653SOL    HW1 2858   2.085   5.727   5.382
  653SOL    HW2 2859   2.078   5.768   5.224
  654SOL     OW 2860   0.331   4.011   5.590
  654SOL    HW1 2861   0.428   3.995   5.571
  654SOL    HW2 2862   0.319   4.032   5.687
  655SOL     OW 2863   0.540   5.886   2.077
  655SOL    HW1 2864   0.587   5.860   1.993
  655SOL    HW2 2865   0.602   5.875   2.155
  656SOL     OW 2866   1.782   5.107   1.211
  656SOL    HW1 2867   1.697   5.148   1.178
  656SOL    HW2 2868   1.813   5.156   1.293
  657SOL     OW 2869   1.848   2.545   1.585
  657SOL    HW1 2870   1.816   2.640   1.582
  657SOL    HW2 2871   1.805   2.499   1.663
  658SOL     OW 2872   2.851   4.218   6.455
  658SOL    HW1 2873   2.805   4.304   6.434
  658SOL    HW2 2874   2.815   4.180   6.540
  659SOL     OW 2875   2.627   6.021   6.071
  659SOL    HW1 2876   2.546   5.964   6.061
  659SOL    HW2 2877   2.635   6.082   5.992
  660SOL     OW 2878   5.381   5.100   2.483
  660SOL    HW1 2879   5.429   5.091   2.570
  660SOL    HW2 2880   5.307   5.167   2.492
  661SOL     OW 2881   4.297   5.125   2.971
  661SOL    HW1 2882   4.224   5.138   3.038
  661SOL    HW2 2883   4.384   5.150   3.012
  662SOL     OW 2884   4.331   0.336   5.548
  662SOL    HW1 2885   4.316   0.433   5.527
  662SOL    HW2 2886   4.259   0.304   5.610
  663SOL     OW 2887   2.591   3.922   6.615
  663SOL    HW1 2888   2.686   3.952   6.610
  663SOL    HW2 2889   2.532   3.987   6.569
  664SOL     OW 2890   0.155   5.216   6.286
  664SOL    HW1 2891   0.058   5.201   6.267
  664SOL    HW2 2892   0.168   5.233   6.383
  665SOL     OW 2893   5.360   4.818   0.937
  665SOL    HW1 2894   5.391   4.833   0.843
  665SOL    HW2 2895   5.393   4.894   0.994
  666SOL     OW 2896   4.696   2.357   2.416
  666SOL    HW1 2897   4.622   2.388   2.355
  666SOL    HW2 2898   4.658   2.333   2.505
  667SOL     OW 2899   0.149   4.427   3.679
  667SOL    HW1 2900   0.122   4.439   3.584
  667SOL    HW2 2901   0.118   4.337   3.711
  668SOL     OW 2902   5.658   6.418   6.650
  668SOL    HW1 2903   5.666   6.436   6.552
  668SOL    HW2 2904   5.670   6.503   6.701
  669SOL     OW 2905   4.361   0.521   3.158
  669SOL    HW1 2906   4.263   0.501   3.160
  669SOL    HW2 2907   4.391   0.527   3.063
  670SOL     OW 2908   3.367   2.718   0.882
  670SOL    HW1 2909   3.444   2.773   0.914
  670SOL    HW2 2910   3.368   2.630   0.929
  671SOL     OW 2911   1.771   6.346   0.258
  671SOL    HW1 2912   1.737   6.364   0.165
  671SOL    HW2 2913   1.780   6.248   0.271
  672SOL     OW 2914   1.070   5.277   2.235
  672SOL    HW1 2915   1.169   5.269   2.228
  672SOL    HW2 2916   1.043   5.284   2.331
  673SOL     OW 2917   6.928   0.019   1.937
  673SOL    HW1 2918   6.966   0.079   2.007
  673SOL    HW2 2919   6.978   0.032   1.851
  674SOL     OW 2920   0.319   1.708   5.242
  674SOL    HW1 2921   0.300   1.806   5.233
  674SOL    HW2 2922   0.233   1.657   5.245
  675SOL     OW 2923   0.666   1.129   2.952
  675SOL    HW1 2924   0.617   1.211   2.923
  675SOL    HW2 2925   0.631   1.049   2.902
  676SOL     OW 2926   3.430   5.796   2.919
  676SOL    HW1 2927   3.454   5.770   2.826
  676SOL    HW2 2928   3.334   5.777   2.936
  677SOL     OW 2929   5.970   1.904   0.621
  677SOL    HW1 2930   5.939   1.916   0.715
  677SOL    HW2 2931   6.068   1.886   0.620
  678SOL     OW 2932   2.150   1.382   5.702
  678SOL    HW1 2933   2.184   1.473   5.724
  678SOL    HW2 2934   2.218   1.332   5.649
  679SOL     OW 2935   4.333   1.832   3.823
  679SOL    HW1 2936   4.297   1.864   3.910
  679SOL    HW2 2937   4.365   1.910   3.769
  680SOL     OW 2938   5.695   6.362   5.464
  680SOL    HW1 2939   5.695   6.268   5.431
  680SOL    HW2 2940   5.614   6.379   5.520
  681SOL     OW 2941   5.328   5.175   1.627
  681SOL    HW1 2942   5.332   5.122   1.712
  681SOL    HW2 2943   5.413   5.225   1.615
  682SOL     OW 2944   0.495   1.401   0.667
  682SOL    HW1 2945   0.484   1.302   0.665
  682SOL    HW2 2946   0.590   1.424   0.644
  683SOL     OW 2947   4.430   3.461   0.554
  683SOL    HW1 2948   4.411   3.479   0.651
  683SOL    HW2 2949   4.526   3.434   0.544
  684SOL     OW 2950   0.460   0.735   0.118
  684SOL    HW1 2951   0.536   0.674   0.094
  684SOL    HW2 2952   0.496   0.827   0.131
  685SOL     OW 2953   4.255   1.129   3.119
  685SOL    HW1 2954   4.185   1.198   3.135
  685SOL    HW2 2955   4.313   1.120   3.201
  686SOL     OW 2956   4.804   3.004   3.619
  686SOL    HW1 2957   4.854   2.997   3.532
  686SOL    HW2 2958   4.744   3.084   3.616
  687SOL     OW 2959   0.445   2.387   4.743
  687SOL    HW1 2960   0.348   2.390   4.718
  687SOL    HW2 2961   0.495   2.450   4.683
  688SOL     OW 2962   1.043   1.956   0.627
  688SOL    HW1 2963   1.042   1.936   0.725
  688SOL    HW2 2964   0.958   1.921   0.586
  689SOL     OW 2965   6.605   4.376   6.770
  689SOL    HW1 2966   6.513   4.336   6.762
  689SOL    HW2 2967   6.611   4.430   6.853
  690SOL     OW 2968   0.437   4.485   2.874
  690SOL    HW1 2969   0.456   4.579   2.903
  690SOL    HW2 2970   0.341   4.475   2.850
  691SOL     OW 2971   1.856   6.644   0.297
  691SOL    HW1 2972   1.954   6.639   0.277
  691SOL    HW2 2973   1.813   6.556   0.274
  692SOL     OW 2974   3.362   6.928   3.428
  692SOL    HW1 2975   3.305   6.976   3.361
  692SOL    HW2 2976   3.328   6.835   3.439
  693SOL     OW 2977   5.884   1.084   3.699
  693SOL    HW1 2978   5.845   0.992   3.689
  693SOL    HW2 2979   5.851   1.142   3.624
  694SOL     OW 2980   4.060   6.285   3.360
  694SOL    HW1 2981   4.104   6.360   3.411
  694SOL    HW2 2982   4.026   6.320   3.273
  695SOL     OW 2983   4.123   6.555   3.957
  695SOL    HW1 2984   4.090   6.462   3.975
  695SOL    HW2 2985   4.045   6.617   3.948
  696SOL     OW 2986   4.098   4.754   2.520
  696SOL    HW1 2987   4.194   4.777   2.507
  696SOL    HW2 2988   4.048   4.772   2.435
  697SOL     OW 2989   1.976   3.619   4.010
  697SOL    HW1 2990   1.942   3.614   3.915
  697SOL    HW2 2991   1.902   3.653   4.069
  698SOL     OW 2992   5.220   6.744   0.452
  698SOL    HW1 2993   5.166   6.809   0.507
  698SOL    HW2 2994   5.295   6.793   0.407
  699SOL     OW 2995   1.900   3.092   6.304
  699SOL    HW1 2996   1.826   3.042   6.348
  699SOL    HW2 2997   1.862   3.171   6.255
  700SOL     OW 2998   2.980   0.321   1.975
  700SOL    HW1 2999   3.066   0.281   2.006
  700SOL    HW2 3000   2.940   0.263   1.904
  701SOL     OW 3001   6.557   3.496   5.884
  701SOL    HW1 3002   6.650   3.521   5.856
  701SOL    HW2 3003   6.557   3.478   5.983
  702SOL     OW 3004   1.655   6.122   4.619
  702SOL    HW1 3005   1.637   6.024   4.626
  702SOL    HW2 3006   1.727   6.148   4.683
  703SOL     OW 3007   3.693   3.923   5.887
  703SOL    HW1 3008   3.636   3.884   5.959
  703SOL    HW2 3009   3.724   3.851   5.825
  704SOL     OW 3010   1.370   2.453   0.514
  704SOL    HW1 3011   1.296   2.510   0.478
  704SOL    HW2 3012   1.449   2.510   0.536
  705SOL     OW 3013   5.740   5.898   3.039
  705SOL    HW1 3014   5.786   5.833   3.101
  705SOL    HW2 3015   5.659   5.934   3.084
  706SOL     OW 3016   4.373   2.297   4.883
  706SOL    HW1 3017   4.323   2.363   4.939
  706SOL    HW2 3018   4.307   2.234   4.840
  707SOL     OW 3019   4.639   5.719   2.745
  707SOL    HW1 3020   4.678   5.782   2.812
  707SOL    HW2 3021   4.555   5.759   2.707
  708SOL     OW 3022   4.455   6.703   1.990
  708SOL    HW1 3023   4.505   6.767   1.933
  708SOL    HW2 3024   4.418   6.750   2.070
  709SOL     OW 3025   0.486   6.157   1.126
  709SOL    HW1 3026   0.558   6.135   1.060
  709SOL    HW2 3027   0.495   6.099   1.206
  710SOL     OW 3028   3.657   2.835   1.587
  710SOL    HW1 3029   3.718   2.758   1.605
  710SOL    HW2 3030   3.563   2.801   1.578
  711SOL     OW 3031   6.918   3.406   5.450
  711SOL    HW1 3032   6.979   3.452   5.386
  711SOL    HW2 3033   6.966   3.329   5.492
  712SOL     OW 3034   4.651   2.817   1.125
  712SOL    HW1 3035   4.638   2.728   1.168
  712SOL    HW2 3036   4.708   2.875   1.184
  713SOL     OW 3037   4.401   2.284   5.933
  713SOL    HW1 3038   4.369   2.379   5.932
  713SOL    HW2 3039   4.464   2.271   6.010
  714SOL     OW 3040   6.928   4.257   3.444
  714SOL    HW1 3041   6.937   4.158   3.443
  714SOL    HW2 3042   6.835   4.282   3.471
  715SOL     OW 3043   5.347   6.063   0.287
  715SOL    HW1 3044   5.249   6.055   0.270
  715SOL    HW2 3045   5.361   6.114   0.372
  716SOL     OW 3046   0.581   0.595   1.772
  716SOL    HW1 3047   0.601   0.497   1.774
  716SOL    HW2 3048   0.548   0.624   1.862
  717SOL     OW 3049   6.410   4.244   5.192
  717SOL    HW1 3050   6.451   4.296   5.117
  717SOL    HW2 3051   6.311   4.241   5.180
  718SOL     OW 3052   5.000   2.448   5.986
  718SOL    HW1 3053   5.031   2.485   6.073
  718SOL    HW2 3054   5.078   2.422   5.930
  719SOL     OW 3055   6.198   0.980   2.616
  719SOL    HW1 3056   6.114   1.005   2.568
  719SOL    HW2 3057   6.189   0.886   2.651
  720SOL     OW 3058   2.490   0.410   6.127
  720SOL    HW1 3059   2.484   0.336   6.060
  720SOL    HW2 3060   2.463   0.375   6.217
  721SOL     OW 3061   2.657   1.878   3.068
  721SOL    HW1 3062   2.727   1.862   2.999
  721SOL    HW2 3063   2.567   1.855   3.029
  722SOL     OW 3064   3.513   0.474   5.801
  722SOL    HW1 3065   3.487   0.452   5.706
  722SOL    HW2 3066   3.468   0.558   5.829
  723SOL     OW 3067   1.875   4.595   3.408
  723SOL    HW1 3068   1.783   4.632   3.409
  723SOL    HW2 3069   1.923   4.623   3.325
  724SOL     OW 3070   1.004   3.090   4.656
  724SOL    HW1 3071   0.949   3.013   4.689
  724SOL    HW2 3072   0.949   3.146   4.594
  725SOL     OW 3073   2.313   5.696   1.094
  725SOL    HW1 3074   2.222   5.653   1.090
  725SOL    HW2 3075   2.366   5.671   1.013
  726SOL     OW 3076   3.532   4.847   1.389
  726SOL    HW1 3077   3.530   4.748   1.377
  726SOL    HW2 3078   3.547   4.869   1.485
  727SOL     OW 3079   5.799   5.387   5.621
  727SOL    HW1 3080   5.868   5.320   5.595
  727SOL    HW2 3081   5.722   5.383   5.557
  728SOL     OW 3082   6.637   2.965   4.647
  728SOL    HW1 3083   6.669   2.916   4.728
  728SOL    HW2 3084   6.716   3.000   4.596
  729SOL     OW 3085   0.978   2.009   1.807
  729SOL    HW1 3086   1.038   2.078   1.766
  729SOL    HW2 3087   0.946   2.042   1.896
  730SOL     OW 3088   5.571   0.432   4.689
  730SOL    HW1 3089   5.539   0.341   4.715
  730SOL    HW2 3090   5.671   0.433   4.691
  731SOL     OW 3091   5.009   4.597   6.233
  731SOL    HW1 3092   5.012   4.683   6.283
  731SOL    HW2 3093   4.975   4.613   6.140
  732SOL     OW 3094   6.804   3.017   1.403
  732SOL    HW1 3095   6.836   3.112   1.402
  732SOL    HW2 3096   6.771   2.994   1.494
  733SOL     OW 3097   5.082   6.713   5.289
  733SOL    HW1 3098   5.138   6.781   5.242
  733SOL    HW2 3099   5.036   6.656   5.222
  734SOL     OW 3100   6.704   5.013   2.657
  734SOL    HW1 3101   6.647   5.066   2.594
  734SOL    HW2 3102   6.649   4.985   2.735
  735SOL     OW 3103   4.720   1.182   0.136
  735SOL    HW1 3104   4.785   1.112   0.105
  735SOL    HW2 3105   4.694   1.240   0.059
  736SOL     OW 3106   6.851   1.806   3.644
  736SOL    HW1 3107   6.873   1.901   3.623
  736SOL    HW2 3108   6.893   1.745   3.576
  737SOL     OW 3109   5.322   1.313   4.646
  737SOL    HW1 3110   5.231   1.351   4.626
  737SOL    HW2 3111   5.379   1.384   4.687
  738SOL     OW 3112   2.067   3.927   1.489
  738SOL    HW1 3113   2.138   3.863   1.460
  738SOL    HW2 3114   2.108   4.018   1.503
  739SOL     OW 3115   4.854   0.815   3.941
  739SOL    HW1 3116   4.913   0.827   4.021
  739SOL    HW2 3117   4.761   0.844   3.964
  740SOL     OW 3118   6.149   0.733   1.564
  740SOL    HW1 3119   6.108   0.823   1.569
  740SOL    HW2 3120   6.248   0.741   1.576
  741SOL     OW 3121   2.132   6.990   3.418
  741SOL    HW1 3122   2.160   6.914   3.477
  741SOL    HW2 3123   2.032   6.997   3.417
  742SOL     OW 3124   2.880   6.551   2.137
  742SOL    HW1 3125   2.960   6.492   2.137
  742SOL    HW2 3126   2.860   6.580   2.044
  743SOL     OW 3127   0.117   4.755   3.234
  743SOL    HW1 3128   0.024   4.724   3.253
  743SOL    HW2 3129   0.163   4.690   3.175
  744SOL     OW 3130   5.506   0.686   0.607
  744SOL    HW1 3131   5.427   0.624   0.609
  744SOL    HW2 3132   5.584   0.640   0.565
  745SOL     OW 3133   1.901   5.162   4.851
  745SOL    HW1 3134   1.891   5.081   4.910
  745SOL    HW2 3135   1.823   5.223   4.865
  746SOL     OW 3136   6.986   3.733   0.090
  746SOL    HW1 3137   0.038   3.785   0.048
  746SOL    HW2 3138   6.901   3.784   0.084
  747SOL     OW 3139   3.961   6.869   4.378
  747SOL    HW1 3140   3.936   6.810   4.300
  747SOL    HW2 3141   3.937   6.822   4.463
  748SOL     OW 3142   4.087   5.048   2.441
  748SOL    HW1 3143   4.167   5.096   2.405
  748SOL    HW2 3144   4.077   5.068   2.539
  749SOL     OW 3145   5.972   3.350   4.661
  749SOL    HW1 3146   5.876   3.333   4.685
  749SOL    HW2 3147   6.001   3.437   4.702
  750SOL     OW 3148   2.379   2.138   1.370
  750SOL    HW1 3149   2.332   2.217   1.410
  750SOL    HW2 3150   2.431   2.091   1.440
  751SOL     OW 3151   3.603   2.120   0.140
  751SOL    HW1 3152   3.626   2.047   0.075
  751SOL    HW2 3153   3.686   2.149   0.188
  752SOL     OW 3154   3.559   1.484   1.654
  752SOL    HW1 3155   3.554   1.389   1.624
  752SOL    HW2 3156   3.655   1.510   1.669
  753SOL     OW 3157   2.160   3.301   5.802
  753SOL    HW1 3158   2.114   3.260   5.880
  753SOL    HW2 3159   2.145   3.245   5.721
  754SOL     OW 3160   4.826   2.451   5.425
  754SOL    HW1 3161   4.833   2.359   5.464
  754SOL    HW2 3162   4.787   2.513   5.493
  755SOL     OW 3163   1.276   4.639   5.611
  755SOL    HW1 3164   1.306   4.728   5.644
  755SOL    HW2 3165   1.245   4.647   5.516
  756SOL     OW 3166   2.949   6.608   6.745
  756SOL    HW1 3167   2.904   6.685   6.700
  756SOL    HW2 3168   3.015   6.643   6.811
  757SOL     OW 3169   0.201   0.289   4.219
  757SOL    HW1 3170   0.240   0.275   4.309
  757SOL    HW2 3171   0.114   0.338   4.227
  758SOL     OW 3172   3.367   0.129   2.822
  758SOL    HW1 3173   3.365   0.133   2.722
  758SOL    HW2 3174   3.357   0.034   2.852
  759SOL     OW 3175   0.358   1.697   2.178
  759SOL    HW1 3176   0.375   1.647   2.094
  759SOL    HW2 3177   0.305   1.779   2.158
  760SOL     OW 3178   6.298   0.164   4.354
  760SOL    HW1 3179   6.272   0.072   4.325
  760SOL    HW2 3180   6.375   0.159   4.417
  761SOL     OW 3181   5.233   4.059   6.222
  761SOL    HW1 3182   5.180   4.138   6.251
  761SOL    HW2 3183   5.225   4.047   6.123
  762SOL     OW 3184   1.954   6.845   4.397
  762SOL    HW1 3185   2.027   6.847   4.465
  762SOL    HW2 3186   1.866   6.835   4.442
  763SOL     OW 3187   4.261   5.141   5.948
  763SOL    HW1 3188   4.197   5.105   6.015
  763SOL    HW2 3189   4.243   5.239   5.934
  764SOL     OW 3190   5.353   0.815   5.188
  764SOL    HW1 3191   5.376   0.755   5.112
  764SOL    HW2 3192   5.289   0.768   5.250
  765SOL     OW 3193   1.879   5.579   1.694
  765SOL    HW1 3194   1.951   5.648   1.704
  765SOL    HW2 3195   1.840   5.584   1.602
  766SOL     OW 3196   2.629   2.625   5.967
  766SOL    HW1 3197   2.604   2.555   5.900
  766SOL    HW2 3198   2.618   2.588   6.060
  767SOL     OW 3199   6.529   5.773   2.263
  767SOL    HW1 3200   6.592   5.850   2.268
  767SOL    HW2 3201   6.560   5.710   2.191
  768SOL     OW 3202   2.496   6.210   2.546
  768SOL    HW1 3203   2.419   6.162   2.588
  768SOL    HW2 3204   2.499   6.190   2.448
  769SOL     OW 3205   2.068   0.684   5.325
  769SOL    HW1 3206   1.982   0.698   5.276
  769SOL    HW2 3207   2.145   0.706   5.264
  770SOL     OW 3208   1.804   4.236   3.217
  770SOL    HW1 3209   1.891   4.242   3.267
  770SOL    HW2 3210   1.767   4.328   3.204
  771SOL     OW 3211   1.420   5.074   3.015
  771SOL    HW1 3212   1.324   5.054   3.035
  771SOL    HW2 3213   1.456   5.004   2.953
  772SOL     OW 3214   5.308   5.507   6.935
  772SOL    HW1 3215   5.404   5.497   6.908
  772SOL    HW2 3216   5.258   5.557   6.864
  773SOL     OW 3217   0.052   3.815   3.635
  773SOL    HW1 3218   7.016   3.808   3.716
  773SOL    HW2 3219   0.013   3.883   3.572
  774SOL     OW 3220   2.126   1.588   2.176
  774SOL    HW1 3221   2.059   1.516   2.194
  774SOL    HW2 3222   2.207   1.573   2.233
  775SOL     OW 3223   1.820   2.793   3.542
  775SOL    HW1 3224   1.897   2.758   3.489
  775SOL    HW2 3225   1.765   2.716   3.575
  776SOL     OW 3226   1.179   6.918   5.984
  776SOL    HW1 3227   1.182   7.010   5.945
  776SOL    HW2 3228   1.141   6.921   6.076
  777SOL     OW 3229   1.972   4.459   1.914
  777SOL    HW1 3230   2.021   4.392   1.858
  777SOL    HW2 3231   1.906   4.508   1.857
  778SOL     OW 3232   2.627   1.225   1.894
  778SOL    HW1 3233   2.542   1.194   1.936
  778SOL    HW2 3234   2.705   1.180   1.938
  779SOL     OW 3235   6.394   2.659   2.142
  779SOL    HW1 3236   6.413   2.561   2.147
  779SOL    HW2 3237   6.379   2.685   2.046
  780SOL     OW 3238   0.559   3.693   3.761
  780SOL    HW1 3239   0.594   3.700   3.854
  780SOL    HW2 3240   0.584   3.775   3.709
  781SOL     OW 3241   6.519   6.959   0.117
  781SOL    HW1 3242   6.466   6.891   0.065
  781SOL    HW2 3243   6.586   6.912   0.174
  782SOL     OW 3244   1.136   3.774   6.594
  782SOL    HW1 3245   1.236   3.776   6.588
  782SOL    HW2 3246   1.097   3.806   6.507
  783SOL     OW 3247   4.865   4.869   2.172
  783SOL    HW1 3248   4.898   4.852   2.265
  783SOL    HW2 3249   4.917   4.813   2.108
  784SOL     OW 3250   4.748   4.825   0.639
  784SOL    HW1 3251   4.820   4.851   0.575
  784SOL    HW2 3252   4.781   4.837   0.733
  785SOL     OW 3253   0.239   2.581   3.392
  785SOL    HW1 3254   0.178   2.520   3.442
  785SOL    HW2 3255   0.260   2.541   3.303
  786SOL     OW 3256   1.304   0.583   2.872
  786SOL    HW1 3257   1.323   0.549   2.779
  786SOL    HW2 3258   1.250   0.667   2.866
  787SOL     OW 3259   1.602   0.196   6.965
  787SOL    HW1 3260   1.582   0.146   0.027
  787SOL    HW2 3261   1.622   0.131   6.892
  788SOL     OW 3262   3.612   1.667   0.059
  788SOL    HW1 3263   3.524   1.656   0.105
  788SOL    HW2 3264   3.635   1.583   0.011
  789SOL     OW 3265   4.604   4.124   1.055
  789SOL    HW1 3266   4.549   4.109   0.973
  789SOL    HW2 3267   4.641   4.216   1.054
  790SOL     OW 3268   2.252   0.992   3.335
  790SOL    HW1 3269   2.164   0.957   3.301
  790SOL    HW2 3270   2.238   1.040   3.422
  791SOL     OW 3271   1.571   5.679   4.223
  791SOL    HW1 3272   1.595   5.768   4.261
  791SOL    HW2 3273   1.542   5.689   4.128
  792SOL     OW 3274   0.681   0.740   1.236
  792SOL    HW1 3275   0.776   0.710   1.239
  792SOL    HW2 3276   0.672   0.828   1.282
  793SOL     OW 3277   4.809   5.002   3.399
  793SOL    HW1 3278   4.899   5.026   3.363
  793SOL    HW2 3279   4.810   5.010   3.499
  794SOL     OW 3280   2.859   4.143   5.576
  794SOL    HW1 3281   2.860   4.175   5.481
  794SOL    HW2 3282   2.835   4.046   5.578
  795SOL     OW 3283   3.318   6.859   4.494
  795SOL    HW1 3284   3.372   6.929   4.541
  795SOL    HW2 3285   3.340   6.861   4.396
  796SOL     OW 3286   0.050   2.233   6.333
  796SOL    HW1 3287   0.125   2.204   6.275
  796SOL    HW2 3288   0.035   2.165   6.405
  797SOL     OW 3289   5.687   2.536   0.767
  797SOL    HW1 3290   5.732   2.500   0.849
  797SOL    HW2 3291   5.678   2.464   0.699
  798SOL     OW 3292   3.441   6.019   2.266
  798SOL    HW1 3293   3.455   6.014   2.365
  798SOL    HW2 3294   3.522   6.059   2.223
  799SOL     OW 3295   0.333   6.879   6.199
  799SOL    HW1 3296   0.346   6.921   6.109
  799SOL    HW2 3297   0.251   6.917   6.242
  800SOL     OW 3298   5.465   1.841   2.985
  800SOL    HW1 3299   5.439   1.744   2.979
  800SOL    HW2 3300   5.522   1.855   3.066
  801SOL     OW 3301   1.978   4.386   4.565
  801SOL    HW1 3302   1.986   4.304   4.508
  801SOL    HW2 3303   2.049   4.385   4.636
  802SOL     OW 3304   2.741   1.980   1.145
  802SOL    HW1 3305   2.722   2.013   1.237
  802SOL    HW2 3306   2.771   2.057   1.088
  803SOL     OW 3307   0.986   0.287   5.705
  803SOL    HW1 3308   0.912   0.223   5.682
  803SOL    HW2 3309   0.956   0.345   5.781
  804SOL     OW 3310   5.862   6.073   6.911
  804SOL    HW1 3311   5.909   5.991   6.878
  804SOL    HW2 3312   5.836   6.061   7.006
  805SOL     OW 3313   3.322   0.728   3.977
  805SOL    HW1 3314   3.317   0.744   4.075
  805SOL    HW2 3315   3.306   0.814   3.928
  806SOL     OW 3316   4.738   1.520   4.144
  806SOL    HW1 3317   4.774   1.461   4.071
  806SOL    HW2 3318   4.796   1.601   4.152
  807SOL     OW 3319   1.366   1.220   5.077
  807SOL    HW1 3320   1.275   1.191   5.048
  807SOL    HW2 3321   1.358   1.273   5.161
  808SOL     OW 3322   3.980   3.731   6.300
  808SOL    HW1 3323   3.886   3.765   6.303
  808SOL    HW2 3324   4.018   3.728   6.392
  809SOL     OW 3325   0.662   4.716   1.515
  809SOL    HW1 3326   0.589   4.648   1.521
  809SOL    HW2 3327   0.625   4.800   1.474
  810SOL     OW 3328   3.438   3.632   1.040
  810SOL    HW1 3329   3.341   3.635   1.065
  810SOL    HW2 3330   3.470   3.725   1.021
  811SOL     OW 3331   5.186   5.482   5.330
  811SOL    HW1 3332   5.205   5.431   5.413
  811SOL    HW2 3333   5.128   5.561   5.351
  812SOL     OW 3334   0.107   0.718   2.377
  812SOL    HW1 3335   0.080   0.627   2.410
  812SOL    HW2 3336   0.081   0.727   2.280
  813SOL     OW 3337   4.194   0.179   4.069
  813SOL    HW1 3338   4.206   0.088   4.109
  813SOL    HW2 3339   4.150   0.170   3.979
  814SOL     OW 3340   5.721   6.415   2.770
  814SOL    HW1 3341   5.806   6.459   2.741
  814SOL    HW2 3342   5.649   6.484   2.777
  815SOL     OW 3343   0.521   3.433   3.379
  815SOL    HW1 3344   0.540   3.480   3.293
  815SOL    HW2 3345   0.581   3.468   3.451
  816SOL     OW 3346   6.326   6.148   0.553
  816SOL    HW1 3347   6.284   6.237   0.575
  816SOL    HW2 3348   6.329   6.136   0.454
  817SOL     OW 3349   1.690   5.109   0.922
  817SOL    HW1 3350   1.790   5.115   0.917
  817SOL    HW2 3351   1.650   5.195   0.891
  818SOL     OW 3352   6.037   2.646   2.903
  818SOL    HW1 3353   5.993   2.700   2.832
  818SOL    HW2 3354   6.061   2.704   2.980
  819SOL     OW 3355   6.115   2.868   2.301
  819SOL    HW1 3356   6.085   2.789   2.247
  819SOL    HW2 3357   6.209   2.853   2.331
  820SOL     OW 3358   3.638   2.115   4.859
  820SOL    HW1 3359   3.737   2.124   4.863
  820SOL    HW2 3360   3.603   2.088   4.949
  821SOL     OW 3361   0.385   4.292   1.166
  821SOL    HW1 3362   0.373   4.194   1.148
  821SOL    HW2 3363   0.336   4.316   1.250
  822SOL     OW 3364   1.158   3.824   3.723
  822SOL    HW1 3365   1.157   3.873   3.810
  822SOL    HW2 3366   1.149   3.726   3.739
  823SOL     OW 3367   5.150   3.988   6.685
  823SOL    HW1 3368   5.174   3.945   6.598
  823SOL    HW2 3369   5.090   3.927   6.736
  824SOL     OW 3370   4.566   1.575   6.882
  824SOL    HW1 3371   4.612   1.519   6.813
  824SOL    HW2 3372   4.468   1.576   6.865
  825SOL     OW 3373   6.290   4.738   1.283
  825SOL    HW1 3374   6.353   4.734   1.361
  825SOL    HW2 3375   6.339   4.767   1.202
  826SOL     OW 3376   4.072   3.093   5.849
  826SOL    HW1 3377   4.033   3.177   5.811
  826SOL    HW2 3378   4.169   3.107   5.868
  827SOL     OW 3379   2.718   4.496   5.602
  827SOL    HW1 3380   2.641   4.556   5.623
  827SOL    HW2 3381   2.781   4.543   5.540
  828SOL     OW 3382   5.625   6.245   0.346
  828SOL    HW1 3383   5.609   6.182   0.269
  828SOL    HW2 3384   5.553   6.313   0.349
  829SOL     OW 3385   3.793   3.657   2.520
  829SOL    HW1 3386   3.877   3.698   2.485
  829SOL    HW2 3387   3.752   3.718   2.588
  830SOL     OW 3388   5.360   4.787   6.726
  830SOL    HW1 3389   5.327   4.693   6.718
  830SOL    HW2 3390   5.423   4.793   6.804
  831SOL     OW 3391   6.654   0.404   0.311
  831SOL    HW1 3392   6.585   0.459   0.359
  831SOL    HW2 3393   6.610   0.325   0.269
  832SOL     OW 3394   4.298   1.080   2.377
  832SOL    HW1 3395   4.293   1.008   2.446
  832SOL    HW2 3396   4.218   1.139   2.386
  833SOL     OW 3397   1.040   3.943   6.392
  833SOL    HW1 3398   1.055   3.902   6.302
  833SOL    HW2 3399   0.965   4.009   6.386
  834SOL     OW 3400   4.048   4.155   0.904
  834SOL    HW1 3401   4.072   4.170   1.000
  834SOL    HW2 3402   3.995   4.071   0.896
  835SOL     OW 3403   3.565   0.082   5.900
  835SOL    HW1 3404   3.591   7.020   5.947
  835SOL    HW2 3405   3.467   0.080   5.881
  836SOL     OW 3406   4.006   6.073   5.506
  836SOL    HW1 3407   4.014   6.167   5.539
  836SOL    HW2 3408   3.933   6.026   5.556
  837SOL     OW 3409   5.369   0.643   1.196
  837SOL    HW1 3410   5.398   0.627   1.291
  837SOL    HW2 3411   5.325   0.560   1.161
  838SOL     OW 3412   2.295   0.728   4.596
  838SOL    HW1 3413   2.354   0.655   4.560
  838SOL    HW2 3414   2.301   0.808   4.536
  839SOL     OW 3415   1.416   1.711   2.471
  839SOL    HW1 3416   1.495   1.772   2.463
  839SOL    HW2 3417   1.370   1.703   2.383
  840SOL     OW 3418   7.001   5.720   0.213
  840SOL    HW1 3419   6.908   5.713   0.177
  840SOL    HW2 3420   0.021   5.629   0.215
  841SOL     OW 3421   3.503   4.947   6.936
  841SOL    HW1 3422   3.404   4.937   6.929
  841SOL    HW2 3423   3.524   5.015   7.006
  842SOL     OW 3424   3.998   0.473   4.288
  842SOL    HW1 3425   3.906   0.435   4.274
  842SOL    HW2 3426   4.049   0.468   4.202
  843SOL     OW 3427   0.769   0.980   1.412
  843SOL    HW1 3428   0.771   1.035   1.328
  843SOL    HW2 3429   0.843   1.010   1.472
  844SOL     OW 3430   5.770   0.583   0.562
  844SOL    HW1 3431   5.810   0.643   0.632
  844SOL    HW2 3432   5.814   0.493   0.567
  845SOL     OW 3433   4.854   4.328   4.334
  845SOL    HW1 3434   4.799   4.248   4.357
  845SOL    HW2 3435   4.934   4.333   4.394
  846SOL     OW 3436   1.983   1.621   6.133
  846SOL    HW1 3437   1.931   1.546   6.092
  846SOL    HW2 3438   2.080   1.611   6.109
  847SOL     OW 3439   1.067   2.894   1.495
  847SOL    HW1 3440   0.986   2.834   1.495
  847SOL    HW2 3441   1.068   2.948   1.411
  848SOL     OW 3442   6.450   0.213   6.126
  848SOL    HW1 3443   6.411   0.303   6.106
  848SOL    HW2 3444   6.379   0.154   6.164
  849SOL     OW 3445   6.690   3.811   5.850
  849SOL    HW1 3446   6.743   3.728   5.832
  849SOL    HW2 3447   6.603   3.787   5.892
  850SOL     OW 3448   5.120   0.981   3.490
  850SOL    HW1 3449   5.199   1.033   3.524
  850SOL    HW2 3450   5.146   0.934   3.405
  851SOL     OW 3451   6.852   1.961   2.735
  851SOL    HW1 3452   6.924   1.894   2.752
  851SOL    HW2 3453   6.763   1.918   2.748
  852SOL     OW 3454   0.808   3.696   0.174
  852SOL    HW1 3455   0.901   3.683   0.209
  852SOL    HW2 3456   0.742   3.665   0.242
  853SOL     OW 3457   0.798   4.768   0.898
  853SOL    HW1 3458   0.893   4.780   0.867
  853SOL    HW2 3459   0.772   4.672   0.889
  854SOL     OW 3460   5.616   5.006   0.874
  854SOL    HW1 3461   5.590   5.053   0.958
  854SOL    HW2 3462   5.683   4.935   0.895
  855SOL     OW 3463   6.495   0.047   1.836
  855SOL    HW1 3464   6.502   6.971   1.818
  855SOL    HW2 3465   6.440   0.062   1.918
  856SOL     OW 3466   1.136   2.405   5.632
  856SOL    HW1 3467   1.135   2.382   5.729
  856SOL    HW2 3468   1.192   2.487   5.618
  857SOL     OW 3469   5.927   4.751   2.235
  857SOL    HW1 3470   5.969   4.678   2.181
  857SOL    HW2 3471   5.832   4.727   2.254
  858SOL     OW 3472   2.476   3.322   1.217
  858SOL    HW1 3473   2.386   3.278   1.226
  858SOL    HW2 3474   2.468   3.419   1.240
  859SOL     OW 3475   5.810   6.519   4.907
  859SOL    HW1 3476   5.765   6.552   4.990
  859SOL    HW2 3477   5.858   6.595   4.862
  860SOL     OW 3478   6.007   3.131   0.590
  860SOL    HW1 3479   6.001   3.112   0.492
  860SOL    HW2 3480   6.086   3.084   0.629
  861SOL     OW 3481   2.571   5.920   3.321
  861SOL    HW1 3482   2.548   5.835   3.370
  861SOL    HW2 3483   2.509   5.992   3.351
  862SOL     OW 3484   1.617   3.656   4.711
  862SOL    HW1 3485   1.701   3.708   4.696
  862SOL    HW2 3486   1.637   3.576   4.768
  863SOL     OW 3487   5.971   1.576   0.694
  863SOL    HW1 3488   5.993   1.557   0.599
  863SOL    HW2 3489   5.878   1.612   0.701
  864SOL     OW 3490   4.390   5.464   4.058
  864SOL    HW1 3491   4.442   5.416   3.987
  864SOL    HW2 3492   4.453   5.495   4.129
  865SOL     OW 3493   1.572   6.441   5.874
  865SOL    HW1 3494   1.544   6.345   5.871
  865SOL    HW2 3495   1.609   6.461   5.965
  866SOL     OW 3496   2.518   1.818   2.412
  866SOL    HW1 3497   2.569   1.745   2.458
  866SOL    HW2 3498   2.577   1.863   2.345
  867SOL     OW 3499   4.881   3.643   0.578
  867SOL    HW1 3500   4.783   3.661   0.591
  867SOL    HW2 3501   4.908   3.564   0.633
  868SOL     OW 3502   5.727   1.268   0.570
  868SOL    HW1 3503   5.742   1.232   0.662
  868SOL    HW2 3504   5.668   1.205   0.519
  869SOL     OW 3505   0.536   4.261   3.086
  869SOL    HW1 3506   0.537   4.357   3.057
  869SOL    HW2 3507   0.503   4.256   3.181
  870SOL     OW 3508   4.004   2.819   0.432
  870SOL    HW1 3509   3.929   2.884   0.434
  870SOL    HW2 3510   4.086   2.863   0.394
  871SOL     OW 3511   4.367   2.385   2.430
  871SOL    HW1 3512   4.313   2.311   2.390
  871SOL    HW2 3513   4.423   2.428   2.359
  872SOL     OW 3514   5.502   3.070   4.000
  872SOL    HW1 3515   5.435   3.026   3.940
  872SOL    HW2 3516   5.590   3.023   3.991
  873SOL     OW 3517   6.013   6.737   4.388
  873SOL    HW1 3518   5.922   6.699   4.371
  873SOL    HW2 3519   6.031   6.737   4.486
  874SOL     OW 3520   0.975   4.431   6.054
  874SOL    HW1 3521   1.038   4.475   5.991
  874SOL    HW2 3522   0.889   4.483   6.057
  875SOL     OW 3523   4.713   4.045   0.547
  875SOL    HW1 3524   4.762   3.981   0.488
  875SOL    HW2 3525   4.764   4.130   0.553
  876SOL     OW 3526   0.871   4.501   2.234
  876SOL    HW1 3527   0.776   4.512   2.205
  876SOL    HW2 3528   0.905   4.587   2.272
  877SOL     OW 3529   3.655   4.306   5.851
  877SOL    HW1 3530   3.709   4.231   5.814
  877SOL    HW2 3531   3.676   4.390   5.802
  878SOL     OW 3532   3.407   6.319   5.317
  878SOL    HW1 3533   3.323   6.335   5.267
  878SOL    HW2 3534   3.387   6.312   5.415
  879SOL     OW 3535   3.286   1.932   0.731
  879SOL    HW1 3536   3.256   2.023   0.704
  879SOL    HW2 3537   3.353   1.940   0.805
  880SOL     OW 3538   3.158   3.851   4.350
  880SOL    HW1 3539   3.148   3.799   4.434
  880SOL    HW2 3540   3.186   3.945   4.372
  881SOL     OW 3541   5.210   4.040   5.417
  881SOL    HW1 3542   5.132   4.102   5.406
  881SOL    HW2 3543   5.207   3.970   5.346
  882SOL     OW 3544   1.032   2.496   4.706
  882SOL    HW1 3545   1.025   2.437   4.786
  882SOL    HW2 3546   0.941   2.518   4.672
  883SOL     OW 3547   4.215   0.208   0.150
  883SOL    HW1 3548   4.205   0.176   0.244
  883SOL    HW2 3549   4.180   0.139   0.087
  884SOL     OW 3550   0.003   4.226   0.120
  884SOL    HW1 3551   0.014   4.228   0.021
  884SOL    HW2 3552   0.066   4.293   0.161
  885SOL     OW 3553   4.992   6.270   5.817
  885SOL    HW1 3554   4.934   6.192   5.792
  885SOL    HW2 3555   4.961   6.308   5.904
  886SOL     OW 3556   4.111   0.981   1.148
  886SOL    HW1 3557   4.182   1.013   1.211
  886SOL    HW2 3558   4.141   0.997   1.054
  887SOL     OW 3559   3.957   5.420   3.504
  887SOL    HW1 3560   3.976   5.518   3.512
  887SOL    HW2 3561   4.035   5.374   3.461
  888SOL     OW 3562   6.867   6.120   2.646
  888SOL    HW1 3563   6.864   6.042   2.584
  888SOL    HW2 3564   6.779   6.130   2.692
  889SOL     OW 3565   0.439   0.388   6.175
  889SOL    HW1 3566   0.461   0.465   6.234
  889SOL    HW2 3567   0.497   0.310   6.199
  890SOL     OW 3568   1.972   4.873   2.123
  890SOL    HW1 3569   1.905   4.876   2.197
  890SOL    HW2 3570   1.964   4.957   2.069
  891SOL     OW 3571   6.280   3.855   0.376
  891SOL    HW1 3572   6.232   3.770   0.397
  891SOL    HW2 3573   6.319   3.848   0.283
  892SOL     OW 3574   3.912   4.063   5.090
  892SOL    HW1 3575   3.981   4.022   5.150
  892SOL    HW2 3576   3.881   4.150   5.130
  893SOL     OW 3577   1.857   0.232   2.812
  893SOL    HW1 3578   1.954   0.211   2.823
  893SOL    HW2 3579   1.843   0.330   2.825
  894SOL     OW 3580   1.329   2.817   3.096
  894SOL    HW1 3581   1.408   2.806   3.036
  894SOL    HW2 3582   1.310   2.731   3.143
  895SOL     OW 3583   1.678   5.708   3.374
  895SOL    HW1 3584   1.648   5.779   3.438
  895SOL    HW2 3585   1.761   5.664   3.408
  896SOL     OW 3586   5.912   6.108   1.654
  896SOL    HW1 3587   5.942   6.042   1.585
  896SOL    HW2 3588   5.977   6.109   1.730
  897SOL     OW 3589   4.663   0.489   6.858
  897SOL    HW1 3590   4.578   0.487   6.912
  897SOL    HW2 3591   4.641   0.515   6.764
  898SOL     OW 3592   3.545   5.973   2.528
  898SOL    HW1 3593   3.463   5.963   2.584
  898SOL    HW2 3594   3.612   6.030   2.576
  899SOL     OW 3595   0.224   5.670   0.526
  899SOL    HW1 3596   0.141   5.702   0.572
  899SOL    HW2 3597   0.301   5.729   0.552
  900SOL     OW 3598   4.577   6.241   6.489
  900SOL    HW1 3599   4.576   6.273   6.394
  900SOL    HW2 3600   4.483   6.233   6.522
  901SOL     OW 3601   1.383   0.718   4.735
  901SOL    HW1 3602   1.353   0.781   4.806
  901SOL    HW2 3603   1.435   0.643   4.775
  902SOL     OW 3604   0.753   2.749   1.218
  902SOL    HW1 3605   0.804   2.691   1.154
  902SOL    HW2 3606   0.733   2.836   1.174
  903SOL     OW 3607   0.581   2.792   6.421
  903SOL    HW1 3608   0.566   2.704   6.466
  903SOL    HW2 3609   0.504   2.811   6.360
  904SOL     OW 3610   2.243   2.629   2.462
  904SOL    HW1 3611   2.322   2.610   2.404
  904SOL    HW2 3612   2.272   2.686   2.540
  905SOL     OW 3613   5.342   4.474   6.406
  905SOL    HW1 3614   5.349   4.527   6.322
  905SOL    HW2 3615   5.292   4.389   6.388
  906SOL     OW 3616   1.326   3.032   6.639
  906SOL    HW1 3617   1.424   3.017   6.655
  906SOL    HW2 3618   1.311   3.047   6.541
  907SOL     OW 3619   5.278   2.573   2.156
  907SOL    HW1 3620   5.189   2.556   2.197
  907SOL    HW2 3621   5.269   2.643   2.085
  908SOL     OW 3622   2.757   5.020   2.723
  908SOL    HW1 3623   2.698   5.069   2.659
  908SOL    HW2 3624   2.712   4.935   2.752
  909SOL     OW 3625   3.269   5.678   1.854
  909SOL    HW1 3626   3.177   5.708   1.879
  909SOL    HW2 3627   3.337   5.724   1.912
  910SOL     OW 3628   2.970   0.734   0.941
  910SOL    HW1 3629   2.916   0.685   0.873
  910SOL    HW2 3630   3.032   0.669   0.986
  911SOL     OW 3631   0.609   5.454   6.689
  911SOL    HW1 3632   0.702   5.446   6.724
  911SOL    HW2 3633   0.556   5.513   6.750
  912SOL     OW 3634   5.009   0.606   3.618
  912SOL    HW1 3635   5.025   0.699   3.652
  912SOL    HW2 3636   5.097   0.560   3.605
  913SOL     OW 3637   2.644   1.063   3.929
  913SOL    HW1 3638   2.630   0.995   3.857
  913SOL    HW2 3639   2.694   1.141   3.893
  914SOL     OW 3640   2.568   5.827   5.460
  914SOL    HW1 3641   2.649   5.849   5.406
  914SOL    HW2 3642   2.488   5.822   5.400
  915SOL     OW 3643   1.237   3.406   0.833
  915SOL    HW1 3644   1.330   3.416   0.799
  915SOL    HW2 3645   1.239   3.381   0.930
  916SOL     OW 3646   2.258   2.907   2.354
  916SOL    HW1 3647   2.324   2.948   2.292
  916SOL    HW2 3648   2.237   2.814   2.324
  917SOL     OW 3649   6.059   1.222   2.787
  917SOL    HW1 3650   6.079   1.215   2.689
  917SOL    HW2 3651   6.145   1.222   2.838
  918SOL     OW 3652   3.139   0.060   0.982
  918SOL    HW1 3653   3.048   0.028   0.953
  918SOL    HW2 3654   3.174   0.126   0.916
  919SOL     OW 3655   6.332   6.216   3.616
  919SOL    HW1 3656   6.409   6.230   3.679
  919SOL    HW2 3657   6.277   6.139   3.649
  920SOL     OW 3658   2.266   4.575   2.761
  920SOL    HW1 3659   2.322   4.609   2.837
  920SOL    HW2 3660   2.203   4.505   2.795
  921SOL     OW 3661   4.338   4.604   3.243
  921SOL    HW1 3662   4.359   4.619   3.146
  921SOL    HW2 3663   4.388   4.524   3.276
  922SOL     OW 3664   3.355   3.758   5.367
  922SOL    HW1 3665   3.418   3.811   5.423
  922SOL    HW2 3666   3.328   3.810   5.286
  923SOL     OW 3667   2.834   4.562   5.982
  923SOL    HW1 3668   2.881   4.487   5.936
  923SOL    HW2 3669   2.737   4.560   5.959
  924SOL     OW 3670   5.898   2.475   3.090
  924SOL    HW1 3671   5.888   2.533   3.009
  924SOL    HW2 3672   5.828   2.404   3.090
  925SOL     OW 3673   0.408   1.619   6.626
  925SOL    HW1 3674   0.458   1.701   6.653
  925SOL    HW2 3675   0.383   1.566   6.707
  926SOL     OW 3676   6.216   1.329   0.993
  926SOL    HW1 3677   6.249   1.237   0.973
  926SOL    HW2 3678   6.285   1.396   0.965
  927SOL     OW 3679   5.645   3.900   3.412
  927SOL    HW1 3680   5.551   3.933   3.417
  927SOL    HW2 3681   5.699   3.941   3.486
  928SOL     OW 3682   0.997   6.099   0.479
  928SOL    HW1 3683   1.083   6.058   0.449
  928SOL    HW2 3684   0.921   6.044   0.444
  929SOL     OW 3685   0.462   0.944   1.127
  929SOL    HW1 3686   0.493   0.863   1.176
  929SOL    HW2 3687   0.368   0.930   1.096
  930SOL     OW 3688   5.465   6.044   3.649
  930SOL    HW1 3689   5.421   5.968   3.697
  930SOL    HW2 3690   5.395   6.099   3.603
  931SOL     OW 3691   5.736   1.963   4.078
  931SOL    HW1 3692   5.711   2.007   3.991
  931SOL    HW2 3693   5.756   1.867   4.061
  932SOL     OW 3694   2.537   6.716   3.420
  932SOL    HW1 3695   2.524   6.746   3.325
  932SOL    HW2 3696   2.495   6.783   3.482
  933SOL     OW 3697   1.801   5.847   3.613
  933SOL    HW1 3698   1.794   5.747   3.618
  933SOL    HW2 3699   1.710   5.886   3.598
  934SOL     OW 3700   1.412   6.956   6.377
  934SOL    HW1 3701   1.384   6.860   6.370
  934SOL    HW2 3702   1.468   6.981   6.298
  935SOL     OW 3703   4.338   4.807   4.626
  935SOL    HW1 3704   4.410   4.876   4.617
  935SOL    HW2 3705   4.379   4.716   4.622
  936SOL     OW 3706   1.245   0.044   6.586
  936SOL    HW1 3707   1.197   6.978   6.594
  936SOL    HW2 3708   1.336   0.028   6.548
  937SOL     OW 3709   5.304   1.292   4.978
  937SOL    HW1 3710   5.231   1.350   4.940
  937SOL    HW2 3711   5.270   1.199   4.989
  938SOL     OW 3712   6.324   5.482   5.957
  938SOL    HW1 3713   6.416   5.474   5.919
  938SOL    HW2 3714   6.264   5.527   5.891
  939SOL     OW 3715   6.673   6.657   5.322
  939SOL    HW1 3716   6.659   6.613   5.233
  939SOL    HW2 3717   6.607   6.731   5.334
  940SOL     OW 3718   0.289   3.198   2.038
  940SOL    HW1 3719   0.371   3.195   1.980
  940SOL    HW2 3720   0.232   3.275   2.009
  941SOL     OW 3721   5.330   1.164   6.102
  941SOL    HW1 3722   5.336   1.065   6.114
  941SOL    HW2 3723   5.395   1.209   6.163
  942SOL     OW 3724   4.844   0.198   3.203
  942SOL    HW1 3725   4.799   0.283   3.175
  942SOL    HW2 3726   4.918   0.177   3.139
  943SOL     OW 3727   2.108   3.620   4.287
  943SOL    HW1 3728   2.118   3.538   4.344
  943SOL    HW2 3729   2.071   3.595   4.198
  944SOL     OW 3730   0.439   4.713   5.834
  944SOL    HW1 3731   0.533   4.700   5.805
  944SOL    HW2 3732   0.413   4.809   5.826
  945SOL     OW 3733   6.303   4.869   5.382
  945SOL    HW1 3734   6.208   4.837   5.375
  945SOL    HW2 3735   6.355   4.807   5.440
  946SOL     OW 3736   5.145   2.797   6.102
  946SOL    HW1 3737   5.128   2.854   6.022
  946SOL    HW2 3738   5.180   2.854   6.177
  947SOL     OW 3739   3.725   2.874   3.630
  947SOL    HW1 3740   3.811   2.824   3.635
  947SOL    HW2 3741   3.708   2.920   3.718
  948SOL     OW 3742   3.899   6.953   1.835
  948SOL    HW1 3743   3.877   6.891   1.759
  948SOL    HW2 3744   3.954   6.906   1.903
  949SOL     OW 3745   1.086   6.345   5.961
  949SOL    HW1 3746   1.110   6.301   6.048
  949SOL    HW2 3747   1.074   6.274   5.891
  950SOL     OW 3748   4.572   5.385   2.333
  950SOL    HW1 3749   4.507   5.416   2.263
  950SOL    HW2 3750   4.551   5.429   2.420
  951SOL     OW 3751   2.252   0.839   4.125
  951SOL    HW1 3752   2.306   0.881   4.053
  951SOL    HW2 3753   2.220   0.749   4.095
  952SOL     OW 3754   4.664   1.534   2.795
  952SOL    HW1 3755   4.738   1.576   2.742
  952SOL    HW2 3756   4.694   1.444   2.828
  953SOL     OW 3757   5.527   4.572   3.996
  953SOL    HW1 3758   5.526   4.522   3.909
  953SOL    HW2 3759   5.616   4.558   4.040
  954SOL     OW 3760   3.814   4.865   1.224
  954SOL    HW1 3761   3.860   4.948   1.254
  954SOL    HW2 3762   3.717   4.883   1.209
  955SOL     OW 3763   0.193   3.671   2.899
  955SOL    HW1 3764   0.122   3.738   2.878
  955SOL    HW2 3765   0.261   3.713   2.959
  956SOL     OW 3766   6.605   1.229   2.687
  956SOL    HW1 3767   6.671   1.288   2.734
  956SOL    HW2 3768   6.556   1.282   2.618
  957SOL     OW 3769   6.020   3.894   5.009
  957SOL    HW1 3770   6.097   3.914   5.069
  957SOL    HW2 3771   5.979   3.807   5.035
  958SOL     OW 3772   4.333   1.906   1.442
  958SOL    HW1 3773   4.424   1.871   1.419
  958SOL    HW2 3774   4.310   1.980   1.379
  959SOL     OW 3775   4.716   5.935   2.376
  959SOL    HW1 3776   4.682   5.974   2.291
  959SOL    HW2 3777   4.738   5.839   2.362
  960SOL     OW 3778   1.215   6.438   1.536
  960SOL    HW1 3779   1.123   6.421   1.571
  960SOL    HW2 3780   1.281   6.384   1.588
  961SOL     OW 3781   4.340   6.993   3.759
  961SOL    HW1 3782   4.315   6.965   3.851
  961SOL    HW2 3783   4.369   0.067   3.760
  962SOL     OW 3784   0.498   1.320   5.342
  962SOL    HW1 3785   0.564   1.335   5.415
  962SOL    HW2 3786   0.434   1.248   5.368
  963SOL     OW 3787   6.532   1.574   6.590
  963SOL    HW1 3788   6.590   1.640   6.638
  963SOL    HW2 3789   6.483   1.517   6.656
  964SOL     OW 3790   5.515   4.111   0.319
  964SOL    HW1 3791   5.587   4.092   0.385
  964SOL    HW2 3792   5.429   4.073   0.351
  965SOL     OW 3793   5.158   2.347   1.211
  965SOL    HW1 3794   5.136   2.330   1.115
  965SOL    HW2 3795   5.110   2.430   1.242
  966SOL     OW 3796   5.200   2.419   1.890
  966SOL    HW1 3797   5.253   2.426   1.974
  966SOL    HW2 3798   5.137   2.341   1.896
  967SOL     OW 3799   2.511   4.206   1.377
  967SOL    HW1 3800   2.413   4.209   1.358
  967SOL    HW2 3801   2.541   4.293   1.415
  968SOL     OW 3802   3.594   0.499   1.384
  968SOL    HW1 3803   3.496   0.484   1.375
  968SOL    HW2 3804   3.634   0.426   1.440
  969SOL     OW 3805   3.055   6.464   6.432
  969SOL    HW1 3806   3.057   6.556   6.472
  969SOL    HW2 3807   3.148   6.427   6.432
  970SOL     OW 3808   5.406   0.909   6.135
  970SOL    HW1 3809   5.340   0.872   6.200
  970SOL    HW2 3810   5.406   0.853   6.052
  971SOL     OW 3811   6.715   1.936   3.149
  971SOL    HW1 3812   6.723   1.945   3.248
  971SOL    HW2 3813   6.784   1.991   3.104
  972SOL     OW 3814   5.288   3.302   2.590
  972SOL    HW1 3815   5.298   3.392   2.635
  972SOL    HW2 3816   5.250   3.237   2.655
  973SOL     OW 3817   0.171   4.665   6.697
  973SOL    HW1 3818   0.081   4.696   6.665
  973SOL    HW2 3819   0.239   4.682   6.626
  974SOL     OW 3820   5.347   6.305   2.052
  974SOL    HW1 3821   5.298   6.234   2.002
  974SOL    HW2 3822   5.362   6.275   2.146
  975SOL     OW 3823   1.557   0.032   6.574
  975SOL    HW1 3824   1.541   0.130   6.566
  975SOL    HW2 3825   1.525   7.009   6.491
  976SOL     OW 3826   6.620   3.544   2.954
  976SOL    HW1 3827   6.597   3.501   2.867
  976SOL    HW2 3828   6.691   3.491   2.999
  977SOL     OW 3829   1.107   0.695   2.457
  977SOL    HW1 3830   1.078   0.720   2.365
  977SOL    HW2 3831   1.054   0.747   2.524
  978SOL     OW 3832   4.738   3.375   6.082
  978SOL    HW1 3833   4.677   3.353   6.158
  978SOL    HW2 3834   4.712   3.321   6.001
  979SOL     OW 3835   0.086   2.137   1.159
  979SOL    HW1 3836   0.111   2.094   1.246
  979SOL    HW2 3837   0.140   2.096   1.085
  980SOL     OW 3838   4.276   2.271   3.875
  980SOL    HW1 3839   4.315   2.194   3.926
  980SOL    HW2 3840   4.340   2.301   3.805
  981SOL     OW 3841   0.341   1.649   4.487
  981SOL    HW1 3842   0.248   1.650   4.522
  981SOL    HW2 3843   0.378   1.556   4.494
  982SOL     OW 3844   2.105   2.098   4.903
  982SOL    HW1 3845   2.133   2.194   4.903
  982SOL    HW2 3846   2.088   2.067   4.997
  983SOL     OW 3847   6.214   2.880   4.803
  983SOL    HW1 3848   6.263   2.802   4.762
  983SOL    HW2 3849   6.267   2.963   4.789
  984SOL     OW 3850   2.351   1.975   4.977
  984SOL    HW1 3851   2.321   1.914   5.050
  984SOL    HW2 3852   2.272   2.016   4.933
  985SOL     OW 3853   5.472   4.489   5.016
  985SOL    HW1 3854   5.551   4.491   5.076
  985SOL    HW2 3855   5.461   4.397   4.978
  986SOL     OW 3856   5.809   4.910   1.403
  986SOL    HW1 3857   5.740   4.937   1.335
  986SOL    HW2 3858   5.824   4.986   1.467
  987SOL     OW 3859   4.616   6.847   2.245
  987SOL    HW1 3860   4.598   6.937   2.285
  987SOL    HW2 3861   4.531   6.794   2.241
  988SOL     OW 3862   3.566   3.216   2.178
  988SOL    HW1 3863   3.587   3.250   2.270
  988SOL    HW2 3864   3.580   3.289   2.111
  989SOL     OW 3865   6.074   1.227   6.234
  989SOL    HW1 3866   6.053   1.297   6.166
  989SOL    HW2 3867   6.019   1.242   6.316
  990SOL     OW 3868   4.415   1.758   2.004
  990SOL    HW1 3869   4.425   1.659   2.005
  990SOL    HW2 3870   4.463   1.796   1.925
  991SOL     OW 3871   0.601   3.467   5.313
  991SOL    HW1 3872   0.690   3.457   5.271
  991SOL    HW2 3873   0.604   3.433   5.407
  992SOL     OW 3874   6.941   2.876   2.276
  992SOL    HW1 3875   6.951   2.784   2.316
  992SOL    HW2 3876   6.971   2.944   2.343
  993SOL     OW 3877   0.378   4.683   1.292
  993SOL    HW1 3878   0.419   4.672   1.383
  993SOL    HW2 3879   0.433   4.746   1.238
  994SOL     OW 3880   4.650   4.767   1.056
  994SOL    HW1 3881   4.701   4.832   1.000
  994SOL    HW2 3882   4.619   4.691   0.999
  995SOL     OW 3883   3.557   3.022   5.264
  995SOL    HW1 3884   3.526   3.107   5.308
  995SOL    HW2 3885   3.650   3.035   5.230
  996SOL     OW 3886   3.268   5.144   4.885
  996SOL    HW1 3887   3.267   5.227   4.829
  996SOL    HW2 3888   3.236   5.166   4.977
  997SOL     OW 3889   1.286   0.009   3.541
  997SOL    HW1 3890   1.312   0.043   3.451
  997SOL    HW2 3891   1.340   0.055   3.611
  998SOL     OW 3892   4.806   0.400   4.795
  998SOL    HW1 3893   4.844   0.337   4.727
  998SOL    HW2 3894   4.764   0.478   4.749
  999SOL     OW 3895   4.849   4.382   2.528
  999SOL    HW1 3896   4.838   4.370   2.627
  999SOL    HW2 3897   4.797   4.311   2.481
 1000SOL     OW 3898   2.556   1.432   1.556
 1000SOL    HW1 3899   2.486   1.424   1.627
 1000SOL    HW2 3900   2.614   1.511   1.575
 1001SOL     OW 3901   4.771   5.865   0.509
 1001SOL    HW1 3902   4.747   5.777   0.550
 1001SOL    HW2 3903   4.793   5.930   0.582
 1002SOL     OW 3904   6.303   1.533   1.384
 1002SOL    HW1 3905   6.251   1.466   1.331
 1002SOL    HW2 3906   6.379   1.487   1.430
 1003SOL     OW 3907   2.311   6.549   2.669
 1003SOL    HW1 3908   2.371   6.548   2.589
 1003SOL    HW2 3909   2.365   6.528   2.751
 1004SOL     OW 3910   0.360   6.934   2.469
 1004SOL    HW1 3911   0.288   6.865   2.469
 1004SOL    HW2 3912   0.438   6.900   2.417
 1005SOL     OW 3913   2.213   3.094   4.082
 1005SOL    HW1 3914   2.170   3.024   4.139
 1005SOL    HW2 3915   2.215   3.063   3.987
 1006SOL     OW 3916   0.733   4.565   1.236
 1006SOL    HW1 3917   0.661   4.517   1.184
 1006SOL    HW2 3918   0.819   4.561   1.185
 1007SOL     OW 3919   4.517   0.234   5.404
 1007SOL    HW1 3920   4.540   0.294   5.328
 1007SOL    HW2 3921   4.451   0.279   5.464
 1008SOL     OW 3922   1.143   3.369   5.887
 1008SOL    HW1 3923   1.199   3.389   5.968
 1008SOL    HW2 3924   1.130   3.270   5.880
 1009SOL     OW 3925   0.409   5.526   4.625
 1009SOL    HW1 3926   0.436   5.557   4.716
 1009SOL    HW2 3927   0.451   5.585   4.556
 1010SOL     OW 3928   3.577   2.295   6.346
 1010SOL    HW1 3929   3.667   2.262   6.319
 1010SOL    HW2 3930   3.514   2.287   6.268
 1011SOL     OW 3931   2.119   4.565   2.510
 1011SOL    HW1 3932   2.152   4.524   2.594
 1011SOL    HW2 3933   2.019   4.565   2.510
 1012SOL     OW 3934   6.497   6.663   2.478
 1012SOL    HW1 3935   6.583   6.657   2.427
 1012SOL    HW2 3936   6.442   6.738   2.441
 1013SOL     OW 3937   0.989   1.280   5.935
 1013SOL    HW1 3938   1.047   1.283   5.854
 1013SOL    HW2 3939   0.900   1.241   5.911
 1014SOL     OW 3940   5.993   5.516   5.942
 1014SOL    HW1 3941   5.938   5.568   5.876
 1014SOL    HW2 3942   6.043   5.444   5.894
 1015SOL     OW 3943   2.543   6.918   5.882
 1015SOL    HW1 3944   2.517   6.825   5.908
 1015SOL    HW2 3945   2.588   6.916   5.792
 1016SOL     OW 3946   3.985   3.219   0.029
 1016SOL    HW1 3947   4.008   3.149   6.984
 1016SOL    HW2 3948   3.927   3.180   0.099
 1017SOL     OW 3949   4.023   3.159   1.188
 1017SOL    HW1 3950   4.071   3.115   1.263
 1017SOL    HW2 3951   4.050   3.116   1.101
 1018SOL     OW 3952   0.235   4.272   4.166
 1018SOL    HW1 3953   0.309   4.280   4.101
 1018SOL    HW2 3954   0.147   4.288   4.120
 1019SOL     OW 3955   6.851   6.805   0.677
 1019SOL    HW1 3956   6.936   6.816   0.729
 1019SOL    HW2 3957   6.776   6.788   0.740
 1020SOL     OW 3958   6.932   0.952   1.202
 1020SOL    HW1 3959   6.837   0.980   1.217
 1020SOL    HW2 3960   6.942   0.855   1.224
 1021SOL     OW 3961   5.517   6.793   1.709
 1021SOL    HW1 3962   5.539   6.697   1.730
 1021SOL    HW2 3963   5.518   6.845   1.794
 1022SOL     OW 3964   3.374   4.387   5.301
 1022SOL    HW1 3965   3.283   4.430   5.294
 1022SOL    HW2 3966   3.368   4.291   5.273
 1023SOL     OW 3967   0.840   0.248   2.772
 1023SOL    HW1 3968   0.747   0.241   2.808
 1023SOL    HW2 3969   0.854   0.340   2.735
 1024SOL     OW 3970   0.897   2.559   4.168
 1024SOL    HW1 3971   0.934   2.610   4.090
 1024SOL    HW2 3972   0.826   2.496   4.135
 1025SOL     OW 3973   3.510   3.793   1.466
 1025SOL    HW1 3974   3.425   3.813   1.417
 1025SOL    HW2 3975   3.499   3.710   1.520
 1026SOL     OW 3976   1.905   2.617   1.011
 1026SOL    HW1 3977   1.929   2.654   1.101
 1026SOL    HW2 3978   1.987   2.616   0.953
 1027SOL     OW 3979   3.399   6.322   1.768
 1027SOL    HW1 3980   3.491   6.282   1.764
 1027SOL    HW2 3981   3.334   6.262   1.722
 1028SOL     OW 3982   2.661   6.108   1.296
 1028SOL    HW1 3983   2.654   6.117   1.396
 1028SOL    HW2 3984   2.740   6.160   1.263
 1029SOL     OW 3985   1.636   6.859   6.735
 1029SOL    HW1 3986   1.592   6.934   6.684
 1029SOL    HW2 3987   1.576   6.779   6.735
 1030SOL     OW 3988   3.136   2.796   1.835
 1030SOL    HW1 3989   3.122   2.699   1.815
 1030SOL    HW2 3990   3.233   2.812   1.856
 1031SOL     OW 3991   5.100   4.194   1.185
 1031SOL    HW1 3992   5.197   4.172   1.192
 1031SOL    HW2 3993   5.076   4.207   1.089
 1032SOL     OW 3994   2.184   2.505   5.334
 1032SOL    HW1 3995   2.096   2.466   5.360
 1032SOL    HW2 3996   2.170   2.580   5.269
 1033SOL     OW 3997   1.543   6.595   1.736
 1033SOL    HW1 3998   1.499   6.539   1.665
 1033SOL    HW2 3999   1.526   6.691   1.716
 1034SOL     OW 4000   0.529   4.666   4.551
 1034SOL    HW1 4001   0.528   4.571   4.519
 1034SOL    HW2 4002   0.622   4.692   4.577
 1035SOL     OW 4003   6.994   1.098   5.041
 1035SOL    HW1 4004   6.921   1.057   4.986
 1035SOL    HW2 4005   0.054   1.042   5.034
 1036SOL     OW 4006   3.929   0.680   1.503
 1036SOL    HW1 4007   3.853   0.701   1.565
 1036SOL    HW2 4008   3.908   0.597   1.451
 1037SOL     OW 4009   1.677   1.312   2.124
 1037SOL    HW1 4010   1.694   1.214   2.134
 1037SOL    HW2 4011   1.591   1.326   2.075
 1038SOL     OW 4012   1.347   0.857   5.260
 1038SOL    HW1 4013   1.248   0.845   5.250
 1038SOL    HW2 4014   1.394   0.788   5.204
 1039SOL     OW 4015   3.739   3.828   4.665
 1039SOL    HW1 4016   3.796   3.905   4.693
 1039SOL    HW2 4017   3.685   3.854   4.584
 1040SOL     OW 4018   4.767   1.305   2.885
 1040SOL    HW1 4019   4.867   1.316   2.880
 1040SOL    HW2 4020   4.743   1.213   2.853
 1041SOL     OW 4021   6.998   6.590   3.896
 1041SOL    HW1 4022   6.943   6.620   3.818
 1041SOL    HW2 4023   0.054   6.538   3.864
 1042SOL     OW 4024   4.306   5.105   2.261
 1042SOL    HW1 4025   4.294   5.073   2.167
 1042SOL    HW2 4026   4.402   5.094   2.287
 1043SOL     OW 4027   3.063   2.182   4.691
 1043SOL    HW1 4028   2.981   2.237   4.672
 1043SOL    HW2 4029   3.130   2.238   4.741
 1044SOL     OW 4030   5.923   5.265   2.866
 1044SOL    HW1 4031   5.998   5.216   2.822
 1044SOL    HW2 4032   5.942   5.274   2.964
 1045SOL     OW 4033   4.058   0.064   2.280
 1045SOL    HW1 4034   4.133   0.089   2.219
 1045SOL    HW2 4035   3.972   0.096   2.242
 1046SOL     OW 4036   1.768   0.508   0.501
 1046SOL    HW1 4037   1.673   0.507   0.534
 1046SOL    HW2 4038   1.810   0.596   0.523
 1047SOL     OW 4039   1.793   0.914   3.550
 1047SOL    HW1 4040   1.885   0.880   3.570
 1047SOL    HW2 4041   1.725   0.847   3.582
 1048SOL     OW 4042   3.877   6.447   3.650
 1048SOL    HW1 4043   3.841   6.382   3.583
 1048SOL    HW2 4044   3.830   6.436   3.737
 1049SOL     OW 4045   6.610   6.301   3.768
 1049SOL    HW1 4046   6.698   6.296   3.816
 1049SOL    HW2 4047   6.609   6.383   3.710
 1050SOL     OW 4048   4.154   4.734   1.531
 1050SOL    HW1 4049   4.163   4.745   1.432
 1050SOL    HW2 4050   4.187   4.816   1.577
 1051SOL     OW 4051   1.524   5.937   0.627
 1051SOL    HW1 4052   1.602   5.981   0.674
 1051SOL    HW2 4053   1.479   6.005   0.569
 1052SOL     OW 4054   3.860   0.624   4.827
 1052SOL    HW1 4055   3.898   0.710   4.862
 1052SOL    HW2 4056   3.934   0.567   4.790
 1053SOL     OW 4057   6.153   5.168   2.718
 1053SOL    HW1 4058   6.131   5.072   2.701
 1053SOL    HW2 4059   6.233   5.194   2.663
 1054SOL     OW 4060   3.142   3.814   6.226
 1054SOL    HW1 4061   3.145   3.906   6.187
 1054SOL    HW2 4062   3.047   3.788   6.242
 1055SOL     OW 4063   3.610   6.544   4.293
 1055SOL    HW1 4064   3.539   6.474   4.300
 1055SOL    HW2 4065   3.602   6.608   4.369
 1056SOL     OW 4066   2.340   4.737   6.632
 1056SOL    HW1 4067   2.303   4.679   6.559
 1056SOL    HW2 4068   2.428   4.701   6.662
 1057SOL     OW 4069   2.775   3.055   1.736
 1057SOL    HW1 4070   2.749   3.132   1.678
 1057SOL    HW2 4071   2.873   3.036   1.725
 1058SOL     OW 4072   5.027   1.708   3.059
 1058SOL    HW1 4073   5.045   1.628   3.002
 1058SOL    HW2 4074   5.019   1.789   3.002
 1059SOL     OW 4075   2.829   0.581   1.685
 1059SOL    HW1 4076   2.834   0.562   1.783
 1059SOL    HW2 4077   2.819   0.680   1.671
 1060SOL     OW 4078   6.829   4.314   4.689
 1060SOL    HW1 4079   6.802   4.365   4.607
 1060SOL    HW2 4080   6.854   4.221   4.663
 1061SOL     OW 4081   6.329   3.195   0.481
 1061SOL    HW1 4082   6.277   3.144   0.549
 1061SOL    HW2 4083   6.331   3.144   0.395
 1062SOL     OW 4084   5.358   4.881   6.290
 1062SOL    HW1 4085   5.328   4.879   6.195
 1062SOL    HW2 4086   5.451   4.916   6.296
 1063SOL     OW 4087   1.048   4.667   1.463
 1063SOL    HW1 4088   1.114   4.663   1.388
 1063SOL    HW2 4089   1.005   4.578   1.475
 1064SOL     OW 4090   1.346   4.202   2.434
 1064SOL    HW1 4091   1.419   4.179   2.498
 1064SOL    HW2 4092   1.333   4.126   2.369
 1065SOL     OW 4093   3.985   0.463   3.523
 1065SOL    HW1 4094   3.929   0.443   3.603
 1065SOL    HW2 4095   4.076   0.425   3.536
 1066SOL     OW 4096   4.907   6.631   3.355
 1066SOL    HW1 4097   4.930   6.573   3.434
 1066SOL    HW2 4098   4.847   6.581   3.293
 1067SOL     OW 4099   0.354   3.584   1.074
 1067SOL    HW1 4100   0.436   3.629   1.110
 1067SOL    HW2 4101   0.333   3.504   1.130
 1068SOL     OW 4102   5.999   5.325   3.120
 1068SOL    HW1 4103   6.073   5.393   3.108
 1068SOL    HW2 4104   5.968   5.326   3.215
 1069SOL     OW 4105   4.369   5.333   1.112
 1069SOL    HW1 4106   4.302   5.297   1.178
 1069SOL    HW2 4107   4.355   5.290   1.023
 1070SOL     OW 4108   7.010   6.820   2.398
 1070SOL    HW1 4109   6.986   6.847   2.491
 1070SOL    HW2 4110   0.060   6.751   2.400
 1071SOL     OW 4111   1.166   0.109   4.193
 1071SOL    HW1 4112   1.114   0.097   4.109
 1071SOL    HW2 4113   1.184   0.207   4.208
 1072SOL     OW 4114   1.428   0.825   0.948
 1072SOL    HW1 4115   1.356   0.796   1.012
 1072SOL    HW2 4116   1.455   0.919   0.969
 1073SOL     OW 4117   5.398   0.010   2.315
 1073SOL    HW1 4118   5.343   0.016   2.232
 1073SOL    HW2 4119   5.372   6.952   2.368
 1074SOL     OW 4120   2.152   5.220   1.450
 1074SOL    HW1 4121   2.078   5.170   1.495
 1074SOL    HW2 4122   2.238   5.171   1.465
 1075SOL     OW 4123   4.837   0.331   4.101
 1075SOL    HW1 4124   4.751   0.360   4.143
 1075SOL    HW2 4125   4.845   0.372   4.010
 1076SOL     OW 4126   6.960   2.278   5.460
 1076SOL    HW1 4127   6.996   2.196   5.416
 1076SOL    HW2 4128   6.865   2.293   5.433
 1077SOL     OW 4129   5.525   0.523   1.413
 1077SOL    HW1 4130   5.543   0.520   1.511
 1077SOL    HW2 4131   5.498   0.432   1.382
 1078SOL     OW 4132   1.223   1.052   2.656
 1078SOL    HW1 4133   1.311   1.012   2.629
 1078SOL    HW2 4134   1.149   1.002   2.612
 1079SOL     OW 4135   1.899   6.507   2.048
 1079SOL    HW1 4136   1.987   6.505   2.000
 1079SOL    HW2 4137   1.875   6.602   2.071
 1080SOL     OW 4138   2.047   4.268   3.351
 1080SOL    HW1 4139   2.013   4.234   3.439
 1080SOL    HW2 4140   2.119   4.208   3.318
 1081SOL     OW 4141   0.596   5.611   5.492
 1081SOL    HW1 4142   0.652   5.534   5.462
 1081SOL    HW2 4143   0.499   5.588   5.482
 1082SOL     OW 4144   4.426   2.235   5.170
 1082SOL    HW1 4145   4.409   2.271   5.079
 1082SOL    HW2 4146   4.349   2.178   5.199
 1083SOL     OW 4147   4.022   3.684   0.449
 1083SOL    HW1 4148   3.935   3.720   0.415
 1083SOL    HW2 4149   4.097   3.725   0.396
 1084SOL     OW 4150   5.930   6.345   6.915
 1084SOL    HW1 4151   5.895   6.397   6.993
 1084SOL    HW2 4152   5.926   6.248   6.935
 1085SOL     OW 4153   1.575   3.655   4.174
 1085SOL    HW1 4154   1.525   3.708   4.242
 1085SOL    HW2 4155   1.515   3.583   4.137
 1086SOL     OW 4156   0.015   5.911   0.419
 1086SOL    HW1 4157   7.016   5.830   0.365
 1086SOL    HW2 4158   0.107   5.944   0.396
 1087SOL     OW 4159   5.689   1.717   4.678
 1087SOL    HW1 4160   5.701   1.808   4.719
 1087SOL    HW2 4161   5.768   1.697   4.619
 1088SOL     OW 4162   0.492   4.271   3.360
 1088SOL    HW1 4163   0.541   4.303   3.440
 1088SOL    HW2 4164   0.405   4.229   3.388
 1089SOL     OW 4165   0.973   6.519   4.369
 1089SOL    HW1 4166   1.030   6.437   4.377
 1089SOL    HW2 4167   0.887   6.495   4.323
 1090SOL     OW 4168   2.767   2.351   3.691
 1090SOL    HW1 4169   2.844   2.316   3.745
 1090SOL    HW2 4170   2.788   2.342   3.594
 1091SOL     OW 4171   3.254   2.098   4.916
 1091SOL    HW1 4172   3.221   2.006   4.936
 1091SOL    HW2 4173   3.182   2.164   4.936
 1092SOL     OW 4174   1.567   3.656   1.303
 1092SOL    HW1 4175   1.560   3.658   1.204
 1092SOL    HW2 4176   1.570   3.749   1.339
 1093SOL     OW 4177   2.313   1.082   2.078
 1093SOL    HW1 4178   2.219   1.104   2.105
 1093SOL    HW2 4179   2.365   1.054   2.158
 1094SOL     OW 4180   0.080   6.862   3.405
 1094SOL    HW1 4181   0.127   6.799   3.467
 1094SOL    HW2 4182   7.022   6.817   3.366
 1095SOL     OW 4183   1.280   2.915   6.318
 1095SOL    HW1 4184   1.331   2.837   6.280
 1095SOL    HW2 4185   1.292   2.994   6.258
 1096SOL     OW 4186   3.599   4.322   1.753
 1096SOL    HW1 4187   3.546   4.399   1.789
 1096SOL    HW2 4188   3.600   4.248   1.820
 1097SOL     OW 4189   2.241   4.635   4.367
 1097SOL    HW1 4190   2.271   4.543   4.392
 1097SOL    HW2 4191   2.161   4.660   4.421
 1098SOL     OW 4192   4.099   3.434   0.143
 1098SOL    HW1 4193   4.020   3.485   0.178
 1098SOL    HW2 4194   4.068   3.357   0.087
 1099SOL     OW 4195   4.088   1.326   5.430
 1099SOL    HW1 4196   4.033   1.406   5.404
 1099SOL    HW2 4197   4.089   1.318   5.530
 1100SOL     OW 4198   3.058   1.916   4.743
 1100SOL    HW1 4199   3.114   1.855   4.688
 1100SOL    HW2 4200   3.072   2.010   4.714
 1101SOL     OW 4201   5.975   2.571   6.668
 1101SOL    HW1 4202   5.982   2.557   6.569
 1101SOL    HW2 4203   6.065   2.594   6.705
 1102SOL     OW 4204   0.426   6.475   4.898
 1102SOL    HW1 4205   0.470   6.515   4.979
 1102SOL    HW2 4206   0.445   6.532   4.818
 1103SOL     OW 4207   4.019   1.756   0.272
 1103SOL    HW1 4208   3.999   1.763   0.369
 1103SOL    HW2 4209   3.955   1.693   0.229
 1104SOL     OW 4210   1.899   2.825   5.944
 1104SOL    HW1 4211   1.949   2.743   5.975
 1104SOL    HW2 4212   1.932   2.904   5.995
 1105SOL     OW 4213   6.706   3.506   5.108
 1105SOL    HW1 4214   6.730   3.449   5.030
 1105SOL    HW2 4215   6.612   3.486   5.138
 1106SOL     OW 4216   0.046   2.557   2.035
 1106SOL    HW1 4217   6.999   2.628   2.021
 1106SOL    HW2 4218   0.117   2.565   1.966
 1107SOL     OW 4219   0.438   0.823   6.858
 1107SOL    HW1 4220   0.425   0.739   6.804
 1107SOL    HW2 4221   0.476   0.799   6.947
 1108SOL     OW 4222   3.592   6.902   5.551
 1108SOL    HW1 4223   3.615   6.990   5.509
 1108SOL    HW2 4224   3.526   6.854   5.494
 1109SOL     OW 4225   4.869   1.268   4.407
 1109SOL    HW1 4226   4.882   1.311   4.318
 1109SOL    HW2 4227   4.912   1.178   4.407
 1110SOL     OW 4228   3.338   1.692   2.995
 1110SOL    HW1 4229   3.299   1.669   3.084
 1110SOL    HW2 4230   3.369   1.787   2.996
 1111SOL     OW 4231   4.628   5.363   6.242
 1111SOL    HW1 4232   4.641   5.458   6.212
 1111SOL    HW2 4233   4.667   5.301   6.174
 1112SOL     OW 4234   4.995   1.687   2.097
 1112SOL    HW1 4235   4.984   1.676   1.998
 1112SOL    HW2 4236   5.052   1.767   2.116
 1113SOL     OW 4237   5.935   4.158   2.278
 1113SOL    HW1 4238   5.906   4.186   2.369
 1113SOL    HW2 4239   6.031   4.184   2.264
 1114SOL     OW 4240   3.708   2.005   6.207
 1114SOL    HW1 4241   3.712   1.961   6.117
 1114SOL    HW2 4242   3.614   2.004   6.241
 1115SOL     OW 4243   4.378   2.907   6.153
 1115SOL    HW1 4244   4.355   3.004   6.148
 1115SOL    HW2 4245   4.447   2.885   6.083
 1116SOL     OW 4246   5.181   0.002   5.781
 1116SOL    HW1 4247   5.192   6.984   5.690
 1116SOL    HW2 4248   5.094   0.051   5.786
 1117SOL     OW 4249   2.545   2.200   2.800
 1117SOL    HW1 4250   2.508   2.108   2.813
 1117SOL    HW2 4251   2.498   2.244   2.723
 1118SOL     OW 4252   2.692   4.514   0.529
 1118SOL    HW1 4253   2.768   4.473   0.580
 1118SOL    HW2 4254   2.693   4.480   0.435
 1119SOL     OW 4255   4.150   4.723   1.237
 1119SOL    HW1 4256   4.099   4.755   1.158
 1119SOL    HW2 4257   4.191   4.634   1.217
 1120SOL     OW 4258   6.110   6.842   6.644
 1120SOL    HW1 4259   6.021   6.863   6.686
 1120SOL    HW2 4260   6.180   6.838   6.716
 1121SOL     OW 4261   5.594   5.063   4.077
 1121SOL    HW1 4262   5.577   5.086   3.981
 1121SOL    HW2 4263   5.665   4.992   4.082
 1122SOL     OW 4264   5.888   2.858   0.571
 1122SOL    HW1 4265   5.966   2.850   0.508
 1122SOL    HW2 4266   5.893   2.945   0.618
 1123SOL     OW 4267   5.114   1.438   2.896
 1123SOL    HW1 4268   5.159   1.386   2.822
 1123SOL    HW2 4269   5.105   1.379   2.976
 1124SOL     OW 4270   0.820   3.462   4.745
 1124SOL    HW1 4271   0.833   3.381   4.688
 1124SOL    HW2 4272   0.874   3.453   4.829
 1125SOL     OW 4273   2.908   2.283   4.078
 1125SOL    HW1 4274   2.899   2.252   4.173
 1125SOL    HW2 4275   2.823   2.327   4.050
 1126SOL     OW 4276   5.801   4.906   6.945
 1126SOL    HW1 4277   5.828   4.908   0.019
 1126SOL    HW2 4278   5.789   5.000   6.912
 1127SOL     OW 4279   5.252   5.495   4.930
 1127SOL    HW1 4280   5.164   5.448   4.921
 1127SOL    HW2 4281   5.305   5.454   5.004
 1128SOL     OW 4282   5.696   1.796   5.076
 1128SOL    HW1 4283   5.716   1.831   4.984
 1128SOL    HW2 4284   5.599   1.774   5.083
 1129SOL     OW 4285   1.616   0.200   0.252
 1129SOL    HW1 4286   1.713   0.219   0.234
 1129SOL    HW2 4287   1.600   0.197   0.351
 1130SOL     OW 4288   2.997   4.700   0.806
 1130SOL    HW1 4289   3.043   4.616   0.775
 1130SOL    HW2 4290   3.005   4.708   0.905
 1131SOL     OW 4291   1.110   5.393   5.221
 1131SOL    HW1 4292   1.111   5.305   5.173
 1131SOL    HW2 4293   1.096   5.377   5.319
 1132SOL     OW 4294   5.104   6.973   2.574
 1132SOL    HW1 4295   5.154   6.987   2.660
 1132SOL    HW2 4296   5.114   0.031   2.515
 1133SOL     OW 4297   1.475   0.514   1.102
 1133SOL    HW1 4298   1.510   0.502   1.195
 1133SOL    HW2 4299   1.415   0.593   1.098
 1134SOL     OW 4300   5.263   0.517   1.845
 1134SOL    HW1 4301   5.327   0.530   1.921
 1134SOL    HW2 4302   5.208   0.599   1.835
 1135SOL     OW 4303   2.958   0.276   2.515
 1135SOL    HW1 4304   2.941   0.240   2.423
 1135SOL    HW2 4305   2.901   0.357   2.530
 1136SOL     OW 4306   4.219   4.655   2.735
 1136SOL    HW1 4307   4.164   4.672   2.653
 1136SOL    HW2 4308   4.297   4.597   2.711
 1137SOL     OW 4309   0.983   0.592   6.696
 1137SOL    HW1 4310   0.909   0.526   6.684
 1137SOL    HW2 4311   1.002   0.604   6.793
 1138SOL     OW 4312   6.900   0.348   6.089
 1138SOL    HW1 4313   6.860   0.438   6.111
 1138SOL    HW2 4314   6.926   0.345   5.993
 1139SOL     OW 4315   3.134   4.835   2.184
 1139SOL    HW1 4316   3.163   4.823   2.279
 1139SOL    HW2 4317   3.212   4.822   2.123
 1140SOL     OW 4318   3.600   1.416   1.242
 1140SOL    HW1 4319   3.593   1.317   1.228
 1140SOL    HW2 4320   3.508   1.455   1.253
 1141SOL     OW 4321   0.027   6.298   6.495
 1141SOL    HW1 4322   6.957   6.301   6.459
 1141SOL    HW2 4323   0.040   6.374   6.560
 1142SOL     OW 4324   3.082   6.718   4.497
 1142SOL    HW1 4325   3.169   6.763   4.479
 1142SOL    HW2 4326   3.097   6.637   4.553
 1143SOL     OW 4327   1.916   3.451   3.288
 1143SOL    HW1 4328   1.875   3.519   3.348
 1143SOL    HW2 4329   1.849   3.421   3.221
 1144SOL     OW 4330   6.518   4.751   4.219
 1144SOL    HW1 4331   6.500   4.804   4.302
 1144SOL    HW2 4332   6.523   4.813   4.141
 1145SOL     OW 4333   6.538   3.529   2.234
 1145SOL    HW1 4334   6.460   3.494   2.286
 1145SOL    HW2 4335   6.553   3.625   2.257
 1146SOL     OW 4336   6.941   0.226   2.557
 1146SOL    HW1 4337   6.938   0.283   2.474
 1146SOL    HW2 4338   0.014   0.200   2.576
 1147SOL     OW 4339   2.365   5.057   1.568
 1147SOL    HW1 4340   2.412   5.144   1.581
 1147SOL    HW2 4341   2.313   5.034   1.650
 1148SOL     OW 4342   5.397   6.115   0.546
 1148SOL    HW1 4343   5.347   6.088   0.629
 1148SOL    HW2 4344   5.380   6.211   0.527
 1149SOL     OW 4345   6.754   3.781   2.920
 1149SOL    HW1 4346   6.708   3.851   2.974
 1149SOL    HW2 4347   6.725   3.690   2.951
 1150SOL     OW 4348   2.144   3.705   0.173
 1150SOL    HW1 4349   2.176   3.703   0.267
 1150SOL    HW2 4350   2.222   3.700   0.111
 1151SOL     OW 4351   4.946   4.427   0.093
 1151SOL    HW1 4352   4.937   4.412   0.191
 1151SOL    HW2 4353   5.041   4.411   0.066
 1152SOL     OW 4354   5.682   4.724   6.441
 1152SOL    HW1 4355   5.672   4.625   6.457
 1152SOL    HW2 4356   5.665   4.773   6.526
 1153SOL     OW 4357   1.453   0.543   1.639
 1153SOL    HW1 4358   1.502   0.627   1.658
 1153SOL    HW2 4359   1.391   0.523   1.714
 1154SOL     OW 4360   6.801   4.537   0.874
 1154SOL    HW1 4361   6.746   4.612   0.910
 1154SOL    HW2 4362   6.817   4.469   0.946
 1155SOL     OW 4363   2.865   5.229   6.118
 1155SOL    HW1 4364   2.827   5.319   6.100
 1155SOL    HW2 4365   2.965   5.232   6.111
 1156SOL     OW 4366   4.167   1.757   4.847
 1156SOL    HW1 4367   4.222   1.833   4.813
 1156SOL    HW2 4368   4.123   1.783   4.933
 1157SOL     OW 4369   5.725   1.904   5.906
 1157SOL    HW1 4370   5.751   1.987   5.955
 1157SOL    HW2 4371   5.654   1.927   5.839
 1158SOL     OW 4372   0.461   4.976   5.143
 1158SOL    HW1 4373   0.389   4.988   5.074
 1158SOL    HW2 4374   0.457   4.882   5.179
 1159SOL     OW 4375   6.700   6.886   3.880
 1159SOL    HW1 4376   6.799   6.902   3.876
 1159SOL    HW2 4377   6.680   6.799   3.835
 1160SOL     OW 4378   5.266   4.522   0.763
 1160SOL    HW1 4379   5.354   4.527   0.810
 1160SOL    HW2 4380   5.274   4.558   0.671
 1161SOL     OW 4381   6.117   6.998   5.793
 1161SOL    HW1 4382   6.133   6.899   5.787
 1161SOL    HW2 4383   6.109   0.002   5.890
 1162SOL     OW 4384   3.142   2.224   6.875
 1162SOL    HW1 4385   3.191   2.147   6.917
 1162SOL    HW2 4386   3.188   2.310   6.898
 1163SOL     OW 4387   6.873   3.757   1.871
 1163SOL    HW1 4388   6.937   3.766   1.947
 1163SOL    HW2 4389   6.911   3.802   1.790
 1164SOL     OW 4390   6.556   3.432   4.585
 1164SOL    HW1 4391   6.520   3.507   4.529
 1164SOL    HW2 4392   6.483   3.365   4.600
 1165SOL     OW 4393   3.150   4.926   3.637
 1165SOL    HW1 4394   3.173   4.886   3.725
 1165SOL    HW2 4395   3.154   5.026   3.644
 1166SOL     OW 4396   3.890   6.789   0.078
 1166SOL    HW1 4397   3.873   6.861   0.145
 1166SOL    HW2 4398   3.870   6.823   7.009
 1167SOL     OW 4399   4.426   6.524   6.859
 1167SOL    HW1 4400   4.380   6.495   6.943
 1167SOL    HW2 4401   4.434   6.445   6.798
 1168SOL     OW 4402   4.887   2.235   3.058
 1168SOL    HW1 4403   4.789   2.236   3.036
 1168SOL    HW2 4404   4.936   2.296   2.996
 1169SOL     OW 4405   4.833   2.145   6.377
 1169SOL    HW1 4406   4.744   2.185   6.357
 1169SOL    HW2 4407   4.874   2.111   6.292
 1170SOL     OW 4408   5.260   0.530   3.334
 1170SOL    HW1 4409   5.244   0.467   3.258
 1170SOL    HW2 4410   5.213   0.616   3.317
 1171SOL     OW 4411   2.254   6.027   6.843
 1171SOL    HW1 4412   2.159   6.004   6.824
 1171SOL    HW2 4413   2.268   6.125   6.829
 1172SOL     OW 4414   2.936   4.191   1.614
 1172SOL    HW1 4415   2.881   4.210   1.533
 1172SOL    HW2 4416   2.947   4.275   1.668
 1173SOL     OW 4417   2.813   0.648   6.752
 1173SOL    HW1 4418   2.732   0.674   6.805
 1173SOL    HW2 4419   2.862   0.730   6.724
 1174SOL     OW 4420   3.161   4.433   1.292
 1174SOL    HW1 4421   3.072   4.426   1.337
 1174SOL    HW2 4422   3.148   4.454   1.195
 1175SOL     OW 4423   3.897   3.795   6.619
 1175SOL    HW1 4424   3.994   3.773   6.628
 1175SOL    HW2 4425   3.885   3.894   6.620
 1176SOL     OW 4426   5.987   4.534   6.838
 1176SOL    HW1 4427   5.988   4.568   6.744
 1176SOL    HW2 4428   5.938   4.599   6.896
 1177SOL     OW 4429   0.321   2.760   4.433
 1177SOL    HW1 4430   0.347   2.789   4.341
 1177SOL    HW2 4431   0.354   2.827   4.500
 1178SOL     OW 4432   2.889   4.009   0.797
 1178SOL    HW1 4433   2.864   3.963   0.712
 1178SOL    HW2 4434   2.978   4.053   0.786
 1179SOL     OW 4435   2.977   6.029   0.941
 1179SOL    HW1 4436   2.878   6.034   0.953
 1179SOL    HW2 4437   3.005   5.933   0.939
 1180SOL     OW 4438   2.566   6.191   4.662
 1180SOL    HW1 4439   2.612   6.199   4.574
 1180SOL    HW2 4440   2.628   6.218   4.735
 1181SOL     OW 4441   0.028   3.792   6.047
 1181SOL    HW1 4442   6.962   3.837   6.060
 1181SOL    HW2 4443   0.017   3.715   5.985
 1182SOL     OW 4444   3.326   5.031   2.921
 1182SOL    HW1 4445   3.294   5.065   2.832
 1182SOL    HW2 4446   3.418   4.993   2.910
 1183SOL     OW 4447   3.199   5.142   1.309
 1183SOL    HW1 4448   3.112   5.191   1.314
 1183SOL    HW2 4449   3.272   5.200   1.346
 1184SOL     OW 4450   6.208   0.290   5.852
 1184SOL    HW1 4451   6.190   0.202   5.897
 1184SOL    HW2 4452   6.131   0.315   5.794
 1185SOL     OW 4453   0.807   0.807   0.723
 1185SOL    HW1 4454   0.886   0.863   0.701
 1185SOL    HW2 4455   0.836   0.729   0.778
 1186SOL     OW 4456   5.656   6.473   5.192
 1186SOL    HW1 4457   5.691   6.449   5.282
 1186SOL    HW2 4458   5.576   6.417   5.171
 1187SOL     OW 4459   5.572   6.790   5.235
 1187SOL    HW1 4460   5.601   6.697   5.255
 1187SOL    HW2 4461   5.529   6.830   5.315
 1188SOL     OW 4462   2.903   5.676   6.241
 1188SOL    HW1 4463   2.874   5.630   6.157
 1188SOL    HW2 4464   2.898   5.612   6.317
 1189SOL     OW 4465   6.046   0.911   1.239
 1189SOL    HW1 4466   6.059   1.007   1.265
 1189SOL    HW2 4467   6.111   0.887   1.167
 1190SOL     OW 4468   2.653   5.583   2.945
 1190SOL    HW1 4469   2.727   5.531   2.904
 1190SOL    HW2 4470   2.647   5.561   3.043
 1191SOL     OW 4471   2.925   6.216   3.987
 1191SOL    HW1 4472   2.944   6.202   4.084
 1191SOL    HW2 4473   2.971   6.145   3.933
 1192SOL     OW 4474   5.578   5.993   3.393
 1192SOL    HW1 4475   5.663   6.034   3.427
 1192SOL    HW2 4476   5.529   5.952   3.469
 1193SOL     OW 4477   0.093   1.126   5.365
 1193SOL    HW1 4478   0.005   1.090   5.397
 1193SOL    HW2 4479   0.078   1.196   5.295
 1194SOL     OW 4480   6.464   1.670   1.720
 1194SOL    HW1 4481   6.413   1.723   1.653
 1194SOL    HW2 4482   6.504   1.732   1.788
 1195SOL     OW 4483   0.567   3.269   0.256
 1195SOL    HW1 4484   0.521   3.180   0.266
 1195SOL    HW2 4485   0.545   3.326   0.335
 1196SOL     OW 4486   6.892   4.242   3.160
 1196SOL    HW1 4487   6.913   4.260   3.256
 1196SOL    HW2 4488   6.962   4.284   3.102
 1197SOL     OW 4489   4.423   5.916   4.356
 1197SOL    HW1 4490   4.398   5.893   4.262
 1197SOL    HW2 4491   4.484   5.996   4.355
 1198SOL     OW 4492   1.372   3.628   2.064
 1198SOL    HW1 4493   1.309   3.664   2.133
 1198SOL    HW2 4494   1.415   3.705   2.015
 1199SOL     OW 4495   3.194   4.071   2.932
 1199SOL    HW1 4496   3.238   4.054   2.844
 1199SOL    HW2 4497   3.125   4.000   2.949
 1200SOL     OW 4498   3.851   4.053   3.958
 1200SOL    HW1 4499   3.895   4.131   4.002
 1200SOL    HW2 4500   3.756   4.077   3.935
 1201SOL     OW 4501   6.815   0.981   4.906
 1201SOL    HW1 4502   6.755   0.924   4.962
 1201SOL    HW2 4503   6.761   1.040   4.847
 1202SOL     OW 4504   0.646   5.790   5.280
 1202SOL    HW1 4505   0.730   5.840   5.304
 1202SOL    HW2 4506   0.635   5.713   5.342
 1203SOL     OW 4507   0.678   5.891   0.050
 1203SOL    HW1 4508   0.699   5.795   0.071
 1203SOL    HW2 4509   0.587   5.897   0.010
 1204SOL     OW 4510   4.710   1.519   1.294
 1204SOL    HW1 4511   4.766   1.600   1.310
 1204SOL    HW2 4512   4.758   1.456   1.234
 1205SOL     OW 4513   3.356   3.340   0.278
 1205SOL    HW1 4514   3.285   3.400   0.315
 1205SOL    HW2 4515   3.425   3.395   0.231
 1206SOL     OW 4516   1.243   3.244   5.129
 1206SOL    HW1 4517   1.239   3.268   5.033
 1206SOL    HW2 4518   1.338   3.243   5.159
 1207SOL     OW 4519   0.570   0.213   0.892
 1207SOL    HW1 4520   0.502   0.275   0.929
 1207SOL    HW2 4521   0.547   0.119   0.917
 1208SOL     OW 4522   2.968   3.503   1.529
 1208SOL    HW1 4523   2.925   3.431   1.582
 1208SOL    HW2 4524   2.912   3.523   1.448
 1209SOL     OW 4525   5.194   0.607   4.202
 1209SOL    HW1 4526   5.145   0.667   4.139
 1209SOL    HW2 4527   5.204   0.516   4.160
 1210SOL     OW 4528   3.822   6.723   3.521
 1210SOL    HW1 4529   3.859   6.645   3.572
 1210SOL    HW2 4530   3.756   6.690   3.454
 1211SOL     OW 4531   1.114   2.941   3.245
 1211SOL    HW1 4532   1.143   2.979   3.333
 1211SOL    HW2 4533   1.189   2.889   3.205
 1212SOL     OW 4534   6.685   0.056   5.879
 1212SOL    HW1 4535   6.591   0.049   5.844
 1212SOL    HW2 4536   6.683   0.075   5.977
 1213SOL     OW 4537   6.324   2.764   1.897
 1213SOL    HW1 4538   6.253   2.828   1.928
 1213SOL    HW2 4539   6.293   2.718   1.814
 1214SOL     OW 4540   0.977   2.431   0.046
 1214SOL    HW1 4541   0.932   2.343   0.060
 1214SOL    HW2 4542   0.930   2.482   6.996
 1215SOL     OW 4543   1.203   4.702   3.420
 1215SOL    HW1 4544   1.280   4.646   3.450
 1215SOL    HW2 4545   1.213   4.722   3.323
 1216SOL     OW 4546   5.426   1.568   0.337
 1216SOL    HW1 4547   5.514   1.546   0.296
 1216SOL    HW2 4548   5.426   1.663   0.368
 1217SOL     OW 4549   2.896   4.755   0.551
 1217SOL    HW1 4550   2.932   4.822   0.615
 1217SOL    HW2 4551   2.822   4.703   0.596
 1218SOL     OW 4552   1.908   2.976   5.287
 1218SOL    HW1 4553   1.992   2.970   5.235
 1218SOL    HW2 4554   1.855   2.892   5.274
 1219SOL     OW 4555   5.914   5.753   1.802
 1219SOL    HW1 4556   6.011   5.768   1.818
 1219SOL    HW2 4557   5.864   5.761   1.889
 1220SOL     OW 4558   0.514   4.593   2.446
 1220SOL    HW1 4559   0.496   4.648   2.527
 1220SOL    HW2 4560   0.495   4.497   2.467
 1221SOL     OW 4561   4.800   3.076   6.555
 1221SOL    HW1 4562   4.735   3.149   6.573
 1221SOL    HW2 4563   4.797   3.053   6.457
 1222SOL     OW 4564   6.678   0.980   6.160
 1222SOL    HW1 4565   6.579   0.976   6.178
 1222SOL    HW2 4566   6.726   1.002   6.245
 1223SOL     OW 4567   4.054   1.322   0.324
 1223SOL    HW1 4568   3.962   1.284   0.334
 1223SOL    HW2 4569   4.050   1.404   0.265
 1224SOL     OW 4570   3.075   6.352   6.945
 1224SOL    HW1 4571   3.143   6.414   6.905
 1224SOL    HW2 4572   2.986   6.368   6.903
 1225SOL     OW 4573   3.287   2.743   6.685
 1225SOL    HW1 4574   3.277   2.721   6.588
 1225SOL    HW2 4575   3.267   2.840   6.699
 1226SOL     OW 4576   3.300   6.669   1.275
 1226SOL    HW1 4577   3.244   6.723   1.213
 1226SOL    HW2 4578   3.241   6.621   1.340
 1227SOL     OW 4579   4.923   4.656   5.976
 1227SOL    HW1 4580   4.973   4.717   5.915
 1227SOL    HW2 4581   4.905   4.569   5.930
 1228SOL     OW 4582   2.697   2.057   6.125
 1228SOL    HW1 4583   2.733   2.068   6.218
 1228SOL    HW2 4584   2.769   2.077   6.059
 1229SOL     OW 4585   3.031   5.017   0.095
 1229SOL    HW1 4586   3.116   4.978   0.060
 1229SOL    HW2 4587   2.971   5.040   0.018
 1230SOL     OW 4588   5.493   6.523   1.987
 1230SOL    HW1 4589   5.434   6.446   2.012
 1230SOL    HW2 4590   5.472   6.601   2.045
 1231SOL     OW 4591   1.955   2.164   5.631
 1231SOL    HW1 4592   2.029   2.177   5.697
 1231SOL    HW2 4593   1.877   2.121   5.676
 1232SOL     OW 4594   6.901   1.912   5.232
 1232SOL    HW1 4595   6.925   1.839   5.168
 1232SOL    HW2 4596   6.846   1.875   5.307
 1233SOL     OW 4597   0.864   5.534   4.801
 1233SOL    HW1 4598   0.837   5.615   4.854
 1233SOL    HW2 4599   0.856   5.453   4.859
 1234SOL     OW 4600   5.665   3.005   5.534
 1234SOL    HW1 4601   5.574   2.973   5.562
 1234SOL    HW2 4602   5.706   2.937   5.473
 1235SOL     OW 4603   5.938   5.810   2.334
 1235SOL    HW1 4604   6.034   5.790   2.353
 1235SOL    HW2 4605   5.884   5.726   2.344
 1236SOL     OW 4606   4.361   0.359   0.877
 1236SOL    HW1 4607   4.361   0.459   0.879
 1236SOL    HW2 4608   4.388   0.327   0.786
 1237SOL     OW 4609   1.806   4.444   6.127
 1237SOL    HW1 4610   1.736   4.385   6.167
 1237SOL    HW2 4611   1.895   4.400   6.134
 1238SOL     OW 4612   1.207   0.804   6.348
 1238SOL    HW1 4613   1.211   0.884   6.288
 1238SOL    HW2 4614   1.287   0.746   6.332
 1239SOL     OW 4615   6.570   6.805   6.538
 1239SOL    HW1 4616   6.667   6.828   6.549
 1239SOL    HW2 4617   6.562   6.711   6.503
 1240SOL     OW 4618   5.489   6.246   0.831
 1240SOL    HW1 4619   5.438   6.213   0.752
 1240SOL    HW2 4620   5.428   6.253   0.910
 1241SOL     OW 4621   5.369   4.647   4.786
 1241SOL    HW1 4622   5.434   4.668   4.713
 1241SOL    HW2 4623   5.418   4.613   4.866
 1242SOL     OW 4624   1.033   3.820   1.469
 1242SOL    HW1 4625   0.963   3.766   1.422
 1242SOL    HW2 4626   1.108   3.839   1.407
 1243SOL     OW 4627   0.694   0.541   5.064
 1243SOL    HW1 4628   0.793   0.553   5.071
 1243SOL    HW2 4629   0.655   0.614   5.008
 1244SOL     OW 4630   5.786   6.478   3.928
 1244SOL    HW1 4631   5.790   6.535   3.845
 1244SOL    HW2 4632   5.690   6.460   3.951
 1245SOL     OW 4633   6.349   4.122   0.649
 1245SOL    HW1 4634   6.304   4.133   0.560
 1245SOL    HW2 4635   6.406   4.040   0.647
 1246SOL     OW 4636   2.589   0.734   1.113
 1246SOL    HW1 4637   2.637   0.801   1.170
 1246SOL    HW2 4638   2.619   0.744   1.018
 1247SOL     OW 4639   0.200   6.525   6.095
 1247SOL    HW1 4640   0.262   6.604   6.101
 1247SOL    HW2 4641   0.224   6.470   6.015
 1248SOL     OW 4642   2.181   0.051   4.700
 1248SOL    HW1 4643   2.095   0.103   4.694
 1248SOL    HW2 4644   2.180   7.002   4.630
 1249SOL     OW 4645   6.681   1.894   2.493
 1249SOL    HW1 4646   6.635   1.896   2.582
 1249SOL    HW2 4647   6.705   1.988   2.467
 1250SOL     OW 4648   5.691   5.576   3.327
 1250SOL    HW1 4649   5.676   5.479   3.346
 1250SOL    HW2 4650   5.695   5.626   3.413
 1251SOL     OW 4651   2.972   0.922   3.371
 1251SOL    HW1 4652   2.917   0.915   3.455
 1251SOL    HW2 4653   3.010   0.832   3.349
 1252SOL     OW 4654   4.846   3.816   6.426
 1252SOL    HW1 4655   4.825   3.830   6.330
 1252SOL    HW2 4656   4.799   3.885   6.481
 1253SOL     OW 4657   3.097   6.403   2.111
 1253SOL    HW1 4658   3.136   6.312   2.123
 1253SOL    HW2 4659   3.122   6.439   2.022
 1254SOL     OW 4660   1.029   3.199   2.899
 1254SOL    HW1 4661   1.065   3.115   2.858
 1254SOL    HW2 4662   1.071   3.278   2.856
 1255SOL     OW 4663   6.057   1.599   6.669
 1255SOL    HW1 4664   5.975   1.567   6.717
 1255SOL    HW2 4665   6.135   1.596   6.731
 1256SOL     OW 4666   6.664   6.297   3.193
 1256SOL    HW1 4667   6.622   6.341   3.113
 1256SOL    HW2 4668   6.604   6.306   3.272
 1257SOL     OW 4669   6.375   5.912   5.136
 1257SOL    HW1 4670   6.331   5.823   5.150
 1257SOL    HW2 4671   6.471   5.906   5.160
 1258SOL     OW 4672   1.636   4.986   3.178
 1258SOL    HW1 4673   1.716   5.044   3.161
 1258SOL    HW2 4674   1.555   5.028   3.138
 1259SOL     OW 4675   3.249   0.486   4.374
 1259SOL    HW1 4676   3.298   0.548   4.313
 1259SOL    HW2 4677   3.166   0.454   4.328
 1260SOL     OW 4678   2.657   2.738   6.906
 1260SOL    HW1 4679   2.652   2.641   6.884
 1260SOL    HW2 4680   2.601   2.756   6.988
 1261SOL     OW 4681   0.248   5.804   6.585
 1261SOL    HW1 4682   0.253   5.744   6.506
 1261SOL    HW2 4683   0.291   5.892   6.563
 1262SOL     OW 4684   5.987   4.234   1.644
 1262SOL    HW1 4685   5.953   4.202   1.556
 1262SOL    HW2 4686   6.083   4.260   1.635
 1263SOL     OW 4687   0.058   2.297   1.525
 1263SOL    HW1 4688   0.118   2.376   1.511
 1263SOL    HW2 4689   0.111   2.222   1.565
 1264SOL     OW 4690   6.887   4.110   1.695
 1264SOL    HW1 4691   6.918   4.015   1.698
 1264SOL    HW2 4692   6.798   4.115   1.650
 1265SOL     OW 4693   4.779   5.385   3.861
 1265SOL    HW1 4694   4.732   5.386   3.773
 1265SOL    HW2 4695   4.771   5.293   3.902
 1266SOL     OW 4696   0.200   1.481   4.287
 1266SOL    HW1 4697   0.295   1.451   4.283
 1266SOL    HW2 4698   0.189   1.546   4.363
 1267SOL     OW 4699   4.651   6.743   1.277
 1267SOL    HW1 4700   4.571   6.687   1.298
 1267SOL    HW2 4701   4.701   6.703   1.200
 1268SOL     OW 4702   2.732   2.704   0.447
 1268SOL    HW1 4703   2.640   2.739   0.458
 1268SOL    HW2 4704   2.750   2.633   0.515
 1269SOL     OW 4705   6.032   5.813   5.125
 1269SOL    HW1 4706   5.958   5.803   5.191
 1269SOL    HW2 4707   6.000   5.784   5.035
 1270SOL     OW 4708   1.388   3.253   3.491
 1270SOL    HW1 4709   1.472   3.263   3.438
 1270SOL    HW2 4710   1.377   3.157   3.517
 1271SOL     OW 4711   2.521   2.070   3.914
 1271SOL    HW1 4712   2.513   1.970   3.914
 1271SOL    HW2 4713   2.567   2.100   3.830
 1272SOL     OW 4714   5.655   4.905   0.306
 1272SOL    HW1 4715   5.747   4.922   0.269
 1272SOL    HW2 4716   5.587   4.916   0.233
 1273SOL     OW 4717   0.653   2.922   0.141
 1273SOL    HW1 4718   0.745   2.961   0.138
 1273SOL    HW2 4719   0.654   2.838   0.195
 1274SOL     OW 4720   6.157   4.553   1.404
 1274SOL    HW1 4721   6.198   4.584   1.490
 1274SOL    HW2 4722   6.189   4.612   1.330
 1275SOL     OW 4723   4.026   1.953   4.396
 1275SOL    HW1 4724   4.071   1.896   4.465
 1275SOL    HW2 4725   3.927   1.937   4.398
 1276SOL     OW 4726   6.898   6.179   4.984
 1276SOL    HW1 4727   6.949   6.116   4.925
 1276SOL    HW2 4728   6.800   6.174   4.962
 1277SOL     OW 4729   1.249   5.948   6.229
 1277SOL    HW1 4730   1.240   5.848   6.236
 1277SOL    HW2 4731   1.305   5.981   6.305
 1278SOL     OW 4732   0.769   0.146   4.431
 1278SOL    HW1 4733   0.868   0.142   4.419
 1278SOL    HW2 4734   0.728   0.191   4.352
 1279SOL     OW 4735   2.344   5.432   0.883
 1279SOL    HW1 4736   2.359   5.421   0.981
 1279SOL    HW2 4737   2.387   5.516   0.851
 1280SOL     OW 4738   3.571   6.689   4.523
 1280SOL    HW1 4739   3.479   6.726   4.531
 1280SOL    HW2 4740   3.616   6.691   4.612
 1281SOL     OW 4741   2.142   6.142   3.242
 1281SOL    HW1 4742   2.121   6.231   3.283
 1281SOL    HW2 4743   2.103   6.069   3.299
 1282SOL     OW 4744   0.525   2.367   6.648
 1282SOL    HW1 4745   0.433   2.337   6.623
 1282SOL    HW2 4746   0.543   2.347   6.744
 1283SOL     OW 4747   0.289   3.518   5.834
 1283SOL    HW1 4748   0.310   3.426   5.802
 1283SOL    HW2 4749   0.363   3.581   5.810
 1284SOL     OW 4750   4.842   2.217   1.122
 1284SOL    HW1 4751   4.837   2.147   1.194
 1284SOL    HW2 4752   4.829   2.307   1.164
 1285SOL     OW 4753   4.515   2.175   6.360
 1285SOL    HW1 4754   4.533   2.090   6.311
 1285SOL    HW2 4755   4.523   2.159   6.458
 1286SOL     OW 4756   4.674   3.856   1.446
 1286SOL    HW1 4757   4.738   3.816   1.512
 1286SOL    HW2 4758   4.693   3.953   1.437
 1287SOL     OW 4759   5.779   5.750   5.225
 1287SOL    HW1 4760   5.739   5.714   5.309
 1287SOL    HW2 4761   5.710   5.805   5.177
 1288SOL     OW 4762   4.011   2.694   5.956
 1288SOL    HW1 4763   3.998   2.620   6.022
 1288SOL    HW2 4764   3.972   2.668   5.868
 1289SOL     OW 4765   6.928   6.928   1.019
 1289SOL    HW1 4766   6.918   6.939   1.118
 1289SOL    HW2 4767   6.837   6.916   0.978
 1290SOL     OW 4768   1.125   6.417   6.574
 1290SOL    HW1 4769   1.042   6.377   6.535
 1290SOL    HW2 4770   1.174   6.347   6.627
 1291SOL     OW 4771   6.944   4.116   4.498
 1291SOL    HW1 4772   6.849   4.144   4.484
 1291SOL    HW2 4773   6.963   4.033   4.445
 1292SOL     OW 4774   0.731   5.831   2.268
 1292SOL    HW1 4775   0.825   5.843   2.300
 1292SOL    HW2 4776   0.717   5.736   2.240
 1293SOL     OW 4777   0.762   1.662   6.737
 1293SOL    HW1 4778   0.787   1.571   6.769
 1293SOL    HW2 4779   0.747   1.660   6.638
 1294SOL     OW 4780   0.759   3.544   6.101
 1294SOL    HW1 4781   0.750   3.632   6.055
 1294SOL    HW2 4782   0.852   3.536   6.139
 1295SOL     OW 4783   0.620   3.637   1.611
 1295SOL    HW1 4784   0.671   3.657   1.695
 1295SOL    HW2 4785   0.639   3.543   1.583
 1296SOL     OW 4786   3.967   6.296   5.724
 1296SOL    HW1 4787   4.025   6.306   5.804
 1296SOL    HW2 4788   3.966   6.381   5.672
 1297SOL     OW 4789   0.070   0.721   1.300
 1297SOL    HW1 4790   0.091   0.695   1.206
 1297SOL    HW2 4791   0.148   0.697   1.359
 1298SOL     OW 4792   5.741   5.452   2.798
 1298SOL    HW1 4793   5.790   5.368   2.823
 1298SOL    HW2 4794   5.676   5.432   2.726
 1299SOL     OW 4795   1.730   3.580   3.462
 1299SOL    HW1 4796   1.687   3.633   3.389
 1299SOL    HW2 4797   1.659   3.542   3.522
 1300SOL     OW 4798   2.386   3.015   1.393
 1300SOL    HW1 4799   2.310   3.042   1.453
 1300SOL    HW2 4800   2.471   3.052   1.430
 1301SOL     OW 4801   0.236   0.130   1.257
 1301SOL    HW1 4802   0.190   0.095   1.175
 1301SOL    HW2 4803   0.168   0.163   1.322
 1302SOL     OW 4804   4.274   0.974   5.894
 1302SOL    HW1 4805   4.191   0.969   5.839
 1302SOL    HW2 4806   4.353   0.987   5.835
 1303SOL     OW 4807   3.856   2.059   1.178
 1303SOL    HW1 4808   3.837   1.972   1.134
 1303SOL    HW2 4809   3.954   2.078   1.174
 1304SOL     OW 4810   2.304   0.700   0.006
 1304SOL    HW1 4811   2.258   0.637   0.069
 1304SOL    HW2 4812   2.238   0.765   6.991
 1305SOL     OW 4813   5.831   3.689   1.007
 1305SOL    HW1 4814   5.752   3.693   0.946
 1305SOL    HW2 4815   5.896   3.621   0.974
 1306SOL     OW 4816   1.075   5.247   3.978
 1306SOL    HW1 4817   1.009   5.295   4.036
 1306SOL    HW2 4818   1.027   5.181   3.920
 1307SOL     OW 4819   1.401   4.281   3.733
 1307SOL    HW1 4820   1.315   4.330   3.718
 1307SOL    HW2 4821   1.465   4.340   3.781
 1308SOL     OW 4822   6.615   6.930   5.330
 1308SOL    HW1 4823   6.570   7.020   5.327
 1308SOL    HW2 4824   6.669   6.923   5.414
 1309SOL     OW 4825   5.487   4.615   5.526
 1309SOL    HW1 4826   5.534   4.654   5.606
 1309SOL    HW2 4827   5.481   4.516   5.536
 1310SOL     OW 4828   6.256   3.988   3.820
 1310SOL    HW1 4829   6.347   3.974   3.781
 1310SOL    HW2 4830   6.187   3.976   3.748
 1311SOL     OW 4831   0.662   6.267   5.197
 1311SOL    HW1 4832   0.704   6.348   5.156
 1311SOL    HW2 4833   0.563   6.271   5.186
 1312SOL     OW 4834   0.679   6.556   6.667
 1312SOL    HW1 4835   0.681   6.656   6.672
 1312SOL    HW2 4836   0.618   6.520   6.738
 1313SOL     OW 4837   0.728   4.812   2.984
 1313SOL    HW1 4838   0.741   4.839   2.889
 1313SOL    HW2 4839   0.771   4.879   3.044
 1314SOL     OW 4840   4.591   1.231   5.558
 1314SOL    HW1 4841   4.509   1.246   5.502
 1314SOL    HW2 4842   4.649   1.312   5.556
 1315SOL     OW 4843   0.661   1.199   2.145
 1315SOL    HW1 4844   0.644   1.171   2.239
 1315SOL    HW2 4845   0.678   1.297   2.142
 1316SOL     OW 4846   2.361   5.909   5.279
 1316SOL    HW1 4847   2.398   5.895   5.188
 1316SOL    HW2 4848   2.278   5.854   5.291
 1317SOL     OW 4849   2.233   4.283   6.357
 1317SOL    HW1 4850   2.177   4.221   6.412
 1317SOL    HW2 4851   2.271   4.234   6.279
 1318SOL     OW 4852   0.645   2.011   0.976
 1318SOL    HW1 4853   0.716   1.948   1.008
 1318SOL    HW2 4854   0.592   1.968   0.904
 1319SOL     OW 4855   6.486   6.713   7.000
 1319SOL    HW1 4856   6.476   6.623   6.956
 1319SOL    HW2 4857   6.583   6.732   7.014
 1320SOL     OW 4858   4.024   4.694   0.085
 1320SOL    HW1 4859   3.986   4.615   0.038
 1320SOL    HW2 4860   4.091   4.739   0.026
 1321SOL     OW 4861   5.757   1.788   6.768
 1321SOL    HW1 4862   5.756   1.845   6.686
 1321SOL    HW2 4863   5.666   1.749   6.782
 1322SOL     OW 4864   4.107   0.773   2.960
 1322SOL    HW1 4865   4.099   0.862   2.916
 1322SOL    HW2 4866   4.102   0.784   3.059
 1323SOL     OW 4867   4.159   0.265   5.760
 1323SOL    HW1 4868   4.236   0.229   5.812
 1323SOL    HW2 4869   4.111   0.190   5.715
 1324SOL     OW 4870   0.611   4.255   6.575
 1324SOL    HW1 4871   0.633   4.211   6.662
 1324SOL    HW2 4872   0.523   4.221   6.542
 1325SOL     OW 4873   2.306   0.361   3.354
 1325SOL    HW1 4874   2.395   0.315   3.360
 1325SOL    HW2 4875   2.256   0.347   3.440
 1326SOL     OW 4876   4.982   3.827   5.376
 1326SOL    HW1 4877   5.006   3.871   5.289
 1326SOL    HW2 4878   5.066   3.801   5.424
 1327SOL     OW 4879   0.757   6.082   1.389
 1327SOL    HW1 4880   0.667   6.042   1.366
 1327SOL    HW2 4881   0.828   6.033   1.339
 1328SOL     OW 4882   1.932   3.040   1.114
 1328SOL    HW1 4883   2.024   3.046   1.076
 1328SOL    HW2 4884   1.929   2.968   1.184
 1329SOL     OW 4885   0.438   2.193   1.897
 1329SOL    HW1 4886   0.429   2.102   1.856
 1329SOL    HW2 4887   0.467   2.184   1.992
 1330SOL     OW 4888   0.618   1.242   1.790
 1330SOL    HW1 4889   0.643   1.155   1.833
 1330SOL    HW2 4890   0.519   1.246   1.778
 1331SOL     OW 4891   4.977   3.547   2.529
 1331SOL    HW1 4892   4.984   3.489   2.448
 1331SOL    HW2 4893   4.895   3.604   2.522
 1332SOL     OW 4894   2.953   0.264   0.002
 1332SOL    HW1 4895   2.951   0.356   0.041
 1332SOL    HW2 4896   2.871   0.249   6.968
 1333SOL     OW 4897   2.943   3.625   4.491
 1333SOL    HW1 4898   2.930   3.657   4.397
 1333SOL    HW2 4899   2.990   3.694   4.544
 1334SOL     OW 4900   6.398   1.937   4.166
 1334SOL    HW1 4901   6.331   1.881   4.215
 1334SOL    HW2 4902   6.466   1.877   4.123
 1335SOL     OW 4903   2.307   1.626   2.783
 1335SOL    HW1 4904   2.307   1.686   2.702
 1335SOL    HW2 4905   2.376   1.555   2.770
 1336SOL     OW 4906   2.179   2.708   5.149
 1336SOL    HW1 4907   2.150   2.802   5.171
 1336SOL    HW2 4908   2.192   2.699   5.051
 1337SOL     OW 4909   1.311   2.250   4.358
 1337SOL    HW1 4910   1.270   2.160   4.370
 1337SOL    HW2 4911   1.296   2.306   4.439
 1338SOL     OW 4912   5.381   2.185   4.702
 1338SOL    HW1 4913   5.382   2.175   4.802
 1338SOL    HW2 4914   5.368   2.281   4.679
 1339SOL     OW 4915   6.897   1.807   6.540
 1339SOL    HW1 4916   6.868   1.832   6.632
 1339SOL    HW2 4917   6.919   1.710   6.537
 1340SOL     OW 4918   6.361   1.796   2.108
 1340SOL    HW1 4919   6.327   1.887   2.130
 1340SOL    HW2 4920   6.288   1.740   2.069
 1341SOL     OW 4921   5.055   6.695   6.380
 1341SOL    HW1 4922   5.028   6.701   6.477
 1341SOL    HW2 4923   4.976   6.668   6.325
 1342SOL     OW 4924   2.921   5.806   5.695
 1342SOL    HW1 4925   3.011   5.822   5.736
 1342SOL    HW2 4926   2.873   5.892   5.686
 1343SOL     OW 4927   4.839   5.691   2.390
 1343SOL    HW1 4928   4.880   5.637   2.463
 1343SOL    HW2 4929   4.870   5.656   2.301
 1344SOL     OW 4930   6.478   5.589   4.491
 1344SOL    HW1 4931   6.541   5.568   4.566
 1344SOL    HW2 4932   6.475   5.511   4.428
 1345SOL     OW 4933   1.665   0.019   2.746
 1345SOL    HW1 4934   1.633   6.962   2.797
 1345SOL    HW2 4935   1.753   0.049   2.782
 1346SOL     OW 4936   1.126   5.873   4.682
 1346SOL    HW1 4937   1.119   5.879   4.781
 1346SOL    HW2 4938   1.205   5.816   4.657
 1347SOL     OW 4939   6.950   6.759   5.301
 1347SOL    HW1 4940   6.967   6.738   5.204
 1347SOL    HW2 4941   6.872   6.706   5.333
 1348SOL     OW 4942   5.551   5.774   2.846
 1348SOL    HW1 4943   5.557   5.785   2.945
 1348SOL    HW2 4944   5.643   5.775   2.807
 1349SOL     OW 4945   4.671   2.593   5.595
 1349SOL    HW1 4946   4.575   2.592   5.625
 1349SOL    HW2 4947   4.727   2.547   5.663
 1350SOL     OW 4948   5.392   5.382   5.124
 1350SOL    HW1 4949   5.319   5.318   5.150
 1350SOL    HW2 4950   5.404   5.450   5.197
 1351SOL     OW 4951   6.014   1.585   3.322
 1351SOL    HW1 4952   5.974   1.510   3.271
 1351SOL    HW2 4953   6.068   1.549   3.398
 1352SOL     OW 4954   0.015   6.136   2.369
 1352SOL    HW1 4955   6.957   6.185   2.334
 1352SOL    HW2 4956   7.017   6.038   2.369
 1353SOL     OW 4957   0.473   2.398   0.532
 1353SOL    HW1 4958   0.554   2.344   0.554
 1353SOL    HW2 4959   0.408   2.341   0.481
 1354SOL     OW 4960   0.887   4.232   1.955
 1354SOL    HW1 4961   0.887   4.135   1.930
 1354SOL    HW2 4962   0.935   4.244   2.042
 1355SOL     OW 4963   6.339   2.672   4.673
 1355SOL    HW1 4964   6.262   2.610   4.686
 1355SOL    HW2 4965   6.409   2.627   4.617
 1356SOL     OW 4966   3.031   3.158   2.605
 1356SOL    HW1 4967   3.076   3.073   2.578
 1356SOL    HW2 4968   3.010   3.156   2.703
 1357SOL     OW 4969   0.624   3.299   6.080
 1357SOL    HW1 4970   0.621   3.279   5.982
 1357SOL    HW2 4971   0.638   3.396   6.094
 1358SOL     OW 4972   4.512   6.968   6.000
 1358SOL    HW1 4973   4.460   6.889   5.968
 1358SOL    HW2 4974   4.609   6.953   5.984
 1359SOL     OW 4975   5.570   5.007   2.129
 1359SOL    HW1 4976   5.643   5.049   2.182
 1359SOL    HW2 4977   5.603   4.923   2.086
 1360SOL     OW 4978   3.255   2.765   0.112
 1360SOL    HW1 4979   3.214   2.854   0.091
 1360SOL    HW2 4980   3.201   2.719   0.183
 1361SOL     OW 4981   0.027   5.519   5.391
 1361SOL    HW1 4982   0.046   5.451   5.320
 1361SOL    HW2 4983   0.002   5.473   5.476
 1362SOL     OW 4984   3.325   4.123   3.720
 1362SOL    HW1 4985   3.363   4.033   3.741
 1362SOL    HW2 4986   3.258   4.147   3.790
 1363SOL     OW 4987   0.126   5.758   2.704
 1363SOL    HW1 4988   0.153   5.673   2.748
 1363SOL    HW2 4989   0.130   5.747   2.604
 1364SOL     OW 4990   6.573   3.553   1.167
 1364SOL    HW1 4991   6.642   3.614   1.127
 1364SOL    HW2 4992   6.581   3.553   1.266
 1365SOL     OW 4993   0.436   3.271   6.585
 1365SOL    HW1 4994   0.514   3.261   6.647
 1365SOL    HW2 4995   0.371   3.196   6.601
 1366SOL     OW 4996   0.845   4.691   0.069
 1366SOL    HW1 4997   0.747   4.710   0.082
 1366SOL    HW2 4998   0.890   4.772   0.034
 1367SOL     OW 4999   2.223   0.156   3.108
 1367SOL    HW1 5000   2.290   0.210   3.159
 1367SOL    HW2 5001   2.188   0.210   3.032
 1368SOL     OW 5002   6.016   0.440   3.528
 1368SOL    HW1 5003   6.033   0.433   3.626
 1368SOL    HW2 5004   5.917   0.432   3.511
 1369SOL     OW 5005   2.662   6.745   1.593
 1369SOL    HW1 5006   2.563   6.742   1.606
 1369SOL    HW2 5007   2.683   6.782   1.503
 1370SOL     OW 5008   4.282   1.097   0.688
 1370SOL    HW1 5009   4.373   1.137   0.696
 1370SOL    HW2 5010   4.220   1.162   0.644
 1371SOL     OW 5011   6.094   1.664   4.777
 1371SOL    HW1 5012   6.074   1.718   4.858
 1371SOL    HW2 5013   6.176   1.609   4.792
 1372SOL     OW 5014   1.158   3.138   0.381
 1372SOL    HW1 5015   1.156   3.055   0.437
 1372SOL    HW2 5016   1.065   3.173   0.370
 1373SOL     OW 5017   5.250   2.787   0.277
 1373SOL    HW1 5018   5.184   2.712   0.269
 1373SOL    HW2 5019   5.221   2.864   0.220
 1374SOL     OW 5020   5.282   1.846   0.100
 1374SOL    HW1 5021   5.217   1.801   0.161
 1374SOL    HW2 5022   5.240   1.856   0.010
 1375SOL     OW 5023   0.414   4.265   6.161
 1375SOL    HW1 5024   0.505   4.239   6.130
 1375SOL    HW2 5025   0.346   4.200   6.125
 1376SOL     OW 5026   4.253   4.777   4.900
 1376SOL    HW1 5027   4.258   4.693   4.955
 1376SOL    HW2 5028   4.281   4.758   4.806
 1377SOL     OW 5029   0.106   3.824   5.642
 1377SOL    HW1 5030   0.179   3.864   5.587
 1377SOL    HW2 5031   0.027   3.885   5.643
 1378SOL     OW 5032   5.843   0.980   4.854
 1378SOL    HW1 5033   5.824   1.027   4.940
 1378SOL    HW2 5034   5.927   0.926   4.865
 1379SOL     OW 5035   3.635   6.885   2.716
 1379SOL    HW1 5036   3.639   6.985   2.721
 1379SOL    HW2 5037   3.726   6.847   2.729
 1380SOL     OW 5038   6.853   6.632   2.781
 1380SOL    HW1 5039   6.903   6.554   2.743
 1380SOL    HW2 5040   6.904   6.716   2.762
 1381SOL     OW 5041   6.220   2.580   0.095
 1381SOL    HW1 5042   6.202   2.649   0.165
 1381SOL    HW2 5043   6.246   2.625   0.010
 1382SOL     OW 5044   4.715   4.418   0.591
 1382SOL    HW1 5045   4.678   4.369   0.512
 1382SOL    HW2 5046   4.674   4.509   0.595
 1383SOL     OW 5047   1.126   0.463   1.447
 1383SOL    HW1 5048   1.168   0.438   1.359
 1383SOL    HW2 5049   1.146   0.392   1.514
 1384SOL     OW 5050   4.278   0.012   1.759
 1384SOL    HW1 5051   4.303   6.960   1.697
 1384SOL    HW2 5052   4.345   0.086   1.752
 1385SOL     OW 5053   1.349   3.552   3.814
 1385SOL    HW1 5054   1.388   3.511   3.897
 1385SOL    HW2 5055   1.253   3.576   3.831
 1386SOL     OW 5056   2.924   0.701   4.721
 1386SOL    HW1 5057   2.898   0.797   4.709
 1386SOL    HW2 5058   2.876   0.644   4.654
 1387SOL     OW 5059   4.180   5.745   2.577
 1387SOL    HW1 5060   4.096   5.709   2.536
 1387SOL    HW2 5061   4.160   5.834   2.619
 1388SOL     OW 5062   0.459   6.406   3.245
 1388SOL    HW1 5063   0.540   6.448   3.286
 1388SOL    HW2 5064   0.486   6.325   3.194
 1389SOL     OW 5065   0.307   0.970   3.484
 1389SOL    HW1 5066   0.328   0.926   3.572
 1389SOL    HW2 5067   0.265   1.059   3.501
 1390SOL     OW 5068   5.567   2.768   5.944
 1390SOL    HW1 5069   5.636   2.819   5.996
 1390SOL    HW2 5070   5.524   2.700   6.004
 1391SOL     OW 5071   6.410   0.408   5.210
 1391SOL    HW1 5072   6.313   0.386   5.220
 1391SOL    HW2 5073   6.432   0.419   5.113
 1392SOL     OW 5074   5.235   6.074   6.777
 1392SOL    HW1 5075   5.262   5.978   6.769
 1392SOL    HW2 5076   5.296   6.130   6.721
 1393SOL     OW 5077   6.103   3.830   5.968
 1393SOL    HW1 5078   6.148   3.743   5.946
 1393SOL    HW2 5079   6.124   3.897   5.897
 1394SOL     OW 5080   3.604   6.191   4.035
 1394SOL    HW1 5081   3.631   6.268   3.978
 1394SOL    HW2 5082   3.670   6.116   4.024
 1395SOL     OW 5083   1.393   4.454   4.225
 1395SOL    HW1 5084   1.475   4.397   4.220
 1395SOL    HW2 5085   1.410   4.541   4.178
 1396SOL     OW 5086   1.538   0.768   3.620
 1396SOL    HW1 5087   1.560   0.713   3.539
 1396SOL    HW2 5088   1.489   0.711   3.686
 1397SOL     OW 5089   0.806   6.122   4.477
 1397SOL    HW1 5090   0.807   6.048   4.544
 1397SOL    HW2 5091   0.828   6.209   4.522
 1398SOL     OW 5092   1.825   1.795   6.530
 1398SOL    HW1 5093   1.731   1.789   6.496
 1398SOL    HW2 5094   1.844   1.890   6.555
 1399SOL     OW 5095   4.182   0.159   6.819
 1399SOL    HW1 5096   4.140   0.201   6.739
 1399SOL    HW2 5097   4.111   0.121   6.879
 1400SOL     OW 5098   0.103   2.136   4.554
 1400SOL    HW1 5099   0.076   2.224   4.592
 1400SOL    HW2 5100   0.141   2.079   4.627
 1401SOL     OW 5101   6.312   6.733   4.320
 1401SOL    HW1 5102   6.222   6.690   4.313
 1401SOL    HW2 5103   6.320   6.807   4.253
 1402SOL     OW 5104   5.948   4.315   0.052
 1402SOL    HW1 5105   5.849   4.307   0.063
 1402SOL    HW2 5106   5.971   4.402   0.009
 1403SOL     OW 5107   1.478   2.331   1.564
 1403SOL    HW1 5108   1.466   2.412   1.620
 1403SOL    HW2 5109   1.404   2.326   1.497
 1404SOL     OW 5110   6.081   7.017   0.111
 1404SOL    HW1 5111   6.128   6.987   0.029
 1404SOL    HW2 5112   6.134   0.067   0.156
 1405SOL     OW 5113   2.509   3.462   0.486
 1405SOL    HW1 5114   2.482   3.372   0.451
 1405SOL    HW2 5115   2.607   3.474   0.473
 1406SOL     OW 5116   2.504   4.860   1.204
 1406SOL    HW1 5117   2.590   4.854   1.153
 1406SOL    HW2 5118   2.522   4.848   1.301
 1407SOL     OW 5119   1.678   4.128   3.681
 1407SOL    HW1 5120   1.689   4.052   3.616
 1407SOL    HW2 5121   1.580   4.143   3.698
 1408SOL     OW 5122   5.144   6.504   6.765
 1408SOL    HW1 5123   5.164   6.460   6.853
 1408SOL    HW2 5124   5.221   6.563   6.740
 1409SOL     OW 5125   6.897   0.588   5.131
 1409SOL    HW1 5126   6.922   0.682   5.155
 1409SOL    HW2 5127   6.932   0.566   5.039
 1410SOL     OW 5128   2.882   3.782   0.254
 1410SOL    HW1 5129   2.951   3.796   0.184
 1410SOL    HW2 5130   2.791   3.782   0.213
 1411SOL     OW 5131   3.544   5.552   6.514
 1411SOL    HW1 5132   3.511   5.627   6.457
 1411SOL    HW2 5133   3.644   5.550   6.512
 1412SOL     OW 5134   0.835   4.181   1.660
 1412SOL    HW1 5135   0.909   4.204   1.722
 1412SOL    HW2 5136   0.776   4.261   1.646
 1413SOL     OW 5137   1.670   1.636   4.598
 1413SOL    HW1 5138   1.703   1.543   4.587
 1413SOL    HW2 5139   1.747   1.699   4.594
 1414SOL     OW 5140   2.031   2.122   1.896
 1414SOL    HW1 5141   2.067   2.066   1.970
 1414SOL    HW2 5142   2.059   2.217   1.910
 1415SOL     OW 5143   3.090   1.665   4.630
 1415SOL    HW1 5144   3.157   1.620   4.690
 1415SOL    HW2 5145   3.071   1.606   4.551
 1416SOL     OW 5146   3.549   0.493   4.503
 1416SOL    HW1 5147   3.558   0.590   4.528
 1416SOL    HW2 5148   3.515   0.486   4.409
 1417SOL     OW 5149   2.974   2.985   6.180
 1417SOL    HW1 5150   2.911   2.913   6.208
 1417SOL    HW2 5151   3.068   2.956   6.198
 1418SOL     OW 5152   2.775   3.606   0.443
 1418SOL    HW1 5153   2.828   3.676   0.394
 1418SOL    HW2 5154   2.818   3.587   0.531
 1419SOL     OW 5155   2.560   5.369   4.000
 1419SOL    HW1 5156   2.589   5.294   4.060
 1419SOL    HW2 5157   2.594   5.456   4.037
 1420SOL     OW 5158   3.685   5.641   2.978
 1420SOL    HW1 5159   3.775   5.654   2.936
 1420SOL    HW2 5160   3.630   5.723   2.965
 1421SOL     OW 5161   1.137   4.317   4.209
 1421SOL    HW1 5162   1.221   4.350   4.253
 1421SOL    HW2 5163   1.134   4.349   4.114
 1422SOL     OW 5164   3.485   4.372   6.092
 1422SOL    HW1 5165   3.551   4.334   6.028
 1422SOL    HW2 5166   3.504   4.469   6.106
 1423SOL     OW 5167   3.184   0.829   4.886
 1423SOL    HW1 5168   3.129   0.911   4.902
 1423SOL    HW2 5169   3.142   0.775   4.814
 1424SOL     OW 5170   6.791   3.682   6.734
 1424SOL    HW1 5171   6.793   3.628   6.650
 1424SOL    HW2 5172   6.798   3.621   6.813
 1425SOL     OW 5173   2.108   5.328   5.504
 1425SOL    HW1 5174   2.193   5.319   5.556
 1425SOL    HW2 5175   2.130   5.344   5.408
 1426SOL     OW 5176   2.377   1.871   6.019
 1426SOL    HW1 5177   2.429   1.912   6.094
 1426SOL    HW2 5178   2.296   1.926   6.000
 1427SOL     OW 5179   0.225   0.052   3.928
 1427SOL    HW1 5180   0.204   0.147   3.904
 1427SOL    HW2 5181   0.275   0.009   3.852
 1428SOL     OW 5182   0.332   1.903   1.932
 1428SOL    HW1 5183   0.423   1.862   1.942
 1428SOL    HW2 5184   0.307   1.948   2.018
 1429SOL     OW 5185   6.432   1.382   6.779
 1429SOL    HW1 5186   6.474   1.371   6.869
 1429SOL    HW2 5187   6.337   1.412   6.791
 1430SOL     OW 5188   2.049   4.582   4.143
 1430SOL    HW1 5189   2.096   4.625   4.067
 1430SOL    HW2 5190   2.108   4.584   4.224
 1431SOL     OW 5191   2.618   2.328   6.089
 1431SOL    HW1 5192   2.707   2.363   6.061
 1431SOL    HW2 5193   2.630   2.252   6.152
 1432SOL     OW 5194   2.098   1.341   1.453
 1432SOL    HW1 5195   2.158   1.414   1.422
 1432SOL    HW2 5196   2.148   1.280   1.514
 1433SOL     OW 5197   4.259   0.181   4.484
 1433SOL    HW1 5198   4.263   0.151   4.579
 1433SOL    HW2 5199   4.352   0.196   4.449
 1434SOL     OW 5200   0.219   0.820   6.339
 1434SOL    HW1 5201   0.235   0.845   6.243
 1434SOL    HW2 5202   0.121   0.829   6.359
 1435SOL     OW 5203   6.918   0.148   3.377
 1435SOL    HW1 5204   6.915   0.069   3.316
 1435SOL    HW2 5205   6.868   0.224   3.335
 1436SOL     OW 5206   6.065   3.617   0.162
 1436SOL    HW1 5207   6.153   3.577   0.137
 1436SOL    HW2 5208   5.994   3.584   0.100
 1437SOL     OW 5209   3.248   0.331   5.582
 1437SOL    HW1 5210   3.162   0.286   5.604
 1437SOL    HW2 5211   3.230   0.413   5.528
 1438SOL     OW 5212   2.431   0.282   1.485
 1438SOL    HW1 5213   2.348   0.334   1.506
 1438SOL    HW2 5214   2.503   0.306   1.550
 1439SOL     OW 5215   0.631   4.979   0.833
 1439SOL    HW1 5216   0.667   5.053   0.890
 1439SOL    HW2 5217   0.671   4.892   0.863
 1440SOL     OW 5218   3.491   3.532   5.282
 1440SOL    HW1 5219   3.574   3.493   5.321
 1440SOL    HW2 5220   3.462   3.611   5.337
 1441SOL     OW 5221   6.395   3.578   4.411
 1441SOL    HW1 5222   6.309   3.617   4.442
 1441SOL    HW2 5223   6.377   3.500   4.351
 1442SOL     OW 5224   6.996   4.729   0.051
 1442SOL    HW1 5225   6.951   4.654   0.003
 1442SOL    HW2 5226   0.073   4.715   0.048
 1443SOL     OW 5227   0.884   2.464   4.954
 1443SOL    HW1 5228   0.907   2.465   5.051
 1443SOL    HW2 5229   0.841   2.551   4.929
 1444SOL     OW 5230   4.247   5.816   1.540
 1444SOL    HW1 5231   4.244   5.743   1.471
 1444SOL    HW2 5232   4.196   5.895   1.506
 1445SOL     OW 5233   0.150   2.681   2.485
 1445SOL    HW1 5234   0.097   2.676   2.401
 1445SOL    HW2 5235   0.103   2.631   2.558
 1446SOL     OW 5236   5.224   2.084   6.728
 1446SOL    HW1 5237   5.182   2.105   6.640
 1446SOL    HW2 5238   5.241   2.168   6.778
 1447SOL     OW 5239   6.582   6.507   5.116
 1447SOL    HW1 5240   6.501   6.460   5.079
 1447SOL    HW2 5241   6.632   6.550   5.041
 1448SOL     OW 5242   6.913   2.253   0.128
 1448SOL    HW1 5243   6.967   2.235   0.046
 1448SOL    HW2 5244   6.818   2.270   0.102
 1449SOL     OW 5245   5.776   0.828   6.898
 1449SOL    HW1 5246   5.706   0.814   6.828
 1449SOL    HW2 5247   5.757   0.769   6.977
 1450SOL     OW 5248   0.484   2.222   2.538
 1450SOL    HW1 5249   0.457   2.301   2.592
 1450SOL    HW2 5250   0.404   2.182   2.493
 1451SOL     OW 5251   3.313   1.217   1.804
 1451SOL    HW1 5252   3.306   1.162   1.888
 1451SOL    HW2 5253   3.321   1.156   1.725
 1452SOL     OW 5254   3.976   1.693   4.679
 1452SOL    HW1 5255   3.903   1.755   4.707
 1452SOL    HW2 5256   4.060   1.716   4.728
 1453SOL     OW 5257   0.322   3.698   5.181
 1453SOL    HW1 5258   0.279   3.763   5.243
 1453SOL    HW2 5259   0.351   3.617   5.232
 1454SOL     OW 5260   6.373   2.512   2.774
 1454SOL    HW1 5261   6.344   2.569   2.697
 1454SOL    HW2 5262   6.461   2.469   2.753
 1455SOL     OW 5263   1.853   6.867   1.890
 1455SOL    HW1 5264   1.832   6.820   1.804
 1455SOL    HW2 5265   1.863   6.965   1.873
 1456SOL     OW 5266   6.434   0.189   5.539
 1456SOL    HW1 5267   6.502   0.185   5.465
 1456SOL    HW2 5268   6.433   0.282   5.577
 1457SOL     OW 5269   1.503   0.178   1.084
 1457SOL    HW1 5270   1.596   0.212   1.094
 1457SOL    HW2 5271   1.477   0.179   0.988
 1458SOL     OW 5272   5.269   6.192   3.517
 1458SOL    HW1 5273   5.299   6.216   3.425
 1458SOL    HW2 5274   5.239   6.275   3.565
 1459SOL     OW 5275   3.190   4.631   5.797
 1459SOL    HW1 5276   3.113   4.659   5.740
 1459SOL    HW2 5277   3.273   4.678   5.767
 1460SOL     OW 5278   0.413   5.399   5.833
 1460SOL    HW1 5279   0.352   5.320   5.825
 1460SOL    HW2 5280   0.363   5.482   5.806
 1461SOL     OW 5281   0.542   5.321   3.142
 1461SOL    HW1 5282   0.576   5.393   3.081
 1461SOL    HW2 5283   0.591   5.325   3.229
 1462SOL     OW 5284   0.741   1.034   6.228
 1462SOL    HW1 5285   0.713   1.129   6.238
 1462SOL    HW2 5286   0.837   1.030   6.201
 1463SOL     OW 5287   0.385   5.902   6.317
 1463SOL    HW1 5288   0.468   5.862   6.357
 1463SOL    HW2 5289   0.379   5.877   6.221
 1464SOL     OW 5290   6.366   0.140   0.887
 1464SOL    HW1 5291   6.381   0.062   0.827
 1464SOL    HW2 5292   6.454   0.186   0.904
 1465SOL     OW 5293   2.014   1.700   3.565
 1465SOL    HW1 5294   2.065   1.656   3.639
 1465SOL    HW2 5295   1.920   1.715   3.594
 1466SOL     OW 5296   1.436   0.882   2.613
 1466SOL    HW1 5297   1.400   0.801   2.566
 1466SOL    HW2 5298   1.503   0.854   2.682
 1467SOL     OW 5299   2.560   1.042   2.243
 1467SOL    HW1 5300   2.519   1.049   2.334
 1467SOL    HW2 5301   2.654   1.078   2.246
 1468SOL     OW 5302   5.246   5.224   3.340
 1468SOL    HW1 5303   5.345   5.215   3.328
 1468SOL    HW2 5304   5.219   5.319   3.323
 1469SOL     OW 5305   1.080   0.747   2.183
 1469SOL    HW1 5306   0.982   0.727   2.180
 1469SOL    HW2 5307   1.116   0.749   2.090
 1470SOL     OW 5308   1.767   0.986   2.826
 1470SOL    HW1 5309   1.726   0.983   2.917
 1470SOL    HW2 5310   1.779   1.082   2.799
 1471SOL     OW 5311   0.741   0.352   0.726
 1471SOL    HW1 5312   0.686   0.393   0.653
 1471SOL    HW2 5313   0.681   0.305   0.790
 1472SOL     OW 5314   4.289   5.673   5.142
 1472SOL    HW1 5315   4.262   5.614   5.218
 1472SOL    HW2 5316   4.214   5.737   5.122
 1473SOL     OW 5317   5.887   5.851   3.774
 1473SOL    HW1 5318   5.827   5.797   3.716
 1473SOL    HW2 5319   5.887   5.813   3.867
 1474SOL     OW 5320   6.220   5.954   3.330
 1474SOL    HW1 5321   6.124   5.981   3.338
 1474SOL    HW2 5322   6.267   6.017   3.268
 1475SOL     OW 5323   6.872   0.391   1.479
 1475SOL    HW1 5324   6.852   0.332   1.556
 1475SOL    HW2 5325   6.862   0.487   1.506
 1476SOL     OW 5326   1.986   1.750   1.768
 1476SOL    HW1 5327   1.936   1.674   1.810
 1476SOL    HW2 5328   1.926   1.828   1.757
 1477SOL     OW 5329   2.602   0.453   7.001
 1477SOL    HW1 5330   2.644   0.538   0.012
 1477SOL    HW2 5331   2.564   0.403   0.057
 1478SOL     OW 5332   5.385   4.382   0.197
 1478SOL    HW1 5333   5.414   4.287   0.202
 1478SOL    HW2 5334   5.458   4.442   0.229
 1479SOL     OW 5335   1.698   3.426   6.888
 1479SOL    HW1 5336   1.622   3.483   6.918
 1479SOL    HW2 5337   1.780   3.449   6.940
 1480SOL     OW 5338   2.660   0.121   6.239
 1480SOL    HW1 5339   2.609   0.054   6.293
 1480SOL    HW2 5340   2.743   0.148   6.290
 1481SOL     OW 5341   0.096   2.032   5.413
 1481SOL    HW1 5342   0.192   2.036   5.440
 1481SOL    HW2 5343   0.086   1.973   5.333
 1482SOL     OW 5344   4.946   2.333   0.878
 1482SOL    HW1 5345   4.955   2.426   0.913
 1482SOL    HW2 5346   4.927   2.270   0.954
 1483SOL     OW 5347   5.995   2.544   6.374
 1483SOL    HW1 5348   5.942   2.558   6.290
 1483SOL    HW2 5349   6.084   2.587   6.365
 1484SOL     OW 5350   6.327   4.516   4.256
 1484SOL    HW1 5351   6.336   4.456   4.176
 1484SOL    HW2 5352   6.360   4.608   4.232
 1485SOL     OW 5353   3.973   2.222   2.447
 1485SOL    HW1 5354   4.050   2.194   2.388
 1485SOL    HW2 5355   3.950   2.318   2.429
 1486SOL     OW 5356   5.072   2.257   2.559
 1486SOL    HW1 5357   5.123   2.341   2.541
 1486SOL    HW2 5358   5.002   2.244   2.488
 1487SOL     OW 5359   6.950   2.415   6.689
 1487SOL    HW1 5360   6.928   2.455   6.600
 1487SOL    HW2 5361   6.889   2.338   6.707
 1488SOL     OW 5362   5.652   2.367   3.053
 1488SOL    HW1 5363   5.638   2.401   3.146
 1488SOL    HW2 5364   5.575   2.394   2.995
 1489SOL     OW 5365   4.181   5.206   3.722
 1489SOL    HW1 5366   4.180   5.139   3.649
 1489SOL    HW2 5367   4.149   5.163   3.807
 1490SOL     OW 5368   1.301   3.248   1.470
 1490SOL    HW1 5369   1.341   3.250   1.561
 1490SOL    HW2 5370   1.215   3.196   1.472
 1491SOL     OW 5371   5.956   3.605   4.195
 1491SOL    HW1 5372   5.872   3.655   4.216
 1491SOL    HW2 5373   5.979   3.546   4.273
 1492SOL     OW 5374   5.701   2.056   2.591
 1492SOL    HW1 5375   5.788   2.030   2.633
 1492SOL    HW2 5376   5.628   1.997   2.625
 1493SOL     OW 5377   4.923   0.138   3.812
 1493SOL    HW1 5378   4.921   0.114   3.909
 1493SOL    HW2 5379   4.897   0.234   3.800
 1494SOL     OW 5380   5.204   1.910   5.778
 1494SOL    HW1 5381   5.152   1.939   5.697
 1494SOL    HW2 5382   5.193   1.979   5.850
 1495SOL     OW 5383   6.849   2.609   4.527
 1495SOL    HW1 5384   6.857   2.551   4.446
 1495SOL    HW2 5385   6.754   2.634   4.542
 1496SOL     OW 5386   1.142   1.497   2.497
 1496SOL    HW1 5387   1.149   1.527   2.592
 1496SOL    HW2 5388   1.062   1.439   2.486
 1497SOL     OW 5389   7.010   3.048   3.397
 1497SOL    HW1 5390   0.043   3.089   3.469
 1497SOL    HW2 5391   0.004   2.950   3.394
 1498SOL     OW 5392   2.125   4.259   6.654
 1498SOL    HW1 5393   2.162   4.269   6.747
 1498SOL    HW2 5394   2.194   4.285   6.587
 1499SOL     OW 5395   1.217   3.999   5.738
 1499SOL    HW1 5396   1.144   3.935   5.713
 1499SOL    HW2 5397   1.205   4.027   5.833
 1500SOL     OW 5398   6.230   6.608   0.063
 1500SOL    HW1 5399   6.319   6.653   0.061
 1500SOL    HW2 5400   6.181   6.634   0.146
 1501SOL     OW 5401   5.103   1.249   6.401
 1501SOL    HW1 5402   5.088   1.181   6.329
 1501SOL    HW2 5403   5.027   1.313   6.404
 1502SOL     OW 5404   5.798   6.604   1.367
 1502SOL    HW1 5405   5.760   6.687   1.409
 1502SOL    HW2 5406   5.732   6.567   1.302
 1503SOL     OW 5407   2.869   1.169   2.058
 1503SOL    HW1 5408   2.906   1.261   2.045
 1503SOL    HW2 5409   2.921   1.104   2.003
 1504SOL     OW 5410   0.794   1.248   4.716
 1504SOL    HW1 5411   0.727   1.177   4.741
 1504SOL    HW2 5412   0.884   1.221   4.750
 1505SOL     OW 5413   5.829   0.617   6.506
 1505SOL    HW1 5414   5.793   0.680   6.437
 1505SOL    HW2 5415   5.844   0.527   6.464
 1506SOL     OW 5416   1.508   4.855   1.654
 1506SOL    HW1 5417   1.584   4.893   1.707
 1506SOL    HW2 5418   1.542   4.823   1.565
 1507SOL     OW 5419   0.625   2.084   5.344
 1507SOL    HW1 5420   0.630   1.990   5.311
 1507SOL    HW2 5421   0.652   2.086   5.441
 1508SOL     OW 5422   6.466   0.516   1.740
 1508SOL    HW1 5423   6.457   0.589   1.672
 1508SOL    HW2 5424   6.375   0.483   1.766
 1509SOL     OW 5425   4.591   2.335   6.147
 1509SOL    HW1 5426   4.590   2.434   6.161
 1509SOL    HW2 5427   4.563   2.290   6.232
 1510SOL     OW 5428   6.168   2.438   4.635
 1510SOL    HW1 5429   6.071   2.441   4.608
 1510SOL    HW2 5430   6.184   2.357   4.691
 1511SOL     OW 5431   3.295   2.279   1.294
 1511SOL    HW1 5432   3.227   2.209   1.316
 1511SOL    HW2 5433   3.263   2.368   1.323
 1512SOL     OW 5434   6.941   6.556   1.579
 1512SOL    HW1 5435   6.953   6.572   1.677
 1512SOL    HW2 5436   6.874   6.483   1.565
 1513SOL     OW 5437   4.083   0.559   4.022
 1513SOL    HW1 5438   3.987   0.533   4.009
 1513SOL    HW2 5439   4.091   0.658   4.023
 1514SOL     OW 5440   4.846   2.742   5.867
 1514SOL    HW1 5441   4.869   2.645   5.874
 1514SOL    HW2 5442   4.811   2.774   5.955
 1515SOL     OW 5443   6.476   3.284   5.153
 1515SOL    HW1 5444   6.409   3.329   5.212
 1515SOL    HW2 5445   6.550   3.246   5.209
 1516SOL     OW 5446   0.391   0.149   0.640
 1516SOL    HW1 5447   0.344   0.125   0.555
 1516SOL    HW2 5448   0.354   0.236   0.675
 1517SOL     OW 5449   3.612   5.850   3.469
 1517SOL    HW1 5450   3.699   5.873   3.425
 1517SOL    HW2 5451   3.537   5.874   3.408
 1518SOL     OW 5452   0.659   2.718   0.336
 1518SOL    HW1 5453   0.620   2.692   0.424
 1518SOL    HW2 5454   0.713   2.642   0.299
 1519SOL     OW 5455   6.981   4.856   1.972
 1519SOL    HW1 5456   0.025   4.792   1.932
 1519SOL    HW2 5457   6.992   4.945   1.929
 1520SOL     OW 5458   0.941   3.646   2.629
 1520SOL    HW1 5459   0.866   3.692   2.676
 1520SOL    HW2 5460   0.996   3.712   2.579
 1521SOL     OW 5461   3.052   3.870   0.044
 1521SOL    HW1 5462   3.032   3.838   6.974
 1521SOL    HW2 5463   3.121   3.942   0.040
 1522SOL     OW 5464   6.434   0.562   4.978
 1522SOL    HW1 5465   6.477   0.615   5.051
 1522SOL    HW2 5466   6.503   0.536   4.910
 1523SOL     OW 5467   5.108   3.728   0.458
 1523SOL    HW1 5468   5.028   3.723   0.517
 1523SOL    HW2 5469   5.099   3.662   0.383
 1524SOL     OW 5470   1.262   1.908   2.149
 1524SOL    HW1 5471   1.356   1.880   2.132
 1524SOL    HW2 5472   1.219   1.845   2.214
 1525SOL     OW 5473   6.454   2.088   0.069
 1525SOL    HW1 5474   6.356   2.084   0.091
 1525SOL    HW2 5475   6.501   2.010   0.110
 1526SOL     OW 5476   1.469   0.571   6.513
 1526SOL    HW1 5477   1.483   0.605   6.420
 1526SOL    HW2 5478   1.372   0.552   6.527
 1527SOL     OW 5479   3.602   0.922   5.622
 1527SOL    HW1 5480   3.619   0.835   5.668
 1527SOL    HW2 5481   3.683   0.949   5.571
 1528SOL     OW 5482   5.223   5.603   1.578
 1528SOL    HW1 5483   5.291   5.540   1.540
 1528SOL    HW2 5484   5.176   5.650   1.503
 1529SOL     OW 5485   3.256   0.718   0.018
 1529SOL    HW1 5486   3.285   0.720   0.113
 1529SOL    HW2 5487   3.157   0.731   0.012
 1530SOL     OW 5488   2.827   0.846   1.942
 1530SOL    HW1 5489   2.909   0.887   1.900
 1530SOL    HW2 5490   2.838   0.747   1.949
 1531SOL     OW 5491   5.856   0.760   4.587
 1531SOL    HW1 5492   5.881   0.833   4.651
 1531SOL    HW2 5493   5.938   0.707   4.565
 1532SOL     OW 5494   2.674   3.258   5.856
 1532SOL    HW1 5495   2.727   3.177   5.881
 1532SOL    HW2 5496   2.701   3.289   5.765
 1533SOL     OW 5497   0.443   2.774   0.016
 1533SOL    HW1 5498   0.509   2.738   6.972
 1533SOL    HW2 5499   0.474   2.863   0.049
 1534SOL     OW 5500   1.558   4.985   6.817
 1534SOL    HW1 5501   1.608   5.000   6.902
 1534SOL    HW2 5502   1.511   4.897   6.821
 1535SOL     OW 5503   4.987   5.920   4.628
 1535SOL    HW1 5504   4.992   5.864   4.711
 1535SOL    HW2 5505   4.947   5.866   4.554
 1536SOL     OW 5506   3.922   4.483   5.527
 1536SOL    HW1 5507   3.962   4.397   5.561
 1536SOL    HW2 5508   3.996   4.546   5.503
 1537SOL     OW 5509   3.682   6.384   3.190
 1537SOL    HW1 5510   3.745   6.461   3.179
 1537SOL    HW2 5511   3.683   6.329   3.107
 1538SOL     OW 5512   3.825   5.604   6.321
 1538SOL    HW1 5513   3.924   5.617   6.320
 1538SOL    HW2 5514   3.782   5.664   6.254
 1539SOL     OW 5515   4.386   4.247   1.546
 1539SOL    HW1 5516   4.387   4.225   1.643
 1539SOL    HW2 5517   4.408   4.343   1.533
 1540SOL     OW 5518   1.138   0.100   5.423
 1540SOL    HW1 5519   1.103   0.096   5.330
 1540SOL    HW2 5520   1.234   0.127   5.422
 1541SOL     OW 5521   3.376   2.894   1.886
 1541SOL    HW1 5522   3.318   2.975   1.891
 1541SOL    HW2 5523   3.425   2.882   1.972
 1542SOL     OW 5524   0.025   6.196   1.130
 1542SOL    HW1 5525   6.983   6.265   1.162
 1542SOL    HW2 5526   0.105   6.241   1.089
 1543SOL     OW 5527   2.900   3.741   4.234
 1543SOL    HW1 5528   2.940   3.650   4.224
 1543SOL    HW2 5529   2.969   3.805   4.265
 1544SOL     OW 5530   3.100   3.883   1.960
 1544SOL    HW1 5531   3.100   3.847   2.054
 1544SOL    HW2 5532   3.165   3.830   1.905
 1545SOL     OW 5533   5.354   0.915   4.753
 1545SOL    HW1 5534   5.346   0.961   4.665
 1545SOL    HW2 5535   5.444   0.933   4.792
 1546SOL     OW 5536   5.431   0.302   6.050
 1546SOL    HW1 5537   5.492   0.235   6.007
 1546SOL    HW2 5538   5.349   0.313   5.993
 1547SOL     OW 5539   2.417   4.345   2.699
 1547SOL    HW1 5540   2.400   4.291   2.781
 1547SOL    HW2 5541   2.409   4.442   2.720
 1548SOL     OW 5542   4.888   3.583   5.917
 1548SOL    HW1 5543   4.833   3.534   5.984
 1548SOL    HW2 5544   4.839   3.586   5.830
 1549SOL     OW 5545   4.846   1.942   2.486
 1549SOL    HW1 5546   4.867   2.012   2.417
 1549SOL    HW2 5547   4.821   1.986   2.572
 1550SOL     OW 5548   3.345   5.705   5.997
 1550SOL    HW1 5549   3.327   5.645   5.919
 1550SOL    HW2 5550   3.273   5.694   6.065
 1551SOL     OW 5551   2.474   3.504   0.175
 1551SOL    HW1 5552   2.403   3.469   0.114
 1551SOL    HW2 5553   2.539   3.430   0.195
 1552SOL     OW 5554   0.395   0.397   1.630
 1552SOL    HW1 5555   0.394   0.312   1.577
 1552SOL    HW2 5556   0.349   0.468   1.577
 1553SOL     OW 5557   6.034   0.932   5.532
 1553SOL    HW1 5558   6.000   0.851   5.484
 1553SOL    HW2 5559   5.957   0.989   5.559
 1554SOL     OW 5560   3.836   2.034   3.343
 1554SOL    HW1 5561   3.855   1.980   3.426
 1554SOL    HW2 5562   3.743   2.072   3.349
 1555SOL     OW 5563   4.901   1.688   5.760
 1555SOL    HW1 5564   4.920   1.737   5.844
 1555SOL    HW2 5565   4.986   1.645   5.727
 1556SOL     OW 5566   3.862   0.905   0.216
 1556SOL    HW1 5567   3.953   0.872   0.241
 1556SOL    HW2 5568   3.803   0.903   0.297
 1557SOL     OW 5569   2.151   1.225   6.825
 1557SOL    HW1 5570   2.052   1.236   6.825
 1557SOL    HW2 5571   2.191   1.284   6.895
 1558SOL     OW 5572   5.633   1.688   4.080
 1558SOL    HW1 5573   5.543   1.721   4.051
 1558SOL    HW2 5574   5.661   1.611   4.023
 1559SOL     OW 5575   0.255   2.731   0.632
 1559SOL    HW1 5576   0.294   2.733   0.725
 1559SOL    HW2 5577   0.300   2.801   0.576
 1560SOL     OW 5578   2.435   1.190   6.521
 1560SOL    HW1 5579   2.466   1.230   6.435
 1560SOL    HW2 5580   2.457   1.253   6.596
 1561SOL     OW 5581   5.670   6.285   2.994
 1561SOL    HW1 5582   5.741   6.218   3.016
 1561SOL    HW2 5583   5.691   6.330   2.908
 1562SOL     OW 5584   3.666   6.523   0.922
 1562SOL    HW1 5585   3.745   6.465   0.942
 1562SOL    HW2 5586   3.659   6.596   0.990
 1563SOL     OW 5587   2.270   1.577   6.045
 1563SOL    HW1 5588   2.322   1.651   6.086
 1563SOL    HW2 5589   2.257   1.594   5.948
 1564SOL     OW 5590   1.631   2.429   2.572
 1564SOL    HW1 5591   1.572   2.425   2.653
 1564SOL    HW2 5592   1.606   2.356   2.509
 1565SOL     OW 5593   3.873   5.385   4.130
 1565SOL    HW1 5594   3.961   5.426   4.153
 1565SOL    HW2 5595   3.815   5.453   4.086
 1566SOL     OW 5596   6.258   5.314   4.724
 1566SOL    HW1 5597   6.332   5.255   4.691
 1566SOL    HW2 5598   6.244   5.389   4.660
 1567SOL     OW 5599   6.231   5.962   0.010
 1567SOL    HW1 5600   6.222   6.052   6.989
 1567SOL    HW2 5601   6.249   5.893   6.962
 1568SOL     OW 5602   1.824   6.604   2.526
 1568SOL    HW1 5603   1.909   6.607   2.579
 1568SOL    HW2 5604   1.833   6.537   2.452
 1569SOL     OW 5605   3.609   7.014   3.344
 1569SOL    HW1 5606   3.654   6.932   3.308
 1569SOL    HW2 5607   3.515   6.991   3.370
 1570SOL     OW 5608   1.859   6.177   0.573
 1570SOL    HW1 5609   1.794   6.146   0.643
 1570SOL    HW2 5610   1.840   6.272   0.550
 1571SOL     OW 5611   6.292   1.700   3.303
 1571SOL    HW1 5612   6.237   1.783   3.314
 1571SOL    HW2 5613   6.283   1.666   3.209
 1572SOL     OW 5614   2.084   5.929   0.837
 1572SOL    HW1 5615   2.101   5.952   0.933
 1572SOL    HW2 5616   2.033   5.843   0.832
 1573SOL     OW 5617   6.461   4.769   1.493
 1573SOL    HW1 5618   6.500   4.845   1.546
 1573SOL    HW2 5619   6.479   4.683   1.540
 1574SOL     OW 5620   6.213   2.386   3.950
 1574SOL    HW1 5621   6.142   2.449   3.917
 1574SOL    HW2 5622   6.194   2.362   4.045
 1575SOL     OW 5623   2.501   1.975   1.614
 1575SOL    HW1 5624   2.404   1.972   1.639
 1575SOL    HW2 5625   2.555   1.936   1.689
 1576SOL     OW 5626   1.025   7.009   3.337
 1576SOL    HW1 5627   1.124   6.996   3.329
 1576SOL    HW2 5628   1.006   0.077   3.378
 1577SOL     OW 5629   2.736   0.459   6.001
 1577SOL    HW1 5630   2.722   0.510   5.916
 1577SOL    HW2 5631   2.649   0.448   6.048
 1578SOL     OW 5632   4.936   1.694   5.165
 1578SOL    HW1 5633   4.877   1.664   5.090
 1578SOL    HW2 5634   4.949   1.793   5.160
 1579SOL     OW 5635   0.092   1.946   2.224
 1579SOL    HW1 5636   0.073   1.857   2.265
 1579SOL    HW2 5637   0.006   1.988   2.196
 1580SOL     OW 5638   3.421   4.158   3.431
 1580SOL    HW1 5639   3.362   4.180   3.508
 1580SOL    HW2 5640   3.399   4.067   3.396
 1581SOL     OW 5641   6.408   5.129   5.310
 1581SOL    HW1 5642   6.380   5.035   5.330
 1581SOL    HW2 5643   6.390   5.149   5.214
 1582SOL     OW 5644   2.405   6.485   4.650
 1582SOL    HW1 5645   2.318   6.515   4.688
 1582SOL    HW2 5646   2.470   6.465   4.723
 1583SOL     OW 5647   0.870   5.956   3.449
 1583SOL    HW1 5648   0.964   5.953   3.484
 1583SOL    HW2 5649   0.838   5.863   3.431
 1584SOL     OW 5650   0.846   5.493   5.179
 1584SOL    HW1 5651   0.830   5.464   5.085
 1584SOL    HW2 5652   0.939   5.469   5.206
 1585SOL     OW 5653   4.854   2.424   3.271
 1585SOL    HW1 5654   4.870   2.364   3.192
 1585SOL    HW2 5655   4.769   2.475   3.257
 1586SOL     OW 5656   2.970   5.024   2.006
 1586SOL    HW1 5657   2.903   4.963   2.048
 1586SOL    HW2 5658   3.062   4.997   2.034
 1587SOL     OW 5659   2.673   5.721   5.902
 1587SOL    HW1 5660   2.642   5.790   5.967
 1587SOL    HW2 5661   2.736   5.763   5.837
 1588SOL     OW 5662   4.708   1.199   1.988
 1588SOL    HW1 5663   4.684   1.274   2.051
 1588SOL    HW2 5664   4.626   1.165   1.944
 1589SOL     OW 5665   6.844   3.335   2.624
 1589SOL    HW1 5666   6.944   3.325   2.627
 1589SOL    HW2 5667   6.802   3.246   2.639
 1590SOL     OW 5668   4.794   7.010   4.214
 1590SOL    HW1 5669   4.765   6.961   4.296
 1590SOL    HW2 5670   4.837   0.074   4.240
 1591SOL     OW 5671   6.990   5.439   1.200
 1591SOL    HW1 5672   6.939   5.497   1.264
 1591SOL    HW2 5673   0.066   5.455   1.211
 1592SOL     OW 5674   2.396   3.523   6.288
 1592SOL    HW1 5675   2.426   3.585   6.361
 1592SOL    HW2 5676   2.464   3.523   6.214
 1593SOL     OW 5677   1.207   6.873   4.639
 1593SOL    HW1 5678   1.182   6.801   4.575
 1593SOL    HW2 5679   1.270   6.837   4.707
 1594SOL     OW 5680   0.808   6.192   1.866
 1594SOL    HW1 5681   0.842   6.171   1.957
 1594SOL    HW2 5682   0.714   6.159   1.856
 1595SOL     OW 5683   0.810   5.134   0.488
 1595SOL    HW1 5684   0.822   5.147   0.587
 1595SOL    HW2 5685   0.720   5.168   0.460
 1596SOL     OW 5686   6.948   3.374   3.733
 1596SOL    HW1 5687   6.888   3.353   3.655
 1596SOL    HW2 5688   6.897   3.429   3.799
 1597SOL     OW 5689   1.165   5.608   0.962
 1597SOL    HW1 5690   1.199   5.532   1.018
 1597SOL    HW2 5691   1.086   5.649   1.008
 1598SOL     OW 5692   6.891   4.425   5.936
 1598SOL    HW1 5693   6.909   4.520   5.962
 1598SOL    HW2 5694   6.902   4.414   5.837
 1599SOL     OW 5695   5.433   5.389   4.660
 1599SOL    HW1 5696   5.342   5.347   4.661
 1599SOL    HW2 5697   5.499   5.328   4.704
 1600SOL     OW 5698   3.031   1.313   3.673
 1600SOL    HW1 5699   3.107   1.256   3.639
 1600SOL    HW2 5700   3.065   1.405   3.694
 1601SOL     OW 5701   6.436   6.426   4.317
 1601SOL    HW1 5702   6.362   6.426   4.250
 1601SOL    HW2 5703   6.463   6.520   4.337
 1602SOL     OW 5704   4.143   5.077   4.222
 1602SOL    HW1 5705   4.057   5.047   4.263
 1602SOL    HW2 5706   4.125   5.120   4.134
 1603SOL     OW 5707   1.651   6.179   3.232
 1603SOL    HW1 5708   1.616   6.085   3.225
 1603SOL    HW2 5709   1.666   6.201   3.329
 1604SOL     OW 5710   5.214   4.451   1.418
 1604SOL    HW1 5711   5.158   4.419   1.341
 1604SOL    HW2 5712   5.187   4.401   1.500
 1605SOL     OW 5713   6.462   5.200   1.905
 1605SOL    HW1 5714   6.369   5.220   1.875
 1605SOL    HW2 5715   6.526   5.221   1.831
 1606SOL     OW 5716   4.396   6.190   5.845
 1606SOL    HW1 5717   4.378   6.127   5.921
 1606SOL    HW2 5718   4.347   6.158   5.764
 1607SOL     OW 5719   3.598   0.035   0.623
 1607SOL    HW1 5720   3.671   0.087   0.579
 1607SOL    HW2 5721   3.620   0.021   0.719
 1608SOL     OW 5722   0.681   1.130   3.441
 1608SOL    HW1 5723   0.707   1.156   3.348
 1608SOL    HW2 5724   0.603   1.185   3.470
 1609SOL     OW 5725   4.160   0.154   0.429
 1609SOL    HW1 5726   4.145   0.203   0.515
 1609SOL    HW2 5727   4.102   0.073   0.426
 1610SOL     OW 5728   6.205   5.403   0.479
 1610SOL    HW1 5729   6.133   5.470   0.462
 1610SOL    HW2 5730   6.235   5.409   0.574
 1611SOL     OW 5731   2.258   3.388   0.380
 1611SOL    HW1 5732   2.333   3.453   0.388
 1611SOL    HW2 5733   2.229   3.382   0.284
 1612SOL     OW 5734   2.847   0.272   0.443
 1612SOL    HW1 5735   2.780   0.287   0.370
 1612SOL    HW2 5736   2.829   0.184   0.487
 1613SOL     OW 5737   1.373   5.263   2.141
 1613SOL    HW1 5738   1.470   5.286   2.150
 1613SOL    HW2 5739   1.361   5.205   2.060
 1614SOL     OW 5740   4.957   2.016   6.130
 1614SOL    HW1 5741   4.965   1.937   6.070
 1614SOL    HW2 5742   4.905   2.088   6.084
 1615SOL     OW 5743   6.587   5.665   0.579
 1615SOL    HW1 5744   6.669   5.609   0.595
 1615SOL    HW2 5745   6.599   5.719   0.495
 1616SOL     OW 5746   3.629   0.984   4.731
 1616SOL    HW1 5747   3.587   1.065   4.772
 1616SOL    HW2 5748   3.699   1.011   4.665
 1617SOL     OW 5749   5.541   6.508   3.164
 1617SOL    HW1 5750   5.532   6.480   3.068
 1617SOL    HW2 5751   5.637   6.505   3.191
 1618SOL     OW 5752   1.769   6.510   3.173
 1618SOL    HW1 5753   1.718   6.447   3.115
 1618SOL    HW2 5754   1.850   6.542   3.125
 1619SOL     OW 5755   0.324   4.313   1.438
 1619SOL    HW1 5756   0.285   4.228   1.474
 1619SOL    HW2 5757   0.422   4.301   1.423
 1620SOL     OW 5758   3.306   4.618   1.420
 1620SOL    HW1 5759   3.260   4.551   1.363
 1620SOL    HW2 5760   3.323   4.579   1.511
 1621SOL     OW 5761   6.311   0.992   0.441
 1621SOL    HW1 5762   6.409   0.976   0.427
 1621SOL    HW2 5763   6.295   1.090   0.454
 1622SOL     OW 5764   0.562   3.358   5.559
 1622SOL    HW1 5765   0.482   3.317   5.603
 1622SOL    HW2 5766   0.623   3.397   5.628
 1623SOL     OW 5767   1.118   2.916   5.439
 1623SOL    HW1 5768   1.078   2.903   5.348
 1623SOL    HW2 5769   1.201   2.971   5.431
 1624SOL     OW 5770   3.574   1.628   4.875
 1624SOL    HW1 5771   3.613   1.543   4.838
 1624SOL    HW2 5772   3.476   1.632   4.853
 1625SOL     OW 5773   1.445   4.736   0.247
 1625SOL    HW1 5774   1.427   4.830   0.274
 1625SOL    HW2 5775   1.483   4.734   0.154
 1626SOL     OW 5776   3.512   0.932   0.760
 1626SOL    HW1 5777   3.533   0.837   0.783
 1626SOL    HW2 5778   3.561   0.957   0.676
 1627SOL     OW 5779   6.006   3.188   4.151
 1627SOL    HW1 5780   5.990   3.128   4.229
 1627SOL    HW2 5781   5.931   3.253   4.143
 1628SOL     OW 5782   4.780   5.089   0.126
 1628SOL    HW1 5783   4.856   5.144   0.161
 1628SOL    HW2 5784   4.773   5.005   0.179
 1629SOL     OW 5785   2.944   1.305   3.965
 1629SOL    HW1 5786   2.949   1.399   3.998
 1629SOL    HW2 5787   2.961   1.303   3.866
 1630SOL     OW 5788   0.271   4.990   6.117
 1630SOL    HW1 5789   0.324   4.935   6.183
 1630SOL    HW2 5790   0.227   5.066   6.165
 1631SOL     OW 5791   0.997   2.800   0.991
 1631SOL    HW1 5792   1.033   2.723   0.938
 1631SOL    HW2 5793   1.020   2.787   1.088
 1632SOL     OW 5794   5.756   2.854   1.584
 1632SOL    HW1 5795   5.719   2.937   1.543
 1632SOL    HW2 5796   5.694   2.823   1.656
 1633SOL     OW 5797   4.767   4.050   4.501
 1633SOL    HW1 5798   4.781   4.039   4.403
 1633SOL    HW2 5799   4.814   3.977   4.550
 1634SOL     OW 5800   5.006   5.732   4.830
 1634SOL    HW1 5801   4.987   5.636   4.851
 1634SOL    HW2 5802   4.998   5.787   4.913
 1635SOL     OW 5803   0.641   5.163   6.686
 1635SOL    HW1 5804   0.738   5.145   6.703
 1635SOL    HW2 5805   0.627   5.262   6.679
 1636SOL     OW 5806   3.070   4.421   1.039
 1636SOL    HW1 5807   3.100   4.442   0.946
 1636SOL    HW2 5808   2.971   4.407   1.040
 1637SOL     OW 5809   6.722   0.345   3.258
 1637SOL    HW1 5810   6.773   0.316   3.177
 1637SOL    HW2 5811   6.633   0.300   3.259
 1638SOL     OW 5812   0.019   3.887   2.858
 1638SOL    HW1 5813   6.943   3.871   2.849
 1638SOL    HW2 5814   0.041   3.979   2.828
 1639SOL     OW 5815   5.815   5.481   1.178
 1639SOL    HW1 5816   5.873   5.562   1.171
 1639SOL    HW2 5817   5.732   5.495   1.123
 1640SOL     OW 5818   6.033   0.032   6.831
 1640SOL    HW1 5819   6.003   0.105   6.893
 1640SOL    HW2 5820   6.131   0.016   6.843
 1641SOL     OW 5821   4.842   2.119   2.687
 1641SOL    HW1 5822   4.925   2.157   2.647
 1641SOL    HW2 5823   4.763   2.175   2.663
 1642SOL     OW 5824   0.163   3.497   0.069
 1642SOL    HW1 5825   0.232   3.518   0.139
 1642SOL    HW2 5826   0.095   3.571   0.067
 1643SOL     OW 5827   2.779   4.988   4.700
 1643SOL    HW1 5828   2.857   4.957   4.644
 1643SOL    HW2 5829   2.695   4.945   4.666
 1644SOL     OW 5830   5.839   3.998   6.861
 1644SOL    HW1 5831   5.868   3.902   6.855
 1644SOL    HW2 5832   5.893   4.043   6.933
 1645SOL     OW 5833   3.183   5.615   6.191
 1645SOL    HW1 5834   3.200   5.521   6.221
 1645SOL    HW2 5835   3.100   5.649   6.234
 1646SOL     OW 5836   2.132   6.863   0.821
 1646SOL    HW1 5837   2.202   6.931   0.799
 1646SOL    HW2 5838   2.149   6.825   0.911
 1647SOL     OW 5839   6.014   3.136   4.863
 1647SOL    HW1 5840   5.995   3.209   4.797
 1647SOL    HW2 5841   6.096   3.086   4.834
 1648SOL     OW 5842   5.160   5.689   0.434
 1648SOL    HW1 5843   5.221   5.680   0.355
 1648SOL    HW2 5844   5.065   5.691   0.402
 1649SOL     OW 5845   3.609   1.273   4.128
 1649SOL    HW1 5846   3.668   1.207   4.174
 1649SOL    HW2 5847   3.622   1.364   4.168
 1650SOL     OW 5848   0.791   5.959   4.693
 1650SOL    HW1 5849   0.697   5.993   4.694
 1650SOL    HW2 5850   0.816   5.928   4.785
 1651SOL     OW 5851   0.216   2.304   1.809
 1651SOL    HW1 5852   0.286   2.282   1.877
 1651SOL    HW2 5853   0.220   2.237   1.735
 1652SOL     OW 5854   1.153   3.455   2.798
 1652SOL    HW1 5855   1.213   3.452   2.878
 1652SOL    HW2 5856   1.097   3.538   2.801
 1653SOL     OW 5857   0.739   6.366   0.058
 1653SOL    HW1 5858   0.817   6.308   0.082
 1653SOL    HW2 5859   0.690   6.393   0.141
 1654SOL     OW 5860   0.010   3.843   1.663
 1654SOL    HW1 5861   0.002   3.765   1.600
 1654SOL    HW2 5862   0.106   3.870   1.669
 1655SOL     OW 5863   0.313   2.160   4.876
 1655SOL    HW1 5864   0.352   2.248   4.846
 1655SOL    HW2 5865   0.251   2.175   4.953
 1656SOL     OW 5866   2.423   4.750   3.156
 1656SOL    HW1 5867   2.522   4.755   3.164
 1656SOL    HW2 5868   2.383   4.839   3.177
 1657SOL     OW 5869   6.132   1.229   4.505
 1657SOL    HW1 5870   6.211   1.169   4.495
 1657SOL    HW2 5871   6.162   1.324   4.512
 1658SOL     OW 5872   5.804   0.660   1.423
 1658SOL    HW1 5873   5.708   0.655   1.398
 1658SOL    HW2 5874   5.812   0.658   1.523
 1659SOL     OW 5875   3.292   0.436   6.782
 1659SOL    HW1 5876   3.208   0.489   6.796
 1659SOL    HW2 5877   3.269   0.347   6.743
 1660SOL     OW 5878   1.822   5.935   2.948
 1660SOL    HW1 5879   1.745   5.885   2.907
 1660SOL    HW2 5880   1.830   6.025   2.904
 1661SOL     OW 5881   2.408   6.157   1.199
 1661SOL    HW1 5882   2.409   6.178   1.101
 1661SOL    HW2 5883   2.501   6.157   1.234
 1662SOL     OW 5884   0.467   1.403   4.297
 1662SOL    HW1 5885   0.556   1.440   4.324
 1662SOL    HW2 5886   0.477   1.346   4.216
 1663SOL     OW 5887   3.948   5.913   3.077
 1663SOL    HW1 5888   4.020   5.973   3.112
 1663SOL    HW2 5889   3.989   5.835   3.030
 1664SOL     OW 5890   2.344   6.475   5.065
 1664SOL    HW1 5891   2.290   6.545   5.113
 1664SOL    HW2 5892   2.282   6.406   5.026
 1665SOL     OW 5893   6.384   2.826   2.409
 1665SOL    HW1 5894   6.417   2.900   2.468
 1665SOL    HW2 5895   6.446   2.816   2.331
 1666SOL     OW 5896   5.179   1.566   6.601
 1666SOL    HW1 5897   5.229   1.481   6.585
 1666SOL    HW2 5898   5.124   1.558   6.684
 1667SOL     OW 5899   0.381   6.800   1.215
 1667SOL    HW1 5900   0.396   6.898   1.223
 1667SOL    HW2 5901   0.395   6.756   1.303
 1668SOL     OW 5902   5.087   5.627   3.837
 1668SOL    HW1 5903   5.015   5.596   3.900
 1668SOL    HW2 5904   5.046   5.661   3.753
 1669SOL     OW 5905   6.274   4.831   6.169
 1669SOL    HW1 5906   6.334   4.895   6.121
 1669SOL    HW2 5907   6.184   4.832   6.127
 1670SOL     OW 5908   0.164   3.875   5.332
 1670SOL    HW1 5909   0.071   3.885   5.298
 1670SOL    HW2 5910   0.213   3.961   5.320
 1671SOL     OW 5911   5.232   2.231   2.789
 1671SOL    HW1 5912   5.242   2.135   2.814
 1671SOL    HW2 5913   5.160   2.240   2.721
 1672SOL     OW 5914   1.327   3.519   1.448
 1672SOL    HW1 5915   1.399   3.570   1.401
 1672SOL    HW2 5916   1.327   3.424   1.415
 1673SOL     OW 5917   0.497   1.379   5.085
 1673SOL    HW1 5918   0.470   1.283   5.079
 1673SOL    HW2 5919   0.526   1.401   5.178
 1674SOL     OW 5920   0.836   2.866   2.625
 1674SOL    HW1 5921   0.865   2.954   2.587
 1674SOL    HW2 5922   0.875   2.792   2.572
 1675SOL     OW 5923   5.327   0.240   0.122
 1675SOL    HW1 5924   5.287   0.319   0.075
 1675SOL    HW2 5925   5.258   0.169   0.133
 1676SOL     OW 5926   2.340   2.416   1.473
 1676SOL    HW1 5927   2.271   2.430   1.545
 1676SOL    HW2 5928   2.428   2.395   1.515
 1677SOL     OW 5929   2.971   3.204   3.903
 1677SOL    HW1 5930   2.935   3.274   3.965
 1677SOL    HW2 5931   3.023   3.137   3.956
 1678SOL     OW 5932   6.380   4.276   3.251
 1678SOL    HW1 5933   6.355   4.183   3.278
 1678SOL    HW2 5934   6.332   4.300   3.167
 1679SOL     OW 5935   2.110   2.391   4.604
 1679SOL    HW1 5936   2.120   2.295   4.578
 1679SOL    HW2 5937   2.019   2.405   4.644
 1680SOL     OW 5938   0.532   2.970   5.711
 1680SOL    HW1 5939   0.450   2.932   5.669
 1680SOL    HW2 5940   0.612   2.944   5.657
 1681SOL     OW 5941   0.273   5.153   6.851
 1681SOL    HW1 5942   0.215   5.087   6.805
 1681SOL    HW2 5943   0.310   5.112   6.934
 1682SOL     OW 5944   1.561   0.769   5.650
 1682SOL    HW1 5945   1.524   0.792   5.740
 1682SOL    HW2 5946   1.486   0.740   5.590
 1683SOL     OW 5947   5.551   5.382   2.611
 1683SOL    HW1 5948   5.566   5.361   2.515
 1683SOL    HW2 5949   5.473   5.443   2.620
 1684SOL     OW 5950   0.934   6.378   2.167
 1684SOL    HW1 5951   0.904   6.394   2.261
 1684SOL    HW2 5952   0.943   6.279   2.153
 1685SOL     OW 5953   1.811   0.853   5.425
 1685SOL    HW1 5954   1.777   0.793   5.352
 1685SOL    HW2 5955   1.834   0.942   5.387
 1686SOL     OW 5956   2.241   6.187   4.024
 1686SOL    HW1 5957   2.251   6.163   3.928
 1686SOL    HW2 5958   2.170   6.130   4.066
 1687SOL     OW 5959   1.746   2.968   1.820
 1687SOL    HW1 5960   1.827   3.003   1.868
 1687SOL    HW2 5961   1.723   2.877   1.855
 1688SOL     OW 5962   2.446   1.704   3.655
 1688SOL    HW1 5963   2.489   1.792   3.638
 1688SOL    HW2 5964   2.516   1.632   3.654
 1689SOL     OW 5965   6.280   0.642   2.947
 1689SOL    HW1 5966   6.374   0.631   2.914
 1689SOL    HW2 5967   6.281   0.645   3.047
 1690SOL     OW 5968   1.045   2.292   4.206
 1690SOL    HW1 5969   1.139   2.322   4.222
 1690SOL    HW2 5970   0.983   2.368   4.226
 1691SOL     OW 5971   5.111   2.943   3.516
 1691SOL    HW1 5972   5.119   2.849   3.549
 1691SOL    HW2 5973   5.116   3.006   3.594
 1692SOL     OW 5974   5.172   6.409   0.902
 1692SOL    HW1 5975   5.173   6.443   0.808
 1692SOL    HW2 5976   5.107   6.463   0.956
 1693SOL     OW 5977   5.951   1.839   2.588
 1693SOL    HW1 5978   5.911   1.774   2.523
 1693SOL    HW2 5979   6.035   1.801   2.626
 1694SOL     OW 5980   5.414   1.504   3.289
 1694SOL    HW1 5981   5.386   1.600   3.295
 1694SOL    HW2 5982   5.514   1.498   3.298
 1695SOL     OW 5983   4.074   1.014   6.221
 1695SOL    HW1 5984   3.984   1.028   6.179
 1695SOL    HW2 5985   4.064   1.009   6.320
 1696SOL     OW 5986   4.304   6.302   1.154
 1696SOL    HW1 5987   4.357   6.223   1.184
 1696SOL    HW2 5988   4.301   6.304   1.054
 1697SOL     OW 5989   6.261   1.250   0.483
 1697SOL    HW1 5990   6.180   1.238   0.541
 1697SOL    HW2 5991   6.321   1.319   0.523
 1698SOL     OW 5992   3.246   0.152   0.407
 1698SOL    HW1 5993   3.329   0.183   0.362
 1698SOL    HW2 5994   3.185   0.110   0.341
 1699SOL     OW 5995   2.113   0.905   0.170
 1699SOL    HW1 5996   2.081   0.878   0.261
 1699SOL    HW2 5997   2.185   0.973   0.178
 1700SOL     OW 5998   6.684   4.344   3.408
 1700SOL    HW1 5999   6.622   4.408   3.452
 1700SOL    HW2 6000   6.631   4.280   3.352
 1701SOL     OW 6001   5.862   4.933   5.881
 1701SOL    HW1 6002   5.764   4.945   5.898
 1701SOL    HW2 6003   5.914   4.975   5.955
 1702SOL     OW 6004   6.405   1.538   0.936
 1702SOL    HW1 6005   6.446   1.584   1.015
 1702SOL    HW2 6006   6.477   1.505   0.876
 1703SOL     OW 6007   3.422   1.786   0.416
 1703SOL    HW1 6008   3.485   1.759   0.489
 1703SOL    HW2 6009   3.328   1.781   0.451
 1704SOL     OW 6010   0.819   1.842   1.074
 1704SOL    HW1 6011   0.842   1.852   1.171
 1704SOL    HW2 6012   0.869   1.764   1.036
 1705SOL     OW 6013   3.184   2.099   2.545
 1705SOL    HW1 6014   3.102   2.067   2.593
 1705SOL    HW2 6015   3.161   2.124   2.451
 1706SOL     OW 6016   4.884   1.161   1.803
 1706SOL    HW1 6017   4.801   1.147   1.857
 1706SOL    HW2 6018   4.866   1.136   1.708
 1707SOL     OW 6019   4.378   2.153   1.948
 1707SOL    HW1 6020   4.315   2.117   2.017
 1707SOL    HW2 6021   4.346   2.243   1.918
 1708SOL     OW 6022   5.036   5.669   1.856
 1708SOL    HW1 6023   5.116   5.648   1.799
 1708SOL    HW2 6024   4.956   5.681   1.797
 1709SOL     OW 6025   3.349   6.482   2.579
 1709SOL    HW1 6026   3.334   6.575   2.547
 1709SOL    HW2 6027   3.281   6.459   2.649
 1710SOL     OW 6028   4.787   4.741   3.656
 1710SOL    HW1 6029   4.757   4.775   3.746
 1710SOL    HW2 6030   4.713   4.754   3.589
 1711SOL     OW 6031   1.760   4.904   4.720
 1711SOL    HW1 6032   1.800   4.962   4.649
 1711SOL    HW2 6033   1.691   4.956   4.770
 1712SOL     OW 6034   6.606   2.707   4.520
 1712SOL    HW1 6035   6.579   2.791   4.566
 1712SOL    HW2 6036   6.578   2.710   4.425
 1713SOL     OW 6037   4.604   2.672   1.774
 1713SOL    HW1 6038   4.660   2.755   1.779
 1713SOL    HW2 6039   4.655   2.601   1.726
 1714SOL     OW 6040   3.559   1.299   6.296
 1714SOL    HW1 6041   3.571   1.327   6.391
 1714SOL    HW2 6042   3.480   1.237   6.290
 1715SOL     OW 6043   1.823   5.192   2.873
 1715SOL    HW1 6044   1.885   5.239   2.811
 1715SOL    HW2 6045   1.758   5.257   2.912
 1716SOL     OW 6046   4.443   6.844   2.608
 1716SOL    HW1 6047   4.491   6.914   2.556
 1716SOL    HW2 6048   4.392   6.886   2.683
 1717SOL     OW 6049   2.786   6.108   5.222
 1717SOL    HW1 6050   2.788   6.180   5.291
 1717SOL    HW2 6051   2.716   6.129   5.153
 1718SOL     OW 6052   3.049   1.333   1.831
 1718SOL    HW1 6053   3.060   1.412   1.893
 1718SOL    HW2 6054   3.139   1.300   1.804
 1719SOL     OW 6055   2.212   2.894   1.152
 1719SOL    HW1 6056   2.258   2.956   1.215
 1719SOL    HW2 6057   2.133   2.853   1.197
 1720SOL     OW 6058   0.199   3.212   0.642
 1720SOL    HW1 6059   0.199   3.296   0.695
 1720SOL    HW2 6060   0.159   3.138   0.695
 1721SOL     OW 6061   2.036   6.605   1.478
 1721SOL    HW1 6062   2.114   6.563   1.525
 1721SOL    HW2 6063   2.052   6.703   1.468
 1722SOL     OW 6064   2.906   1.572   4.148
 1722SOL    HW1 6065   2.987   1.564   4.089
 1722SOL    HW2 6066   2.882   1.669   4.159
 1723SOL     OW 6067   6.238   2.509   0.493
 1723SOL    HW1 6068   6.162   2.466   0.444
 1723SOL    HW2 6069   6.245   2.471   0.585
 1724SOL     OW 6070   0.021   3.095   2.435
 1724SOL    HW1 6071   0.100   3.079   2.376
 1724SOL    HW2 6072   0.047   3.154   2.511
 1725SOL     OW 6073   2.130   4.717   6.236
 1725SOL    HW1 6074   2.037   4.738   6.206
 1725SOL    HW2 6075   2.195   4.743   6.164
 1726SOL     OW 6076   5.879   4.644   5.319
 1726SOL    HW1 6077   5.931   4.562   5.343
 1726SOL    HW2 6078   5.940   4.712   5.279
 1727SOL     OW 6079   3.464   2.849   3.558
 1727SOL    HW1 6080   3.448   2.885   3.466
 1727SOL    HW2 6081   3.562   2.848   3.576
 1728SOL     OW 6082   5.635   6.121   5.380
 1728SOL    HW1 6083   5.671   6.063   5.306
 1728SOL    HW2 6084   5.541   6.148   5.358
 1729SOL     OW 6085   2.294   4.196   3.500
 1729SOL    HW1 6086   2.277   4.164   3.593
 1729SOL    HW2 6087   2.346   4.126   3.450
 1730SOL     OW 6088   1.914   0.095   4.950
 1730SOL    HW1 6089   1.936   0.020   4.887
 1730SOL    HW2 6090   1.959   0.079   5.038
 1731SOL     OW 6091   0.630   4.324   4.235
 1731SOL    HW1 6092   0.580   4.306   4.150
 1731SOL    HW2 6093   0.717   4.276   4.234
 1732SOL     OW 6094   2.141   4.847   5.853
 1732SOL    HW1 6095   2.203   4.802   5.917
 1732SOL    HW2 6096   2.091   4.778   5.801
 1733SOL     OW 6097   1.412   4.390   1.797
 1733SOL    HW1 6098   1.418   4.470   1.738
 1733SOL    HW2 6099   1.329   4.339   1.776
 1734SOL     OW 6100   4.459   3.029   1.131
 1734SOL    HW1 6101   4.440   3.021   1.229
 1734SOL    HW2 6102   4.520   2.954   1.103
 1735SOL     OW 6103   4.469   5.282   6.670
 1735SOL    HW1 6104   4.542   5.319   6.613
 1735SOL    HW2 6105   4.441   5.192   6.636
 1736SOL     OW 6106   3.720   3.588   1.057
 1736SOL    HW1 6107   3.773   3.503   1.062
 1736SOL    HW2 6108   3.623   3.567   1.043
 1737SOL     OW 6109   4.537   1.192   4.740
 1737SOL    HW1 6110   4.592   1.209   4.658
 1737SOL    HW2 6111   4.447   1.159   4.712
 1738SOL     OW 6112   1.909   3.034   4.349
 1738SOL    HW1 6113   1.971   3.077   4.414
 1738SOL    HW2 6114   1.959   2.967   4.294
 1739SOL     OW 6115   7.000   1.563   5.363
 1739SOL    HW1 6116   6.947   1.480   5.378
 1739SOL    HW2 6117   6.965   1.610   5.282
 1740SOL     OW 6118   0.135   2.269   5.089
 1740SOL    HW1 6119   0.177   2.275   5.179
 1740SOL    HW2 6120   0.099   2.358   5.062
 1741SOL     OW 6121   2.637   0.558   4.105
 1741SOL    HW1 6122   2.727   0.544   4.146
 1741SOL    HW2 6123   2.575   0.486   4.136
 1742SOL     OW 6124   5.852   0.727   5.700
 1742SOL    HW1 6125   5.802   0.740   5.786
 1742SOL    HW2 6126   5.906   0.808   5.680
 1743SOL     OW 6127   0.675   2.124   2.365
 1743SOL    HW1 6128   0.614   2.166   2.432
 1743SOL    HW2 6129   0.712   2.039   2.403
 1744SOL     OW 6130   6.278   3.191   3.304
 1744SOL    HW1 6131   6.275   3.135   3.221
 1744SOL    HW2 6132   6.259   3.287   3.279
 1745SOL     OW 6133   5.494   5.683   2.337
 1745SOL    HW1 6134   5.417   5.744   2.354
 1745SOL    HW2 6135   5.475   5.627   2.256
 1746SOL     OW 6136   1.545   4.266   4.479
 1746SOL    HW1 6137   1.455   4.238   4.444
 1746SOL    HW2 6138   1.606   4.284   4.402
 1747SOL     OW 6139   4.531   1.772   2.783
 1747SOL    HW1 6140   4.537   1.762   2.684
 1747SOL    HW2 6141   4.560   1.686   2.827
 1748SOL     OW 6142   0.172   1.931   5.149
 1748SOL    HW1 6143   0.179   1.898   5.055
 1748SOL    HW2 6144   0.098   1.998   5.155
 1749SOL     OW 6145   2.234   6.917   5.410
 1749SOL    HW1 6146   2.315   6.860   5.402
 1749SOL    HW2 6147   2.152   6.859   5.409
 1750SOL     OW 6148   5.056   6.044   3.908
 1750SOL    HW1 6149   5.055   6.144   3.909
 1750SOL    HW2 6150   4.963   6.009   3.910
 1751SOL     OW 6151   4.017   0.760   3.710
 1751SOL    HW1 6152   3.972   0.672   3.725
 1751SOL    HW2 6153   4.112   0.745   3.680
 1752SOL     OW 6154   6.211   1.257   2.425
 1752SOL    HW1 6155   6.304   1.225   2.445
 1752SOL    HW2 6156   6.210   1.357   2.422
 1753SOL     OW 6157   0.061   1.078   1.380
 1753SOL    HW1 6158   0.003   1.019   1.325
 1753SOL    HW2 6159   0.104   1.025   1.453
 1754SOL     OW 6160   1.828   4.730   0.049
 1754SOL    HW1 6161   1.860   4.668   7.000
 1754SOL    HW2 6162   1.884   4.718   0.131
 1755SOL     OW 6163   0.309   5.960   1.016
 1755SOL    HW1 6164   0.405   5.988   1.014
 1755SOL    HW2 6165   0.250   6.041   1.010
 1756SOL     OW 6166   4.629   5.465   5.541
 1756SOL    HW1 6167   4.586   5.504   5.623
 1756SOL    HW2 6168   4.703   5.404   5.568
 1757SOL     OW 6169   2.678   5.600   4.737
 1757SOL    HW1 6170   2.712   5.515   4.777
 1757SOL    HW2 6171   2.672   5.671   4.807
 1758SOL     OW 6172   2.069   0.990   4.551
 1758SOL    HW1 6173   2.071   1.049   4.632
 1758SOL    HW2 6174   2.140   1.020   4.487
 1759SOL     OW 6175   2.193   5.954   5.554
 1759SOL    HW1 6176   2.198   5.878   5.619
 1759SOL    HW2 6177   2.154   5.921   5.468
 1760SOL     OW 6178   5.749   0.847   3.635
 1760SOL    HW1 6179   5.806   0.835   3.554
 1760SOL    HW2 6180   5.653   0.850   3.609
 1761SOL     OW 6181   0.075   0.671   1.743
 1761SOL    HW1 6182   6.999   0.683   1.726
 1761SOL    HW2 6183   0.113   0.755   1.780
 1762SOL     OW 6184   0.500   1.193   4.127
 1762SOL    HW1 6185   0.570   1.143   4.177
 1762SOL    HW2 6186   0.415   1.140   4.127
 1763SOL     OW 6187   0.477   4.362   4.471
 1763SOL    HW1 6188   0.514   4.364   4.378
 1763SOL    HW2 6189   0.533   4.303   4.528
 1764SOL     OW 6190   2.129   3.182   2.274
 1764SOL    HW1 6191   2.102   3.180   2.370
 1764SOL    HW2 6192   2.110   3.272   2.235
 1765SOL     OW 6193   4.147   0.924   1.655
 1765SOL    HW1 6194   4.137   0.827   1.680
 1765SOL    HW2 6195   4.113   0.938   1.563
 1766SOL     OW 6196   5.314   4.805   3.700
 1766SOL    HW1 6197   5.266   4.884   3.737
 1766SOL    HW2 6198   5.375   4.767   3.770
 1767SOL     OW 6199   0.971   4.145   3.233
 1767SOL    HW1 6200   0.909   4.156   3.156
 1767SOL    HW2 6201   0.920   4.114   3.313
 1768SOL     OW 6202   3.506   0.742   6.905
 1768SOL    HW1 6203   3.429   0.732   6.968
 1768SOL    HW2 6204   3.477   0.797   6.826
 1769SOL     OW 6205   4.839   1.372   6.965
 1769SOL    HW1 6206   4.873   1.291   6.915
 1769SOL    HW2 6207   4.768   1.416   6.912
 1770SOL     OW 6208   6.258   4.580   4.778
 1770SOL    HW1 6209   6.226   4.486   4.770
 1770SOL    HW2 6210   6.348   4.589   4.736
 1771SOL     OW 6211   1.590   5.343   0.821
 1771SOL    HW1 6212   1.490   5.340   0.820
 1771SOL    HW2 6213   1.620   5.437   0.807
 1772SOL     OW 6214   3.637   5.838   3.738
 1772SOL    HW1 6215   3.612   5.846   3.642
 1772SOL    HW2 6216   3.733   5.811   3.746
 1773SOL     OW 6217   2.901   2.722   5.989
 1773SOL    HW1 6218   2.914   2.733   6.087
 1773SOL    HW2 6219   2.805   2.699   5.971
 1774SOL     OW 6220   5.266   6.123   1.608
 1774SOL    HW1 6221   5.208   6.202   1.629
 1774SOL    HW2 6222   5.307   6.088   1.692
 1775SOL     OW 6223   1.745   4.803   5.629
 1775SOL    HW1 6224   1.754   4.870   5.555
 1775SOL    HW2 6225   1.828   4.748   5.634
 1776SOL     OW 6226   4.852   0.578   6.465
 1776SOL    HW1 6227   4.811   0.530   6.388
 1776SOL    HW2 6228   4.795   0.567   6.546
 1777SOL     OW 6229   2.922   6.400   6.162
 1777SOL    HW1 6230   2.970   6.424   6.246
 1777SOL    HW2 6231   2.852   6.468   6.142
 1778SOL     OW 6232   5.134   1.924   4.109
 1778SOL    HW1 6233   5.196   1.868   4.163
 1778SOL    HW2 6234   5.183   1.961   4.030
 1779SOL     OW 6235   4.945   1.177   5.084
 1779SOL    HW1 6236   5.015   1.149   5.018
 1779SOL    HW2 6237   4.941   1.110   5.158
 1780SOL     OW 6238   1.873   3.751   5.830
 1780SOL    HW1 6239   1.880   3.838   5.780
 1780SOL    HW2 6240   1.924   3.680   5.781
 1781SOL     OW 6241   6.080   6.063   4.208
 1781SOL    HW1 6242   5.998   6.050   4.153
 1781SOL    HW2 6243   6.063   6.133   4.278
 1782SOL     OW 6244   3.223   1.146   2.508
 1782SOL    HW1 6245   3.285   1.156   2.586
 1782SOL    HW2 6246   3.231   1.225   2.448
 1783SOL     OW 6247   2.684   2.913   6.248
 1783SOL    HW1 6248   2.624   2.933   6.326
 1783SOL    HW2 6249   2.707   2.998   6.201
 1784SOL     OW 6250   2.094   1.385   1.880
 1784SOL    HW1 6251   2.114   1.425   1.790
 1784SOL    HW2 6252   2.169   1.405   1.943
 1785SOL     OW 6253   5.838   6.110   3.653
 1785SOL    HW1 6254   5.826   6.177   3.726
 1785SOL    HW2 6255   5.849   6.019   3.693
 1786SOL     OW 6256   1.747   3.957   0.360
 1786SOL    HW1 6257   1.781   4.047   0.332
 1786SOL    HW2 6258   1.798   3.886   0.311
 1787SOL     OW 6259   2.661   1.990   5.639
 1787SOL    HW1 6260   2.597   1.925   5.680
 1787SOL    HW2 6261   2.642   1.997   5.541
 1788SOL     OW 6262   4.087   4.002   0.220
 1788SOL    HW1 6263   4.027   4.010   0.300
 1788SOL    HW2 6264   4.147   3.923   0.231
 1789SOL     OW 6265   5.707   2.844   2.255
 1789SOL    HW1 6266   5.797   2.879   2.280
 1789SOL    HW2 6267   5.708   2.744   2.258
 1790SOL     OW 6268   2.812   0.921   4.610
 1790SOL    HW1 6269   2.838   0.887   4.520
 1790SOL    HW2 6270   2.839   1.017   4.618
 1791SOL     OW 6271   6.577   1.777   4.041
 1791SOL    HW1 6272   6.607   1.684   4.064
 1791SOL    HW2 6273   6.597   1.796   3.945
 1792SOL     OW 6274   0.043   1.177   4.282
 1792SOL    HW1 6275   0.036   1.137   4.373
 1792SOL    HW2 6276   0.064   1.275   4.290
 1793SOL     OW 6277   6.503   1.364   4.259
 1793SOL    HW1 6278   6.556   1.443   4.230
 1793SOL    HW2 6279   6.503   1.295   4.188
 1794SOL     OW 6280   4.836   6.607   5.391
 1794SOL    HW1 6281   4.805   6.689   5.439
 1794SOL    HW2 6282   4.929   6.585   5.419
 1795SOL     OW 6283   6.643   5.412   2.161
 1795SOL    HW1 6284   6.551   5.373   2.170
 1795SOL    HW2 6285   6.643   5.482   2.090
 1796SOL     OW 6286   2.365   1.490   4.973
 1796SOL    HW1 6287   2.421   1.569   4.995
 1796SOL    HW2 6288   2.269   1.511   4.987
 1797SOL     OW 6289   1.509   0.018   5.604
 1797SOL    HW1 6290   1.580   0.037   5.536
 1797SOL    HW2 6291   1.485   0.103   5.651
 1798SOL     OW 6292   3.818   3.031   5.139
 1798SOL    HW1 6293   3.795   3.005   5.045
 1798SOL    HW2 6294   3.862   3.121   5.139
 1799SOL     OW 6295   6.031   2.911   6.337
 1799SOL    HW1 6296   6.056   3.001   6.372
 1799SOL    HW2 6297   6.034   2.912   6.237
 1800SOL     OW 6298   5.045   4.725   3.428
 1800SOL    HW1 6299   5.050   4.706   3.526
 1800SOL    HW2 6300   4.999   4.813   3.413
 1801SOL     OW 6301   1.310   1.288   3.057
 1801SOL    HW1 6302   1.292   1.289   2.959
 1801SOL    HW2 6303   1.405   1.260   3.073
 1802SOL     OW 6304   6.799   6.190   3.508
 1802SOL    HW1 6305   6.862   6.176   3.431
 1802SOL    HW2 6306   6.733   6.114   3.511
 1803SOL     OW 6307   6.891   6.765   2.146
 1803SOL    HW1 6308   6.938   6.802   2.226
 1803SOL    HW2 6309   6.916   6.669   2.134
 1804SOL     OW 6310   4.088   3.538   5.408
 1804SOL    HW1 6311   4.027   3.459   5.411
 1804SOL    HW2 6312   4.118   3.554   5.314
 1805SOL     OW 6313   0.974   5.296   5.875
 1805SOL    HW1 6314   1.013   5.358   5.943
 1805SOL    HW2 6315   0.901   5.342   5.825
 1806SOL     OW 6316   0.545   2.589   2.020
 1806SOL    HW1 6317   0.509   2.523   2.085
 1806SOL    HW2 6318   0.601   2.657   2.068
 1807SOL     OW 6319   6.561   2.382   6.299
 1807SOL    HW1 6320   6.646   2.337   6.326
 1807SOL    HW2 6321   6.550   2.377   6.200
 1808SOL     OW 6322   5.918   4.435   4.525
 1808SOL    HW1 6323   5.822   4.407   4.525
 1808SOL    HW2 6324   5.927   4.526   4.565
 1809SOL     OW 6325   2.629   2.312   5.020
 1809SOL    HW1 6326   2.602   2.285   4.928
 1809SOL    HW2 6327   2.716   2.268   5.044
 1810SOL     OW 6328   0.889   0.887   5.071
 1810SOL    HW1 6329   0.939   0.833   5.003
 1810SOL    HW2 6330   0.911   0.984   5.061
 1811SOL     OW 6331   4.923   4.868   2.682
 1811SOL    HW1 6332   4.829   4.887   2.709
 1811SOL    HW2 6333   4.985   4.931   2.729
 1812SOL     OW 6334   4.832   6.986   6.754
 1812SOL    HW1 6335   4.759   6.951   6.814
 1812SOL    HW2 6336   4.820   0.062   6.741
 1813SOL     OW 6337   5.058   5.292   2.152
 1813SOL    HW1 6338   5.042   5.213   2.211
 1813SOL    HW2 6339   4.988   5.362   2.170
 1814SOL     OW 6340   6.177   0.773   0.844
 1814SOL    HW1 6341   6.149   0.783   0.749
 1814SOL    HW2 6342   6.118   0.707   0.890
 1815SOL     OW 6343   6.204   0.141   3.021
 1815SOL    HW1 6344   6.145   0.216   3.053
 1815SOL    HW2 6345   6.153   0.084   2.956
 1816SOL     OW 6346   3.284   4.678   0.163
 1816SOL    HW1 6347   3.300   4.582   0.141
 1816SOL    HW2 6348   3.227   4.684   0.245
 1817SOL     OW 6349   4.160   0.504   2.436
 1817SOL    HW1 6350   4.082   0.446   2.416
 1817SOL    HW2 6351   4.136   0.569   2.508
 1818SOL     OW 6352   1.831   6.618   0.902
 1818SOL    HW1 6353   1.814   6.697   0.961
 1818SOL    HW2 6354   1.877   6.648   0.818
 1819SOL     OW 6355   1.409   5.985   1.932
 1819SOL    HW1 6356   1.489   5.950   1.883
 1819SOL    HW2 6357   1.341   6.016   1.866
 1820SOL     OW 6358   3.346   0.170   2.056
 1820SOL    HW1 6359   3.278   0.211   2.117
 1820SOL    HW2 6360   3.408   0.112   2.110
 1821SOL     OW 6361   2.924   1.124   1.550
 1821SOL    HW1 6362   2.965   1.089   1.465
 1821SOL    HW2 6363   2.965   1.212   1.572
 1822SOL     OW 6364   0.847   2.872   1.805
 1822SOL    HW1 6365   0.857   2.827   1.716
 1822SOL    HW2 6366   0.751   2.896   1.820
 1823SOL     OW 6367   2.970   6.203   2.992
 1823SOL    HW1 6368   3.064   6.217   3.024
 1823SOL    HW2 6369   2.912   6.180   3.070
 1824SOL     OW 6370   3.604   4.236   0.816
 1824SOL    HW1 6371   3.672   4.233   0.744
 1824SOL    HW2 6372   3.644   4.203   0.902
 1825SOL     OW 6373   0.775   2.506   4.553
 1825SOL    HW1 6374   0.696   2.445   4.539
 1825SOL    HW2 6375   0.775   2.576   4.482
 1826SOL     OW 6376   2.944   0.966   1.220
 1826SOL    HW1 6377   2.985   0.910   1.148
 1826SOL    HW2 6378   2.856   0.925   1.248
 1827SOL     OW 6379   6.051   5.331   1.129
 1827SOL    HW1 6380   6.136   5.357   1.176
 1827SOL    HW2 6381   5.974   5.376   1.173
 1828SOL     OW 6382   1.652   2.986   6.427
 1828SOL    HW1 6383   1.594   2.907   6.407
 1828SOL    HW2 6384   1.639   3.056   6.358
 1829SOL     OW 6385   4.001   0.302   2.704
 1829SOL    HW1 6386   3.987   0.204   2.718
 1829SOL    HW2 6387   3.934   0.353   2.758
 1830SOL     OW 6388   5.584   6.285   4.449
 1830SOL    HW1 6389   5.614   6.192   4.425
 1830SOL    HW2 6390   5.634   6.317   4.529
 1831SOL     OW 6391   5.557   6.598   2.871
 1831SOL    HW1 6392   5.540   6.641   2.783
 1831SOL    HW2 6393   5.471   6.588   2.921
 1832SOL     OW 6394   3.774   1.552   0.730
 1832SOL    HW1 6395   3.824   1.629   0.770
 1832SOL    HW2 6396   3.720   1.506   0.801
 1833SOL     OW 6397   6.006   0.871   2.146
 1833SOL    HW1 6398   6.079   0.803   2.145
 1833SOL    HW2 6399   6.040   0.955   2.189
 1834SOL     OW 6400   1.843   4.334   1.207
 1834SOL    HW1 6401   1.935   4.372   1.217
 1834SOL    HW2 6402   1.836   4.250   1.260
 1835SOL     OW 6403   0.532   5.017   1.806
 1835SOL    HW1 6404   0.618   4.975   1.776
 1835SOL    HW2 6405   0.465   4.945   1.824
 1836SOL     OW 6406   5.501   2.413   2.128
 1836SOL    HW1 6407   5.413   2.460   2.132
 1836SOL    HW2 6408   5.493   2.321   2.165
 1837SOL     OW 6409   1.123   6.807   5.736
 1837SOL    HW1 6410   1.137   6.850   5.825
 1837SOL    HW2 6411   1.066   6.726   5.747
 1838SOL     OW 6412   5.845   1.051   6.025
 1838SOL    HW1 6413   5.807   1.058   6.117
 1838SOL    HW2 6414   5.775   1.072   5.958
 1839SOL     OW 6415   6.767   1.144   5.702
 1839SOL    HW1 6416   6.675   1.110   5.720
 1839SOL    HW2 6417   6.797   1.202   5.778
 1840SOL     OW 6418   4.254   0.045   2.017
 1840SOL    HW1 6419   4.255   0.043   1.917
 1840SOL    HW2 6420   4.327   0.106   2.050
 1841SOL     OW 6421   2.257   0.522   2.937
 1841SOL    HW1 6422   2.238   0.572   3.021
 1841SOL    HW2 6423   2.274   0.588   2.863
 1842SOL     OW 6424   1.073   5.768   1.476
 1842SOL    HW1 6425   1.104   5.826   1.551
 1842SOL    HW2 6426   1.130   5.686   1.472
 1843SOL     OW 6427   5.402   0.605   4.566
 1843SOL    HW1 6428   5.448   0.611   4.477
 1843SOL    HW2 6429   5.457   0.550   4.628
 1844SOL     OW 6430   4.269   0.171   5.151
 1844SOL    HW1 6431   4.366   0.163   5.174
 1844SOL    HW2 6432   4.260   0.209   5.059
 1845SOL     OW 6433   3.009   6.530   4.291
 1845SOL    HW1 6434   3.020   6.599   4.363
 1845SOL    HW2 6435   2.952   6.566   4.218
 1846SOL     OW 6436   4.586   1.299   2.610
 1846SOL    HW1 6437   4.507   1.333   2.661
 1846SOL    HW2 6438   4.659   1.367   2.612
 1847SOL     OW 6439   1.551   6.905   5.921
 1847SOL    HW1 6440   1.624   6.872   5.862
 1847SOL    HW2 6441   1.480   6.948   5.865
 1848SOL     OW 6442   2.016   6.530   3.681
 1848SOL    HW1 6443   2.037   6.436   3.654
 1848SOL    HW2 6444   1.917   6.545   3.679
 1849SOL     OW 6445   4.141   2.517   1.376
 1849SOL    HW1 6446   4.112   2.612   1.372
 1849SOL    HW2 6447   4.217   2.502   1.313
 1850SOL     OW 6448   6.699   2.177   2.445
 1850SOL    HW1 6449   6.642   2.167   2.364
 1850SOL    HW2 6450   6.642   2.176   2.527
 1851SOL     OW 6451   1.089   3.329   0.033
 1851SOL    HW1 6452   1.100   3.358   6.960
 1851SOL    HW2 6453   1.160   3.262   0.056
 1852SOL     OW 6454   0.303   4.951   2.752
 1852SOL    HW1 6455   0.293   5.026   2.686
 1852SOL    HW2 6456   0.285   4.986   2.844
 1853SOL     OW 6457   6.755   2.427   3.078
 1853SOL    HW1 6458   6.720   2.385   2.995
 1853SOL    HW2 6459   6.679   2.464   3.132
 1854SOL     OW 6460   1.948   5.225   2.591
 1854SOL    HW1 6461   1.986   5.135   2.570
 1854SOL    HW2 6462   2.022   5.286   2.620
 1855SOL     OW 6463   5.437   3.605   5.399
 1855SOL    HW1 6464   5.379   3.636   5.324
 1855SOL    HW2 6465   5.436   3.506   5.404
 1856SOL     OW 6466   4.748   3.033   6.289
 1856SOL    HW1 6467   4.696   3.118   6.289
 1856SOL    HW2 6468   4.839   3.049   6.250
 1857SOL     OW 6469   4.469   1.426   0.084
 1857SOL    HW1 6470   4.378   1.394   0.108
 1857SOL    HW2 6471   4.495   1.387   7.017
 1858SOL     OW 6472   5.392   2.756   3.119
 1858SOL    HW1 6473   5.297   2.786   3.127
 1858SOL    HW2 6474   5.418   2.706   3.202
 1859SOL     OW 6475   4.267   1.616   3.650
 1859SOL    HW1 6476   4.259   1.521   3.682
 1859SOL    HW2 6477   4.293   1.674   3.727
 1860SOL     OW 6478   6.959   1.577   5.663
 1860SOL    HW1 6479   6.964   1.558   5.565
 1860SOL    HW2 6480   6.987   1.672   5.680
 1861SOL     OW 6481   4.768   0.760   2.601
 1861SOL    HW1 6482   4.682   0.768   2.652
 1861SOL    HW2 6483   4.759   0.808   2.514
 1862SOL     OW 6484   2.178   6.692   0.094
 1862SOL    HW1 6485   2.246   6.653   0.032
 1862SOL    HW2 6486   2.214   6.777   0.133
 1863SOL     OW 6487   6.895   2.639   2.623
 1863SOL    HW1 6488   6.825   2.641   2.551
 1863SOL    HW2 6489   6.924   2.732   2.644
 1864SOL     OW 6490   3.420   6.021   4.408
 1864SOL    HW1 6491   3.424   5.996   4.504
 1864SOL    HW2 6492   3.490   5.971   4.357
 1865SOL     OW 6493   3.499   0.653   0.864
 1865SOL    HW1 6494   3.424   0.611   0.814
 1865SOL    HW2 6495   3.525   0.595   0.941
 1866SOL     OW 6496   0.152   4.742   3.526
 1866SOL    HW1 6497   0.172   4.676   3.453
 1866SOL    HW2 6498   0.167   4.835   3.492
 1867SOL     OW 6499   1.889   3.897   1.706
 1867SOL    HW1 6500   1.949   3.908   1.627
 1867SOL    HW2 6501   1.922   3.822   1.763
 1868SOL     OW 6502   5.481   3.692   6.712
 1868SOL    HW1 6503   5.554   3.689   6.643
 1868SOL    HW2 6504   5.399   3.650   6.676
 1869SOL     OW 6505   6.257   3.359   4.734
 1869SOL    HW1 6506   6.202   3.420   4.792
 1869SOL    HW2 6507   6.204   3.334   4.653
 1870SOL     OW 6508   1.009   3.152   5.261
 1870SOL    HW1 6509   1.096   3.189   5.227
 1870SOL    HW2 6510   1.001   3.056   5.233
 1871SOL     OW 6511   6.617   0.244   0.951
 1871SOL    HW1 6512   6.596   0.187   1.030
 1871SOL    HW2 6513   6.664   0.327   0.981
 1872SOL     OW 6514   4.265   2.129   0.059
 1872SOL    HW1 6515   4.190   2.074   0.094
 1872SOL    HW2 6516   4.324   2.158   0.135
 1873SOL     OW 6517   6.553   0.536   5.532
 1873SOL    HW1 6518   6.489   0.499   5.598
 1873SOL    HW2 6519   6.614   0.464   5.499
 1874SOL     OW 6520   1.039   1.063   6.589
 1874SOL    HW1 6521   0.956   1.096   6.634
 1874SOL    HW2 6522   1.052   1.112   6.503
 1875SOL     OW 6523   6.664   0.226   0.690
 1875SOL    HW1 6524   6.630   0.239   0.783
 1875SOL    HW2 6525   6.738   0.159   0.690
 1876SOL     OW 6526   3.857   6.011   6.268
 1876SOL    HW1 6527   3.860   6.086   6.334
 1876SOL    HW2 6528   3.923   6.029   6.194
 1877SOL     OW 6529   0.979   1.911   3.092
 1877SOL    HW1 6530   0.886   1.893   3.059
 1877SOL    HW2 6531   0.976   1.982   3.163
 1878SOL     OW 6532   6.558   3.907   3.580
 1878SOL    HW1 6533   6.556   4.000   3.617
 1878SOL    HW2 6534   6.569   3.841   3.654
 1879SOL     OW 6535   2.595   5.947   3.896
 1879SOL    HW1 6536   2.630   6.012   3.827
 1879SOL    HW2 6537   2.656   5.868   3.902
 1880SOL     OW 6538   0.283   1.790   2.862
 1880SOL    HW1 6539   0.185   1.801   2.847
 1880SOL    HW2 6540   0.328   1.879   2.854
 1881SOL     OW 6541   1.842   1.964   3.765
 1881SOL    HW1 6542   1.790   1.975   3.849
 1881SOL    HW2 6543   1.932   1.925   3.785
 1882SOL     OW 6544   0.555   4.942   6.806
 1882SOL    HW1 6545   0.567   5.035   6.771
 1882SOL    HW2 6546   0.565   4.876   6.731
 1883SOL     OW 6547   1.049   3.673   4.191
 1883SOL    HW1 6548   0.966   3.647   4.240
 1883SOL    HW2 6549   1.126   3.618   4.225
 1884SOL     OW 6550   6.087   2.546   1.305
 1884SOL    HW1 6551   6.098   2.642   1.331
 1884SOL    HW2 6552   6.103   2.537   1.206
 1885SOL     OW 6553   6.938   2.037   0.976
 1885SOL    HW1 6554   6.990   1.965   0.930
 1885SOL    HW2 6555   7.001   2.108   1.008
 1886SOL     OW 6556   2.385   2.393   6.876
 1886SOL    HW1 6557   2.333   2.330   6.819
 1886SOL    HW2 6558   2.483   2.383   6.856
 1887SOL     OW 6559   0.338   4.414   5.596
 1887SOL    HW1 6560   0.316   4.344   5.528
 1887SOL    HW2 6561   0.429   4.451   5.578
 1888SOL     OW 6562   2.746   2.245   5.634
 1888SOL    HW1 6563   2.734   2.284   5.543
 1888SOL    HW2 6564   2.702   2.155   5.639
 1889SOL     OW 6565   5.248   3.176   6.253
 1889SOL    HW1 6566   5.342   3.157   6.225
 1889SOL    HW2 6567   5.249   3.246   6.325
 1890SOL     OW 6568   1.622   5.922   5.286
 1890SOL    HW1 6569   1.616   5.930   5.187
 1890SOL    HW2 6570   1.587   6.005   5.329
 1891SOL     OW 6571   5.496   3.274   4.226
 1891SOL    HW1 6572   5.529   3.209   4.158
 1891SOL    HW2 6573   5.401   3.254   4.249
 1892SOL     OW 6574   3.429   6.993   1.208
 1892SOL    HW1 6575   3.408   6.919   1.272
 1892SOL    HW2 6576   3.400   6.967   1.116
 1893SOL     OW 6577   3.295   1.649   5.488
 1893SOL    HW1 6578   3.288   1.749   5.492
 1893SOL    HW2 6579   3.214   1.612   5.443
 1894SOL     OW 6580   4.164   3.784   1.595
 1894SOL    HW1 6581   4.216   3.850   1.648
 1894SOL    HW2 6582   4.201   3.778   1.503
 1895SOL     OW 6583   5.827   0.850   2.705
 1895SOL    HW1 6584   5.884   0.865   2.785
 1895SOL    HW2 6585   5.860   0.906   2.629
 1896SOL     OW 6586   0.501   0.725   3.147
 1896SOL    HW1 6587   0.484   0.811   3.196
 1896SOL    HW2 6588   0.566   0.669   3.198
 1897SOL     OW 6589   7.010   5.136   2.813
 1897SOL    HW1 6590   6.930   5.084   2.786
 1897SOL    HW2 6591   0.024   5.100   2.899
 1898SOL     OW 6592   3.209   5.187   1.674
 1898SOL    HW1 6593   3.117   5.167   1.707
 1898SOL    HW2 6594   3.204   5.254   1.599
 1899SOL     OW 6595   0.997   2.604   2.975
 1899SOL    HW1 6596   0.948   2.600   2.888
 1899SOL    HW2 6597   0.963   2.681   3.028
 1900SOL     OW 6598   0.753   0.525   5.491
 1900SOL    HW1 6599   0.828   0.511   5.426
 1900SOL    HW2 6600   0.738   0.440   5.543
 1901SOL     OW 6601   2.172   1.594   1.660
 1901SOL    HW1 6602   2.176   1.572   1.563
 1901SOL    HW2 6603   2.098   1.660   1.677
 1902SOL     OW 6604   2.448   2.498   5.129
 1902SOL    HW1 6605   2.481   2.556   5.203
 1902SOL    HW2 6606   2.525   2.455   5.083
 1903SOL     OW 6607   6.916   3.984   3.477
 1903SOL    HW1 6608   6.824   3.948   3.462
 1903SOL    HW2 6609   6.982   3.928   3.426
 1904SOL     OW 6610   5.917   6.983   3.953
 1904SOL    HW1 6611   5.999   6.939   3.990
 1904SOL    HW2 6612   5.931   0.060   3.950
 1905SOL     OW 6613   1.101   1.883   4.064
 1905SOL    HW1 6614   1.197   1.862   4.049
 1905SOL    HW2 6615   1.060   1.816   4.125
 1906SOL     OW 6616   3.029   0.023   5.407
 1906SOL    HW1 6617   3.017   6.999   5.319
 1906SOL    HW2 6618   2.971   7.001   5.476
 1907SOL     OW 6619   3.212   6.633   3.151
 1907SOL    HW1 6620   3.118   6.601   3.158
 1907SOL    HW2 6621   3.252   6.638   3.243
 1908SOL     OW 6622   4.515   0.984   4.932
 1908SOL    HW1 6623   4.583   0.911   4.923
 1908SOL    HW2 6624   4.555   1.070   4.901
 1909SOL     OW 6625   1.309   3.512   3.020
 1909SOL    HW1 6626   1.369   3.437   3.045
 1909SOL    HW2 6627   1.267   3.551   3.102
 1910SOL     OW 6628   6.744   2.229   6.736
 1910SOL    HW1 6629   6.707   2.197   6.648
 1910SOL    HW2 6630   6.677   2.212   6.808
 1911SOL     OW 6631   5.886   2.224   5.722
 1911SOL    HW1 6632   5.924   2.278   5.647
 1911SOL    HW2 6633   5.802   2.267   5.755
 1912SOL     OW 6634   3.826   6.460   1.404
 1912SOL    HW1 6635   3.729   6.449   1.426
 1912SOL    HW2 6636   3.882   6.430   1.481
 1913SOL     OW 6637   1.802   6.412   5.615
 1913SOL    HW1 6638   1.723   6.459   5.653
 1913SOL    HW2 6639   1.842   6.468   5.542
 1914SOL     OW 6640   3.105   2.668   6.856
 1914SOL    HW1 6641   3.113   2.714   6.944
 1914SOL    HW2 6642   3.190   2.680   6.805
 1915SOL     OW 6643   4.341   1.271   5.430
 1915SOL    HW1 6644   4.245   1.295   5.415
 1915SOL    HW2 6645   4.378   1.230   5.346
 1916SOL     OW 6646   3.492   6.091   1.004
 1916SOL    HW1 6647   3.562   6.087   1.074
 1916SOL    HW2 6648   3.500   6.011   0.944
 1917SOL     OW 6649   3.627   2.894   4.399
 1917SOL    HW1 6650   3.641   2.835   4.478
 1917SOL    HW2 6651   3.597   2.985   4.430
 1918SOL     OW 6652   0.150   0.434   6.426
 1918SOL    HW1 6653   0.065   0.430   6.478
 1918SOL    HW2 6654   0.135   0.398   6.334
 1919SOL     OW 6655   2.417   6.329   1.480
 1919SOL    HW1 6656   2.369   6.251   1.440
 1919SOL    HW2 6657   2.398   6.335   1.577
 1920SOL     OW 6658   0.639   5.096   2.728
 1920SOL    HW1 6659   0.576   5.116   2.803
 1920SOL    HW2 6660   0.695   5.016   2.752
 1921SOL     OW 6661   1.433   4.374   0.184
 1921SOL    HW1 6662   1.440   4.343   0.089
 1921SOL    HW2 6663   1.518   4.417   0.212
 1922SOL     OW 6664   3.437   4.478   0.818
 1922SOL    HW1 6665   3.445   4.565   0.769
 1922SOL    HW2 6666   3.504   4.413   0.781
 1923SOL     OW 6667   3.367   0.990   5.946
 1923SOL    HW1 6668   3.412   0.974   6.034
 1923SOL    HW2 6669   3.392   1.081   5.912
 1924SOL     OW 6670   5.851   5.408   2.110
 1924SOL    HW1 6671   5.904   5.357   2.178
 1924SOL    HW2 6672   5.894   5.398   2.020
 1925SOL     OW 6673   3.010   3.582   2.011
 1925SOL    HW1 6674   3.041   3.605   2.103
 1925SOL    HW2 6675   2.978   3.487   2.010
 1926SOL     OW 6676   1.065   6.938   3.645
 1926SOL    HW1 6677   0.989   6.987   3.604
 1926SOL    HW2 6678   1.151   6.968   3.603
 1927SOL     OW 6679   3.388   5.128   6.115
 1927SOL    HW1 6680   3.469   5.187   6.107
 1927SOL    HW2 6681   3.409   5.038   6.078
 1928SOL     OW 6682   6.853   3.952   6.156
 1928SOL    HW1 6683   6.857   3.927   6.252
 1928SOL    HW2 6684   6.760   3.939   6.121
 1929SOL     OW 6685   0.992   5.882   0.838
 1929SOL    HW1 6686   0.918   5.831   0.882
 1929SOL    HW2 6687   1.067   5.820   0.817
 1930SOL     OW 6688   3.865   3.914   0.002
 1930SOL    HW1 6689   3.936   3.980   6.998
 1930SOL    HW2 6690   3.810   3.890   6.945
 1931SOL     OW 6691   6.905   2.280   3.273
 1931SOL    HW1 6692   6.857   2.279   3.361
 1931SOL    HW2 6693   6.855   2.338   3.209
 1932SOL     OW 6694   4.900   3.704   2.989
 1932SOL    HW1 6695   4.918   3.648   2.909
 1932SOL    HW2 6696   4.889   3.646   3.070
 1933SOL     OW 6697   2.638   4.595   0.846
 1933SOL    HW1 6698   2.574   4.523   0.821
 1933SOL    HW2 6699   2.637   4.667   0.777
 1934SOL     OW 6700   0.588   0.324   4.246
 1934SOL    HW1 6701   0.523   0.254   4.215
 1934SOL    HW2 6702   0.550   0.415   4.230
 1935SOL     OW 6703   3.803   0.402   4.991
 1935SOL    HW1 6704   3.820   0.480   4.931
 1935SOL    HW2 6705   3.811   0.318   4.938
 1936SOL     OW 6706   6.444   4.264   4.002
 1936SOL    HW1 6707   6.503   4.312   3.937
 1936SOL    HW2 6708   6.441   4.167   3.977
 1937SOL     OW 6709   5.094   0.178   1.043
 1937SOL    HW1 6710   5.060   0.132   1.125
 1937SOL    HW2 6711   5.026   0.244   1.012
 1938SOL     OW 6712   3.620   0.983   1.706
 1938SOL    HW1 6713   3.563   0.968   1.786
 1938SOL    HW2 6714   3.659   0.896   1.676
 1939SOL     OW 6715   0.940   0.197   4.721
 1939SOL    HW1 6716   0.988   0.208   4.635
 1939SOL    HW2 6717   0.957   0.106   4.758
 1940SOL     OW 6718   4.161   4.727   6.480
 1940SOL    HW1 6719   4.163   4.677   6.393
 1940SOL    HW2 6720   4.067   4.728   6.516
 1941SOL     OW 6721   0.066   3.797   3.308
 1941SOL    HW1 6722   0.021   3.852   3.238
 1941SOL    HW2 6723   0.069   3.701   3.278
 1942SOL     OW 6724   5.689   0.538   2.099
 1942SOL    HW1 6725   5.760   0.473   2.126
 1942SOL    HW2 6726   5.731   0.625   2.072
 1943SOL     OW 6727   2.496   6.196   2.283
 1943SOL    HW1 6728   2.544   6.240   2.207
 1943SOL    HW2 6729   2.493   6.097   2.267
 1944SOL     OW 6730   5.843   2.151   0.526
 1944SOL    HW1 6731   5.871   2.058   0.550
 1944SOL    HW2 6732   5.898   2.216   0.578
 1945SOL     OW 6733   3.668   5.729   2.423
 1945SOL    HW1 6734   3.629   5.810   2.469
 1945SOL    HW2 6735   3.640   5.729   2.327
 1946SOL     OW 6736   6.276   0.715   1.233
 1946SOL    HW1 6737   6.358   0.659   1.226
 1946SOL    HW2 6738   6.204   0.663   1.278
 1947SOL     OW 6739   4.460   6.209   4.296
 1947SOL    HW1 6740   4.447   6.300   4.257
 1947SOL    HW2 6741   4.556   6.194   4.318
 1948SOL     OW 6742   5.580   6.057   4.125
 1948SOL    HW1 6743   5.483   6.051   4.104
 1948SOL    HW2 6744   5.600   6.003   4.206
 1949SOL     OW 6745   3.923   4.499   6.400
 1949SOL    HW1 6746   3.905   4.532   6.307
 1949SOL    HW2 6747   3.905   4.572   6.465
 1950SOL     OW 6748   3.843   4.658   1.038
 1950SOL    HW1 6749   3.827   4.571   1.085
 1950SOL    HW2 6750   3.829   4.734   1.101
 1951SOL     OW 6751   5.818   4.030   0.182
 1951SOL    HW1 6752   5.824   4.130   0.186
 1951SOL    HW2 6753   5.901   3.993   0.142
 1952SOL     OW 6754   4.200   2.392   6.770
 1952SOL    HW1 6755   4.182   2.405   6.867
 1952SOL    HW2 6756   4.241   2.476   6.733
 1953SOL     OW 6757   5.921   2.901   6.923
 1953SOL    HW1 6758   5.855   2.848   6.870
 1953SOL    HW2 6759   5.875   2.942   7.002
 1954SOL     OW 6760   5.481   1.185   3.798
 1954SOL    HW1 6761   5.527   1.266   3.762
 1954SOL    HW2 6762   5.490   1.183   3.898
 1955SOL     OW 6763   1.815   1.254   2.749
 1955SOL    HW1 6764   1.766   1.263   2.662
 1955SOL    HW2 6765   1.912   1.271   2.734
 1956SOL     OW 6766   4.931   6.600   2.212
 1956SOL    HW1 6767   4.911   6.591   2.310
 1956SOL    HW2 6768   4.845   6.613   2.162
 1957SOL     OW 6769   6.368   5.773   4.803
 1957SOL    HW1 6770   6.278   5.815   4.805
 1957SOL    HW2 6771   6.415   5.791   4.889
 1958SOL     OW 6772   5.575   2.293   2.620
 1958SOL    HW1 6773   5.483   2.299   2.580
 1958SOL    HW2 6774   5.611   2.201   2.605
 1959SOL     OW 6775   0.439   1.071   5.075
 1959SOL    HW1 6776   0.499   1.010   5.022
 1959SOL    HW2 6777   0.357   1.020   5.102
 1960SOL     OW 6778   6.750   4.692   1.612
 1960SOL    HW1 6779   6.774   4.605   1.656
 1960SOL    HW2 6780   6.674   4.734   1.661
 1961SOL     OW 6781   5.632   4.656   4.427
 1961SOL    HW1 6782   5.688   4.737   4.445
 1961SOL    HW2 6783   5.537   4.674   4.453
 1962SOL     OW 6784   2.389   0.053   3.325
 1962SOL    HW1 6785   2.406   0.028   3.230
 1962SOL    HW2 6786   2.293   0.035   3.347
 1963SOL     OW 6787   1.009   1.261   1.823
 1963SOL    HW1 6788   1.001   1.218   1.912
 1963SOL    HW2 6789   1.000   1.192   1.751
 1964SOL     OW 6790   4.973   3.918   1.222
 1964SOL    HW1 6791   4.904   3.952   1.158
 1964SOL    HW2 6792   5.061   3.908   1.174
 1965SOL     OW 6793   0.955   3.558   4.489
 1965SOL    HW1 6794   0.912   3.640   4.451
 1965SOL    HW2 6795   0.918   3.540   4.580
 1966SOL     OW 6796   6.770   6.191   0.060
 1966SOL    HW1 6797   6.687   6.243   0.039
 1966SOL    HW2 6798   6.764   6.153   0.151
 1967SOL     OW 6799   4.742   2.267   4.687
 1967SOL    HW1 6800   4.749   2.299   4.781
 1967SOL    HW2 6801   4.657   2.299   4.646
 1968SOL     OW 6802   3.335   6.772   0.320
 1968SOL    HW1 6803   3.354   6.846   0.385
 1968SOL    HW2 6804   3.252   6.723   0.348
 1969SOL     OW 6805   0.811   1.426   1.857
 1969SOL    HW1 6806   0.894   1.374   1.837
 1969SOL    HW2 6807   0.732   1.367   1.849
 1970SOL     OW 6808   2.172   0.033   6.033
 1970SOL    HW1 6809   2.137   0.040   5.939
 1970SOL    HW2 6810   2.133   6.974   6.077
 1971SOL     OW 6811   0.335   6.933   5.915
 1971SOL    HW1 6812   0.402   7.006   5.914
 1971SOL    HW2 6813   0.333   6.888   5.825
 1972SOL     OW 6814   5.853   2.419   2.597
 1972SOL    HW1 6815   5.878   2.489   2.530
 1972SOL    HW2 6816   5.756   2.397   2.587
 1973SOL     OW 6817   2.483   2.817   0.433
 1973SOL    HW1 6818   2.419   2.877   0.481
 1973SOL    HW2 6819   2.434   2.738   0.397
 1974SOL     OW 6820   5.302   6.006   4.092
 1974SOL    HW1 6821   5.253   5.992   4.005
 1974SOL    HW2 6822   5.273   5.936   4.158
 1975SOL     OW 6823   2.192   1.629   3.782
 1975SOL    HW1 6824   2.269   1.644   3.720
 1975SOL    HW2 6825   2.205   1.542   3.829
 1976SOL     OW 6826   0.761   6.098   6.840
 1976SOL    HW1 6827   0.833   6.073   6.905
 1976SOL    HW2 6828   0.672   6.082   6.882
 1977SOL     OW 6829   0.721   3.704   3.980
 1977SOL    HW1 6830   0.813   3.745   3.985
 1977SOL    HW2 6831   0.699   3.661   4.067
 1978SOL     OW 6832   0.908   0.626   3.068
 1978SOL    HW1 6833   0.897   0.664   3.160
 1978SOL    HW2 6834   0.864   0.686   3.001
 1979SOL     OW 6835   6.004   4.632   5.767
 1979SOL    HW1 6836   5.950   4.716   5.765
 1979SOL    HW2 6837   6.101   4.655   5.765
 1980SOL     OW 6838   2.434   0.471   5.237
 1980SOL    HW1 6839   2.425   0.552   5.179
 1980SOL    HW2 6840   2.507   0.413   5.201
 1981SOL     OW 6841   6.491   2.125   2.606
 1981SOL    HW1 6842   6.494   2.045   2.665
 1981SOL    HW2 6843   6.396   2.157   2.597
 1982SOL     OW 6844   0.346   4.109   4.963
 1982SOL    HW1 6845   0.295   4.025   4.945
 1982SOL    HW2 6846   0.289   4.188   4.939
 1983SOL     OW 6847   0.721   1.309   2.656
 1983SOL    HW1 6848   0.784   1.367   2.604
 1983SOL    HW2 6849   0.710   1.348   2.748
 1984SOL     OW 6850   6.497   1.996   4.936
 1984SOL    HW1 6851   6.591   1.978   4.965
 1984SOL    HW2 6852   6.494   2.006   4.837
 1985SOL     OW 6853   1.370   6.312   2.632
 1985SOL    HW1 6854   1.436   6.300   2.558
 1985SOL    HW2 6855   1.323   6.400   2.621
 1986SOL     OW 6856   1.121   0.408   0.265
 1986SOL    HW1 6857   1.022   0.412   0.273
 1986SOL    HW2 6858   1.162   0.405   0.356
 1987SOL     OW 6859   1.712   2.495   2.034
 1987SOL    HW1 6860   1.756   2.437   1.965
 1987SOL    HW2 6861   1.671   2.438   2.105
 1988SOL     OW 6862   5.807   4.239   1.036
 1988SOL    HW1 6863   5.786   4.279   0.947
 1988SOL    HW2 6864   5.851   4.151   1.023
 1989SOL     OW 6865   2.488   6.773   4.326
 1989SOL    HW1 6866   2.499   6.779   4.425
 1989SOL    HW2 6867   2.391   6.759   4.304
 1990SOL     OW 6868   3.041   6.497   0.151
 1990SOL    HW1 6869   3.089   6.453   0.075
 1990SOL    HW2 6870   3.050   6.441   0.233
 1991SOL     OW 6871   4.102   4.425   6.135
 1991SOL    HW1 6872   4.008   4.415   6.167
 1991SOL    HW2 6873   4.150   4.491   6.193
 1992SOL     OW 6874   0.764   0.411   6.780
 1992SOL    HW1 6875   0.784   0.359   6.863
 1992SOL    HW2 6876   0.716   0.354   6.714
 1993SOL     OW 6877   3.905   2.967   4.574
 1993SOL    HW1 6878   3.862   2.876   4.575
 1993SOL    HW2 6879   3.959   2.979   4.657
 1994SOL     OW 6880   0.535   0.905   0.743
 1994SOL    HW1 6881   0.629   0.870   0.745
 1994SOL    HW2 6882   0.475   0.837   0.702
 1995SOL     OW 6883   5.506   2.662   2.876
 1995SOL    HW1 6884   5.468   2.570   2.869
 1995SOL    HW2 6885   5.484   2.700   2.966
 1996SOL     OW 6886   2.061   3.727   0.656
 1996SOL    HW1 6887   2.104   3.736   0.746
 1996SOL    HW2 6888   1.963   3.712   0.668
 1997SOL     OW 6889   4.096   0.976   4.772
 1997SOL    HW1 6890   4.180   0.922   4.780
 1997SOL    HW2 6891   4.030   0.944   4.840
 1998SOL     OW 6892   2.740   3.905   6.332
 1998SOL    HW1 6893   2.784   3.995   6.331
 1998SOL    HW2 6894   2.797   3.841   6.383
 1999SOL     OW 6895   3.140   6.592   1.472
 1999SOL    HW1 6896   3.211   6.597   1.543
 1999SOL    HW2 6897   3.071   6.662   1.488
 2000SOL     OW 6898   4.588   2.430   5.291
 2000SOL    HW1 6899   4.679   2.437   5.332
 2000SOL    HW2 6900   4.567   2.334   5.273
 2001SOL     OW 6901   2.924   1.245   1.224
 2001SOL    HW1 6902   2.839   1.260   1.275
 2001SOL    HW2 6903   2.945   1.148   1.222
 2002SOL     OW 6904   0.754   4.639   6.416
 2002SOL    HW1 6905   0.681   4.615   6.352
 2002SOL    HW2 6906   0.758   4.571   6.489
 2003SOL     OW 6907   6.145   6.116   2.899
 2003SOL    HW1 6908   6.124   6.213   2.899
 2003SOL    HW2 6909   6.201   6.094   2.819
 2004SOL     OW 6910   4.997   1.316   5.424
 2004SOL    HW1 6911   4.961   1.241   5.368
 2004SOL    HW2 6912   5.005   1.287   5.519
 2005SOL     OW 6913   1.070   4.864   6.932
 2005SOL    HW1 6914   1.109   4.942   6.881
 2005SOL    HW2 6915   1.058   4.787   6.869
 2006SOL     OW 6916   4.949   5.550   4.060
 2006SOL    HW1 6917   4.992   5.521   4.146
 2006SOL    HW2 6918   4.938   5.470   4.000
 2007SOL     OW 6919   4.433   4.984   1.035
 2007SOL    HW1 6920   4.499   4.909   1.032
 2007SOL    HW2 6921   4.460   5.054   0.969
 2008SOL     OW 6922   2.087   5.131   3.366
 2008SOL    HW1 6923   1.997   5.098   3.338
 2008SOL    HW2 6924   2.102   5.223   3.330
 2009SOL     OW 6925   5.855   0.338   2.222
 2009SOL    HW1 6926   5.803   0.266   2.176
 2009SOL    HW2 6927   5.818   0.352   2.314
 2010SOL     OW 6928   1.848   1.685   1.081
 2010SOL    HW1 6929   1.948   1.689   1.083
 2010SOL    HW2 6930   1.811   1.777   1.069
 2011SOL     OW 6931   6.632   1.102   4.698
 2011SOL    HW1 6932   6.575   1.043   4.640
 2011SOL    HW2 6933   6.595   1.195   4.697
 2012SOL     OW 6934   1.883   3.149   2.007
 2012SOL    HW1 6935   1.937   3.080   2.056
 2012SOL    HW2 6936   1.819   3.192   2.070
 2013SOL     OW 6937   6.385   2.096   3.447
 2013SOL    HW1 6938   6.382   2.059   3.539
 2013SOL    HW2 6939   6.292   2.117   3.416
 2014SOL     OW 6940   2.004   4.764   2.992
 2014SOL    HW1 6941   2.022   4.849   3.041
 2014SOL    HW2 6942   2.082   4.742   2.933
 2015SOL     OW 6943   1.306   1.539   0.452
 2015SOL    HW1 6944   1.352   1.628   0.444
 2015SOL    HW2 6945   1.241   1.528   0.376
 2016SOL     OW 6946   0.792   6.291   4.697
 2016SOL    HW1 6947   0.869   6.284   4.761
 2016SOL    HW2 6948   0.708   6.268   4.745
 2017SOL     OW 6949   2.926   0.135   4.440
 2017SOL    HW1 6950   2.919   0.042   4.477
 2017SOL    HW2 6951   2.968   0.194   4.508
 2018SOL     OW 6952   5.587   6.722   5.753
 2018SOL    HW1 6953   5.503   6.756   5.797
 2018SOL    HW2 6954   5.654   6.795   5.750
 2019SOL     OW 6955   5.391   2.392   1.412
 2019SOL    HW1 6956   5.483   2.432   1.410
 2019SOL    HW2 6957   5.363   2.368   1.320
 2020SOL     OW 6958   0.985   6.272   4.888
 2020SOL    HW1 6959   1.067   6.328   4.872
 2020SOL    HW2 6960   1.004   6.204   4.958
 2021SOL     OW 6961   1.898   5.563   3.440
 2021SOL    HW1 6962   1.873   5.471   3.471
 2021SOL    HW2 6963   1.994   5.565   3.413
 2022SOL     OW 6964   1.938   3.971   3.658
 2022SOL    HW1 6965   1.878   3.987   3.580
 2022SOL    HW2 6966   1.889   3.989   3.743
 2023SOL     OW 6967   6.463   0.832   6.513
 2023SOL    HW1 6968   6.523   0.872   6.583
 2023SOL    HW2 6969   6.382   0.793   6.557
 2024SOL     OW 6970   0.256   6.754   3.592
 2024SOL    HW1 6971   0.225   6.752   3.687
 2024SOL    HW2 6972   0.329   6.687   3.580
 2025SOL     OW 6973   3.013   2.219   2.902
 2025SOL    HW1 6974   3.105   2.251   2.879
 2025SOL    HW2 6975   3.003   2.216   3.002
 2026SOL     OW 6976   0.188   3.027   6.078
 2026SOL    HW1 6977   0.162   3.115   6.038
 2026SOL    HW2 6978   0.160   3.025   6.174
 2027SOL     OW 6979   0.607   0.461   0.521
 2027SOL    HW1 6980   0.616   0.554   0.486
 2027SOL    HW2 6981   0.544   0.410   0.462
 2028SOL     OW 6982   2.632   0.327   5.142
 2028SOL    HW1 6983   2.679   0.364   5.062
 2028SOL    HW2 6984   2.685   0.253   5.181
 2029SOL     OW 6985   6.475   0.531   1.340
 2029SOL    HW1 6986   6.445   0.445   1.381
 2029SOL    HW2 6987   6.561   0.516   1.291
 2030SOL     OW 6988   2.736   0.793   2.744
 2030SOL    HW1 6989   2.679   0.873   2.729
 2030SOL    HW2 6990   2.760   0.751   2.656
 2031SOL     OW 6991   6.482   5.989   1.640
 2031SOL    HW1 6992   6.485   5.891   1.616
 2031SOL    HW2 6993   6.562   6.034   1.600
 2032SOL     OW 6994   5.077   6.319   1.671
 2032SOL    HW1 6995   5.072   6.417   1.692
 2032SOL    HW2 6996   5.005   6.271   1.721
 2033SOL     OW 6997   3.717   3.828   6.822
 2033SOL    HW1 6998   3.639   3.768   6.807
 2033SOL    HW2 6999   3.790   3.806   6.756
 2034SOL     OW 7000   3.121   6.634   5.372
 2034SOL    HW1 7001   3.149   6.674   5.285
 2034SOL    HW2 7002   3.046   6.570   5.357
 2035SOL     OW 7003   0.149   0.360   2.295
 2035SOL    HW1 7004   0.228   0.312   2.333
 2035SOL    HW2 7005   0.116   0.428   2.360
 2036SOL     OW 7006   1.430   5.147   2.694
 2036SOL    HW1 7007   1.460   5.074   2.756
 2036SOL    HW2 7008   1.352   5.115   2.640
 2037SOL     OW 7009   6.685   3.215   5.349
 2037SOL    HW1 7010   6.777   3.200   5.315
 2037SOL    HW2 7011   6.681   3.304   5.396
 2038SOL     OW 7012   1.067   1.990   6.387
 2038SOL    HW1 7013   1.008   2.048   6.443
 2038SOL    HW2 7014   1.152   1.972   6.436
 2039SOL     OW 7015   1.107   5.704   3.309
 2039SOL    HW1 7016   1.143   5.737   3.221
 2039SOL    HW2 7017   1.144   5.760   3.383
 2040SOL     OW 7018   3.245   2.954   4.351
 2040SOL    HW1 7019   3.323   2.944   4.290
 2040SOL    HW2 7020   3.235   2.871   4.406
 2041SOL     OW 7021   0.837   6.040   5.292
 2041SOL    HW1 7022   0.762   6.107   5.294
 2041SOL    HW2 7023   0.893   6.052   5.373
 2042SOL     OW 7024   4.966   4.816   6.411
 2042SOL    HW1 7025   5.051   4.786   6.454
 2042SOL    HW2 7026   4.895   4.825   6.481
 2043SOL     OW 7027   6.406   3.578   3.402
 2043SOL    HW1 7028   6.488   3.560   3.456
 2043SOL    HW2 7029   6.427   3.573   3.305
 2044SOL     OW 7030   5.349   6.708   1.280
 2044SOL    HW1 7031   5.403   6.785   1.314
 2044SOL    HW2 7032   5.300   6.666   1.356
 2045SOL     OW 7033   3.288   4.969   3.931
 2045SOL    HW1 7034   3.360   4.988   3.998
 2045SOL    HW2 7035   3.260   5.055   3.887
 2046SOL     OW 7036   6.639   1.850   3.790
 2046SOL    HW1 7037   6.700   1.825   3.715
 2046SOL    HW2 7038   6.662   1.941   3.823
 2047SOL     OW 7039   6.003   2.392   0.058
 2047SOL    HW1 7040   6.100   2.407   0.076
 2047SOL    HW2 7041   5.948   2.431   0.133
 2048SOL     OW 7042   1.730   6.420   0.011
 2048SOL    HW1 7043   1.812   6.443   6.981
 2048SOL    HW2 7044   1.664   6.495   0.004
 2049SOL     OW 7045   5.466   1.685   6.083
 2049SOL    HW1 7046   5.552   1.646   6.115
 2049SOL    HW2 7047   5.476   1.784   6.070
 2050SOL     OW 7048   0.568   2.980   3.123
 2050SOL    HW1 7049   0.561   3.058   3.185
 2050SOL    HW2 7050   0.657   2.936   3.134
 2051SOL     OW 7051   1.231   5.781   0.775
 2051SOL    HW1 7052   1.204   5.695   0.818
 2051SOL    HW2 7053   1.275   5.840   0.843
 2052SOL     OW 7054   0.984   3.672   0.920
 2052SOL    HW1 7055   0.962   3.645   1.014
 2052SOL    HW2 7056   0.939   3.610   0.856
 2053SOL     OW 7057   6.086   6.601   4.995
 2053SOL    HW1 7058   6.160   6.622   5.059
 2053SOL    HW2 7059   6.057   6.685   4.949
 2054SOL     OW 7060   3.576   3.664   2.370
 2054SOL    HW1 7061   3.658   3.683   2.424
 2054SOL    HW2 7062   3.540   3.749   2.333
 2055SOL     OW 7063   5.842   3.682   3.445
 2055SOL    HW1 7064   5.764   3.742   3.431
 2055SOL    HW2 7065   5.900   3.683   3.363
 2056SOL     OW 7066   3.038   6.552   2.567
 2056SOL    HW1 7067   3.029   6.610   2.647
 2056SOL    HW2 7068   3.100   6.595   2.501
 2057SOL     OW 7069   5.668   3.767   5.139
 2057SOL    HW1 7070   5.644   3.859   5.169
 2057SOL    HW2 7071   5.652   3.702   5.213
 2058SOL     OW 7072   0.727   1.477   3.144
 2058SOL    HW1 7073   0.779   1.532   3.208
 2058SOL    HW2 7074   0.733   1.380   3.169
 2059SOL     OW 7075   2.256   5.874   6.361
 2059SOL    HW1 7076   2.211   5.866   6.272
 2059SOL    HW2 7077   2.284   5.784   6.393
 2060SOL     OW 7078   0.160   4.004   0.970
 2060SOL    HW1 7079   0.062   3.986   0.976
 2060SOL    HW2 7080   0.179   4.056   0.886
 2061SOL     OW 7081   0.025   1.466   3.433
 2061SOL    HW1 7082   0.062   1.496   3.521
 2061SOL    HW2 7083   6.960   1.511   3.416
 2062SOL     OW 7084   6.238   0.303   3.819
 2062SOL    HW1 7085   6.215   0.228   3.881
 2062SOL    HW2 7086   6.162   0.368   3.817
 2063SOL     OW 7087   2.041   6.857   6.166
 2063SOL    HW1 7088   1.984   6.791   6.117
 2063SOL    HW2 7089   2.041   6.836   6.263
 2064SOL     OW 7090   0.661   2.350   5.519
 2064SOL    HW1 7091   0.628   2.278   5.458
 2064SOL    HW2 7092   0.630   2.331   5.612
 2065SOL     OW 7093   6.732   2.826   4.877
 2065SOL    HW1 7094   6.680   2.867   4.952
 2065SOL    HW2 7095   6.744   2.729   4.895
 2066SOL     OW 7096   0.697   4.836   3.764
 2066SOL    HW1 7097   0.713   4.902   3.690
 2066SOL    HW2 7098   0.783   4.822   3.814
 2067SOL     OW 7099   6.490   5.409   1.242
 2067SOL    HW1 7100   6.575   5.356   1.235
 2067SOL    HW2 7101   6.412   5.347   1.248
 2068SOL     OW 7102   2.008   1.003   4.844
 2068SOL    HW1 7103   2.094   1.039   4.882
 2068SOL    HW2 7104   1.937   1.007   4.915
 2069SOL     OW 7105   0.556   2.638   3.366
 2069SOL    HW1 7106   0.560   2.726   3.413
 2069SOL    HW2 7107   0.465   2.598   3.378
 2070SOL     OW 7108   1.316   0.972   2.085
 2070SOL    HW1 7109   1.347   0.910   2.157
 2070SOL    HW2 7110   1.258   0.922   2.021
 2071SOL     OW 7111   6.629   6.143   6.025
 2071SOL    HW1 7112   6.674   6.223   6.064
 2071SOL    HW2 7113   6.663   6.060   6.069
 2072SOL     OW 7114   4.054   6.271   3.960
 2072SOL    HW1 7115   4.033   6.202   3.891
 2072SOL    HW2 7116   4.118   6.233   4.027
 2073SOL     OW 7117   4.034   0.360   4.528
 2073SOL    HW1 7118   4.034   0.406   4.439
 2073SOL    HW2 7119   4.112   0.298   4.533
 2074SOL     OW 7120   1.629   2.572   0.563
 2074SOL    HW1 7121   1.658   2.606   0.653
 2074SOL    HW2 7122   1.574   2.641   0.517
 2075SOL     OW 7123   5.656   3.133   1.893
 2075SOL    HW1 7124   5.647   3.228   1.862
 2075SOL    HW2 7125   5.750   3.102   1.878
 2076SOL     OW 7126   6.182   0.205   0.283
 2076SOL    HW1 7127   6.221   0.284   0.235
 2076SOL    HW2 7128   6.093   0.229   0.322
 2077SOL     OW 7129   5.206   2.757   2.841
 2077SOL    HW1 7130   5.276   2.689   2.861
 2077SOL    HW2 7131   5.171   2.795   2.927
 2078SOL     OW 7132   1.232   5.793   5.730
 2078SOL    HW1 7133   1.320   5.838   5.741
 2078SOL    HW2 7134   1.181   5.838   5.657
 2079SOL     OW 7135   5.321   1.879   3.749
 2079SOL    HW1 7136   5.239   1.837   3.710
 2079SOL    HW2 7137   5.293   1.953   3.811
 2080SOL     OW 7138   1.801   6.829   4.957
 2080SOL    HW1 7139   1.868   6.824   4.884
 2080SOL    HW2 7140   1.735   6.903   4.938
 2081SOL     OW 7141   1.567   5.510   4.631
 2081SOL    HW1 7142   1.601   5.532   4.723
 2081SOL    HW2 7143   1.628   5.442   4.589
 2082SOL     OW 7144   0.734   0.336   2.486
 2082SOL    HW1 7145   0.654   0.345   2.545
 2082SOL    HW2 7146   0.739   0.243   2.450
 2083SOL     OW 7147   6.411   5.345   6.225
 2083SOL    HW1 7148   6.491   5.327   6.283
 2083SOL    HW2 7149   6.442   5.381   6.136
 2084SOL     OW 7150   1.548   3.833   3.501
 2084SOL    HW1 7151   1.511   3.909   3.555
 2084SOL    HW2 7152   1.476   3.765   3.485
 2085SOL     OW 7153   4.598   0.560   6.595
 2085SOL    HW1 7154   4.590   0.477   6.540
 2085SOL    HW2 7155   4.526   0.624   6.569
 2086SOL     OW 7156   4.263   6.449   5.704
 2086SOL    HW1 7157   4.351   6.413   5.735
 2086SOL    HW2 7158   4.210   6.377   5.661
 2087SOL     OW 7159   5.229   0.432   1.076
 2087SOL    HW1 7160   5.139   0.408   1.041
 2087SOL    HW2 7161   5.300   0.399   1.013
 2088SOL     OW 7162   1.264   6.047   0.355
 2088SOL    HW1 7163   1.221   5.964   0.391
 2088SOL    HW2 7164   1.319   6.089   0.427
 2089SOL     OW 7165   5.461   2.015   6.582
 2089SOL    HW1 7166   5.410   1.929   6.590
 2089SOL    HW2 7167   5.413   2.087   6.631
 2090SOL     OW 7168   3.747   2.435   5.738
 2090SOL    HW1 7169   3.794   2.367   5.793
 2090SOL    HW2 7170   3.796   2.522   5.743
 2091SOL     OW 7171   0.331   5.499   0.164
 2091SOL    HW1 7172   0.236   5.529   0.169
 2091SOL    HW2 7173   0.347   5.456   0.075
 2092SOL     OW 7174   5.502   3.750   0.367
 2092SOL    HW1 7175   5.422   3.747   0.307
 2092SOL    HW2 7176   5.584   3.764   0.312
 2093SOL     OW 7177   2.662   2.168   1.362
 2093SOL    HW1 7178   2.681   2.228   1.284
 2093SOL    HW2 7179   2.576   2.194   1.404
 2094SOL     OW 7180   5.755   1.807   1.752
 2094SOL    HW1 7181   5.852   1.817   1.730
 2094SOL    HW2 7182   5.715   1.896   1.770
 2095SOL     OW 7183   5.725   6.989   5.135
 2095SOL    HW1 7184   5.706   0.054   5.180
 2095SOL    HW2 7185   5.659   6.921   5.165
 2096SOL     OW 7186   4.864   3.959   2.875
 2096SOL    HW1 7187   4.850   3.869   2.917
 2096SOL    HW2 7188   4.775   3.996   2.846
 2097SOL     OW 7189   3.213   3.794   6.571
 2097SOL    HW1 7190   3.211   3.845   6.657
 2097SOL    HW2 7191   3.155   3.840   6.503
 2098SOL     OW 7192   3.701   5.785   1.724
 2098SOL    HW1 7193   3.739   5.735   1.803
 2098SOL    HW2 7194   3.672   5.719   1.655
 2099SOL     OW 7195   3.248   3.031   6.230
 2099SOL    HW1 7196   3.305   3.059   6.154
 2099SOL    HW2 7197   3.287   3.064   6.316
 2100SOL     OW 7198   4.942   2.398   6.733
 2100SOL    HW1 7199   5.022   2.437   6.688
 2100SOL    HW2 7200   4.968   2.364   6.823
 2101SOL     OW 7201   1.084   6.442   1.937
 2101SOL    HW1 7202   1.167   6.387   1.947
 2101SOL    HW2 7203   1.013   6.406   1.998
 2102SOL     OW 7204   5.690   4.555   2.935
 2102SOL    HW1 7205   5.682   4.456   2.950
 2102SOL    HW2 7206   5.631   4.603   3.000
 2103SOL     OW 7207   3.984   4.303   5.886
 2103SOL    HW1 7208   3.924   4.234   5.927
 2103SOL    HW2 7209   4.048   4.337   5.955
 2104SOL     OW 7210   1.560   4.664   1.444
 2104SOL    HW1 7211   1.656   4.679   1.464
 2104SOL    HW2 7212   1.536   4.569   1.465
 2105SOL     OW 7213   5.361   6.200   5.341
 2105SOL    HW1 7214   5.361   6.287   5.292
 2105SOL    HW2 7215   5.299   6.136   5.296
 2106SOL     OW 7216   4.895   4.298   1.350
 2106SOL    HW1 7217   4.952   4.307   1.432
 2106SOL    HW2 7218   4.941   4.237   1.285
 2107SOL     OW 7219   4.753   2.948   5.737
 2107SOL    HW1 7220   4.700   2.947   5.652
 2107SOL    HW2 7221   4.771   2.854   5.766
 2108SOL     OW 7222   5.833   5.714   4.875
 2108SOL    HW1 7223   5.813   5.775   4.799
 2108SOL    HW2 7224   5.748   5.692   4.924
 2109SOL     OW 7225   4.246   6.173   2.180
 2109SOL    HW1 7226   4.157   6.180   2.225
 2109SOL    HW2 7227   4.319   6.171   2.248
 2110SOL     OW 7228   1.857   1.668   0.697
 2110SOL    HW1 7229   1.794   1.656   0.621
 2110SOL    HW2 7230   1.870   1.766   0.715
 2111SOL     OW 7231   1.837   2.784   6.511
 2111SOL    HW1 7232   1.756   2.839   6.488
 2111SOL    HW2 7233   1.868   2.735   6.429
 2112SOL     OW 7234   5.544   3.181   0.866
 2112SOL    HW1 7235   5.601   3.240   0.923
 2112SOL    HW2 7236   5.578   3.181   0.772
 2113SOL     OW 7237   2.425   2.183   5.172
 2113SOL    HW1 7238   2.487   2.250   5.132
 2113SOL    HW2 7239   2.406   2.111   5.105
 2114SOL     OW 7240   2.095   2.282   6.424
 2114SOL    HW1 7241   2.134   2.275   6.516
 2114SOL    HW2 7242   1.995   2.281   6.431
 2115SOL     OW 7243   2.165   3.815   3.235
 2115SOL    HW1 7244   2.180   3.767   3.322
 2115SOL    HW2 7245   2.149   3.749   3.162
 2116SOL     OW 7246   0.839   5.356   2.916
 2116SOL    HW1 7247   0.758   5.415   2.918
 2116SOL    HW2 7248   0.895   5.373   2.997
 2117SOL     OW 7249   7.009   4.790   1.496
 2117SOL    HW1 7250   6.937   4.785   1.564
 2117SOL    HW2 7251   0.065   4.840   1.533
 2118SOL     OW 7252   6.409   3.002   2.674
 2118SOL    HW1 7253   6.427   3.090   2.719
 2118SOL    HW2 7254   6.494   2.949   2.671
 2119SOL     OW 7255   1.403   0.140   1.325
 2119SOL    HW1 7256   1.452   0.119   1.240
 2119SOL    HW2 7257   1.447   0.218   1.370
 2120SOL     OW 7258   0.267   5.229   3.452
 2120SOL    HW1 7259   0.217   5.143   3.437
 2120SOL    HW2 7260   0.365   5.208   3.460
 2121SOL     OW 7261   1.393   4.210   5.684
 2121SOL    HW1 7262   1.373   4.176   5.593
 2121SOL    HW2 7263   1.344   4.156   5.752
 2122SOL     OW 7264   5.732   4.282   5.603
 2122SOL    HW1 7265   5.788   4.364   5.610
 2122SOL    HW2 7266   5.755   4.219   5.677
 2123SOL     OW 7267   6.951   5.884   2.273
 2123SOL    HW1 7268   6.921   5.802   2.322
 2123SOL    HW2 7269   7.019   5.860   2.204
 2124SOL     OW 7270   3.222   2.180   0.817
 2124SOL    HW1 7271   3.302   2.223   0.859
 2124SOL    HW2 7272   3.185   2.241   0.747
 2125SOL     OW 7273   2.037   0.425   2.256
 2125SOL    HW1 7274   2.099   0.503   2.258
 2125SOL    HW2 7275   2.018   0.395   2.350
 2126SOL     OW 7276   3.393   2.023   6.310
 2126SOL    HW1 7277   3.361   2.098   6.252
 2126SOL    HW2 7278   3.321   1.955   6.321
 2127SOL     OW 7279   0.821   3.132   5.458
 2127SOL    HW1 7280   0.893   3.158   5.394
 2127SOL    HW2 7281   0.733   3.166   5.424
 2128SOL     OW 7282   6.177   3.527   4.065
 2128SOL    HW1 7283   6.247   3.598   4.074
 2128SOL    HW2 7284   6.087   3.566   4.083
 2129SOL     OW 7285   4.246   3.239   5.239
 2129SOL    HW1 7286   4.236   3.302   5.315
 2129SOL    HW2 7287   4.279   3.150   5.273
 2130SOL     OW 7288   3.666   0.135   2.796
 2130SOL    HW1 7289   3.702   0.229   2.797
 2130SOL    HW2 7290   3.569   0.137   2.819
 2131SOL     OW 7291   4.990   1.154   0.468
 2131SOL    HW1 7292   4.984   1.059   0.440
 2131SOL    HW2 7293   4.923   1.209   0.418
 2132SOL     OW 7294   3.302   0.194   1.525
 2132SOL    HW1 7295   3.225   0.201   1.588
 2132SOL    HW2 7296   3.360   0.117   1.551
 2133SOL     OW 7297   3.071   2.666   0.303
 2133SOL    HW1 7298   3.053   2.740   0.368
 2133SOL    HW2 7299   2.994   2.659   0.239
 2134SOL     OW 7300   0.424   0.906   6.130
 2134SOL    HW1 7301   0.394   0.999   6.148
 2134SOL    HW2 7302   0.520   0.907   6.101
 2135SOL     OW 7303   1.515   3.555   5.354
 2135SOL    HW1 7304   1.446   3.575   5.423
 2135SOL    HW2 7305   1.538   3.639   5.305
 2136SOL     OW 7306   0.959   3.858   4.026
 2136SOL    HW1 7307   1.021   3.921   3.979
 2136SOL    HW2 7308   1.003   3.820   4.107
 2137SOL     OW 7309   2.413   5.537   4.710
 2137SOL    HW1 7310   2.373   5.585   4.632
 2137SOL    HW2 7311   2.505   5.572   4.727
 2138SOL     OW 7312   6.432   0.278   2.726
 2138SOL    HW1 7313   6.411   0.180   2.729
 2138SOL    HW2 7314   6.504   0.299   2.792
 2139SOL     OW 7315   3.314   0.585   3.005
 2139SOL    HW1 7316   3.392   0.631   2.963
 2139SOL    HW2 7317   3.338   0.490   3.024
 2140SOL     OW 7318   3.907   6.727   3.966
 2140SOL    HW1 7319   3.969   6.798   3.933
 2140SOL    HW2 7320   3.830   6.770   4.015
 2141SOL     OW 7321   6.393   3.850   2.703
 2141SOL    HW1 7322   6.489   3.824   2.695
 2141SOL    HW2 7323   6.336   3.768   2.701
 2142SOL     OW 7324   1.773   2.564   3.369
 2142SOL    HW1 7325   1.729   2.483   3.407
 2142SOL    HW2 7326   1.827   2.538   3.288
 2143SOL     OW 7327   2.621   4.547   1.224
 2143SOL    HW1 7328   2.612   4.514   1.318
 2143SOL    HW2 7329   2.635   4.646   1.225
 2144SOL     OW 7330   1.423   5.547   4.394
 2144SOL    HW1 7331   1.463   5.596   4.317
 2144SOL    HW2 7332   1.492   5.537   4.466
 2145SOL     OW 7333   4.078   6.334   4.597
 2145SOL    HW1 7334   4.095   6.262   4.664
 2145SOL    HW2 7335   3.994   6.313   4.547
 2146SOL     OW 7336   2.649   3.500   1.730
 2146SOL    HW1 7337   2.704   3.575   1.766
 2146SOL    HW2 7338   2.576   3.479   1.795
 2147SOL     OW 7339   6.485   1.550   5.964
 2147SOL    HW1 7340   6.532   1.490   6.029
 2147SOL    HW2 7341   6.425   1.613   6.014
 2148SOL     OW 7342   5.500   2.201   5.552
 2148SOL    HW1 7343   5.421   2.262   5.563
 2148SOL    HW2 7344   5.545   2.220   5.465
 2149SOL     OW 7345   3.566   2.468   1.277
 2149SOL    HW1 7346   3.638   2.400   1.294
 2149SOL    HW2 7347   3.530   2.500   1.365
 2150SOL     OW 7348   2.807   2.188   2.717
 2150SOL    HW1 7349   2.711   2.202   2.744
 2150SOL    HW2 7350   2.867   2.214   2.792
 2151SOL     OW 7351   1.387   0.281   5.100
 2151SOL    HW1 7352   1.479   0.242   5.105
 2151SOL    HW2 7353   1.356   0.304   5.192
 2152SOL     OW 7354   3.620   5.780   1.170
 2152SOL    HW1 7355   3.547   5.743   1.112
 2152SOL    HW2 7356   3.701   5.722   1.163
 2153SOL     OW 7357   3.706   0.719   2.838
 2153SOL    HW1 7358   3.607   0.724   2.830
 2153SOL    HW2 7359   3.735   0.766   2.922
 2154SOL     OW 7360   4.903   0.080   5.160
 2154SOL    HW1 7361   4.986   0.113   5.115
 2154SOL    HW2 7362   4.877   7.014   5.122
 2155SOL     OW 7363   2.532   5.703   0.085
 2155SOL    HW1 7364   2.487   5.792   0.087
 2155SOL    HW2 7365   2.631   5.715   0.074
 2156SOL     OW 7366   2.077   1.580   5.096
 2156SOL    HW1 7367   2.031   1.495   5.071
 2156SOL    HW2 7368   2.011   1.655   5.093
 2157SOL     OW 7369   6.295   0.517   3.583
 2157SOL    HW1 7370   6.208   0.520   3.534
 2157SOL    HW2 7371   6.324   0.422   3.593
 2158SOL     OW 7372   3.981   5.923   1.028
 2158SOL    HW1 7373   3.909   5.981   1.065
 2158SOL    HW2 7374   3.940   5.848   0.976
 2159SOL     OW 7375   1.432   6.440   5.131
 2159SOL    HW1 7376   1.444   6.454   5.032
 2159SOL    HW2 7377   1.491   6.365   5.161
 2160SOL     OW 7378   3.781   3.822   0.369
 2160SOL    HW1 7379   3.813   3.917   0.370
 2160SOL    HW2 7380   3.682   3.820   0.358
 2161SOL     OW 7381   5.344   5.061   3.097
 2161SOL    HW1 7382   5.312   5.147   3.057
 2161SOL    HW2 7383   5.376   5.000   3.024
 2162SOL     OW 7384   2.017   1.147   1.724
 2162SOL    HW1 7385   2.073   1.065   1.738
 2162SOL    HW2 7386   2.029   1.208   1.802
 2163SOL     OW 7387   1.005   4.641   6.345
 2163SOL    HW1 7388   0.912   4.646   6.382
 2163SOL    HW2 7389   1.001   4.610   6.250
 2164SOL     OW 7390   1.352   2.783   0.157
 2164SOL    HW1 7391   1.339   2.704   0.097
 2164SOL    HW2 7392   1.411   2.850   0.111
 2165SOL     OW 7393   0.740   2.000   2.909
 2165SOL    HW1 7394   0.661   2.012   2.849
 2165SOL    HW2 7395   0.818   2.051   2.873
 2166SOL     OW 7396   1.521   2.405   5.205
 2166SOL    HW1 7397   1.474   2.405   5.116
 2166SOL    HW2 7398   1.461   2.446   5.274
 2167SOL     OW 7399   1.933   1.471   3.944
 2167SOL    HW1 7400   1.914   1.537   4.017
 2167SOL    HW2 7401   1.860   1.473   3.877
 2168SOL     OW 7402   0.643   1.927   3.846
 2168SOL    HW1 7403   0.586   1.878   3.912
 2168SOL    HW2 7404   0.739   1.918   3.872
 2169SOL     OW 7405   5.359   1.368   6.439
 2169SOL    HW1 7406   5.283   1.310   6.410
 2169SOL    HW2 7407   5.372   1.441   6.372
 2170SOL     OW 7408   6.832   5.108   5.674
 2170SOL    HW1 7409   6.754   5.046   5.667
 2170SOL    HW2 7410   6.805   5.199   5.643
 2171SOL     OW 7411   0.440   4.545   1.561
 2171SOL    HW1 7412   0.451   4.504   1.652
 2171SOL    HW2 7413   0.397   4.478   1.500
 2172SOL     OW 7414   2.332   2.602   0.327
 2172SOL    HW1 7415   2.238   2.631   0.311
 2172SOL    HW2 7416   2.356   2.527   0.265
 2173SOL     OW 7417   4.014   0.683   5.496
 2173SOL    HW1 7418   4.001   0.771   5.451
 2173SOL    HW2 7419   3.966   0.683   5.584
 2174SOL     OW 7420   5.325   6.471   5.278
 2174SOL    HW1 7421   5.332   6.509   5.185
 2174SOL    HW2 7422   5.407   6.495   5.330
 2175SOL     OW 7423   2.305   2.820   4.236
 2175SOL    HW1 7424   2.290   2.722   4.247
 2175SOL    HW2 7425   2.391   2.836   4.188
 2176SOL     OW 7426   6.935   1.863   0.509
 2176SOL    HW1 7427   6.857   1.804   0.489
 2176SOL    HW2 7428   6.913   1.957   0.482
 2177SOL     OW 7429   6.050   1.844   3.433
 2177SOL    HW1 7430   6.070   1.819   3.528
 2177SOL    HW2 7431   5.978   1.784   3.397
 2178SOL     OW 7432   1.739   2.304   0.733
 2178SOL    HW1 7433   1.802   2.254   0.793
 2178SOL    HW2 7434   1.656   2.249   0.718
 2179SOL     OW 7435   2.084   5.196   5.058
 2179SOL    HW1 7436   2.013   5.217   4.991
 2179SOL    HW2 7437   2.071   5.103   5.092
 2180SOL     OW 7438   1.877   2.726   2.132
 2180SOL    HW1 7439   1.837   2.646   2.087
 2180SOL    HW2 7440   1.971   2.705   2.159
 2181SOL     OW 7441   4.028   5.062   4.645
 2181SOL    HW1 7442   4.068   4.983   4.600
 2181SOL    HW2 7443   4.080   5.083   4.728
 2182SOL     OW 7444   1.177   3.485   4.333
 2182SOL    HW1 7445   1.235   3.407   4.355
 2182SOL    HW2 7446   1.106   3.495   4.403
 2183SOL     OW 7447   2.929   4.150   6.181
 2183SOL    HW1 7448   3.029   4.144   6.182
 2183SOL    HW2 7449   2.897   4.194   6.265
 2184SOL     OW 7450   4.548   2.218   6.940
 2184SOL    HW1 7451   4.612   2.149   6.974
 2184SOL    HW2 7452   4.458   2.202   6.979
 2185SOL     OW 7453   1.324   1.943   1.040
 2185SOL    HW1 7454   1.388   1.987   1.103
 2185SOL    HW2 7455   1.265   1.881   1.091
 2186SOL     OW 7456   0.271   5.973   1.820
 2186SOL    HW1 7457   0.292   6.019   1.734
 2186SOL    HW2 7458   0.251   6.041   1.890
 2187SOL     OW 7459   6.602   0.451   2.883
 2187SOL    HW1 7460   6.606   0.498   2.795
 2187SOL    HW2 7461   6.593   0.519   2.956
 2188SOL     OW 7462   6.300   6.704   5.153
 2188SOL    HW1 7463   6.358   6.747   5.222
 2188SOL    HW2 7464   6.345   6.622   5.117
 2189SOL     OW 7465   1.700   0.271   0.695
 2189SOL    HW1 7466   1.654   0.229   0.773
 2189SOL    HW2 7467   1.637   0.334   0.649
 2190SOL     OW 7468   6.973   2.809   2.018
 2190SOL    HW1 7469   6.905   2.871   1.978
 2190SOL    HW2 7470   6.999   2.841   2.108
 2191SOL     OW 7471   3.004   2.304   6.637
 2191SOL    HW1 7472   3.062   2.292   6.556
 2191SOL    HW2 7473   3.050   2.265   6.717
 2192SOL     OW 7474   3.984   1.166   2.551
 2192SOL    HW1 7475   3.902   1.120   2.584
 2192SOL    HW2 7476   3.977   1.181   2.453
 2193SOL     OW 7477   6.285   5.854   6.321
 2193SOL    HW1 7478   6.375   5.889   6.298
 2193SOL    HW2 7479   6.294   5.778   6.385
 2194SOL     OW 7480   2.580   4.504   6.015
 2194SOL    HW1 7481   2.516   4.442   5.970
 2194SOL    HW2 7482   2.536   4.544   6.095
 2195SOL     OW 7483   0.297   0.613   3.956
 2195SOL    HW1 7484   0.313   0.574   3.865
 2195SOL    HW2 7485   0.220   0.677   3.951
 2196SOL     OW 7486   3.395   0.058   5.163
 2196SOL    HW1 7487   3.333   0.126   5.125
 2196SOL    HW2 7488   3.423   7.016   5.092
 2197SOL     OW 7489   3.092   3.511   0.902
 2197SOL    HW1 7490   3.049   3.420   0.900
 2197SOL    HW2 7491   3.113   3.536   0.997
 2198SOL     OW 7492   6.209   1.757   0.528
 2198SOL    HW1 7493   6.138   1.697   0.492
 2198SOL    HW2 7494   6.219   1.837   0.469
 2199SOL     OW 7495   5.343   1.195   3.233
 2199SOL    HW1 7496   5.385   1.282   3.209
 2199SOL    HW2 7497   5.408   1.138   3.283
 2200SOL     OW 7498   2.314   0.709   5.105
 2200SOL    HW1 7499   2.244   0.653   5.061
 2200SOL    HW2 7500   2.372   0.751   5.035
 2201SOL     OW 7501   6.729   2.696   3.377
 2201SOL    HW1 7502   6.655   2.654   3.324
 2201SOL    HW2 7503   6.700   2.786   3.409
 2202SOL     OW 7504   2.566   5.083   1.989
 2202SOL    HW1 7505   2.645   5.111   1.933
 2202SOL    HW2 7506   2.591   5.087   2.086
 2203SOL     OW 7507   1.997   2.529   1.337
 2203SOL    HW1 7508   1.928   2.530   1.409
 2203SOL    HW2 7509   2.033   2.436   1.327
 2204SOL     OW 7510   3.907   0.922   0.697
 2204SOL    HW1 7511   3.871   1.008   0.660
 2204SOL    HW2 7512   3.896   0.849   0.629
 2205SOL     OW 7513   1.043   0.194   6.455
 2205SOL    HW1 7514   1.080   0.147   6.535
 2205SOL    HW2 7515   1.117   0.218   6.393
 2206SOL     OW 7516   3.087   4.536   6.126
 2206SOL    HW1 7517   3.019   4.596   6.083
 2206SOL    HW2 7518   3.131   4.482   6.055
 2207SOL     OW 7519   3.302   4.359   6.577
 2207SOL    HW1 7520   3.398   4.352   6.605
 2207SOL    HW2 7521   3.297   4.365   6.477
 2208SOL     OW 7522   1.506   6.519   2.872
 2208SOL    HW1 7523   1.577   6.577   2.832
 2208SOL    HW2 7524   1.546   6.460   2.942
 2209SOL     OW 7525   1.538   6.128   5.415
 2209SOL    HW1 7526   1.560   6.204   5.477
 2209SOL    HW2 7527   1.440   6.129   5.395
 2210SOL     OW 7528   6.315   4.963   3.497
 2210SOL    HW1 7529   6.249   5.030   3.530
 2210SOL    HW2 7530   6.365   5.000   3.419
 2211SOL     OW 7531   5.634   1.175   0.296
 2211SOL    HW1 7532   5.538   1.196   0.275
 2211SOL    HW2 7533   5.658   1.087   0.256
 2212SOL     OW 7534   1.488   6.171   0.212
 2212SOL    HW1 7535   1.414   6.136   0.270
 2212SOL    HW2 7536   1.478   6.269   0.200
 2213SOL     OW 7537   3.800   2.770   5.236
 2213SOL    HW1 7538   3.885   2.718   5.221
 2213SOL    HW2 7539   3.792   2.841   5.166
 2214SOL     OW 7540   3.380   2.888   5.117
 2214SOL    HW1 7541   3.405   2.791   5.118
 2214SOL    HW2 7542   3.442   2.939   5.176
 2215SOL     OW 7543   6.513   1.822   0.543
 2215SOL    HW1 7544   6.415   1.806   0.556
 2215SOL    HW2 7545   6.545   1.888   0.611
 2216SOL     OW 7546   1.821   0.611   6.093
 2216SOL    HW1 7547   1.892   0.623   6.162
 2216SOL    HW2 7548   1.812   0.514   6.069
 2217SOL     OW 7549   3.897   6.699   1.261
 2217SOL    HW1 7550   3.841   6.766   1.309
 2217SOL    HW2 7551   3.889   6.610   1.307
 2218SOL     OW 7552   0.388   6.518   6.590
 2218SOL    HW1 7553   0.474   6.568   6.587
 2218SOL    HW2 7554   0.322   6.562   6.528
 2219SOL     OW 7555   5.481   1.518   1.868
 2219SOL    HW1 7556   5.577   1.542   1.852
 2219SOL    HW2 7557   5.429   1.530   1.784
 2220SOL     OW 7558   1.301   0.429   4.440
 2220SOL    HW1 7559   1.308   0.411   4.538
 2220SOL    HW2 7560   1.389   0.409   4.396
 2221SOL     OW 7561   5.807   0.881   5.155
 2221SOL    HW1 7562   5.843   0.831   5.233
 2221SOL    HW2 7563   5.789   0.976   5.182
 2222SOL     OW 7564   4.700   0.435   0.812
 2222SOL    HW1 7565   4.638   0.481   0.875
 2222SOL    HW2 7566   4.673   0.454   0.718
 2223SOL     OW 7567   5.954   1.342   4.734
 2223SOL    HW1 7568   5.990   1.283   4.662
 2223SOL    HW2 7569   5.914   1.424   4.693
 2224SOL     OW 7570   1.693   3.929   0.931
 2224SOL    HW1 7571   1.780   3.881   0.921
 2224SOL    HW2 7572   1.710   4.028   0.933
 2225SOL     OW 7573   6.440   6.293   3.357
 2225SOL    HW1 7574   6.391   6.269   3.441
 2225SOL    HW2 7575   6.405   6.238   3.281
 2226SOL     OW 7576   3.938   4.412   0.858
 2226SOL    HW1 7577   3.866   4.415   0.927
 2226SOL    HW2 7578   3.987   4.326   0.866
 2227SOL     OW 7579   5.568   3.379   0.529
 2227SOL    HW1 7580   5.562   3.475   0.556
 2227SOL    HW2 7581   5.492   3.357   0.468
 2228SOL     OW 7582   2.919   5.164   1.108
 2228SOL    HW1 7583   2.842   5.105   1.087
 2228SOL    HW2 7584   2.907   5.204   1.199
 2229SOL     OW 7585   4.205   1.648   4.180
 2229SOL    HW1 7586   4.177   1.564   4.133
 2229SOL    HW2 7587   4.124   1.697   4.212
 2230SOL     OW 7588   5.762   5.710   6.512
 2230SOL    HW1 7589   5.829   5.782   6.495
 2230SOL    HW2 7590   5.670   5.749   6.515
 2231SOL     OW 7591   0.504   0.523   2.410
 2231SOL    HW1 7592   0.573   0.478   2.353
 2231SOL    HW2 7593   0.477   0.463   2.485
 2232SOL     OW 7594   0.576   3.205   4.925
 2232SOL    HW1 7595   0.560   3.221   4.828
 2232SOL    HW2 7596   0.672   3.180   4.940
 2233SOL     OW 7597   2.527   3.979   0.821
 2233SOL    HW1 7598   2.584   4.044   0.871
 2233SOL    HW2 7599   2.486   3.914   0.886
 2234SOL     OW 7600   4.224   1.721   1.684
 2234SOL    HW1 7601   4.232   1.733   1.584
 2234SOL    HW2 7602   4.134   1.753   1.714
 2235SOL     OW 7603   2.839   0.223   1.725
 2235SOL    HW1 7604   2.784   0.140   1.721
 2235SOL    HW2 7605   2.781   0.303   1.707
 2236SOL     OW 7606   1.428   4.764   6.786
 2236SOL    HW1 7607   1.380   4.735   6.868
 2236SOL    HW2 7608   1.363   4.774   6.710
 2237SOL     OW 7609   5.814   4.860   4.092
 2237SOL    HW1 7610   5.860   4.848   4.003
 2237SOL    HW2 7611   5.789   4.770   4.128
 2238SOL     OW 7612   5.523   4.541   0.890
 2238SOL    HW1 7613   5.566   4.465   0.940
 2238SOL    HW2 7614   5.580   4.623   0.901
 2239SOL     OW 7615   3.708   4.938   3.102
 2239SOL    HW1 7616   3.671   4.935   3.009
 2239SOL    HW2 7617   3.681   5.023   3.146
 2240SOL     OW 7618   4.946   5.682   3.581
 2240SOL    HW1 7619   4.901   5.646   3.499
 2240SOL    HW2 7620   4.991   5.768   3.559
 2241SOL     OW 7621   0.185   6.525   2.949
 2241SOL    HW1 7622   0.240   6.451   2.912
 2241SOL    HW2 7623   0.187   6.521   3.049
 2242SOL     OW 7624   5.240   1.985   2.881
 2242SOL    HW1 7625   5.313   1.925   2.913
 2242SOL    HW2 7626   5.177   1.933   2.823
 2243SOL     OW 7627   2.671   6.439   5.768
 2243SOL    HW1 7628   2.744   6.505   5.756
 2243SOL    HW2 7629   2.593   6.463   5.709
 2244SOL     OW 7630   2.621   6.361   2.084
 2244SOL    HW1 7631   2.696   6.411   2.126
 2244SOL    HW2 7632   2.547   6.425   2.061
 2245SOL     OW 7633   0.253   2.092   1.615
 2245SOL    HW1 7634   0.344   2.128   1.597
 2245SOL    HW2 7635   0.261   2.000   1.655
 2246SOL     OW 7636   0.633   1.819   5.331
 2246SOL    HW1 7637   0.560   1.779   5.387
 2246SOL    HW2 7638   0.647   1.763   5.250
 2247SOL     OW 7639   3.292   3.433   4.690
 2247SOL    HW1 7640   3.241   3.365   4.743
 2247SOL    HW2 7641   3.379   3.452   4.734
 2248SOL     OW 7642   4.363   4.016   5.689
 2248SOL    HW1 7643   4.425   4.065   5.629
 2248SOL    HW2 7644   4.359   4.062   5.778
 2249SOL     OW 7645   6.550   6.181   2.733
 2249SOL    HW1 7646   6.551   6.277   2.704
 2249SOL    HW2 7647   6.560   6.176   2.832
 2250SOL     OW 7648   4.073   3.282   6.752
 2250SOL    HW1 7649   3.981   3.255   6.781
 2250SOL    HW2 7650   4.141   3.241   6.812
 2251SOL     OW 7651   5.113   0.800   0.160
 2251SOL    HW1 7652   5.113   0.793   0.060
 2251SOL    HW2 7653   5.052   0.873   0.189
 2252SOL     OW 7654   5.224   2.852   2.555
 2252SOL    HW1 7655   5.153   2.912   2.521
 2252SOL    HW2 7656   5.217   2.845   2.655
 2253SOL     OW 7657   1.154   3.242   6.691
 2253SOL    HW1 7658   1.229   3.178   6.673
 2253SOL    HW2 7659   1.187   3.316   6.750
 2254SOL     OW 7660   3.768   3.003   4.865
 2254SOL    HW1 7661   3.692   3.067   4.877
 2254SOL    HW2 7662   3.846   3.050   4.825
 2255SOL     OW 7663   4.744   2.592   6.818
 2255SOL    HW1 7664   4.696   2.631   6.739
 2255SOL    HW2 7665   4.801   2.515   6.788
 2256SOL     OW 7666   5.144   5.778   1.388
 2256SOL    HW1 7667   5.087   5.785   1.306
 2256SOL    HW2 7668   5.234   5.816   1.369
 2257SOL     OW 7669   0.213   2.386   3.712
 2257SOL    HW1 7670   0.295   2.444   3.708
 2257SOL    HW2 7671   0.195   2.361   3.807
 2258SOL     OW 7672   1.270   5.517   5.630
 2258SOL    HW1 7673   1.231   5.606   5.653
 2258SOL    HW2 7674   1.369   5.520   5.643
 2259SOL     OW 7675   5.430   3.263   6.915
 2259SOL    HW1 7676   5.451   3.348   6.963
 2259SOL    HW2 7677   5.442   3.277   6.817
 2260SOL     OW 7678   6.033   4.282   2.729
 2260SOL    HW1 7679   6.046   4.293   2.827
 2260SOL    HW2 7680   5.935   4.288   2.708
 2261SOL     OW 7681   6.685   5.697   6.893
 2261SOL    HW1 7682   6.752   5.713   6.821
 2261SOL    HW2 7683   6.636   5.782   6.913
 2262SOL     OW 7684   5.484   1.629   2.132
 2262SOL    HW1 7685   5.473   1.584   2.043
 2262SOL    HW2 7686   5.402   1.613   2.188
 2263SOL     OW 7687   3.246   5.690   6.913
 2263SOL    HW1 7688   3.158   5.737   6.927
 2263SOL    HW2 7689   3.295   5.684   6.999
 2264SOL     OW 7690   3.439   3.526   0.517
 2264SOL    HW1 7691   3.394   3.452   0.467
 2264SOL    HW2 7692   3.382   3.553   0.595
 2265SOL     OW 7693   0.718   1.056   4.397
 2265SOL    HW1 7694   0.749   1.015   4.483
 2265SOL    HW2 7695   0.754   1.149   4.389
 2266SOL     OW 7696   5.960   2.202   0.960
 2266SOL    HW1 7697   6.007   2.141   1.023
 2266SOL    HW2 7698   5.887   2.250   1.008
 2267SOL     OW 7699   4.976   2.511   4.673
 2267SOL    HW1 7700   4.952   2.524   4.770
 2267SOL    HW2 7701   4.965   2.415   4.649
 2268SOL     OW 7702   6.531   3.772   6.578
 2268SOL    HW1 7703   6.551   3.864   6.544
 2268SOL    HW2 7704   6.604   3.709   6.550
 2269SOL     OW 7705   6.142   5.915   4.823
 2269SOL    HW1 7706   6.045   5.889   4.821
 2269SOL    HW2 7707   6.158   5.988   4.756
 2270SOL     OW 7708   3.389   2.285   6.156
 2270SOL    HW1 7709   3.313   2.348   6.144
 2270SOL    HW2 7710   3.445   2.283   6.073
 2271SOL     OW 7711   6.032   4.252   0.341
 2271SOL    HW1 7712   6.112   4.250   0.281
 2271SOL    HW2 7713   6.051   4.202   0.425
 2272SOL     OW 7714   6.261   2.041   6.223
 2272SOL    HW1 7715   6.189   1.976   6.199
 2272SOL    HW2 7716   6.228   2.134   6.212
 2273SOL     OW 7717   1.801   0.018   2.154
 2273SOL    HW1 7718   1.706   0.008   2.124
 2273SOL    HW2 7719   1.819   6.978   2.230
 2274SOL     OW 7720   0.210   3.107   6.622
 2274SOL    HW1 7721   0.115   3.117   6.591
 2274SOL    HW2 7722   0.219   3.025   6.677
 2275SOL     OW 7723   6.280   0.666   3.900
 2275SOL    HW1 7724   6.185   0.641   3.919
 2275SOL    HW2 7725   6.340   0.593   3.931
 2276SOL     OW 7726   2.666   5.331   1.197
 2276SOL    HW1 7727   2.679   5.333   1.098
 2276SOL    HW2 7728   2.605   5.256   1.222
 2277SOL     OW 7729   4.024   3.309   5.106
 2277SOL    HW1 7730   4.098   3.258   5.149
 2277SOL    HW2 7731   4.059   3.358   5.026
 2278SOL     OW 7732   6.722   5.100   3.794
 2278SOL    HW1 7733   6.780   5.021   3.814
 2278SOL    HW2 7734   6.641   5.070   3.745
 2279SOL     OW 7735   5.021   5.886   5.079
 2279SOL    HW1 7736   4.980   5.973   5.050
 2279SOL    HW2 7737   4.964   5.844   5.149
 2280SOL     OW 7738   6.950   6.422   4.110
 2280SOL    HW1 7739   6.967   6.489   4.038
 2280SOL    HW2 7740   6.985   6.457   4.197
 2281SOL     OW 7741   3.124   1.308   1.526
 2281SOL    HW1 7742   3.182   1.357   1.591
 2281SOL    HW2 7743   3.079   1.375   1.466
 2282SOL     OW 7744   4.719   6.587   5.007
 2282SOL    HW1 7745   4.717   6.579   4.907
 2282SOL    HW2 7746   4.699   6.498   5.048
 2283SOL     OW 7747   0.158   4.531   2.066
 2283SOL    HW1 7748   0.105   4.467   2.121
 2283SOL    HW2 7749   0.096   4.582   2.006
 2284SOL     OW 7750   1.762   2.115   0.347
 2284SOL    HW1 7751   1.844   2.147   0.395
 2284SOL    HW2 7752   1.700   2.072   0.412
 2285SOL     OW 7753   1.933   2.190   0.905
 2285SOL    HW1 7754   1.888   2.235   0.983
 2285SOL    HW2 7755   1.980   2.108   0.937
 2286SOL     OW 7756   6.680   0.748   4.044
 2286SOL    HW1 7757   6.693   0.843   4.070
 2286SOL    HW2 7758   6.721   0.731   3.954
 2287SOL     OW 7759   1.565   1.314   3.715
 2287SOL    HW1 7760   1.570   1.241   3.647
 2287SOL    HW2 7761   1.476   1.310   3.760
 2288SOL     OW 7762   6.334   5.389   4.338
 2288SOL    HW1 7763   6.372   5.297   4.327
 2288SOL    HW2 7764   6.245   5.383   4.384
 2289SOL     OW 7765   0.186   4.469   2.810
 2289SOL    HW1 7766   0.166   4.567   2.808
 2289SOL    HW2 7767   0.138   4.423   2.735
 2290SOL     OW 7768   1.312   3.920   2.209
 2290SOL    HW1 7769   1.225   3.969   2.201
 2290SOL    HW2 7770   1.369   3.939   2.129
 2291SOL     OW 7771   2.166   2.581   6.463
 2291SOL    HW1 7772   2.112   2.530   6.396
 2291SOL    HW2 7773   2.104   2.630   6.525
 2292SOL     OW 7774   5.852   2.801   4.464
 2292SOL    HW1 7775   5.770   2.834   4.511
 2292SOL    HW2 7776   5.927   2.791   4.529
 2293SOL     OW 7777   5.256   6.784   1.040
 2293SOL    HW1 7778   5.297   6.751   1.124
 2293SOL    HW2 7779   5.267   6.883   1.034
 2294SOL     OW 7780   3.534   0.973   6.179
 2294SOL    HW1 7781   3.473   0.990   6.256
 2294SOL    HW2 7782   3.620   1.022   6.192
 2295SOL     OW 7783   0.455   1.311   2.592
 2295SOL    HW1 7784   0.440   1.320   2.494
 2295SOL    HW2 7785   0.553   1.321   2.612
 2296SOL     OW 7786   3.421   5.853   2.031
 2296SOL    HW1 7787   3.460   5.783   2.091
 2296SOL    HW2 7788   3.472   5.938   2.041
 2297SOL     OW 7789   4.582   4.150   5.596
 2297SOL    HW1 7790   4.638   4.232   5.606
 2297SOL    HW2 7791   4.598   4.109   5.507
 2298SOL     OW 7792   4.320   3.433   1.756
 2298SOL    HW1 7793   4.356   3.340   1.746
 2298SOL    HW2 7794   4.384   3.498   1.715
 2299SOL     OW 7795   4.838   4.740   4.995
 2299SOL    HW1 7796   4.788   4.729   4.909
 2299SOL    HW2 7797   4.931   4.772   4.977
 2300SOL     OW 7798   2.312   5.721   1.886
 2300SOL    HW1 7799   2.242   5.681   1.944
 2300SOL    HW2 7800   2.335   5.812   1.920
 2301SOL     OW 7801   3.442   2.874   3.036
 2301SOL    HW1 7802   3.538   2.900   3.032
 2301SOL    HW2 7803   3.431   2.781   3.000
 2302SOL     OW 7804   2.972   0.194   1.220
 2302SOL    HW1 7805   2.975   0.276   1.277
 2302SOL    HW2 7806   3.057   0.186   1.169
 2303SOL     OW 7807   2.247   3.440   6.554
 2303SOL    HW1 7808   2.203   3.381   6.621
 2303SOL    HW2 7809   2.242   3.397   6.464
 2304SOL     OW 7810   5.456   6.727   4.076
 2304SOL    HW1 7811   5.529   6.697   4.015
 2304SOL    HW2 7812   5.462   6.826   4.089
 2305SOL     OW 7813   2.824   6.924   2.609
 2305SOL    HW1 7814   2.802   6.827   2.619
 2305SOL    HW2 7815   2.829   6.946   2.512
 2306SOL     OW 7816   1.970   5.018   1.546
 2306SOL    HW1 7817   1.947   4.949   1.477
 2306SOL    HW2 7818   2.010   4.974   1.625
 2307SOL     OW 7819   6.736   3.418   3.952
 2307SOL    HW1 7820   6.702   3.357   4.024
 2307SOL    HW2 7821   6.663   3.434   3.885
 2308SOL     OW 7822   1.836   4.794   1.755
 2308SOL    HW1 7823   1.805   4.776   1.848
 2308SOL    HW2 7824   1.927   4.835   1.757
 2309SOL     OW 7825   1.263   0.827   6.004
 2309SOL    HW1 7826   1.245   0.925   6.011
 2309SOL    HW2 7827   1.181   0.776   6.031
 2310SOL     OW 7828   5.984   5.880   0.420
 2310SOL    HW1 7829   5.986   5.949   0.493
 2310SOL    HW2 7830   5.891   5.845   0.411
 2311SOL     OW 7831   2.370   0.014   1.623
 2311SOL    HW1 7832   2.458   0.044   1.587
 2311SOL    HW2 7833   2.384   6.984   1.707
 2312SOL     OW 7834   4.183   5.973   2.735
 2312SOL    HW1 7835   4.088   6.004   2.743
 2312SOL    HW2 7836   4.244   6.052   2.735
 2313SOL     OW 7837   6.235   5.835   1.394
 2313SOL    HW1 7838   6.199   5.901   1.460
 2313SOL    HW2 7839   6.238   5.877   1.303
 2314SOL     OW 7840   5.276   6.491   3.594
 2314SOL    HW1 7841   5.277   6.528   3.686
 2314SOL    HW2 7842   5.367   6.505   3.552
 2315SOL     OW 7843   5.307   3.664   6.084
 2315SOL    HW1 7844   5.352   3.619   6.161
 2315SOL    HW2 7845   5.337   3.622   5.999
 2316SOL     OW 7846   3.924   1.219   3.635
 2316SOL    HW1 7847   4.023   1.215   3.619
 2316SOL    HW2 7848   3.886   1.303   3.596
 2317SOL     OW 7849   0.773   6.856   2.774
 2317SOL    HW1 7850   0.815   6.790   2.711
 2317SOL    HW2 7851   0.681   6.878   2.743
 2318SOL     OW 7852   1.672   2.708   3.779
 2318SOL    HW1 7853   1.631   2.794   3.750
 2318SOL    HW2 7854   1.680   2.707   3.879
 2319SOL     OW 7855   1.775   4.966   3.955
 2319SOL    HW1 7856   1.856   5.018   3.979
 2319SOL    HW2 7857   1.784   4.931   3.861
 2320SOL     OW 7858   0.884   2.206   5.069
 2320SOL    HW1 7859   0.822   2.281   5.089
 2320SOL    HW2 7860   0.866   2.171   4.977
 2321SOL     OW 7861   2.733   0.272   6.830
 2321SOL    HW1 7862   2.714   0.298   6.735
 2321SOL    HW2 7863   2.689   0.336   6.892
 2322SOL     OW 7864   3.119   1.612   4.946
 2322SOL    HW1 7865   3.103   1.710   4.935
 2322SOL    HW2 7866   3.102   1.587   5.042
 2323SOL     OW 7867   2.692   5.141   1.681
 2323SOL    HW1 7868   2.659   5.053   1.647
 2323SOL    HW2 7869   2.620   5.210   1.672
 2324SOL     OW 7870   6.149   6.332   1.596
 2324SOL    HW1 7871   6.180   6.342   1.501
 2324SOL    HW2 7872   6.057   6.370   1.605
 2325SOL     OW 7873   0.931   4.573   2.697
 2325SOL    HW1 7874   0.943   4.495   2.758
 2325SOL    HW2 7875   0.964   4.549   2.605
 2326SOL     OW 7876   3.316   5.532   5.784
 2326SOL    HW1 7877   3.232   5.494   5.745
 2326SOL    HW2 7878   3.394   5.506   5.727
 2327SOL     OW 7879   6.490   3.305   4.878
 2327SOL    HW1 7880   6.414   3.345   4.826
 2327SOL    HW2 7881   6.467   3.305   4.975
 2328SOL     OW 7882   3.360   1.906   2.633
 2328SOL    HW1 7883   3.284   1.966   2.608
 2328SOL    HW2 7884   3.445   1.959   2.629
 2329SOL     OW 7885   1.907   3.566   5.275
 2329SOL    HW1 7886   1.823   3.588   5.227
 2329SOL    HW2 7887   1.919   3.467   5.279
 2330SOL     OW 7888   1.073   4.064   2.174
 2330SOL    HW1 7889   0.982   4.029   2.196
 2330SOL    HW2 7890   1.078   4.161   2.200
 2331SOL     OW 7891   6.082   4.275   1.375
 2331SOL    HW1 7892   5.998   4.311   1.334
 2331SOL    HW2 7893   6.134   4.350   1.415
 2332SOL     OW 7894   4.135   1.699   5.558
 2332SOL    HW1 7895   4.130   1.762   5.635
 2332SOL    HW2 7896   4.200   1.626   5.579
 2333SOL     OW 7897   0.549   5.832   2.878
 2333SOL    HW1 7898   0.582   5.919   2.913
 2333SOL    HW2 7899   0.626   5.776   2.847
 2334SOL     OW 7900   2.182   0.369   6.903
 2334SOL    HW1 7901   2.171   0.272   6.882
 2334SOL    HW2 7902   2.262   0.405   6.855
 2335SOL     OW 7903   6.051   1.164   3.106
 2335SOL    HW1 7904   6.072   1.117   3.192
 2335SOL    HW2 7905   6.076   1.106   3.029
 2336SOL     OW 7906   4.442   1.735   5.097
 2336SOL    HW1 7907   4.468   1.831   5.104
 2336SOL    HW2 7908   4.429   1.697   5.189
 2337SOL     OW 7909   4.507   1.184   3.340
 2337SOL    HW1 7910   4.556   1.249   3.282
 2337SOL    HW2 7911   4.570   1.111   3.370
 2338SOL     OW 7912   1.412   1.368   5.864
 2338SOL    HW1 7913   1.383   1.455   5.825
 2338SOL    HW2 7914   1.384   1.363   5.960
 2339SOL     OW 7915   3.865   4.073   4.768
 2339SOL    HW1 7916   3.893   4.079   4.864
 2339SOL    HW2 7917   3.831   4.162   4.738
 2340SOL     OW 7918   5.131   4.634   6.893
 2340SOL    HW1 7919   5.155   4.543   6.928
 2340SOL    HW2 7920   5.135   4.633   6.793
 2341SOL     OW 7921   5.712   4.256   1.441
 2341SOL    HW1 7922   5.753   4.324   1.380
 2341SOL    HW2 7923   5.682   4.177   1.388
 2342SOL     OW 7924   0.373   6.373   5.211
 2342SOL    HW1 7925   0.348   6.462   5.172
 2342SOL    HW2 7926   0.310   6.303   5.178
 2343SOL     OW 7927   1.753   6.187   2.271
 2343SOL    HW1 7928   1.721   6.115   2.210
 2343SOL    HW2 7929   1.826   6.152   2.329
 2344SOL     OW 7930   1.994   0.874   1.334
 2344SOL    HW1 7931   2.061   0.906   1.268
 2344SOL    HW2 7932   1.976   0.947   1.401
 2345SOL     OW 7933   2.730   5.374   5.535
 2345SOL    HW1 7934   2.744   5.317   5.616
 2345SOL    HW2 7935   2.752   5.469   5.557
 2346SOL     OW 7936   4.745   2.919   4.621
 2346SOL    HW1 7937   4.755   3.018   4.613
 2346SOL    HW2 7938   4.777   2.890   4.711
 2347SOL     OW 7939   2.137   3.516   1.694
 2347SOL    HW1 7940   2.057   3.459   1.675
 2347SOL    HW2 7941   2.203   3.464   1.748
 2348SOL     OW 7942   3.345   6.173   3.976
 2348SOL    HW1 7943   3.313   6.078   3.981
 2348SOL    HW2 7944   3.438   6.179   4.013
 2349SOL     OW 7945   0.559   5.111   6.003
 2349SOL    HW1 7946   0.477   5.136   6.055
 2349SOL    HW2 7947   0.539   5.120   5.905
 2350SOL     OW 7948   5.155   6.955   6.548
 2350SOL    HW1 7949   5.103   6.886   6.598
 2350SOL    HW2 7950   5.100   6.993   6.474
 2351SOL     OW 7951   3.946   5.125   1.910
 2351SOL    HW1 7952   3.879   5.096   1.842
 2351SOL    HW2 7953   3.906   5.194   1.970
 2352SOL     OW 7954   1.180   3.438   2.225
 2352SOL    HW1 7955   1.270   3.401   2.204
 2352SOL    HW2 7956   1.158   3.419   2.321
 2353SOL     OW 7957   3.044   4.775   5.142
 2353SOL    HW1 7958   3.007   4.814   5.057
 2353SOL    HW2 7959   2.997   4.690   5.163
 2354SOL     OW 7960   2.977   1.769   6.072
 2354SOL    HW1 7961   3.064   1.758   6.120
 2354SOL    HW2 7962   2.983   1.846   6.008
 2355SOL     OW 7963   1.212   5.397   6.597
 2355SOL    HW1 7964   1.241   5.302   6.589
 2355SOL    HW2 7965   1.278   5.448   6.653
 2356SOL     OW 7966   2.227   4.021   0.003
 2356SOL    HW1 7967   2.274   3.976   0.080
 2356SOL    HW2 7968   2.269   4.110   7.009
 2357SOL     OW 7969   4.128   5.069   3.486
 2357SOL    HW1 7970   4.203   5.007   3.464
 2357SOL    HW2 7971   4.043   5.035   3.445
 2358SOL     OW 7972   2.522   5.231   5.384
 2358SOL    HW1 7973   2.612   5.272   5.397
 2358SOL    HW2 7974   2.531   5.133   5.368
 2359SOL     OW 7975   0.041   0.895   5.520
 2359SOL    HW1 7976   0.010   0.962   5.587
 2359SOL    HW2 7977   0.141   0.897   5.515
 2360SOL     OW 7978   5.233   6.053   5.908
 2360SOL    HW1 7979   5.279   6.133   5.868
 2360SOL    HW2 7980   5.279   6.027   5.993
 2361SOL     OW 7981   2.848   0.231   4.862
 2361SOL    HW1 7982   2.929   0.222   4.805
 2361SOL    HW2 7983   2.772   0.266   4.807
 2362SOL     OW 7984   2.924   0.251   5.300
 2362SOL    HW1 7985   2.884   0.307   5.372
 2362SOL    HW2 7986   2.981   0.180   5.341
 2363SOL     OW 7987   4.369   2.685   5.676
 2363SOL    HW1 7988   4.324   2.613   5.729
 2363SOL    HW2 7989   4.384   2.765   5.734
 2364SOL     OW 7990   0.151   2.206   3.247
 2364SOL    HW1 7991   0.148   2.135   3.178
 2364SOL    HW2 7992   0.059   2.244   3.261
 2365SOL     OW 7993   6.299   2.281   6.400
 2365SOL    HW1 7994   6.383   2.308   6.352
 2365SOL    HW2 7995   6.309   2.300   6.498
 2366SOL     OW 7996   1.482   4.846   5.700
 2366SOL    HW1 7997   1.475   4.946   5.696
 2366SOL    HW2 7998   1.570   4.817   5.660
 2367SOL     OW 7999   3.305   3.456   6.931
 2367SOL    HW1 8000   3.302   3.500   6.842
 2367SOL    HW2 8001   3.388   3.485   6.980
 2368SOL     OW 8002   4.377   0.233   3.749
 2368SOL    HW1 8003   4.331   0.320   3.768
 2368SOL    HW2 8004   4.420   0.237   3.659
 2369SOL     OW 8005   1.850   2.349   4.704
 2369SOL    HW1 8006   1.880   2.360   4.798
 2369SOL    HW2 8007   1.863   2.253   4.676
 2370SOL     OW 8008   4.911   3.942   6.856
 2370SOL    HW1 8009   4.852   3.939   6.776
 2370SOL    HW2 8010   4.893   3.862   6.914
 2371SOL     OW 8011   1.367   6.279   1.678
 2371SOL    HW1 8012   1.344   6.294   1.774
 2371SOL    HW2 8013   1.465   6.259   1.670
 2372SOL     OW 8014   0.526   2.187   1.570
 2372SOL    HW1 8015   0.616   2.145   1.565
 2372SOL    HW2 8016   0.521   2.262   1.504
 2373SOL     OW 8017   6.450   0.149   0.288
 2373SOL    HW1 8018   6.484   0.099   0.208
 2373SOL    HW2 8019   6.350   0.157   0.283
 2374SOL     OW 8020   6.229   1.076   3.982
 2374SOL    HW1 8021   6.194   1.002   3.925
 2374SOL    HW2 8022   6.186   1.072   4.072
 2375SOL     OW 8023   1.724   6.756   4.548
 2375SOL    HW1 8024   1.635   6.722   4.521
 2375SOL    HW2 8025   1.761   6.699   4.621
 2376SOL     OW 8026   6.167   2.733   4.305
 2376SOL    HW1 8027   6.160   2.743   4.206
 2376SOL    HW2 8028   6.119   2.650   4.333
 2377SOL     OW 8029   3.419   3.865   3.365
 2377SOL    HW1 8030   3.380   3.838   3.277
 2377SOL    HW2 8031   3.385   3.804   3.437
 2378SOL     OW 8032   5.475   2.127   6.340
 2378SOL    HW1 8033   5.435   2.216   6.319
 2378SOL    HW2 8034   5.451   2.100   6.433
 2379SOL     OW 8035   6.979   1.519   6.668
 2379SOL    HW1 8036   6.888   1.478   6.663
 2379SOL    HW2 8037   6.998   1.548   6.761
 2380SOL     OW 8038   6.325   6.340   6.314
 2380SOL    HW1 8039   6.229   6.366   6.325
 2380SOL    HW2 8040   6.332   6.264   6.249
 2381SOL     OW 8041   2.425   4.373   4.004
 2381SOL    HW1 8042   2.375   4.406   3.924
 2381SOL    HW2 8043   2.397   4.279   4.024
 2382SOL     OW 8044   2.140   4.819   2.740
 2382SOL    HW1 8045   2.226   4.869   2.754
 2382SOL    HW2 8046   2.160   4.731   2.696
 2383SOL     OW 8047   5.063   5.768   6.901
 2383SOL    HW1 8048   5.004   5.835   6.945
 2383SOL    HW2 8049   5.034   5.675   6.927
 2384SOL     OW 8050   1.250   0.207   2.272
 2384SOL    HW1 8051   1.164   0.251   2.296
 2384SOL    HW2 8052   1.257   0.198   2.172
 2385SOL     OW 8053   6.061   6.994   1.201
 2385SOL    HW1 8054   6.109   0.023   1.272
 2385SOL    HW2 8055   5.962   6.998   1.218
 2386SOL     OW 8056   4.723   5.172   4.031
 2386SOL    HW1 8057   4.815   5.132   4.030
 2386SOL    HW2 8058   4.703   5.209   4.122
 2387SOL     OW 8059   0.194   1.775   3.475
 2387SOL    HW1 8060   0.162   1.719   3.551
 2387SOL    HW2 8061   0.260   1.841   3.508
 2388SOL     OW 8062   1.030   1.473   4.571
 2388SOL    HW1 8063   1.021   1.460   4.670
 2388SOL    HW2 8064   1.126   1.466   4.545
 2389SOL     OW 8065   5.233   3.870   3.809
 2389SOL    HW1 8066   5.311   3.914   3.854
 2389SOL    HW2 8067   5.209   3.786   3.858
 2390SOL     OW 8068   3.567   3.376   4.373
 2390SOL    HW1 8069   3.523   3.287   4.385
 2390SOL    HW2 8070   3.665   3.364   4.362
 2391SOL     OW 8071   4.536   4.500   5.809
 2391SOL    HW1 8072   4.447   4.510   5.766
 2391SOL    HW2 8073   4.546   4.407   5.845
 2392SOL     OW 8074   3.613   5.959   5.547
 2392SOL    HW1 8075   3.513   5.960   5.557
 2392SOL    HW2 8076   3.646   6.053   5.541
 2393SOL     OW 8077   3.863   5.341   0.403
 2393SOL    HW1 8078   3.893   5.298   0.488
 2393SOL    HW2 8079   3.831   5.270   0.340
 2394SOL     OW 8080   1.934   3.280   5.215
 2394SOL    HW1 8081   1.891   3.270   5.125
 2394SOL    HW2 8082   1.941   3.190   5.258
 2395SOL     OW 8083   6.572   2.499   6.831
 2395SOL    HW1 8084   6.652   2.559   6.825
 2395SOL    HW2 8085   6.495   2.549   6.871
 2396SOL     OW 8086   4.572   5.907   6.962
 2396SOL    HW1 8087   4.523   5.945   6.883
 2396SOL    HW2 8088   4.506   5.879   0.009
 2397SOL     OW 8089   0.279   4.026   0.529
 2397SOL    HW1 8090   0.269   4.010   0.431
 2397SOL    HW2 8091   0.376   4.021   0.555
 2398SOL     OW 8092   2.825   4.845   5.993
 2398SOL    HW1 8093   2.790   4.754   6.015
 2398SOL    HW2 8094   2.755   4.914   6.014
 2399SOL     OW 8095   4.662   1.730   2.383
 2399SOL    HW1 8096   4.722   1.657   2.350
 2399SOL    HW2 8097   4.715   1.796   2.435
 2400SOL     OW 8098   4.186   4.899   0.489
 2400SOL    HW1 8099   4.177   4.830   0.418
 2400SOL    HW2 8100   4.207   4.988   0.448
 2401SOL     OW 8101   3.993   0.661   6.044
 2401SOL    HW1 8102   3.948   0.718   6.113
 2401SOL    HW2 8103   4.054   0.596   6.089
 2402SOL     OW 8104   0.407   2.640   3.968
 2402SOL    HW1 8105   0.437   2.622   4.062
 2402SOL    HW2 8106   0.307   2.635   3.964
 2403SOL     OW 8107   2.882   2.852   6.996
 2403SOL    HW1 8108   2.800   2.823   6.948
 2403SOL    HW2 8109   2.944   2.897   6.933
 2404SOL     OW 8110   5.479   1.587   2.641
 2404SOL    HW1 8111   5.523   1.588   2.551
 2404SOL    HW2 8112   5.537   1.536   2.705
 2405SOL     OW 8113   3.280   3.850   4.110
 2405SOL    HW1 8114   3.244   3.828   4.200
 2405SOL    HW2 8115   3.326   3.769   4.072
 2406SOL     OW 8116   1.500   0.604   4.014
 2406SOL    HW1 8117   1.453   0.592   3.926
 2406SOL    HW2 8118   1.580   0.544   4.018
 2407SOL     OW 8119   4.893   3.060   2.873
 2407SOL    HW1 8120   4.895   2.979   2.932
 2407SOL    HW2 8121   4.824   3.049   2.802
 2408SOL     OW 8122   3.464   5.191   2.303
 2408SOL    HW1 8123   3.516   5.107   2.317
 2408SOL    HW2 8124   3.366   5.169   2.298
 2409SOL     OW 8125   1.776   2.945   2.265
 2409SOL    HW1 8126   1.849   2.977   2.326
 2409SOL    HW2 8127   1.806   2.864   2.216
 2410SOL     OW 8128   5.932   2.914   5.776
 2410SOL    HW1 8129   5.849   2.953   5.816
 2410SOL    HW2 8130   6.009   2.929   5.837
 2411SOL     OW 8131   4.268   5.042   5.451
 2411SOL    HW1 8132   4.308   5.133   5.455
 2411SOL    HW2 8133   4.272   4.999   5.542
 2412SOL     OW 8134   3.238   4.093   0.144
 2412SOL    HW1 8135   3.199   4.089   0.235
 2412SOL    HW2 8136   3.193   4.165   0.091
 2413SOL     OW 8137   0.060   2.723   6.552
 2413SOL    HW1 8138   0.024   2.741   6.461
 2413SOL    HW2 8139   0.063   2.624   6.568
 2414SOL     OW 8140   5.697   4.155   2.175
 2414SOL    HW1 8141   5.675   4.067   2.134
 2414SOL    HW2 8142   5.789   4.151   2.214
 2415SOL     OW 8143   0.629   6.958   1.038
 2415SOL    HW1 8144   0.602   6.948   1.134
 2415SOL    HW2 8145   0.600   6.878   0.987
 2416SOL     OW 8146   2.987   1.714   5.455
 2416SOL    HW1 8147   2.944   1.723   5.544
 2416SOL    HW2 8148   2.917   1.705   5.384
 2417SOL     OW 8149   4.380   2.624   0.233
 2417SOL    HW1 8150   4.412   2.717   0.254
 2417SOL    HW2 8151   4.342   2.583   0.316
 2418SOL     OW 8152   2.920   3.744   3.956
 2418SOL    HW1 8153   2.873   3.729   4.043
 2418SOL    HW2 8154   3.016   3.719   3.965
 2419SOL     OW 8155   0.518   6.325   4.001
 2419SOL    HW1 8156   0.585   6.266   3.955
 2419SOL    HW2 8157   0.426   6.299   3.971
 2420SOL     OW 8158   4.218   0.412   2.046
 2420SOL    HW1 8159   4.127   0.385   2.078
 2420SOL    HW2 8160   4.229   0.511   2.055
 2421SOL     OW 8161   2.626   0.818   5.014
 2421SOL    HW1 8162   2.687   0.739   5.001
 2421SOL    HW2 8163   2.623   0.872   4.930
 2422SOL     OW 8164   5.637   0.040   1.444
 2422SOL    HW1 8165   5.641   0.136   1.419
 2422SOL    HW2 8166   5.637   0.031   1.543
 2423SOL     OW 8167   1.477   6.468   3.399
 2423SOL    HW1 8168   1.479   6.426   3.308
 2423SOL    HW2 8169   1.517   6.405   3.465
 2424SOL     OW 8170   5.667   5.661   6.187
 2424SOL    HW1 8171   5.621   5.659   6.276
 2424SOL    HW2 8172   5.732   5.586   6.181
 2425SOL     OW 8173   5.843   0.377   4.234
 2425SOL    HW1 8174   5.936   0.362   4.267
 2425SOL    HW2 8175   5.807   0.462   4.273
 2426SOL     OW 8176   0.801   4.543   4.243
 2426SOL    HW1 8177   0.728   4.475   4.243
 2426SOL    HW2 8178   0.863   4.527   4.320
 2427SOL     OW 8179   5.981   5.614   6.894
 2427SOL    HW1 8180   5.980   5.606   6.794
 2427SOL    HW2 8181   5.914   5.550   6.933
 2428SOL     OW 8182   0.517   6.997   3.181
 2428SOL    HW1 8183   0.498   6.969   3.275
 2428SOL    HW2 8184   0.613   6.977   3.159
 2429SOL     OW 8185   6.455   5.770   4.253
 2429SOL    HW1 8186   6.548   5.734   4.260
 2429SOL    HW2 8187   6.400   5.737   4.329
 2430SOL     OW 8188   6.425   2.453   1.871
 2430SOL    HW1 8189   6.438   2.549   1.845
 2430SOL    HW2 8190   6.393   2.401   1.793
 2431SOL     OW 8191   4.009   0.170   1.778
 2431SOL    HW1 8192   4.054   0.121   1.703
 2431SOL    HW2 8193   3.971   0.105   1.843
 2432SOL     OW 8194   4.265   6.232   2.579
 2432SOL    HW1 8195   4.312   6.312   2.615
 2432SOL    HW2 8196   4.288   6.220   2.482
 2433SOL     OW 8197   2.942   6.807   1.001
 2433SOL    HW1 8198   2.866   6.869   1.020
 2433SOL    HW2 8199   3.010   6.814   1.073
 2434SOL     OW 8200   4.182   1.391   3.380
 2434SOL    HW1 8201   4.154   1.465   3.441
 2434SOL    HW2 8202   4.274   1.409   3.346
 2435SOL     OW 8203   4.697   5.409   5.939
 2435SOL    HW1 8204   4.733   5.490   5.893
 2435SOL    HW2 8205   4.618   5.435   5.994
 2436SOL     OW 8206   1.841   0.011   0.586
 2436SOL    HW1 8207   1.906   0.009   0.661
 2436SOL    HW2 8208   1.821   0.106   0.562
 2437SOL     OW 8209   4.549   5.350   0.384
 2437SOL    HW1 8210   4.531   5.290   0.306
 2437SOL    HW2 8211   4.551   5.445   0.354
 2438SOL     OW 8212   3.703   1.454   5.601
 2438SOL    HW1 8213   3.684   1.368   5.553
 2438SOL    HW2 8214   3.795   1.449   5.641
 2439SOL     OW 8215   1.176   4.272   0.569
 2439SOL    HW1 8216   1.097   4.217   0.543
 2439SOL    HW2 8217   1.257   4.240   0.520
 2440SOL     OW 8218   3.573   6.139   5.111
 2440SOL    HW1 8219   3.519   6.220   5.134
 2440SOL    HW2 8220   3.669   6.163   5.107
 2441SOL     OW 8221   6.261   1.105   6.773
 2441SOL    HW1 8222   6.195   1.133   6.844
 2441SOL    HW2 8223   6.230   1.139   6.684
 2442SOL     OW 8224   6.401   6.186   3.932
 2442SOL    HW1 8225   6.432   6.126   4.005
 2442SOL    HW2 8226   6.479   6.233   3.891
 2443SOL     OW 8227   3.114   0.156   6.243
 2443SOL    HW1 8228   3.142   0.245   6.209
 2443SOL    HW2 8229   3.109   0.091   6.166
 2444SOL     OW 8230   3.969   4.098   6.335
 2444SOL    HW1 8231   3.889   4.059   6.380
 2444SOL    HW2 8232   4.011   4.167   6.394
 2445SOL     OW 8233   6.570   0.947   2.620
 2445SOL    HW1 8234   6.480   0.914   2.591
 2445SOL    HW2 8235   6.577   1.045   2.603
 2446SOL     OW 8236   0.726   2.970   4.356
 2446SOL    HW1 8237   0.784   2.998   4.432
 2446SOL    HW2 8238   0.742   3.031   4.278
 2447SOL     OW 8239   2.228   1.027   0.804
 2447SOL    HW1 8240   2.189   0.936   0.788
 2447SOL    HW2 8241   2.286   1.025   0.885
 2448SOL     OW 8242   0.659   0.627   3.992
 2448SOL    HW1 8243   0.629   0.640   3.898
 2448SOL    HW2 8244   0.580   0.608   4.050
 2449SOL     OW 8245   0.134   4.107   2.775
 2449SOL    HW1 8246   0.208   4.085   2.711
 2449SOL    HW2 8247   0.077   4.180   2.736
 2450SOL     OW 8248   2.869   5.305   5.017
 2450SOL    HW1 8249   2.837   5.366   5.090
 2450SOL    HW2 8250   2.871   5.211   5.051
 2451SOL     OW 8251   0.874   0.244   3.458
 2451SOL    HW1 8252   0.835   0.270   3.369
 2451SOL    HW2 8253   0.807   0.261   3.530
 2452SOL     OW 8254   3.054   2.053   3.409
 2452SOL    HW1 8255   2.992   1.980   3.436
 2452SOL    HW2 8256   3.143   2.039   3.453
 2453SOL     OW 8257   6.814   3.443   0.541
 2453SOL    HW1 8258   6.727   3.411   0.503
 2453SOL    HW2 8259   6.802   3.465   0.638
 2454SOL     OW 8260   3.266   0.905   6.805
 2454SOL    HW1 8261   3.252   0.834   6.736
 2454SOL    HW2 8262   3.230   0.874   6.893
 2455SOL     OW 8263   4.936   0.899   1.261
 2455SOL    HW1 8264   5.004   0.883   1.190
 2455SOL    HW2 8265   4.938   0.825   1.327
 2456SOL     OW 8266   5.873   1.309   0.335
 2456SOL    HW1 8267   5.796   1.262   0.291
 2456SOL    HW2 8268   5.860   1.308   0.434
 2457SOL     OW 8269   6.252   6.199   6.579
 2457SOL    HW1 8270   6.341   6.198   6.624
 2457SOL    HW2 8271   6.264   6.192   6.480
 2458SOL     OW 8272   2.243   6.019   3.750
 2458SOL    HW1 8273   2.200   5.947   3.805
 2458SOL    HW2 8274   2.306   5.977   3.685
 2459SOL     OW 8275   2.607   6.583   6.740
 2459SOL    HW1 8276   2.705   6.598   6.758
 2459SOL    HW2 8277   2.575   6.506   6.795
 2460SOL     OW 8278   1.746   1.719   2.083
 2460SOL    HW1 8279   1.823   1.746   2.141
 2460SOL    HW2 8280   1.775   1.643   2.024
 2461SOL     OW 8281   4.868   0.082   2.845
 2461SOL    HW1 8282   4.860   0.180   2.864
 2461SOL    HW2 8283   4.902   0.035   2.927
 2462SOL     OW 8284   2.253   5.577   0.354
 2462SOL    HW1 8285   2.208   5.666   0.342
 2462SOL    HW2 8286   2.285   5.568   0.448
 2463SOL     OW 8287   6.436   2.562   4.913
 2463SOL    HW1 8288   6.530   2.569   4.947
 2463SOL    HW2 8289   6.419   2.632   4.844
 2464SOL     OW 8290   1.638   4.221   1.823
 2464SOL    HW1 8291   1.680   4.217   1.913
 2464SOL    HW2 8292   1.555   4.277   1.827
 2465SOL     OW 8293   1.322   0.426   1.861
 2465SOL    HW1 8294   1.222   0.419   1.869
 2465SOL    HW2 8295   1.362   0.335   1.869
 2466SOL     OW 8296   2.597   1.487   2.012
 2466SOL    HW1 8297   2.532   1.419   2.046
 2466SOL    HW2 8298   2.637   1.454   1.926
 2467SOL     OW 8299   5.459   1.538   4.717
 2467SOL    HW1 8300   5.403   1.597   4.774
 2467SOL    HW2 8301   5.551   1.577   4.708
 2468SOL     OW 8302   5.552   5.983   2.103
 2468SOL    HW1 8303   5.547   5.891   2.064
 2468SOL    HW2 8304   5.583   5.976   2.198
 2469SOL     OW 8305   3.960   4.370   5.273
 2469SOL    HW1 8306   3.985   4.440   5.340
 2469SOL    HW2 8307   4.039   4.352   5.214
 2470SOL     OW 8308   3.783   4.773   5.680
 2470SOL    HW1 8309   3.847   4.800   5.608
 2470SOL    HW2 8310   3.773   4.674   5.680
 2471SOL     OW 8311   2.821   6.257   0.656
 2471SOL    HW1 8312   2.840   6.254   0.558
 2471SOL    HW2 8313   2.906   6.273   0.706
 2472SOL     OW 8314   4.657   2.060   3.942
 2472SOL    HW1 8315   4.559   2.068   3.960
 2472SOL    HW2 8316   4.678   2.103   3.854
 2473SOL     OW 8317   2.099   3.946   5.162
 2473SOL    HW1 8318   2.163   3.946   5.085
 2473SOL    HW2 8319   2.149   3.930   5.247
 2474SOL     OW 8320   0.561   5.673   6.900
 2474SOL    HW1 8321   0.486   5.704   6.959
 2474SOL    HW2 8322   0.644   5.664   6.954
 2475SOL     OW 8323   5.288   0.966   1.321
 2475SOL    HW1 8324   5.258   0.934   1.412
 2475SOL    HW2 8325   5.233   0.921   1.251
 2476SOL     OW 8326   0.693   2.513   3.598
 2476SOL    HW1 8327   0.598   2.490   3.617
 2476SOL    HW2 8328   0.740   2.433   3.560
 2477SOL     OW 8329   5.367   1.304   2.256
 2477SOL    HW1 8330   5.277   1.340   2.230
 2477SOL    HW2 8331   5.438   1.352   2.204
 2478SOL     OW 8332   6.250   1.064   2.032
 2478SOL    HW1 8333   6.208   1.086   2.120
 2478SOL    HW2 8334   6.213   1.125   1.961
 2479SOL     OW 8335   1.235   3.857   1.746
 2479SOL    HW1 8336   1.218   3.762   1.718
 2479SOL    HW2 8337   1.333   3.877   1.738
 2480SOL     OW 8338   6.179   4.047   1.267
 2480SOL    HW1 8339   6.122   3.970   1.297
 2480SOL    HW2 8340   6.136   4.133   1.292
 2481SOL     OW 8341   2.960   0.798   0.295
 2481SOL    HW1 8342   2.893   0.864   0.331
 2481SOL    HW2 8343   2.949   0.711   0.344
 2482SOL     OW 8344   4.632   2.955   5.994
 2482SOL    HW1 8345   4.673   2.906   6.070
 2482SOL    HW2 8346   4.693   3.028   5.964
 2483SOL     OW 8347   2.188   1.846   6.895
 2483SOL    HW1 8348   2.137   1.772   6.852
 2483SOL    HW2 8349   2.180   1.928   6.839
 2484SOL     OW 8350   2.182   0.478   0.160
 2484SOL    HW1 8351   2.168   0.450   0.065
 2484SOL    HW2 8352   2.114   0.434   0.218
 2485SOL     OW 8353   5.112   3.851   2.320
 2485SOL    HW1 8354   5.142   3.768   2.275
 2485SOL    HW2 8355   5.155   3.858   2.410
 2486SOL     OW 8356   2.868   5.118   3.886
 2486SOL    HW1 8357   2.917   5.194   3.844
 2486SOL    HW2 8358   2.931   5.041   3.899
 2487SOL     OW 8359   3.776   5.912   7.001
 2487SOL    HW1 8360   3.679   5.908   6.976
 2487SOL    HW2 8361   3.831   5.923   6.919
 2488SOL     OW 8362   1.732   4.766   2.628
 2488SOL    HW1 8363   1.770   4.674   2.636
 2488SOL    HW2 8364   1.752   4.818   2.711
 2489SOL     OW 8365   2.201   5.790   3.472
 2489SOL    HW1 8366   2.171   5.716   3.532
 2489SOL    HW2 8367   2.193   5.761   3.377
 2490SOL     OW 8368   6.602   5.490   1.481
 2490SOL    HW1 8369   6.638   5.406   1.522
 2490SOL    HW2 8370   6.563   5.470   1.391
 2491SOL     OW 8371   2.762   5.716   0.926
 2491SOL    HW1 8372   2.720   5.772   0.998
 2491SOL    HW2 8373   2.794   5.630   0.966
 2492SOL     OW 8374   4.428   2.851   6.725
 2492SOL    HW1 8375   4.505   2.902   6.764
 2492SOL    HW2 8376   4.382   2.909   6.657
 2493SOL     OW 8377   6.010   0.463   2.953
 2493SOL    HW1 8378   6.096   0.504   2.981
 2493SOL    HW2 8379   5.934   0.514   2.993
 2494SOL     OW 8380   5.960   3.850   2.715
 2494SOL    HW1 8381   5.917   3.760   2.718
 2494SOL    HW2 8382   5.911   3.908   2.649
 2495SOL     OW 8383   5.242   0.364   4.905
 2495SOL    HW1 8384   5.311   0.427   4.941
 2495SOL    HW2 8385   5.238   0.373   4.805
 2496SOL     OW 8386   0.201   4.402   5.972
 2496SOL    HW1 8387   0.151   4.384   6.057
 2496SOL    HW2 8388   0.299   4.412   5.993
 2497SOL     OW 8389   0.130   1.320   1.273
 2497SOL    HW1 8390   0.075   1.380   1.331
 2497SOL    HW2 8391   0.107   1.225   1.293
 2498SOL     OW 8392   3.544   1.946   3.815
 2498SOL    HW1 8393   3.618   2.008   3.788
 2498SOL    HW2 8394   3.490   1.988   3.888
 2499SOL     OW 8395   4.993   2.167   4.189
 2499SOL    HW1 8396   4.949   2.159   4.278
 2499SOL    HW2 8397   5.039   2.081   4.167
 2500SOL     OW 8398   4.395   2.912   5.818
 2500SOL    HW1 8399   4.474   2.943   5.873
 2500SOL    HW2 8400   4.341   2.992   5.791
 2501SOL     OW 8401   6.564   5.937   6.993
 2501SOL    HW1 8402   6.582   5.997   0.048
 2501SOL    HW2 8403   6.476   5.891   7.005
 2502SOL     OW 8404   2.225   6.013   3.012
 2502SOL    HW1 8405   2.306   5.965   3.045
 2502SOL    HW2 8406   2.187   6.070   3.085
 2503SOL     OW 8407   3.552   5.421   5.327
 2503SOL    HW1 8408   3.527   5.517   5.318
 2503SOL    HW2 8409   3.538   5.373   5.241
 2504SOL     OW 8410   3.106   5.179   5.533
 2504SOL    HW1 8411   3.177   5.160   5.465
 2504SOL    HW2 8412   3.017   5.157   5.494
 2505SOL     OW 8413   1.800   6.419   4.201
 2505SOL    HW1 8414   1.860   6.403   4.122
 2505SOL    HW2 8415   1.781   6.517   4.208
 2506SOL     OW 8416   6.003   3.727   6.391
 2506SOL    HW1 8417   5.945   3.687   6.462
 2506SOL    HW2 8418   6.035   3.655   6.330
 2507SOL     OW 8419   0.525   3.998   0.617
 2507SOL    HW1 8420   0.557   4.084   0.656
 2507SOL    HW2 8421   0.590   3.925   0.641
 2508SOL     OW 8422   2.876   1.509   2.377
 2508SOL    HW1 8423   2.923   1.580   2.430
 2508SOL    HW2 8424   2.837   1.549   2.294
 2509SOL     OW 8425   5.833   2.768   2.774
 2509SOL    HW1 8426   5.766   2.827   2.730
 2509SOL    HW2 8427   5.809   2.672   2.757
 2510SOL     OW 8428   3.509   4.536   1.119
 2510SOL    HW1 8429   3.557   4.489   1.045
 2510SOL    HW2 8430   3.422   4.491   1.136
 2511SOL     OW 8431   2.301   1.902   4.102
 2511SOL    HW1 8432   2.265   1.931   4.013
 2511SOL    HW2 8433   2.374   1.835   4.089
 2512SOL     OW 8434   5.153   5.238   5.182
 2512SOL    HW1 8435   5.058   5.212   5.166
 2512SOL    HW2 8436   5.157   5.329   5.224
 2513SOL     OW 8437   0.897   3.262   5.689
 2513SOL    HW1 8438   0.881   3.198   5.614
 2513SOL    HW2 8439   0.949   3.340   5.656
 2514SOL     OW 8440   6.391   4.177   4.381
 2514SOL    HW1 8441   6.361   4.151   4.472
 2514SOL    HW2 8442   6.342   4.259   4.352
 2515SOL     OW 8443   1.228   0.158   0.613
 2515SOL    HW1 8444   1.137   0.130   0.584
 2515SOL    HW2 8445   1.270   0.085   0.666
 2516SOL     OW 8446   5.843   0.122   3.017
 2516SOL    HW1 8447   5.744   0.123   3.027
 2516SOL    HW2 8448   5.870   0.176   2.938
 2517SOL     OW 8449   1.799   5.700   5.323
 2517SOL    HW1 8450   1.756   5.790   5.309
 2517SOL    HW2 8451   1.847   5.699   5.411
 2518SOL     OW 8452   2.660   3.217   6.510
 2518SOL    HW1 8453   2.629   3.310   6.490
 2518SOL    HW2 8454   2.601   3.176   6.579
 2519SOL     OW 8455   4.979   5.432   4.317
 2519SOL    HW1 8456   4.909   5.374   4.359
 2519SOL    HW2 8457   5.046   5.374   4.271
 2520SOL     OW 8458   1.129   3.023   1.228
 2520SOL    HW1 8459   1.053   3.063   1.178
 2520SOL    HW2 8460   1.118   2.923   1.231
 2521SOL     OW 8461   0.735   6.472   5.559
 2521SOL    HW1 8462   0.718   6.479   5.657
 2521SOL    HW2 8463   0.834   6.477   5.542
 2522SOL     OW 8464   0.383   3.250   5.744
 2522SOL    HW1 8465   0.325   3.169   5.755
 2522SOL    HW2 8466   0.477   3.226   5.766
 2523SOL     OW 8467   0.188   3.420   1.257
 2523SOL    HW1 8468   0.096   3.389   1.231
 2523SOL    HW2 8469   0.180   3.491   1.327
 2524SOL     OW 8470   0.716   6.166   4.235
 2524SOL    HW1 8471   0.634   6.111   4.219
 2524SOL    HW2 8472   0.755   6.143   4.324
 2525SOL     OW 8473   1.110   2.298   4.884
 2525SOL    HW1 8474   1.016   2.300   4.917
 2525SOL    HW2 8475   1.129   2.209   4.843
 2526SOL     OW 8476   1.628   3.571   6.187
 2526SOL    HW1 8477   1.598   3.589   6.093
 2526SOL    HW2 8478   1.564   3.509   6.231
 2527SOL     OW 8479   4.986   6.848   4.937
 2527SOL    HW1 8480   4.944   6.832   5.027
 2527SOL    HW2 8481   5.076   6.890   4.950
 2528SOL     OW 8482   6.373   4.578   0.907
 2528SOL    HW1 8483   6.281   4.568   0.870
 2528SOL    HW2 8484   6.440   4.550   0.838
 2529SOL     OW 8485   6.537   5.645   6.188
 2529SOL    HW1 8486   6.449   5.615   6.150
 2529SOL    HW2 8487   6.527   5.662   6.286
 2530SOL     OW 8488   1.127   6.301   4.426
 2530SOL    HW1 8489   1.119   6.235   4.500
 2530SOL    HW2 8490   1.127   6.252   4.338
 2531SOL     OW 8491   5.589   5.708   4.205
 2531SOL    HW1 8492   5.546   5.725   4.116
 2531SOL    HW2 8493   5.581   5.611   4.227
 2532SOL     OW 8494   0.778   6.013   0.705
 2532SOL    HW1 8495   0.770   6.090   0.641
 2532SOL    HW2 8496   0.871   6.010   0.742
 2533SOL     OW 8497   4.722   6.145   3.833
 2533SOL    HW1 8498   4.760   6.191   3.753
 2533SOL    HW2 8499   4.630   6.110   3.812
 2534SOL     OW 8500   2.473   0.352   3.070
 2534SOL    HW1 8501   2.398   0.395   3.019
 2534SOL    HW2 8502   2.479   0.393   3.161
 2535SOL     OW 8503   2.472   2.734   6.596
 2535SOL    HW1 8504   2.447   2.640   6.574
 2535SOL    HW2 8505   2.392   2.785   6.627
 2536SOL     OW 8506   0.246   2.158   3.505
 2536SOL    HW1 8507   0.236   2.173   3.406
 2536SOL    HW2 8508   0.264   2.245   3.550
 2537SOL     OW 8509   5.376   6.278   6.606
 2537SOL    HW1 8510   5.454   6.338   6.619
 2537SOL    HW2 8511   5.291   6.331   6.615
 2538SOL     OW 8512   1.639   4.194   4.709
 2538SOL    HW1 8513   1.686   4.274   4.747
 2538SOL    HW2 8514   1.583   4.222   4.631
 2539SOL     OW 8515   4.585   0.168   5.669
 2539SOL    HW1 8516   4.626   0.219   5.745
 2539SOL    HW2 8517   4.584   0.226   5.587
 2540SOL     OW 8518   4.981   1.330   1.401
 2540SOL    HW1 8519   5.007   1.242   1.442
 2540SOL    HW2 8520   4.988   1.323   1.302
 2541SOL     OW 8521   1.540   0.420   5.938
 2541SOL    HW1 8522   1.478   0.449   6.011
 2541SOL    HW2 8523   1.626   0.389   5.978
 2542SOL     OW 8524   4.335   1.540   5.599
 2542SOL    HW1 8525   4.356   1.445   5.577
 2542SOL    HW2 8526   4.411   1.580   5.650
 2543SOL     OW 8527   2.056   0.856   3.197
 2543SOL    HW1 8528   2.037   0.895   3.107
 2543SOL    HW2 8529   1.972   0.820   3.236
 2544SOL     OW 8530   0.466   5.221   2.382
 2544SOL    HW1 8531   0.428   5.308   2.352
 2544SOL    HW2 8532   0.553   5.237   2.428
 2545SOL     OW 8533   1.758   0.745   1.361
 2545SOL    HW1 8534   1.848   0.785   1.341
 2545SOL    HW2 8535   1.770   0.649   1.386
 2546SOL     OW 8536   6.989   2.607   2.286
 2546SOL    HW1 8537   7.006   2.556   2.202
 2546SOL    HW2 8538   6.933   2.552   2.348
 2547SOL     OW 8539   5.760   5.671   0.044
 2547SOL    HW1 8540   5.706   5.679   6.982
 2547SOL    HW2 8541   5.843   5.726   0.036
 2548SOL     OW 8542   2.816   0.079   5.089
 2548SOL    HW1 8543   2.806   0.123   5.000
 2548SOL    HW2 8544   2.865   0.140   5.151
 2549SOL     OW 8545   2.225   1.951   1.668
 2549SOL    HW1 8546   2.142   1.911   1.707
 2549SOL    HW2 8547   2.251   2.033   1.719
 2550SOL     OW 8548   6.236   0.796   6.871
 2550SOL    HW1 8549   6.142   0.821   6.894
 2550SOL    HW2 8550   6.269   0.856   6.798
 2551SOL     OW 8551   2.946   5.146   0.317
 2551SOL    HW1 8552   3.015   5.135   0.388
 2551SOL    HW2 8553   2.970   5.090   0.238
 2552SOL     OW 8554   1.542   5.530   5.622
 2552SOL    HW1 8555   1.612   5.491   5.562
 2552SOL    HW2 8556   1.572   5.619   5.654
 2553SOL     OW 8557   2.825   3.525   7.002
 2553SOL    HW1 8558   2.886   3.604   6.991
 2553SOL    HW2 8559   2.743   3.538   6.947
 2554SOL     OW 8560   1.591   5.926   6.342
 2554SOL    HW1 8561   1.664   5.987   6.313
 2554SOL    HW2 8562   1.578   5.934   6.441
 2555SOL     OW 8563   6.302   6.106   6.142
 2555SOL    HW1 8564   6.267   6.015   6.121
 2555SOL    HW2 8565   6.249   6.174   6.092
 2556SOL     OW 8566   3.994   5.984   0.724
 2556SOL    HW1 8567   4.047   6.014   0.803
 2556SOL    HW2 8568   3.927   6.055   0.700
 2557SOL     OW 8569   2.131   1.872   6.516
 2557SOL    HW1 8570   2.169   1.780   6.528
 2557SOL    HW2 8571   2.031   1.867   6.522
 2558SOL     OW 8572   3.581   3.511   6.150
 2558SOL    HW1 8573   3.497   3.563   6.167
 2558SOL    HW2 8574   3.575   3.422   6.196
 2559SOL     OW 8575   6.432   2.896   4.238
 2559SOL    HW1 8576   6.414   2.991   4.265
 2559SOL    HW2 8577   6.423   2.887   4.139
 2560SOL     OW 8578   4.995   3.239   4.182
 2560SOL    HW1 8579   4.989   3.142   4.204
 2560SOL    HW2 8580   4.949   3.292   4.253
 2561SOL     OW 8581   3.947   0.356   3.041
 2561SOL    HW1 8582   3.847   0.357   3.036
 2561SOL    HW2 8583   3.977   0.404   3.123
 2562SOL     OW 8584   2.248   5.171   2.411
 2562SOL    HW1 8585   2.229   5.221   2.496
 2562SOL    HW2 8586   2.234   5.073   2.427
 2563SOL     OW 8587   3.682   1.923   6.994
 2563SOL    HW1 8588   3.669   1.830   0.005
 2563SOL    HW2 8589   3.647   1.931   6.901
 2564SOL     OW 8590   1.112   6.922   6.258
 2564SOL    HW1 8591   1.128   7.004   6.313
 2564SOL    HW2 8592   1.110   6.841   6.318
 2565SOL     OW 8593   0.063   0.383   1.032
 2565SOL    HW1 8594   6.985   0.386   1.039
 2565SOL    HW2 8595   0.099   0.475   1.044
 2566SOL     OW 8596   1.627   6.886   0.743
 2566SOL    HW1 8597   1.689   6.964   0.730
 2566SOL    HW2 8598   1.640   6.821   0.668
 2567SOL     OW 8599   1.328   1.301   2.756
 2567SOL    HW1 8600   1.413   1.326   2.710
 2567SOL    HW2 8601   1.298   1.211   2.723
 2568SOL     OW 8602   2.760   0.984   0.333
 2568SOL    HW1 8603   2.662   1.003   0.324
 2568SOL    HW2 8604   2.810   1.037   0.264
 2569SOL     OW 8605   2.584   1.447   2.324
 2569SOL    HW1 8606   2.657   1.385   2.352
 2569SOL    HW2 8607   2.571   1.518   2.393
 2570SOL     OW 8608   5.723   0.386   6.336
 2570SOL    HW1 8609   5.725   0.329   6.418
 2570SOL    HW2 8610   5.633   0.427   6.326
 2571SOL     OW 8611   2.913   3.382   4.836
 2571SOL    HW1 8612   2.859   3.373   4.752
 2571SOL    HW2 8613   3.003   3.342   4.823
 2572SOL     OW 8614   1.832   6.762   1.654
 2572SOL    HW1 8615   1.768   6.802   1.589
 2572SOL    HW2 8616   1.872   6.679   1.616
 2573SOL     OW 8617   6.166   1.536   2.486
 2573SOL    HW1 8618   6.145   1.601   2.412
 2573SOL    HW2 8619   6.195   1.587   2.567
 2574SOL     OW 8620   6.919   2.598   0.299
 2574SOL    HW1 8621   6.855   2.567   0.369
 2574SOL    HW2 8622   6.985   2.525   0.279
 2575SOL     OW 8623   5.274   3.983   0.409
 2575SOL    HW1 8624   5.212   4.040   0.355
 2575SOL    HW2 8625   5.229   3.897   0.432
 2576SOL     OW 8626   3.938   6.992   3.399
 2576SOL    HW1 8627   3.880   6.914   3.376
 2576SOL    HW2 8628   3.888   0.031   3.461
 2577SOL     OW 8629   4.529   6.367   2.720
 2577SOL    HW1 8630   4.569   6.320   2.642
 2577SOL    HW2 8631   4.553   6.318   2.804
 2578SOL     OW 8632   4.734   2.768   4.988
 2578SOL    HW1 8633   4.770   2.858   5.010
 2578SOL    HW2 8634   4.647   2.754   5.035
 2579SOL     OW 8635   1.263   1.301   3.711
 2579SOL    HW1 8636   1.264   1.229   3.781
 2579SOL    HW2 8637   1.230   1.386   3.751
 2580SOL     OW 8638   2.066   2.888   6.581
 2580SOL    HW1 8639   1.970   2.865   6.569
 2580SOL    HW2 8640   2.092   2.960   6.517
 2581SOL     OW 8641   6.191   4.660   1.690
 2581SOL    HW1 8642   6.102   4.639   1.650
 2581SOL    HW2 8643   6.180   4.731   1.760
 2582SOL     OW 8644   1.380   4.490   2.404
 2582SOL    HW1 8645   1.379   4.390   2.406
 2582SOL    HW2 8646   1.397   4.524   2.497
 2583SOL     OW 8647   0.379   1.985   1.215
 2583SOL    HW1 8648   0.334   1.997   1.303
 2583SOL    HW2 8649   0.444   1.909   1.220
 2584SOL     OW 8650   3.956   5.733   0.594
 2584SOL    HW1 8651   3.964   5.824   0.636
 2584SOL    HW2 8652   4.000   5.733   0.505
 2585SOL     OW 8653   3.574   0.918   0.148
 2585SOL    HW1 8654   3.660   0.899   0.101
 2585SOL    HW2 8655   3.545   0.836   0.198
 2586SOL     OW 8656   4.524   1.956   3.368
 2586SOL    HW1 8657   4.445   1.940   3.427
 2586SOL    HW2 8658   4.597   1.999   3.421
 2587SOL     OW 8659   6.673   1.052   3.950
 2587SOL    HW1 8660   6.691   1.128   3.888
 2587SOL    HW2 8661   6.581   1.061   3.988
 2588SOL     OW 8662   4.902   6.956   0.525
 2588SOL    HW1 8663   4.918   6.858   0.515
 2588SOL    HW2 8664   4.804   6.974   0.519
 2589SOL     OW 8665   0.441   5.789   5.056
 2589SOL    HW1 8666   0.374   5.856   5.088
 2589SOL    HW2 8667   0.516   5.782   5.122
 2590SOL     OW 8668   3.296   6.184   2.117
 2590SOL    HW1 8669   3.340   6.128   2.187
 2590SOL    HW2 8670   3.361   6.251   2.081
 2591SOL     OW 8671   6.354   5.950   2.406
 2591SOL    HW1 8672   6.408   5.895   2.341
 2591SOL    HW2 8673   6.331   6.038   2.364
 2592SOL     OW 8674   2.408   6.641   1.450
 2592SOL    HW1 8675   2.386   6.715   1.386
 2592SOL    HW2 8676   2.436   6.560   1.398
 2593SOL     OW 8677   2.634   6.147   1.563
 2593SOL    HW1 8678   2.585   6.233   1.580
 2593SOL    HW2 8679   2.712   6.142   1.625
 2594SOL     OW 8680   0.246   5.945   5.931
 2594SOL    HW1 8681   0.208   5.899   6.011
 2594SOL    HW2 8682   0.343   5.922   5.921
 2595SOL     OW 8683   6.345   1.241   5.412
 2595SOL    HW1 8684   6.299   1.162   5.371
 2595SOL    HW2 8685   6.307   1.325   5.373
 2596SOL     OW 8686   3.976   2.250   1.851
 2596SOL    HW1 8687   3.992   2.216   1.758
 2596SOL    HW2 8688   3.884   2.288   1.857
 2597SOL     OW 8689   1.745   3.832   6.837
 2597SOL    HW1 8690   1.697   3.758   6.883
 2597SOL    HW2 8691   1.819   3.865   6.896
 2598SOL     OW 8692   6.097   1.131   4.234
 2598SOL    HW1 8693   6.108   1.144   4.333
 2598SOL    HW2 8694   6.015   1.178   4.203
 2599SOL     OW 8695   2.818   0.030   0.548
 2599SOL    HW1 8696   2.831   0.055   0.644
 2599SOL    HW2 8697   2.893   6.993   0.519
 2600SOL     OW 8698   4.993   3.559   4.568
 2600SOL    HW1 8699   4.968   3.654   4.587
 2600SOL    HW2 8700   5.020   3.514   4.654
 2601SOL     OW 8701   2.498   1.717   6.737
 2601SOL    HW1 8702   2.416   1.735   6.683
 2601SOL    HW2 8703   2.472   1.689   6.829
 2602SOL     OW 8704   6.879   4.592   3.601
 2602SOL    HW1 8705   6.887   4.692   3.600
 2602SOL    HW2 8706   6.908   4.556   3.512
 2603SOL     OW 8707   2.284   1.784   2.555
 2603SOL    HW1 8708   2.255   1.879   2.558
 2603SOL    HW2 8709   2.370   1.777   2.503
 2604SOL     OW 8710   4.982   1.091   2.917
 2604SOL    HW1 8711   4.952   1.072   2.823
 2604SOL    HW2 8712   5.073   1.051   2.931
 2605SOL     OW 8713   2.902   4.812   2.933
 2605SOL    HW1 8714   2.909   4.736   2.870
 2605SOL    HW2 8715   2.992   4.833   2.972
 2606SOL     OW 8716   0.166   4.714   0.656
 2606SOL    HW1 8717   0.128   4.778   0.724
 2606SOL    HW2 8718   0.097   4.648   0.630
 2607SOL     OW 8719   0.738   1.108   5.808
 2607SOL    HW1 8720   0.684   1.028   5.834
 2607SOL    HW2 8721   0.729   1.124   5.710
 2608SOL     OW 8722   4.152   5.343   2.301
 2608SOL    HW1 8723   4.176   5.365   2.396
 2608SOL    HW2 8724   4.209   5.267   2.269
 2609SOL     OW 8725   0.534   2.104   2.127
 2609SOL    HW1 8726   0.570   2.019   2.090
 2609SOL    HW2 8727   0.559   2.113   2.223
 2610SOL     OW 8728   7.016   4.713   4.311
 2610SOL    HW1 8729   7.017   4.683   4.215
 2610SOL    HW2 8730   0.017   4.636   4.370
 2611SOL     OW 8731   5.018   6.235   1.427
 2611SOL    HW1 8732   5.039   6.275   1.516
 2611SOL    HW2 8733   4.927   6.192   1.430
 2612SOL     OW 8734   6.484   6.576   6.189
 2612SOL    HW1 8735   6.440   6.666   6.185
 2612SOL    HW2 8736   6.413   6.505   6.196
 2613SOL     OW 8737   2.864   6.261   1.177
 2613SOL    HW1 8738   2.811   6.277   1.094
 2613SOL    HW2 8739   2.877   6.348   1.225
 2614SOL     OW 8740   6.312   0.457   6.045
 2614SOL    HW1 8741   6.283   0.551   6.024
 2614SOL    HW2 8742   6.285   0.397   5.969
 2615SOL     OW 8743   6.404   3.603   3.125
 2615SOL    HW1 8744   6.450   3.692   3.128
 2615SOL    HW2 8745   6.459   3.539   3.071
 2616SOL     OW 8746   4.027   3.267   4.055
 2616SOL    HW1 8747   3.938   3.282   4.012
 2616SOL    HW2 8748   4.030   3.175   4.093
 2617SOL     OW 8749   3.657   6.766   1.109
 2617SOL    HW1 8750   3.733   6.825   1.083
 2617SOL    HW2 8751   3.574   6.796   1.061
 2618SOL     OW 8752   0.002   6.784   4.436
 2618SOL    HW1 8753   6.976   6.852   4.491
 2618SOL    HW2 8754   0.090   6.822   4.406
 2619SOL     OW 8755   3.831   1.100   3.072
 2619SOL    HW1 8756   3.916   1.092   3.019
 2619SOL    HW2 8757   3.819   1.194   3.102
 2620SOL     OW 8758   0.504   6.178   3.053
 2620SOL    HW1 8759   0.439   6.107   3.080
 2620SOL    HW2 8760   0.592   6.136   3.033
 2621SOL     OW 8761   1.654   5.821   2.571
 2621SOL    HW1 8762   1.682   5.914   2.595
 2621SOL    HW2 8763   1.595   5.823   2.491
 2622SOL     OW 8764   1.968   2.250   6.043
 2622SOL    HW1 8765   2.025   2.243   6.125
 2622SOL    HW2 8766   1.978   2.341   6.003
 2623SOL     OW 8767   3.087   1.382   5.422
 2623SOL    HW1 8768   3.000   1.398   5.470
 2623SOL    HW2 8769   3.159   1.367   5.489
 2624SOL     OW 8770   6.017   2.371   5.093
 2624SOL    HW1 8771   6.114   2.353   5.076
 2624SOL    HW2 8772   5.974   2.290   5.132
 2625SOL     OW 8773   2.862   1.797   5.688
 2625SOL    HW1 8774   2.824   1.733   5.754
 2625SOL    HW2 8775   2.789   1.851   5.647
 2626SOL     OW 8776   0.074   0.570   5.355
 2626SOL    HW1 8777   0.032   0.657   5.330
 2626SOL    HW2 8778   0.038   0.497   5.297
 2627SOL     OW 8779   1.137   1.092   4.970
 2627SOL    HW1 8780   1.100   1.087   4.877
 2627SOL    HW2 8781   1.062   1.100   5.035
 2628SOL     OW 8782   1.744   4.754   6.479
 2628SOL    HW1 8783   1.660   4.809   6.478
 2628SOL    HW2 8784   1.747   4.698   6.396
 2629SOL     OW 8785   3.161   4.080   1.530
 2629SOL    HW1 8786   3.078   4.127   1.561
 2629SOL    HW2 8787   3.212   4.048   1.609
 2630SOL     OW 8788   3.178   1.575   3.729
 2630SOL    HW1 8789   3.258   1.629   3.755
 2630SOL    HW2 8790   3.145   1.605   3.640
 2631SOL     OW 8791   5.188   0.099   4.249
 2631SOL    HW1 8792   5.170   0.164   4.176
 2631SOL    HW2 8793   5.257   0.033   4.219
 2632SOL     OW 8794   2.749   2.072   6.405
 2632SOL    HW1 8795   2.705   2.159   6.430
 2632SOL    HW2 8796   2.704   1.997   6.454
 2633SOL     OW 8797   6.575   1.478   4.918
 2633SOL    HW1 8798   6.548   1.443   5.007
 2633SOL    HW2 8799   6.675   1.486   4.915
 2634SOL     OW 8800   1.455   3.946   3.244
 2634SOL    HW1 8801   1.356   3.952   3.230
 2634SOL    HW2 8802   1.475   3.878   3.315
 2635SOL     OW 8803   6.162   6.018   5.432
 2635SOL    HW1 8804   6.196   5.926   5.449
 2635SOL    HW2 8805   6.066   6.023   5.459
 2636SOL     OW 8806   4.880   0.405   5.326
 2636SOL    HW1 8807   4.850   0.393   5.232
 2636SOL    HW2 8808   4.869   0.318   5.375
 2637SOL     OW 8809   5.387   1.574   3.939
 2637SOL    HW1 8810   5.372   1.645   3.870
 2637SOL    HW2 8811   5.327   1.497   3.922
 2638SOL     OW 8812   6.850   0.065   2.833
 2638SOL    HW1 8813   6.776   0.002   2.807
 2638SOL    HW2 8814   6.888   0.107   2.750
 2639SOL     OW 8815   0.823   0.368   1.691
 2639SOL    HW1 8816   0.730   0.344   1.718
 2639SOL    HW2 8817   0.820   0.441   1.623
 2640SOL     OW 8818   6.993   6.044   4.522
 2640SOL    HW1 8819   0.020   6.001   4.446
 2640SOL    HW2 8820   7.010   6.142   4.521
 2641SOL     OW 8821   5.017   2.977   2.013
 2641SOL    HW1 8822   4.922   2.995   1.991
 2641SOL    HW2 8823   5.064   3.062   2.035
 2642SOL     OW 8824   4.205   6.991   4.272
 2642SOL    HW1 8825   4.239   0.022   4.349
 2642SOL    HW2 8826   4.135   6.927   4.304
 2643SOL     OW 8827   0.648   3.998   2.429
 2643SOL    HW1 8828   0.745   3.999   2.404
 2643SOL    HW2 8829   0.639   4.024   2.525
 2644SOL     OW 8830   6.492   5.890   5.921
 2644SOL    HW1 8831   6.412   5.855   5.873
 2644SOL    HW2 8832   6.500   5.989   5.904
 2645SOL     OW 8833   4.418   5.509   4.421
 2645SOL    HW1 8834   4.381   5.599   4.446
 2645SOL    HW2 8835   4.420   5.450   4.501
 2646SOL     OW 8836   5.611   0.450   6.939
 2646SOL    HW1 8837   5.697   0.457   6.888
 2646SOL    HW2 8838   5.602   0.359   6.978
 2647SOL     OW 8839   6.401   0.923   2.273
 2647SOL    HW1 8840   6.485   0.869   2.283
 2647SOL    HW2 8841   6.397   0.959   2.180
 2648SOL     OW 8842   0.154   6.836   4.026
 2648SOL    HW1 8843   0.204   6.914   3.990
 2648SOL    HW2 8844   0.171   6.756   3.969
 2649SOL     OW 8845   6.185   3.246   6.645
 2649SOL    HW1 8846   6.260   3.261   6.710
 2649SOL    HW2 8847   6.121   3.179   6.684
 2650SOL     OW 8848   0.426   3.860   4.036
 2650SOL    HW1 8849   0.355   3.868   3.966
 2650SOL    HW2 8850   0.515   3.882   3.997
 2651SOL     OW 8851   0.420   1.825   0.262
 2651SOL    HW1 8852   0.406   1.839   0.164
 2651SOL    HW2 8853   0.332   1.832   0.310
 2652SOL     OW 8854   3.363   3.839   3.780
 2652SOL    HW1 8855   3.306   3.783   3.840
 2652SOL    HW2 8856   3.357   3.805   3.686
 2653SOL     OW 8857   5.446   0.230   5.116
 2653SOL    HW1 8858   5.356   0.201   5.084
 2653SOL    HW2 8859   5.454   0.329   5.106
 2654SOL     OW 8860   5.401   5.098   1.041
 2654SOL    HW1 8861   5.383   5.138   0.952
 2654SOL    HW2 8862   5.315   5.069   1.083
 2655SOL     OW 8863   4.760   5.014   4.351
 2655SOL    HW1 8864   4.743   5.112   4.361
 2655SOL    HW2 8865   4.675   4.964   4.369
 2656SOL     OW 8866   3.630   5.070   3.946
 2656SOL    HW1 8867   3.650   5.004   3.874
 2656SOL    HW2 8868   3.635   5.025   4.035
 2657SOL     OW 8869   1.619   3.923   6.640
 2657SOL    HW1 8870   1.678   3.894   6.716
 2657SOL    HW2 8871   1.673   3.980   6.577
 2658SOL     OW 8872   4.819   4.582   0.352
 2658SOL    HW1 8873   4.910   4.544   0.367
 2658SOL    HW2 8874   4.773   4.533   0.278
 2659SOL     OW 8875   6.069   3.285   5.090
 2659SOL    HW1 8876   6.037   3.245   5.004
 2659SOL    HW2 8877   5.993   3.331   5.136
 2660SOL     OW 8878   0.793   1.296   0.890
 2660SOL    HW1 8879   0.795   1.370   0.823
 2660SOL    HW2 8880   0.717   1.234   0.870
 2661SOL     OW 8881   2.331   6.480   0.685
 2661SOL    HW1 8882   2.296   6.461   0.777
 2661SOL    HW2 8883   2.414   6.427   0.669
 2662SOL     OW 8884   4.589   6.996   5.476
 2662SOL    HW1 8885   4.594   0.020   5.565
 2662SOL    HW2 8886   4.532   0.028   5.414
 2663SOL     OW 8887   2.570   4.025   1.118
 2663SOL    HW1 8888   2.668   4.009   1.116
 2663SOL    HW2 8889   2.552   4.123   1.114
 2664SOL     OW 8890   4.232   3.619   5.183
 2664SOL    HW1 8891   4.239   3.710   5.142
 2664SOL    HW2 8892   4.316   3.568   5.164
 2665SOL     OW 8893   2.470   2.804   5.252
 2665SOL    HW1 8894   2.451   2.899   5.229
 2665SOL    HW2 8895   2.386   2.750   5.244
 2666SOL     OW 8896   5.676   4.036   1.258
 2666SOL    HW1 8897   5.703   3.940   1.263
 2666SOL    HW2 8898   5.652   4.059   1.163
 2667SOL     OW 8899   1.669   6.077   4.122
 2667SOL    HW1 8900   1.706   6.159   4.079
 2667SOL    HW2 8901   1.571   6.070   4.102
 2668SOL     OW 8902   5.989   3.371   4.382
 2668SOL    HW1 8903   5.979   3.278   4.346
 2668SOL    HW2 8904   5.976   3.370   4.481
 2669SOL     OW 8905   2.888   4.618   5.438
 2669SOL    HW1 8906   2.967   4.653   5.487
 2669SOL    HW2 8907   2.910   4.609   5.341
 2670SOL     OW 8908   5.807   2.794   6.384
 2670SOL    HW1 8909   5.886   2.854   6.370
 2670SOL    HW2 8910   5.831   2.722   6.450
 2671SOL     OW 8911   4.201   4.985   6.339
 2671SOL    HW1 8912   4.181   4.904   6.394
 2671SOL    HW2 8913   4.166   4.972   6.246
 2672SOL     OW 8914   0.311   5.397   0.556
 2672SOL    HW1 8915   0.299   5.356   0.466
 2672SOL    HW2 8916   0.293   5.496   0.550
 2673SOL     OW 8917   6.300   1.457   4.541
 2673SOL    HW1 8918   6.282   1.516   4.620
 2673SOL    HW2 8919   6.342   1.512   4.468
 2674SOL     OW 8920   1.158   4.413   3.651
 2674SOL    HW1 8921   1.175   4.349   3.576
 2674SOL    HW2 8922   1.128   4.501   3.613
 2675SOL     OW 8923   6.266   5.311   4.094
 2675SOL    HW1 8924   6.201   5.380   4.062
 2675SOL    HW2 8925   6.312   5.345   4.177
 2676SOL     OW 8926   4.094   1.513   0.652
 2676SOL    HW1 8927   4.086   1.419   0.619
 2676SOL    HW2 8928   4.065   1.519   0.747
 2677SOL     OW 8929   3.129   3.731   0.510
 2677SOL    HW1 8930   3.204   3.726   0.576
 2677SOL    HW2 8931   3.049   3.773   0.553
 2678SOL     OW 8932   6.875   3.271   1.452
 2678SOL    HW1 8933   6.894   3.311   1.363
 2678SOL    HW2 8934   6.803   3.324   1.498
 2679SOL     OW 8935   3.582   5.139   1.035
 2679SOL    HW1 8936   3.519   5.091   1.097
 2679SOL    HW2 8937   3.640   5.072   0.989
 2680SOL     OW 8938   0.765   1.484   0.683
 2680SOL    HW1 8939   0.756   1.579   0.713
 2680SOL    HW2 8940   0.834   1.478   0.611
 2681SOL     OW 8941   1.236   2.393   4.579
 2681SOL    HW1 8942   1.285   2.342   4.650
 2681SOL    HW2 8943   1.149   2.425   4.615
 2682SOL     OW 8944   5.329   4.369   2.486
 2682SOL    HW1 8945   5.358   4.464   2.499
 2682SOL    HW2 8946   5.403   4.317   2.444
 2683SOL     OW 8947   2.618   3.946   0.555
 2683SOL    HW1 8948   2.585   3.951   0.649
 2683SOL    HW2 8949   2.576   3.868   0.509
 2684SOL     OW 8950   4.751   5.639   1.049
 2684SOL    HW1 8951   4.734   5.557   1.104
 2684SOL    HW2 8952   4.665   5.688   1.037
 2685SOL     OW 8953   6.220   6.198   6.876
 2685SOL    HW1 8954   6.144   6.236   6.823
 2685SOL    HW2 8955   6.299   6.185   6.816
 2686SOL     OW 8956   1.628   1.630   6.026
 2686SOL    HW1 8957   1.637   1.626   5.926
 2686SOL    HW2 8958   1.625   1.726   6.055
 2687SOL     OW 8959   4.767   4.213   2.110
 2687SOL    HW1 8960   4.795   4.308   2.101
 2687SOL    HW2 8961   4.691   4.194   2.048
 2688SOL     OW 8962   4.637   4.378   0.145
 2688SOL    HW1 8963   4.594   4.463   0.115
 2688SOL    HW2 8964   4.684   4.335   0.068
 2689SOL     OW 8965   1.428   3.417   4.113
 2689SOL    HW1 8966   1.391   3.388   4.201
 2689SOL    HW2 8967   1.514   3.369   4.096
 2690SOL     OW 8968   3.598   3.716   4.201
 2690SOL    HW1 8969   3.688   3.675   4.186
 2690SOL    HW2 8970   3.528   3.658   4.159
 2691SOL     OW 8971   1.577   5.464   2.285
 2691SOL    HW1 8972   1.620   5.554   2.286
 2691SOL    HW2 8973   1.563   5.432   2.379
 2692SOL     OW 8974   3.279   5.203   3.142
 2692SOL    HW1 8975   3.296   5.143   3.064
 2692SOL    HW2 8976   3.204   5.266   3.121
 2693SOL     OW 8977   1.192   4.175   2.920
 2693SOL    HW1 8978   1.217   4.216   3.007
 2693SOL    HW2 8979   1.111   4.221   2.883
 2694SOL     OW 8980   4.585   6.562   2.974
 2694SOL    HW1 8981   4.534   6.530   3.054
 2694SOL    HW2 8982   4.521   6.589   2.902
 2695SOL     OW 8983   4.927   0.320   2.560
 2695SOL    HW1 8984   4.924   0.251   2.631
 2695SOL    HW2 8985   4.868   0.397   2.585
 2696SOL     OW 8986   3.954   3.308   5.695
 2696SOL    HW1 8987   4.002   3.385   5.735
 2696SOL    HW2 8988   3.856   3.314   5.718
 2697SOL     OW 8989   3.497   1.959   2.949
 2697SOL    HW1 8990   3.406   1.996   2.932
 2697SOL    HW2 8991   3.564   2.033   2.952
 2698SOL     OW 8992   2.097   6.087   0.465
 2698SOL    HW1 8993   2.108   5.997   0.423
 2698SOL    HW2 8994   2.008   6.092   0.510
 2699SOL     OW 8995   3.185   6.582   0.419
 2699SOL    HW1 8996   3.091   6.549   0.408
 2699SOL    HW2 8997   3.248   6.507   0.398
 2700SOL     OW 8998   1.955   4.101   0.797
 2700SOL    HW1 8999   1.942   4.168   0.724
 2700SOL    HW2 9000   1.915   4.134   0.882
 2701SOL     OW 9001   4.377   0.976   6.768
 2701SOL    HW1 9002   4.329   0.893   6.796
 2701SOL    HW2 9003   4.471   0.973   6.801
 2702SOL     OW 9004   0.505   3.049   4.032
 2702SOL    HW1 9005   0.594   3.095   4.035
 2702SOL    HW2 9006   0.446   3.095   3.965
 2703SOL     OW 9007   1.851   0.362   2.038
 2703SOL    HW1 9008   1.765   0.349   2.087
 2703SOL    HW2 9009   1.927   0.361   2.103
 2704SOL     OW 9010   6.652   6.861   0.898
 2704SOL    HW1 9011   6.581   6.886   0.831
 2704SOL    HW2 9012   6.616   6.791   0.959
 2705SOL     OW 9013   0.731   5.251   4.563
 2705SOL    HW1 9014   0.695   5.326   4.619
 2705SOL    HW2 9015   0.831   5.254   4.563
 2706SOL     OW 9016   0.744   0.131   1.472
 2706SOL    HW1 9017   0.659   0.153   1.520
 2706SOL    HW2 9018   0.786   0.215   1.437
 2707SOL     OW 9019   3.099   0.482   4.760
 2707SOL    HW1 9020   3.120   0.565   4.708
 2707SOL    HW2 9021   3.064   0.507   4.850
 2708SOL     OW 9022   0.753   2.547   6.908
 2708SOL    HW1 9023   0.666   2.498   6.908
 2708SOL    HW2 9024   0.737   2.645   6.897
 2709SOL     OW 9025   6.082   6.533   0.329
 2709SOL    HW1 9026   6.128   6.609   0.375
 2709SOL    HW2 9027   5.983   6.543   0.338
 2710SOL     OW 9028   1.184   2.968   3.832
 2710SOL    HW1 9029   1.242   2.888   3.847
 2710SOL    HW2 9030   1.088   2.943   3.848
 2711SOL     OW 9031   2.629   1.544   4.249
 2711SOL    HW1 9032   2.587   1.508   4.165
 2711SOL    HW2 9033   2.725   1.516   4.251
 2712SOL     OW 9034   2.897   4.426   0.672
 2712SOL    HW1 9035   2.891   4.356   0.744
 2712SOL    HW2 9036   2.950   4.390   0.596
 2713SOL     OW 9037   2.254   2.346   4.973
 2713SOL    HW1 9038   2.278   2.410   5.046
 2713SOL    HW2 9039   2.296   2.375   4.887
 2714SOL     OW 9040   4.647   2.418   0.349
 2714SOL    HW1 9041   4.658   2.514   0.377
 2714SOL    HW2 9042   4.589   2.371   0.416
 2715SOL     OW 9043   4.984   1.551   0.493
 2715SOL    HW1 9044   4.928   1.468   0.494
 2715SOL    HW2 9045   4.925   1.632   0.492
 2716SOL     OW 9046   5.071   4.650   2.650
 2716SOL    HW1 9047   5.101   4.648   2.555
 2716SOL    HW2 9048   5.009   4.727   2.664
 2717SOL     OW 9049   1.823   4.874   2.339
 2717SOL    HW1 9050   1.780   4.784   2.331
 2717SOL    HW2 9051   1.782   4.923   2.415
 2718SOL     OW 9052   1.888   2.649   5.620
 2718SOL    HW1 9053   1.983   2.673   5.635
 2718SOL    HW2 9054   1.829   2.718   5.663
 2719SOL     OW 9055   6.862   5.796   1.177
 2719SOL    HW1 9056   6.787   5.855   1.209
 2719SOL    HW2 9057   6.843   5.765   1.084
 2720SOL     OW 9058   1.795   6.031   2.630
 2720SOL    HW1 9059   1.761   6.123   2.610
 2720SOL    HW2 9060   1.892   6.026   2.607
 2721SOL     OW 9061   3.191   0.317   3.988
 2721SOL    HW1 9062   3.169   0.330   4.085
 2721SOL    HW2 9063   3.286   0.341   3.972
 2722SOL     OW 9064   6.503   5.698   1.629
 2722SOL    HW1 9065   6.527   5.637   1.553
 2722SOL    HW2 9066   6.446   5.649   1.694
 2723SOL     OW 9067   0.793   0.079   5.751
 2723SOL    HW1 9068   0.855   0.038   5.685
 2723SOL    HW2 9069   0.827   0.062   5.844
 2724SOL     OW 9070   2.498   6.948   6.576
 2724SOL    HW1 9071   2.572   6.976   6.636
 2724SOL    HW2 9072   2.451   6.868   6.614
 2725SOL     OW 9073   5.770   4.587   4.159
 2725SOL    HW1 9074   5.849   4.527   4.169
 2725SOL    HW2 9075   5.732   4.607   4.250
 2726SOL     OW 9076   6.990   3.064   0.781
 2726SOL    HW1 9077   6.936   3.067   0.696
 2726SOL    HW2 9078   6.931   3.087   0.859
 2727SOL     OW 9079   0.455   5.238   3.968
 2727SOL    HW1 9080   0.482   5.143   3.979
 2727SOL    HW2 9081   0.535   5.293   3.944
 2728SOL     OW 9082   3.944   6.543   5.578
 2728SOL    HW1 9083   3.889   6.623   5.600
 2728SOL    HW2 9084   3.966   6.543   5.480
 2729SOL     OW 9085   6.840   5.600   1.366
 2729SOL    HW1 9086   6.753   5.607   1.414
 2729SOL    HW2 9087   6.850   5.678   1.303
 2730SOL     OW 9088   2.355   5.368   1.149
 2730SOL    HW1 9089   2.356   5.295   1.217
 2730SOL    HW2 9090   2.444   5.413   1.146
 2731SOL     OW 9091   4.037   3.567   2.138
 2731SOL    HW1 9092   3.992   3.656   2.131
 2731SOL    HW2 9093   4.016   3.512   2.057
 2732SOL     OW 9094   5.278   2.638   1.569
 2732SOL    HW1 9095   5.250   2.574   1.497
 2732SOL    HW2 9096   5.336   2.591   1.635
 2733SOL     OW 9097   0.621   0.327   4.592
 2733SOL    HW1 9098   0.628   0.290   4.685
 2733SOL    HW2 9099   0.689   0.283   4.534
 2734SOL     OW 9100   2.082   5.767   1.650
 2734SOL    HW1 9101   2.180   5.770   1.668
 2734SOL    HW2 9102   2.059   5.831   1.577
 2735SOL     OW 9103   0.990   3.631   2.958
 2735SOL    HW1 9104   0.998   3.730   2.968
 2735SOL    HW2 9105   0.906   3.608   2.909
 2736SOL     OW 9106   4.098   6.600   4.943
 2736SOL    HW1 9107   4.029   6.639   5.004
 2736SOL    HW2 9108   4.139   6.673   4.888
 2737SOL     OW 9109   3.688   3.360   5.707
 2737SOL    HW1 9110   3.659   3.434   5.768
 2737SOL    HW2 9111   3.686   3.393   5.612
 2738SOL     OW 9112   5.625   5.086   3.759
 2738SOL    HW1 9113   5.586   4.994   3.768
 2738SOL    HW2 9114   5.581   5.134   3.684
 2739SOL     OW 9115   0.156   4.609   1.080
 2739SOL    HW1 9116   0.167   4.537   1.149
 2739SOL    HW2 9117   0.175   4.698   1.121
 2740SOL     OW 9118   6.261   3.610   2.647
 2740SOL    HW1 9119   6.172   3.652   2.659
 2740SOL    HW2 9120   6.274   3.537   2.714
 2741SOL     OW 9121   6.013   0.390   5.641
 2741SOL    HW1 9122   5.920   0.422   5.623
 2741SOL    HW2 9123   6.040   0.324   5.571
 2742SOL     OW 9124   2.267   5.250   6.720
 2742SOL    HW1 9125   2.313   5.337   6.738
 2742SOL    HW2 9126   2.200   5.262   6.646
 2743SOL     OW 9127   0.048   5.293   2.226
 2743SOL    HW1 9128   0.006   5.382   2.242
 2743SOL    HW2 9129   0.019   5.229   2.296
 2744SOL     OW 9130   5.305   1.586   6.930
 2744SOL    HW1 9131   5.304   1.527   7.011
 2744SOL    HW2 9132   5.221   1.640   6.927
 2745SOL     OW 9133   0.619   6.797   6.078
 2745SOL    HW1 9134   0.576   6.869   6.133
 2745SOL    HW2 9135   0.562   6.780   5.997
 2746SOL     OW 9136   2.158   2.274   4.172
 2746SOL    HW1 9137   2.109   2.282   4.259
 2746SOL    HW2 9138   2.130   2.347   4.111
 2747SOL     OW 9139   5.900   4.016   5.528
 2747SOL    HW1 9140   5.885   4.083   5.455
 2747SOL    HW2 9141   5.951   3.938   5.491
 2748SOL     OW 9142   4.926   1.992   1.334
 2748SOL    HW1 9143   4.893   1.904   1.367
 2748SOL    HW2 9144   5.022   1.983   1.307
 2749SOL     OW 9145   6.442   4.509   3.382
 2749SOL    HW1 9146   6.418   4.423   3.336
 2749SOL    HW2 9147   6.359   4.560   3.404
 2750SOL     OW 9148   0.696   4.823   1.168
 2750SOL    HW1 9149   0.719   4.810   1.072
 2750SOL    HW2 9150   0.702   4.735   1.216
 2751SOL     OW 9151   0.261   6.316   1.040
 2751SOL    HW1 9152   0.295   6.307   0.947
 2751SOL    HW2 9153   0.329   6.279   1.104
 2752SOL     OW 9154   4.697   4.746   5.641
 2752SOL    HW1 9155   4.773   4.692   5.677
 2752SOL    HW2 9156   4.621   4.743   5.707
 2753SOL     OW 9157   0.693   0.272   5.580
 2753SOL    HW1 9158   0.701   0.199   5.647
 2753SOL    HW2 9159   0.714   0.237   5.489
 2754SOL     OW 9160   0.210   0.334   3.695
 2754SOL    HW1 9161   0.154   0.392   3.637
 2754SOL    HW2 9162   0.183   0.347   3.791
 2755SOL     OW 9163   2.153   0.203   3.893
 2755SOL    HW1 9164   2.236   0.256   3.873
 2755SOL    HW2 9165   2.129   0.213   3.989
 2756SOL     OW 9166   5.766   4.417   5.861
 2756SOL    HW1 9167   5.762   4.496   5.801
 2756SOL    HW2 9168   5.704   4.346   5.828
 2757SOL     OW 9169   2.300   1.335   6.154
 2757SOL    HW1 9170   2.267   1.424   6.122
 2757SOL    HW2 9171   2.228   1.290   6.207
 2758SOL     OW 9172   4.685   6.173   2.869
 2758SOL    HW1 9173   4.769   6.226   2.880
 2758SOL    HW2 9174   4.695   6.110   2.792
 2759SOL     OW 9175   4.827   5.073   5.343
 2759SOL    HW1 9176   4.789   4.981   5.351
 2759SOL    HW2 9177   4.888   5.079   5.264
 2760SOL     OW 9178   0.723   5.746   2.647
 2760SOL    HW1 9179   0.673   5.677   2.594
 2760SOL    HW2 9180   0.692   5.837   2.620
 2761SOL     OW 9181   1.983   4.642   4.942
 2761SOL    HW1 9182   2.032   4.585   5.007
 2761SOL    HW2 9183   1.890   4.606   4.929
 2762SOL     OW 9184   2.053   1.360   6.292
 2762SOL    HW1 9185   2.078   1.442   6.344
 2762SOL    HW2 9186   1.982   1.382   6.226
 2763SOL     OW 9187   4.775   2.351   4.940
 2763SOL    HW1 9188   4.803   2.445   4.961
 2763SOL    HW2 9189   4.785   2.295   5.022
 2764SOL     OW 9190   0.260   0.662   2.026
 2764SOL    HW1 9191   0.251   0.583   1.966
 2764SOL    HW2 9192   0.170   0.688   2.061
 2765SOL     OW 9193   6.294   6.893   1.042
 2765SOL    HW1 9194   6.273   6.943   0.959
 2765SOL    HW2 9195   6.210   6.874   1.093
 2766SOL     OW 9196   4.511   2.909   0.205
 2766SOL    HW1 9197   4.562   2.898   0.290
 2766SOL    HW2 9198   4.535   2.836   0.141
 2767SOL     OW 9199   0.050   5.466   0.190
 2767SOL    HW1 9200   0.021   5.411   0.111
 2767SOL    HW2 9201   0.030   5.417   0.274
 2768SOL     OW 9202   4.510   0.823   1.377
 2768SOL    HW1 9203   4.417   0.791   1.360
 2768SOL    HW2 9204   4.537   0.886   1.304
 2769SOL     OW 9205   2.415   4.093   6.525
 2769SOL    HW1 9206   2.448   4.176   6.479
 2769SOL    HW2 9207   2.327   4.066   6.486
 2770SOL     OW 9208   4.422   5.598   5.681
 2770SOL    HW1 9209   4.422   5.694   5.708
 2770SOL    HW2 9210   4.385   5.542   5.755
 2771SOL     OW 9211   5.841   1.294   4.971
 2771SOL    HW1 9212   5.752   1.325   4.936
 2771SOL    HW2 9213   5.908   1.296   4.896
 2772SOL     OW 9214   3.181   1.229   0.841
 2772SOL    HW1 9215   3.158   1.141   0.799
 2772SOL    HW2 9216   3.267   1.263   0.803
 2773SOL     OW 9217   6.447   2.527   4.198
 2773SOL    HW1 9218   6.409   2.479   4.277
 2773SOL    HW2 9219   6.373   2.548   4.134
 2774SOL     OW 9220   5.644   2.797   3.204
 2774SOL    HW1 9221   5.562   2.846   3.177
 2774SOL    HW2 9222   5.724   2.837   3.159
 2775SOL     OW 9223   6.747   3.635   5.523
 2775SOL    HW1 9224   6.772   3.730   5.507
 2775SOL    HW2 9225   6.813   3.574   5.479
 2776SOL     OW 9226   5.056   3.894   5.789
 2776SOL    HW1 9227   5.125   3.909   5.860
 2776SOL    HW2 9228   4.972   3.858   5.830
 2777SOL     OW 9229   2.740   2.140   1.640
 2777SOL    HW1 9230   2.715   2.144   1.543
 2777SOL    HW2 9231   2.689   2.066   1.684
 2778SOL     OW 9232   1.045   6.562   6.137
 2778SOL    HW1 9233   1.054   6.507   6.055
 2778SOL    HW2 9234   0.971   6.527   6.194
 2779SOL     OW 9235   5.447   6.769   2.071
 2779SOL    HW1 9236   5.521   6.813   2.122
 2779SOL    HW2 9237   5.364   6.823   2.079
 2780SOL     OW 9238   0.526   6.724   5.715
 2780SOL    HW1 9239   0.427   6.720   5.699
 2780SOL    HW2 9240   0.569   6.779   5.643
 2781SOL     OW 9241   6.075   0.642   2.439
 2781SOL    HW1 9242   6.085   0.545   2.462
 2781SOL    HW2 9243   6.084   0.696   2.522
 2782SOL     OW 9244   4.670   1.092   5.325
 2782SOL    HW1 9245   4.650   1.143   5.409
 2782SOL    HW2 9246   4.585   1.074   5.276
 2783SOL     OW 9247   6.222   4.218   2.579
 2783SOL    HW1 9248   6.159   4.258   2.645
 2783SOL    HW2 9249   6.206   4.120   2.572
 2784SOL     OW 9250   3.478   1.456   2.230
 2784SOL    HW1 9251   3.554   1.504   2.276
 2784SOL    HW2 9252   3.501   1.443   2.134
 2785SOL     OW 9253   5.363   2.283   0.645
 2785SOL    HW1 9254   5.364   2.381   0.625
 2785SOL    HW2 9255   5.269   2.249   0.639
 2786SOL     OW 9256   5.922   0.022   2.191
 2786SOL    HW1 9257   5.995   6.976   2.200
 2786SOL    HW2 9258   5.955   0.111   2.224
 2787SOL     OW 9259   5.726   6.581   6.097
 2787SOL    HW1 9260   5.780   6.665   6.108
 2787SOL    HW2 9261   5.629   6.602   6.108
 2788SOL     OW 9262   2.847   6.695   5.580
 2788SOL    HW1 9263   2.794   6.778   5.562
 2788SOL    HW2 9264   2.870   6.692   5.678
 2789SOL     OW 9265   2.273   2.005   3.848
 2789SOL    HW1 9266   2.248   1.986   3.753
 2789SOL    HW2 9267   2.344   2.076   3.850
 2790SOL     OW 9268   3.665   5.294   1.473
 2790SOL    HW1 9269   3.707   5.381   1.498
 2790SOL    HW2 9270   3.588   5.310   1.411
 2791SOL     OW 9271   0.480   3.257   2.516
 2791SOL    HW1 9272   0.510   3.164   2.493
 2791SOL    HW2 9273   0.559   3.313   2.538
 2792SOL     OW 9274   2.405   0.588   3.876
 2792SOL    HW1 9275   2.490   0.535   3.887
 2792SOL    HW2 9276   2.352   0.584   3.961
 2793SOL     OW 9277   4.900   3.660   1.272
 2793SOL    HW1 9278   4.927   3.756   1.258
 2793SOL    HW2 9279   4.909   3.636   1.369
 2794SOL     OW 9280   6.505   1.745   6.276
 2794SOL    HW1 9281   6.594   1.729   6.233
 2794SOL    HW2 9282   6.463   1.658   6.300
 2795SOL     OW 9283   1.301   3.323   1.101
 2795SOL    HW1 9284   1.324   3.226   1.105
 2795SOL    HW2 9285   1.381   3.378   1.126
 2796SOL     OW 9286   0.107   6.233   3.415
 2796SOL    HW1 9287   0.024   6.204   3.368
 2796SOL    HW2 9288   0.113   6.332   3.417
 2797SOL     OW 9289   5.288   5.882   5.180
 2797SOL    HW1 9290   5.279   5.899   5.278
 2797SOL    HW2 9291   5.198   5.862   5.141
 2798SOL     OW 9292   6.418   5.535   2.699
 2798SOL    HW1 9293   6.443   5.564   2.606
 2798SOL    HW2 9294   6.327   5.495   2.698
 2799SOL     OW 9295   5.574   5.801   5.706
 2799SOL    HW1 9296   5.597   5.895   5.682
 2799SOL    HW2 9297   5.540   5.798   5.800
 2800SOL     OW 9298   5.074   6.442   5.620
 2800SOL    HW1 9299   5.048   6.376   5.691
 2800SOL    HW2 9300   5.055   6.404   5.530
 2801SOL     OW 9301   0.444   5.255   5.513
 2801SOL    HW1 9302   0.484   5.296   5.431
 2801SOL    HW2 9303   0.359   5.302   5.535
 2802SOL     OW 9304   5.489   6.595   5.501
 2802SOL    HW1 9305   5.397   6.616   5.535
 2802SOL    HW2 9306   5.557   6.621   5.569
 2803SOL     OW 9307   4.044   5.082   5.659
 2803SOL    HW1 9308   4.122   5.074   5.720
 2803SOL    HW2 9309   3.977   5.145   5.700
 2804SOL     OW 9310   0.977   4.109   5.355
 2804SOL    HW1 9311   0.983   4.150   5.446
 2804SOL    HW2 9312   0.901   4.043   5.354
 2805SOL     OW 9313   6.051   3.249   2.902
 2805SOL    HW1 9314   5.969   3.259   2.959
 2805SOL    HW2 9315   6.033   3.182   2.829
 2806SOL     OW 9316   1.999   3.837   6.290
 2806SOL    HW1 9317   1.940   3.777   6.234
 2806SOL    HW2 9318   2.081   3.787   6.317
 2807SOL     OW 9319   4.474   6.731   3.982
 2807SOL    HW1 9320   4.574   6.735   3.990
 2807SOL    HW2 9321   4.448   6.648   3.932
 2808SOL     OW 9322   6.254   5.098   2.072
 2808SOL    HW1 9323   6.244   5.110   2.171
 2808SOL    HW2 9324   6.343   5.131   2.043
 2809SOL     OW 9325   4.863   2.950   1.262
 2809SOL    HW1 9326   4.842   2.972   1.358
 2809SOL    HW2 9327   4.958   2.918   1.256
 2810SOL     OW 9328   2.357   5.792   2.494
 2810SOL    HW1 9329   2.456   5.806   2.487
 2810SOL    HW2 9330   2.315   5.870   2.540
 2811SOL     OW 9331   1.731   1.733   3.644
 2811SOL    HW1 9332   1.663   1.739   3.571
 2811SOL    HW2 9333   1.732   1.818   3.696
 2812SOL     OW 9334   6.013   3.332   0.308
 2812SOL    HW1 9335   6.102   3.375   0.327
 2812SOL    HW2 9336   5.945   3.404   0.291
 2813SOL     OW 9337   0.645   1.432   0.242
 2813SOL    HW1 9338   0.628   1.342   0.283
 2813SOL    HW2 9339   0.733   1.430   0.194
 2814SOL     OW 9340   3.381   4.098   5.322
 2814SOL    HW1 9341   3.426   4.040   5.255
 2814SOL    HW2 9342   3.438   4.105   5.404
 2815SOL     OW 9343   6.802   4.890   6.445
 2815SOL    HW1 9344   6.875   4.865   6.382
 2815SOL    HW2 9345   6.719   4.840   6.421
 2816SOL     OW 9346   6.616   6.045   4.537
 2816SOL    HW1 9347   6.694   6.007   4.487
 2816SOL    HW2 9348   6.537   5.985   4.525
 2817SOL     OW 9349   3.177   0.303   2.223
 2817SOL    HW1 9350   3.178   0.319   2.322
 2817SOL    HW2 9351   3.147   0.386   2.177
 2818SOL     OW 9352   0.023   0.991   2.204
 2818SOL    HW1 9353   6.962   1.035   2.239
 2818SOL    HW2 9354   0.102   1.025   2.254
 2819SOL     OW 9355   2.120   6.985   1.924
 2819SOL    HW1 9356   2.038   6.930   1.906
 2819SOL    HW2 9357   2.106   0.017   2.006
 2820SOL     OW 9358   2.050   1.829   3.297
 2820SOL    HW1 9359   2.077   1.924   3.281
 2820SOL    HW2 9360   2.029   1.817   3.394
 2821SOL     OW 9361   3.442   4.706   5.745
 2821SOL    HW1 9362   3.496   4.777   5.700
 2821SOL    HW2 9363   3.502   4.628   5.766
 2822SOL     OW 9364   4.519   2.231   0.524
 2822SOL    HW1 9365   4.458   2.276   0.590
 2822SOL    HW2 9366   4.600   2.197   0.571
 2823SOL     OW 9367   5.322   1.141   0.302
 2823SOL    HW1 9368   5.291   1.175   0.213
 2823SOL    HW2 9369   5.252   1.158   0.371
 2824SOL     OW 9370   1.752   1.908   5.410
 2824SOL    HW1 9371   1.740   2.004   5.383
 2824SOL    HW2 9372   1.846   1.879   5.392
 2825SOL     OW 9373   5.236   0.356   5.845
 2825SOL    HW1 9374   5.303   0.404   5.789
 2825SOL    HW2 9375   5.205   0.273   5.798
 2826SOL     OW 9376   4.313   2.716   6.940
 2826SOL    HW1 9377   4.339   2.772   6.862
 2826SOL    HW2 9378   4.375   2.638   6.948
 2827SOL     OW 9379   0.316   0.758   6.574
 2827SOL    HW1 9380   0.404   0.804   6.583
 2827SOL    HW2 9381   0.274   0.782   6.487
 2828SOL     OW 9382   1.893   2.475   0.542
 2828SOL    HW1 9383   1.869   2.406   0.611
 2828SOL    HW2 9384   1.823   2.545   0.540
 2829SOL     OW 9385   3.556   3.313   3.562
 2829SOL    HW1 9386   3.476   3.288   3.617
 2829SOL    HW2 9387   3.553   3.263   3.475
 2830SOL     OW 9388   3.038   4.074   5.061
 2830SOL    HW1 9389   3.026   4.127   4.977
 2830SOL    HW2 9390   3.124   4.025   5.057
 2831SOL     OW 9391   1.097   3.626   3.211
 2831SOL    HW1 9392   1.084   3.535   3.250
 2831SOL    HW2 9393   1.052   3.631   3.122
 2832SOL     OW 9394   0.983   3.105   1.784
 2832SOL    HW1 9395   1.059   3.110   1.849
 2832SOL    HW2 9396   0.947   3.012   1.781
 2833SOL     OW 9397   3.192   1.332   2.298
 2833SOL    HW1 9398   3.283   1.375   2.297
 2833SOL    HW2 9399   3.130   1.387   2.354
 2834SOL     OW 9400   3.744   6.177   5.591
 2834SOL    HW1 9401   3.670   6.243   5.590
 2834SOL    HW2 9402   3.822   6.215   5.641
 2835SOL     OW 9403   0.641   6.689   1.295
 2835SOL    HW1 9404   0.577   6.726   1.363
 2835SOL    HW2 9405   0.729   6.736   1.304
 2836SOL     OW 9406   1.131   6.707   1.597
 2836SOL    HW1 9407   1.180   6.752   1.522
 2836SOL    HW2 9408   1.148   6.608   1.592
 2837SOL     OW 9409   5.335   4.669   2.468
 2837SOL    HW1 9410   5.315   4.761   2.435
 2837SOL    HW2 9411   5.362   4.673   2.564
 2838SOL     OW 9412   4.360   3.784   0.950
 2838SOL    HW1 9413   4.400   3.721   1.017
 2838SOL    HW2 9414   4.279   3.742   0.909
 2839SOL     OW 9415   0.033   2.466   2.800
 2839SOL    HW1 9416   0.130   2.477   2.777
 2839SOL    HW2 9417   7.000   2.517   2.734
 2840SOL     OW 9418   1.674   5.976   2.092
 2840SOL    HW1 9419   1.722   5.945   2.010
 2840SOL    HW2 9420   1.580   6.000   2.069
 2841SOL     OW 9421   5.897   2.252   6.481
 2841SOL    HW1 9422   5.933   2.325   6.424
 2841SOL    HW2 9423   5.973   2.203   6.524
 2842SOL     OW 9424   0.273   4.913   4.236
 2842SOL    HW1 9425   0.207   4.881   4.304
 2842SOL    HW2 9426   0.358   4.861   4.245
 2843SOL     OW 9427   2.979   1.941   2.660
 2843SOL    HW1 9428   2.957   1.871   2.728
 2843SOL    HW2 9429   2.920   2.021   2.675
 2844SOL     OW 9430   6.510   5.380   0.763
 2844SOL    HW1 9431   6.507   5.355   0.666
 2844SOL    HW2 9432   6.534   5.300   0.817
 2845SOL     OW 9433   5.230   3.075   2.289
 2845SOL    HW1 9434   5.326   3.090   2.313
 2845SOL    HW2 9435   5.202   3.140   2.218
 2846SOL     OW 9436   3.798   0.136   0.508
 2846SOL    HW1 9437   3.897   0.148   0.507
 2846SOL    HW2 9438   3.759   0.173   0.423
 2847SOL     OW 9439   5.120   3.933   3.553
 2847SOL    HW1 9440   5.138   3.874   3.474
 2847SOL    HW2 9441   5.168   3.896   3.633
 2848SOL     OW 9442   2.387   2.807   5.707
 2848SOL    HW1 9443   2.374   2.769   5.799
 2848SOL    HW2 9444   2.463   2.872   5.709
 2849SOL     OW 9445   3.082   0.462   0.996
 2849SOL    HW1 9446   3.155   0.455   1.065
 2849SOL    HW2 9447   3.102   0.400   0.921
 2850SOL     OW 9448   2.119   0.294   2.868
 2850SOL    HW1 9449   2.172   0.267   2.787
 2850SOL    HW2 9450   2.168   0.367   2.916
 2851SOL     OW 9451   5.436   2.452   6.544
 2851SOL    HW1 9452   5.517   2.393   6.548
 2851SOL    HW2 9453   5.459   2.542   6.581
 2852SOL     OW 9454   6.213   4.222   0.083
 2852SOL    HW1 9455   6.123   4.250   0.051
 2852SOL    HW2 9456   6.248   4.149   0.024
 2853SOL     OW 9457   1.685   2.413   6.740
 2853SOL    HW1 9458   1.694   2.510   6.716
 2853SOL    HW2 9459   1.669   2.404   6.838
 2854SOL     OW 9460   4.053   1.021   5.683
 2854SOL    HW1 9461   4.062   1.020   5.584
 2854SOL    HW2 9462   4.001   0.941   5.713
 2855SOL     OW 9463   1.243   2.056   5.391
 2855SOL    HW1 9464   1.317   2.047   5.324
 2855SOL    HW2 9465   1.161   2.091   5.344
 2856SOL     OW 9466   0.727   3.410   4.270
 2856SOL    HW1 9467   0.810   3.369   4.233
 2856SOL    HW2 9468   0.654   3.405   4.202
 2857SOL     OW 9469   0.647   2.614   1.748
 2857SOL    HW1 9470   0.574   2.621   1.680
 2857SOL    HW2 9471   0.609   2.589   1.836
 2858SOL     OW 9472   4.096   5.141   2.711
 2858SOL    HW1 9473   4.186   5.171   2.682
 2858SOL    HW2 9474   4.103   5.051   2.754
 2859SOL     OW 9475   6.430   0.094   6.808
 2859SOL    HW1 9476   6.520   0.057   6.831
 2859SOL    HW2 9477   6.407   0.167   6.872
 2860SOL     OW 9478   2.355   0.701   2.490
 2860SOL    HW1 9479   2.357   0.709   2.590
 2860SOL    HW2 9480   2.448   0.715   2.454
 2861SOL     OW 9481   3.065   5.484   5.316
 2861SOL    HW1 9482   2.980   5.482   5.263
 2861SOL    HW2 9483   3.049   5.445   5.406
 2862SOL     OW 9484   4.234   2.375   1.606
 2862SOL    HW1 9485   4.145   2.363   1.562
 2862SOL    HW2 9486   4.275   2.286   1.622
 2863SOL     OW 9487   4.857   1.379   6.408
 2863SOL    HW1 9488   4.887   1.473   6.418
 2863SOL    HW2 9489   4.759   1.377   6.387
 2864SOL     OW 9490   4.649   2.490   0.797
 2864SOL    HW1 9491   4.728   2.532   0.751
 2864SOL    HW2 9492   4.681   2.421   0.861
 2865SOL     OW 9493   4.200   6.198   4.172
 2865SOL    HW1 9494   4.147   6.165   4.250
 2865SOL    HW2 9495   4.297   6.198   4.195
 2866SOL     OW 9496   5.549   4.594   0.010
 2866SOL    HW1 9497   5.561   4.550   6.943
 2866SOL    HW2 9498   5.572   4.529   0.082
 2867SOL     OW 9499   5.905   6.114   3.030
 2867SOL    HW1 9500   5.874   6.020   3.043
 2867SOL    HW2 9501   5.996   6.113   2.990
 2868SOL     OW 9502   1.477   1.220   5.581
 2868SOL    HW1 9503   1.571   1.243   5.553
 2868SOL    HW2 9504   1.468   1.235   5.680
 2869SOL     OW 9505   6.602   0.647   3.076
 2869SOL    HW1 9506   6.587   0.722   3.012
 2869SOL    HW2 9507   6.531   0.649   3.147
 2870SOL     OW 9508   0.641   2.057   5.608
 2870SOL    HW1 9509   0.567   2.096   5.663
 2870SOL    HW2 9510   0.703   2.006   5.667
 2871SOL     OW 9511   5.600   0.611   1.048
 2871SOL    HW1 9512   5.660   0.681   1.086
 2871SOL    HW2 9513   5.512   0.613   1.096
 2872SOL     OW 9514   2.367   2.041   1.100
 2872SOL    HW1 9515   2.411   1.958   1.065
 2872SOL    HW2 9516   2.424   2.081   1.173
 2873SOL     OW 9517   6.719   6.587   2.323
 2873SOL    HW1 9518   6.782   6.662   2.303
 2873SOL    HW2 9519   6.764   6.500   2.302
 2874SOL     OW 9520   4.180   6.488   2.768
 2874SOL    HW1 9521   4.145   6.402   2.730
 2874SOL    HW2 9522   4.243   6.468   2.843
 2875SOL     OW 9523   4.760   0.002   1.569
 2875SOL    HW1 9524   4.834   0.069   1.570
 2875SOL    HW2 9525   4.797   6.934   1.551
 2876SOL     OW 9526   1.976   0.596   2.870
 2876SOL    HW1 9527   1.903   0.530   2.854
 2876SOL    HW2 9528   2.064   0.548   2.875
 2877SOL     OW 9529   2.598   1.038   6.202
 2877SOL    HW1 9530   2.610   0.949   6.157
 2877SOL    HW2 9531   2.657   1.043   6.282
 2878SOL     OW 9532   2.872   3.969   5.231
 2878SOL    HW1 9533   2.929   4.021   5.167
 2878SOL    HW2 9534   2.868   3.874   5.201
 2879SOL     OW 9535   5.505   5.432   5.650
 2879SOL    HW1 9536   5.411   5.458   5.670
 2879SOL    HW2 9537   5.560   5.436   5.734
 2880SOL     OW 9538   0.683   1.489   2.883
 2880SOL    HW1 9539   0.693   1.479   2.982
 2880SOL    HW2 9540   0.738   1.567   2.852
 2881SOL     OW 9541   4.089   5.832   0.365
 2881SOL    HW1 9542   4.031   5.824   0.284
 2881SOL    HW2 9543   4.177   5.788   0.346
 2882SOL     OW 9544   0.206   5.839   1.382
 2882SOL    HW1 9545   0.176   5.811   1.291
 2882SOL    HW2 9546   0.193   5.938   1.392
 2883SOL     OW 9547   5.669   6.969   3.823
 2883SOL    HW1 9548   5.625   0.007   3.890
 2883SOL    HW2 9549   5.764   6.954   3.850
 2884SOL     OW 9550   0.893   6.710   2.619
 2884SOL    HW1 9551   0.871   6.613   2.608
 2884SOL    HW2 9552   0.915   6.750   2.531
 2885SOL     OW 9553   1.689   2.840   4.291
 2885SOL    HW1 9554   1.785   2.843   4.319
 2885SOL    HW2 9555   1.631   2.859   4.370
 2886SOL     OW 9556   1.928   3.463   6.413
 2886SOL    HW1 9557   1.906   3.400   6.488
 2886SOL    HW2 9558   1.960   3.550   6.451
 2887SOL     OW 9559   0.969   0.056   5.154
 2887SOL    HW1 9560   1.041   7.019   5.117
 2887SOL    HW2 9561   0.910   0.088   5.080
 2888SOL     OW 9562   0.336   4.236   6.947
 2888SOL    HW1 9563   0.237   4.225   6.960
 2888SOL    HW2 9564   0.353   4.302   6.874
 2889SOL     OW 9565   2.768   6.087   2.598
 2889SOL    HW1 9566   2.844   6.148   2.576
 2889SOL    HW2 9567   2.682   6.133   2.578
 2890SOL     OW 9568   1.553   6.391   0.690
 2890SOL    HW1 9569   1.595   6.376   0.779
 2890SOL    HW2 9570   1.624   6.414   0.623
 2891SOL     OW 9571   0.682   3.970   3.390
 2891SOL    HW1 9572   0.751   3.899   3.378
 2891SOL    HW2 9573   0.726   4.055   3.418
 2892SOL     OW 9574   6.155   2.861   1.144
 2892SOL    HW1 9575   6.204   2.924   1.204
 2892SOL    HW2 9576   6.214   2.835   1.067
 2893SOL     OW 9577   0.992   5.266   4.450
 2893SOL    HW1 9578   1.074   5.275   4.393
 2893SOL    HW2 9579   1.018   5.238   4.542
 2894SOL     OW 9580   1.150   2.959   1.994
 2894SOL    HW1 9581   1.097   2.928   2.073
 2894SOL    HW2 9582   1.169   3.057   2.002
 2895SOL     OW 9583   5.410   1.264   5.459
 2895SOL    HW1 9584   5.328   1.209   5.473
 2895SOL    HW2 9585   5.459   1.231   5.379
 2896SOL     OW 9586   4.052   0.023   5.505
 2896SOL    HW1 9587   4.132   6.988   5.520
 2896SOL    HW2 9588   3.984   6.994   5.452
 2897SOL     OW 9589   3.836   5.130   2.484
 2897SOL    HW1 9590   3.930   5.125   2.450
 2897SOL    HW2 9591   3.789   5.044   2.465
 2898SOL     OW 9592   4.099   4.816   4.477
 2898SOL    HW1 9593   4.107   4.775   4.387
 2898SOL    HW2 9594   4.181   4.798   4.531
 2899SOL     OW 9595   0.307   1.727   0.908
 2899SOL    HW1 9596   0.299   1.627   0.898
 2899SOL    HW2 9597   0.269   1.755   0.996
 2900SOL     OW 9598   3.750   4.521   6.806
 2900SOL    HW1 9599   3.671   4.463   6.786
 2900SOL    HW2 9600   3.720   4.599   6.861
 2901SOL     OW 9601   2.728   4.729   3.151
 2901SOL    HW1 9602   2.790   4.760   3.223
 2901SOL    HW2 9603   2.757   4.768   3.063
 2902SOL     OW 9604   6.734   4.810   3.015
 2902SOL    HW1 9605   6.726   4.729   3.073
 2902SOL    HW2 9606   6.651   4.866   3.025
 2903SOL     OW 9607   4.046   6.730   0.590
 2903SOL    HW1 9608   3.967   6.670   0.597
 2903SOL    HW2 9609   4.114   6.689   0.529
 2904SOL     OW 9610   3.069   5.235   4.618
 2904SOL    HW1 9611   3.100   5.142   4.598
 2904SOL    HW2 9612   2.972   5.243   4.594
 2905SOL     OW 9613   1.394   3.981   4.112
 2905SOL    HW1 9614   1.485   4.018   4.128
 2905SOL    HW2 9615   1.395   3.924   4.030
 2906SOL     OW 9616   4.651   5.466   2.881
 2906SOL    HW1 9617   4.636   5.557   2.843
 2906SOL    HW2 9618   4.748   5.455   2.903
 2907SOL     OW 9619   0.793   1.624   3.436
 2907SOL    HW1 9620   0.797   1.526   3.453
 2907SOL    HW2 9621   0.752   1.670   3.515
 2908SOL     OW 9622   5.164   7.005   3.379
 2908SOL    HW1 9623   5.187   6.909   3.395
 2908SOL    HW2 9624   5.154   0.029   3.467
 2909SOL     OW 9625   1.960   6.087   4.017
 2909SOL    HW1 9626   1.869   6.046   4.011
 2909SOL    HW2 9627   1.954   6.185   4.003
 2910SOL     OW 9628   5.596   0.287   4.217
 2910SOL    HW1 9629   5.692   0.309   4.198
 2910SOL    HW2 9630   5.590   0.228   4.297
 2911SOL     OW 9631   2.076   5.832   3.863
 2911SOL    HW1 9632   2.100   5.744   3.904
 2911SOL    HW2 9633   1.977   5.846   3.869
 2912SOL     OW 9634   6.028   6.866   0.697
 2912SOL    HW1 9635   6.060   6.920   0.775
 2912SOL    HW2 9636   6.041   6.919   0.613
 2913SOL     OW 9637   3.915   4.873   2.027
 2913SOL    HW1 9638   3.915   4.961   1.978
 2913SOL    HW2 9639   3.823   4.834   2.023
 2914SOL     OW 9640   6.148   5.938   6.599
 2914SOL    HW1 9641   6.198   5.853   6.586
 2914SOL    HW2 9642   6.211   6.016   6.594
 2915SOL     OW 9643   3.397   2.154   3.533
 2915SOL    HW1 9644   3.303   2.178   3.560
 2915SOL    HW2 9645   3.424   2.069   3.577
 2916SOL     OW 9646   1.173   5.836   0.483
 2916SOL    HW1 9647   1.231   5.770   0.434
 2916SOL    HW2 9648   1.147   5.797   0.572
 2917SOL     OW 9649   2.618   6.965   3.774
 2917SOL    HW1 9650   2.584   0.008   3.842
 2917SOL    HW2 9651   2.587   6.993   3.683
 2918SOL     OW 9652   6.151   4.215   5.140
 2918SOL    HW1 9653   6.095   4.260   5.210
 2918SOL    HW2 9654   6.096   4.197   5.059
 2919SOL     OW 9655   6.038   0.542   2.166
 2919SOL    HW1 9656   5.969   0.470   2.174
 2919SOL    HW2 9657   6.050   0.587   2.255
 2920SOL     OW 9658   2.536   1.265   1.127
 2920SOL    HW1 9659   2.592   1.237   1.048
 2920SOL    HW2 9660   2.442   1.279   1.098
 2921SOL     OW 9661   0.812   0.182   4.950
 2921SOL    HW1 9662   0.716   0.210   4.944
 2921SOL    HW2 9663   0.856   0.193   4.860
 2922SOL     OW 9664   4.769   6.598   1.647
 2922SOL    HW1 9665   4.829   6.634   1.576
 2922SOL    HW2 9666   4.773   6.498   1.647
 2923SOL     OW 9667   6.368   5.851   3.526
 2923SOL    HW1 9668   6.330   5.896   3.445
 2923SOL    HW2 9669   6.300   5.852   3.600
 2924SOL     OW 9670   6.555   2.542   5.584
 2924SOL    HW1 9671   6.610   2.557   5.666
 2924SOL    HW2 9672   6.583   2.457   5.540
 2925SOL     OW 9673   6.095   2.283   0.373
 2925SOL    HW1 9674   6.038   2.201   0.358
 2925SOL    HW2 9675   6.036   2.360   0.396
 2926SOL     OW 9676   5.755   2.198   6.786
 2926SOL    HW1 9677   5.840   2.242   6.814
 2926SOL    HW2 9678   5.748   2.200   6.686
 2927SOL     OW 9679   1.784   3.548   1.091
 2927SOL    HW1 9680   1.719   3.607   1.043
 2927SOL    HW2 9681   1.876   3.565   1.056
 2928SOL     OW 9682   6.623   0.855   6.748
 2928SOL    HW1 9683   6.590   0.763   6.770
 2928SOL    HW2 9684   6.569   0.923   6.797
 2929SOL     OW 9685   1.352   2.672   6.141
 2929SOL    HW1 9686   1.330   2.717   6.055
 2929SOL    HW2 9687   1.425   2.605   6.126
 2930SOL     OW 9688   5.417   0.001   5.373
 2930SOL    HW1 9689   5.343   7.011   5.439
 2930SOL    HW2 9690   5.457   0.092   5.384
 2931SOL     OW 9691   5.142   5.069   0.085
 2931SOL    HW1 9692   5.089   5.115   0.156
 2931SOL    HW2 9693   5.097   4.983   0.061
 2932SOL     OW 9694   0.910   5.765   1.933
 2932SOL    HW1 9695   0.926   5.777   2.031
 2932SOL    HW2 9696   0.887   5.669   1.916
 2933SOL     OW 9697   1.890   6.444   2.326
 2933SOL    HW1 9698   1.902   6.487   2.236
 2933SOL    HW2 9699   1.834   6.363   2.317
 2934SOL     OW 9700   5.332   2.294   6.875
 2934SOL    HW1 9701   5.400   2.221   6.883
 2934SOL    HW2 9702   5.286   2.307   6.963
 2935SOL     OW 9703   6.765   3.147   6.311
 2935SOL    HW1 9704   6.703   3.069   6.313
 2935SOL    HW2 9705   6.726   3.223   6.363
 2936SOL     OW 9706   4.668   6.178   0.246
 2936SOL    HW1 9707   4.694   6.211   0.155
 2936SOL    HW2 9708   4.730   6.216   0.315
 2937SOL     OW 9709   5.442   4.920   1.480
 2937SOL    HW1 9710   5.448   5.012   1.442
 2937SOL    HW2 9711   5.426   4.854   1.406
 2938SOL     OW 9712   5.360   4.701   0.178
 2938SOL    HW1 9713   5.432   4.677   0.112
 2938SOL    HW2 9714   5.281   4.641   0.163
 2939SOL     OW 9715   2.448   0.608   1.838
 2939SOL    HW1 9716   2.434   0.658   1.923
 2939SOL    HW2 9717   2.453   0.672   1.762
 2940SOL     OW 9718   5.564   4.946   5.372
 2940SOL    HW1 9719   5.597   4.878   5.437
 2940SOL    HW2 9720   5.537   4.900   5.287
 2941SOL     OW 9721   1.758   2.095   4.254
 2941SOL    HW1 9722   1.836   2.080   4.193
 2941SOL    HW2 9723   1.680   2.128   4.200
 2942SOL     OW 9724   3.893   1.752   0.846
 2942SOL    HW1 9725   3.851   1.774   0.934
 2942SOL    HW2 9726   3.895   1.834   0.788
 2943SOL     OW 9727   5.829   3.823   3.973
 2943SOL    HW1 9728   5.925   3.851   3.971
 2943SOL    HW2 9729   5.819   3.734   3.929
 2944SOL     OW 9730   2.857   5.763   4.042
 2944SOL    HW1 9731   2.838   5.708   3.960
 2944SOL    HW2 9732   2.778   5.760   4.103
 2945SOL     OW 9733   4.076   3.252   1.518
 2945SOL    HW1 9734   4.064   3.208   1.607
 2945SOL    HW2 9735   4.104   3.347   1.531
 2946SOL     OW 9736   1.802   5.027   6.325
 2946SOL    HW1 9737   1.825   5.094   6.255
 2946SOL    HW2 9738   1.870   4.953   6.324
 2947SOL     OW 9739   0.664   5.812   1.559
 2947SOL    HW1 9740   0.683   5.822   1.461
 2947SOL    HW2 9741   0.724   5.742   1.598
 2948SOL     OW 9742   0.071   4.476   4.397
 2948SOL    HW1 9743   0.111   4.474   4.489
 2948SOL    HW2 9744   0.140   4.445   4.331
 2949SOL     OW 9745   1.101   5.514   1.408
 2949SOL    HW1 9746   1.123   5.416   1.405
 2949SOL    HW2 9747   1.053   5.539   1.324
 2950SOL     OW 9748   5.606   5.926   4.373
 2950SOL    HW1 9749   5.587   5.840   4.326
 2950SOL    HW2 9750   5.526   5.955   4.424
 2951SOL     OW 9751   5.556   1.906   2.096
 2951SOL    HW1 9752   5.562   1.934   2.191
 2951SOL    HW2 9753   5.522   1.812   2.091
 2952SOL     OW 9754   0.011   6.061   5.470
 2952SOL    HW1 9755   7.002   6.046   5.376
 2952SOL    HW2 9756   0.100   6.107   5.469
 2953SOL     OW 9757   6.167   3.820   3.009
 2953SOL    HW1 9758   6.196   3.895   2.950
 2953SOL    HW2 9759   6.217   3.737   2.984
 2954SOL     OW 9760   1.520   5.365   1.884
 2954SOL    HW1 9761   1.543   5.461   1.899
 2954SOL    HW2 9762   1.421   5.353   1.887
 2955SOL     OW 9763   0.828   4.526   1.610
 2955SOL    HW1 9764   0.780   4.599   1.562
 2955SOL    HW2 9765   0.853   4.557   1.701
 2956SOL     OW 9766   5.434   6.153   3.023
 2956SOL    HW1 9767   5.389   6.145   2.934
 2956SOL    HW2 9768   5.515   6.211   3.014
 2957SOL     OW 9769   5.402   4.162   1.662
 2957SOL    HW1 9770   5.500   4.164   1.648
 2957SOL    HW2 9771   5.356   4.133   1.578
 2958SOL     OW 9772   2.376   4.559   3.785
 2958SOL    HW1 9773   2.459   4.608   3.812
 2958SOL    HW2 9774   2.356   4.578   3.689
 2959SOL     OW 9775   4.876   3.734   1.614
 2959SOL    HW1 9776   4.863   3.825   1.655
 2959SOL    HW2 9777   4.956   3.691   1.654
 2960SOL     OW 9778   3.075   0.369   0.434
 2960SOL    HW1 9779   2.991   0.315   0.424
 2960SOL    HW2 9780   3.153   0.307   0.446
 2961SOL     OW 9781   5.658   4.431   3.368
 2961SOL    HW1 9782   5.630   4.495   3.440
 2961SOL    HW2 9783   5.647   4.475   3.279
 2962SOL     OW 9784   4.481   6.104   3.475
 2962SOL    HW1 9785   4.571   6.072   3.448
 2962SOL    HW2 9786   4.472   6.201   3.453
 2963SOL     OW 9787   1.328   1.002   0.083
 2963SOL    HW1 9788   1.253   1.062   0.056
 2963SOL    HW2 9789   1.345   0.936   0.010
 2964SOL     OW 9790   6.851   1.464   4.908
 2964SOL    HW1 9791   6.938   1.447   4.862
 2964SOL    HW2 9792   6.837   1.395   4.979
 2965SOL     OW 9793   0.583   0.655   4.607
 2965SOL    HW1 9794   0.647   0.578   4.611
 2965SOL    HW2 9795   0.556   0.672   4.512
 2966SOL     OW 9796   4.574   4.965   3.251
 2966SOL    HW1 9797   4.522   5.047   3.226
 2966SOL    HW2 9798   4.653   4.991   3.306
 2967SOL     OW 9799   5.781   1.029   5.617
 2967SOL    HW1 9800   5.727   1.035   5.702
 2967SOL    HW2 9801   5.733   0.970   5.552
 2968SOL     OW 9802   0.891   2.621   0.621
 2968SOL    HW1 9803   0.800   2.637   0.658
 2968SOL    HW2 9804   0.956   2.608   0.696
 2969SOL     OW 9805   4.866   2.107   4.458
 2969SOL    HW1 9806   4.794   2.039   4.445
 2969SOL    HW2 9807   4.827   2.189   4.500
 2970SOL     OW 9808   2.739   2.979   5.359
 2970SOL    HW1 9809   2.742   2.887   5.321
 2970SOL    HW2 9810   2.661   2.987   5.421
 2971SOL     OW 9811   4.924   4.075   0.796
 2971SOL    HW1 9812   4.934   3.979   0.825
 2971SOL    HW2 9813   4.995   4.097   0.729
 2972SOL     OW 9814   6.533   4.750   6.481
 2972SOL    HW1 9815   6.583   4.691   6.544
 2972SOL    HW2 9816   6.445   4.774   6.521
 2973SOL     OW 9817   5.653   5.903   1.686
 2973SOL    HW1 9818   5.592   5.834   1.649
 2973SOL    HW2 9819   5.745   5.889   1.649
 2974SOL     OW 9820   0.072   4.682   3.806
 2974SOL    HW1 9821   0.069   4.584   3.786
 2974SOL    HW2 9822   0.087   4.732   3.722
 2975SOL     OW 9823   5.021   3.842   4.267
 2975SOL    HW1 9824   4.989   3.749   4.282
 2975SOL    HW2 9825   4.944   3.905   4.275
 2976SOL     OW 9826   4.466   2.493   2.666
 2976SOL    HW1 9827   4.526   2.573   2.667
 2976SOL    HW2 9828   4.414   2.491   2.581
 2977SOL     OW 9829   1.307   0.543   2.593
 2977SOL    HW1 9830   1.379   0.534   2.524
 2977SOL    HW2 9831   1.226   0.583   2.551
 2978SOL     OW 9832   3.782   4.888   6.942
 2978SOL    HW1 9833   3.763   4.852   6.850
 2978SOL    HW2 9834   3.697   4.919   6.984
 2979SOL     OW 9835   3.548   1.194   3.876
 2979SOL    HW1 9836   3.562   1.222   3.971
 2979SOL    HW2 9837   3.521   1.098   3.873
 2980SOL     OW 9838   1.690   5.459   5.420
 2980SOL    HW1 9839   1.745   5.528   5.373
 2980SOL    HW2 9840   1.677   5.380   5.361
 2981SOL     OW 9841   2.801   1.013   6.495
 2981SOL    HW1 9842   2.731   0.944   6.474
 2981SOL    HW2 9843   2.757   1.101   6.511
 2982SOL     OW 9844   3.009   5.518   1.291
 2982SOL    HW1 9845   3.082   5.532   1.358
 2982SOL    HW2 9846   2.936   5.463   1.332
 2983SOL     OW 9847   6.168   2.506   2.444
 2983SOL    HW1 9848   6.195   2.508   2.348
 2983SOL    HW2 9849   6.075   2.469   2.452
 2984SOL     OW 9850   6.078   4.747   0.146
 2984SOL    HW1 9851   6.008   4.682   0.114
 2984SOL    HW2 9852   6.095   4.731   0.243
 2985SOL     OW 9853   2.000   2.616   4.388
 2985SOL    HW1 9854   1.984   2.520   4.364
 2985SOL    HW2 9855   1.935   2.644   4.458
 2986SOL     OW 9856   3.597   4.154   2.866
 2986SOL    HW1 9857   3.686   4.185   2.899
 2986SOL    HW2 9858   3.528   4.167   2.938
 2987SOL     OW 9859   1.332   1.638   4.007
 2987SOL    HW1 9860   1.311   1.664   4.101
 2987SOL    HW2 9861   1.344   1.539   4.001
 2988SOL     OW 9862   1.822   6.894   2.420
 2988SOL    HW1 9863   1.860   6.978   2.458
 2988SOL    HW2 9864   1.811   6.826   2.492
 2989SOL     OW 9865   5.087   4.843   5.839
 2989SOL    HW1 9866   5.117   4.922   5.893
 2989SOL    HW2 9867   5.115   4.856   5.744
 2990SOL     OW 9868   3.661   1.536   4.238
 2990SOL    HW1 9869   3.690   1.500   4.327
 2990SOL    HW2 9870   3.569   1.573   4.246
 2991SOL     OW 9871   6.347   3.707   5.621
 2991SOL    HW1 9872   6.259   3.661   5.633
 2991SOL    HW2 9873   6.419   3.639   5.606
 2992SOL     OW 9874   1.269   5.200   4.738
 2992SOL    HW1 9875   1.265   5.296   4.711
 2992SOL    HW2 9876   1.349   5.157   4.696
 2993SOL     OW 9877   0.477   4.899   1.443
 2993SOL    HW1 9878   0.513   4.991   1.427
 2993SOL    HW2 9879   0.393   4.906   1.497
 2994SOL     OW 9880   4.023   6.452   6.825
 2994SOL    HW1 9881   4.083   6.476   6.901
 2994SOL    HW2 9882   3.987   6.360   6.839
 2995SOL     OW 9883   3.632   1.391   6.592
 2995SOL    HW1 9884   3.691   1.381   6.672
 2995SOL    HW2 9885   3.540   1.359   6.615
 2996SOL     OW 9886   0.327   1.328   4.861
 2996SOL    HW1 9887   0.352   1.358   4.953
 2996SOL    HW2 9888   0.395   1.362   4.795
 2997SOL     OW 9889   4.728   0.457   3.091
 2997SOL    HW1 9890   4.744   0.553   3.113
 2997SOL    HW2 9891   4.636   0.446   3.052
 2998SOL     OW 9892   5.203   6.822   3.765
 2998SOL    HW1 9893   5.207   6.736   3.817
 2998SOL    HW2 9894   5.111   6.860   3.770
 2999SOL     OW 9895   2.285   5.068   5.635
 2999SOL    HW1 9896   2.302   4.969   5.627
 2999SOL    HW2 9897   2.215   5.084   5.705
 3000SOL     OW 9898   3.232   4.184   6.116
 3000SOL    HW1 9899   3.247   4.196   6.215
 3000SOL    HW2 9900   3.207   4.272   6.076
 3001SOL     OW 9901   0.052   1.088   6.883
 3001SOL    HW1 9902   0.065   0.992   6.907
 3001SOL    HW2 9903   6.984   1.101   6.842
 3002SOL     OW 9904   3.235   1.999   0.017
 3002SOL    HW1 9905   3.268   1.917   6.993
 3002SOL    HW2 9906   3.181   1.973   0.097
 3003SOL     OW 9907   0.814   6.646   0.938
 3003SOL    HW1 9908   0.719   6.661   0.968
 3003SOL    HW2 9909   0.865   6.599   1.011
 3004SOL     OW 9910   0.726   4.302   2.702
 3004SOL    HW1 9911   0.751   4.303   2.605
 3004SOL    HW2 9912   0.673   4.384   2.723
 3005SOL     OW 9913   1.400   2.489   0.165
 3005SOL    HW1 9914   1.469   2.430   0.208
 3005SOL    HW2 9915   1.416   2.492   0.066
 3006SOL     OW 9916   5.524   2.191   4.420
 3006SOL    HW1 9917   5.434   2.158   4.448
 3006SOL    HW2 9918   5.586   2.113   4.411
 3007SOL     OW 9919   5.919   3.986   1.007
 3007SOL    HW1 9920   5.905   3.891   1.035
 3007SOL    HW2 9921   5.982   3.989   0.929
 3008SOL     OW 9922   3.278   2.732   6.416
 3008SOL    HW1 9923   3.327   2.734   6.329
 3008SOL    HW2 9924   3.180   2.745   6.399
 3009SOL     OW 9925   6.637   2.445   2.806
 3009SOL    HW1 9926   6.599   2.372   2.862
 3009SOL    HW2 9927   6.710   2.409   2.748
 3010SOL     OW 9928   2.813   5.623   3.233
 3010SOL    HW1 9929   2.736   5.560   3.225
 3010SOL    HW2 9930   2.800   5.699   3.168
 3011SOL     OW 9931   5.614   1.412   3.061
 3011SOL    HW1 9932   5.635   1.449   3.151
 3011SOL    HW2 9933   5.519   1.430   3.038
 3012SOL     OW 9934   2.533   3.476   6.564
 3012SOL    HW1 9935   2.577   3.564   6.543
 3012SOL    HW2 9936   2.435   3.490   6.577
 3013SOL     OW 9937   5.565   5.627   3.847
 3013SOL    HW1 9938   5.581   5.528   3.853
 3013SOL    HW2 9939   5.482   5.651   3.898
 3014SOL     OW 9940   4.805   2.242   5.626
 3014SOL    HW1 9941   4.868   2.168   5.602
 3014SOL    HW2 9942   4.713   2.219   5.596
 3015SOL     OW 9943   1.894   1.704   0.186
 3015SOL    HW1 9944   1.964   1.772   0.210
 3015SOL    HW2 9945   1.916   1.617   0.229
 3016SOL     OW 9946   2.988   6.144   4.247
 3016SOL    HW1 9947   3.023   6.051   4.258
 3016SOL    HW2 9948   2.960   6.180   4.336
 3017SOL     OW 9949   6.254   5.579   2.069
 3017SOL    HW1 9950   6.259   5.541   2.162
 3017SOL    HW2 9951   6.260   5.678   2.073
 3018SOL     OW 9952   2.862   0.229   6.391
 3018SOL    HW1 9953   2.952   0.227   6.347
 3018SOL    HW2 9954   2.864   0.295   6.467
 3019SOL     OW 9955   0.522   6.999   6.438
 3019SOL    HW1 9956   0.450   0.037   6.471
 3019SOL    HW2 9957   0.556   6.942   6.513
 3020SOL     OW 9958   3.821   2.964   0.881
 3020SOL    HW1 9959   3.763   2.953   0.800
 3020SOL    HW2 9960   3.908   3.006   0.855
 3021SOL     OW 9961   3.583   0.179   5.367
 3021SOL    HW1 9962   3.641   0.254   5.336
 3021SOL    HW2 9963   3.562   0.119   5.291
 3022SOL     OW 9964   4.113   5.472   4.952
 3022SOL    HW1 9965   4.020   5.436   4.960
 3022SOL    HW2 9966   4.161   5.459   5.039
 3023SOL     OW 9967   4.268   6.401   3.017
 3023SOL    HW1 9968   4.182   6.436   3.055
 3023SOL    HW2 9969   4.341   6.412   3.084
 3024SOL     OW 9970   5.550   6.727   4.471
 3024SOL    HW1 9971   5.465   6.675   4.481
 3024SOL    HW2 9972   5.584   6.752   4.562
 3025SOL     OW 9973   4.105   6.301   1.339
 3025SOL    HW1 9974   4.022   6.353   1.319
 3025SOL    HW2 9975   4.166   6.305   1.260
 3026SOL     OW 9976   0.422   1.454   5.836
 3026SOL    HW1 9977   0.381   1.410   5.916
 3026SOL    HW2 9978   0.353   1.466   5.765
 3027SOL     OW 9979   4.220   1.504   2.945
 3027SOL    HW1 9980   4.181   1.439   3.009
 3027SOL    HW2 9981   4.297   1.462   2.897
 3028SOL     OW 9982   1.297   3.575   5.794
 3028SOL    HW1 9983   1.251   3.491   5.822
 3028SOL    HW2 9984   1.257   3.608   5.708
 3029SOL     OW 9985   0.869   3.139   5.029
 3029SOL    HW1 9986   0.960   3.146   4.988
 3029SOL    HW2 9987   0.875   3.157   5.127
 3030SOL     OW 9988   1.134   3.184   0.704
 3030SOL    HW1 9989   1.187   3.264   0.730
 3030SOL    HW2 9990   1.070   3.209   0.631
 3031SOL     OW 9991   0.181   5.022   1.084
 3031SOL    HW1 9992   0.167   4.952   1.154
 3031SOL    HW2 9993   0.256   5.082   1.111
 3032SOL     OW 9994   2.092   6.863   1.476
 3032SOL    HW1 9995   2.055   6.935   1.534
 3032SOL    HW2 9996   2.191   6.877   1.465
 3033SOL     OW 9997   5.360   0.962   1.817
 3033SOL    HW1 9998   5.309   0.905   1.753
 3033SOL    HW2 9999   5.297   1.008   1.879
 3034SOL     OW10000   0.986   0.357   3.170
 3034SOL    HW110001   0.975   0.454   3.147
 3034SOL    HW210002   0.896   0.314   3.177
 3035SOL     OW10003   0.661   2.968   6.117
 3035SOL    HW110004   0.624   3.032   6.184
 3035SOL    HW210005   0.588   2.938   6.055
 3036SOL     OW10006   1.520   1.911   5.591
 3036SOL    HW110007   1.464   1.994   5.601
 3036SOL    HW210008   1.513   1.878   5.497
 3037SOL     OW10009   6.154   5.431   6.205
 3037SOL    HW110010   6.245   5.409   6.238
 3037SOL    HW210011   6.160   5.492   6.127
 3038SOL     OW10012   5.347   5.114   5.780
 3038SOL    HW110013   5.443   5.128   5.803
 3038SOL    HW210014   5.290   5.144   5.856
 3039SOL     OW10015   0.848   3.099   1.351
 3039SOL    HW110016   0.803   3.069   1.435
 3039SOL    HW210017   0.934   3.145   1.374
 3040SOL     OW10018   3.314   3.989   5.957
 3040SOL    HW110019   3.242   3.954   5.897
 3040SOL    HW210020   3.277   4.063   6.013
 3041SOL     OW10021   1.807   4.043   5.768
 3041SOL    HW110022   1.864   4.122   5.792
 3041SOL    HW210023   1.785   4.047   5.670
 3042SOL     OW10024   6.288   6.177   3.154
 3042SOL    HW110025   6.234   6.260   3.140
 3042SOL    HW210026   6.318   6.141   3.065
 3043SOL     OW10027   2.892   3.942   1.768
 3043SOL    HW110028   2.953   3.924   1.845
 3043SOL    HW210029   2.934   4.010   1.708
 3044SOL     OW10030   3.575   5.483   5.636
 3044SOL    HW110031   3.629   5.565   5.622
 3044SOL    HW210032   3.558   5.437   5.549
 3045SOL     OW10033   4.836   6.945   3.430
 3045SOL    HW110034   4.838   6.854   3.388
 3045SOL    HW210035   4.905   7.003   3.388
 3046SOL     OW10036   3.469   1.259   5.938
 3046SOL    HW110037   3.542   1.266   6.006
 3046SOL    HW210038   3.423   1.348   5.930
 3047SOL     OW10039   5.956   0.576   1.819
 3047SOL    HW110040   5.948   0.621   1.908
 3047SOL    HW210041   6.016   0.629   1.760
 3048SOL     OW10042   4.032   2.283   1.261
 3048SOL    HW110043   4.073   2.362   1.307
 3048SOL    HW210044   3.932   2.288   1.269
 3049SOL     OW10045   1.527   0.019   3.323
 3049SOL    HW110046   1.588   6.981   3.271
 3049SOL    HW210047   1.582   0.075   3.385
 3050SOL     OW10048   3.157   1.820   1.902
 3050SOL    HW110049   3.228   1.869   1.953
 3050SOL    HW210050   3.092   1.886   1.864
 3051SOL     OW10051   2.016   6.372   6.530
 3051SOL    HW110052   2.082   6.427   6.480
 3051SOL    HW210053   2.056   6.282   6.550
 3052SOL     OW10054   4.902   5.406   1.693
 3052SOL    HW110055   4.963   5.354   1.633
 3052SOL    HW210056   4.878   5.492   1.649
 3053SOL     OW10057   6.807   2.971   1.083
 3053SOL    HW110058   6.891   3.004   1.126
 3053SOL    HW210059   6.816   2.874   1.062
 3054SOL     OW10060   5.917   2.396   1.464
 3054SOL    HW110061   5.967   2.461   1.405
 3054SOL    HW210062   5.968   2.382   1.549
 3055SOL     OW10063   5.146   0.101   4.984
 3055SOL    HW110064   5.159   0.190   4.940
 3055SOL    HW210065   5.200   0.032   4.936
 3056SOL     OW10066   6.128   1.162   5.941
 3056SOL    HW110067   6.059   1.118   5.998
 3056SOL    HW210068   6.217   1.118   5.957
 3057SOL     OW10069   4.223   5.313   3.439
 3057SOL    HW110070   4.178   5.223   3.442
 3057SOL    HW210071   4.227   5.351   3.531
 3058SOL     OW10072   0.306   4.599   0.865
 3058SOL    HW110073   0.268   4.648   0.787
 3058SOL    HW210074   0.245   4.611   0.944
 3059SOL     OW10075   2.863   1.853   4.147
 3059SOL    HW110076   2.780   1.903   4.170
 3059SOL    HW210077   2.941   1.895   4.196
 3060SOL     OW10078   1.607   5.326   0.291
 3060SOL    HW110079   1.679   5.379   0.248
 3060SOL    HW210080   1.623   5.323   0.390
 3061SOL     OW10081   6.563   6.125   5.774
 3061SOL    HW110082   6.576   6.161   5.866
 3061SOL    HW210083   6.597   6.192   5.707
 3062SOL     OW10084   2.143   0.291   0.997
 3062SOL    HW110085   2.176   0.203   1.029
 3062SOL    HW210086   2.072   0.325   1.058
 3063SOL     OW10087   1.819   4.671   1.519
 3063SOL    HW110088   1.890   4.725   1.472
 3063SOL    HW210089   1.816   4.698   1.615
 3064SOL     OW10090   5.191   3.194   1.013
 3064SOL    HW110091   5.100   3.232   0.996
 3064SOL    HW210092   5.255   3.269   1.033
 3065SOL     OW10093   1.824   2.389   6.471
 3065SOL    HW110094   1.757   2.395   6.545
 3065SOL    HW210095   1.782   2.421   6.386
 3066SOL     OW10096   5.255   4.375   0.472
 3066SOL    HW110097   5.299   4.346   0.387
 3066SOL    HW210098   5.280   4.470   0.492
 3067SOL     OW10099   3.669   1.599   6.403
 3067SOL    HW110100   3.659   1.501   6.422
 3067SOL    HW210101   3.593   1.649   6.443
 3068SOL     OW10102   7.016   6.574   1.003
 3068SOL    HW110103   0.062   6.592   0.932
 3068SOL    HW210104   6.955   6.501   0.973
 3069SOL     OW10105   6.814   6.257   2.219
 3069SOL    HW110106   6.881   6.332   2.214
 3069SOL    HW210107   6.791   6.227   2.127
 3070SOL     OW10108   2.811   1.547   6.892
 3070SOL    HW110109   2.740   1.510   6.832
 3070SOL    HW210110   2.864   1.616   6.844
 3071SOL     OW10111   6.497   6.612   3.991
 3071SOL    HW110112   6.521   6.518   3.967
 3071SOL    HW210113   6.566   6.648   4.054
 3072SOL     OW10114   2.598   5.764   6.292
 3072SOL    HW110115   2.566   5.789   6.384
 3072SOL    HW210116   2.616   5.847   6.239
 3073SOL     OW10117   0.121   3.554   3.732
 3073SOL    HW110118   0.100   3.646   3.701
 3073SOL    HW210119   0.044   3.493   3.711
 3074SOL     OW10120   6.897   4.027   0.994
 3074SOL    HW110121   6.867   3.995   0.904
 3074SOL    HW210122   6.855   4.115   1.013
 3075SOL     OW10123   2.396   5.522   2.353
 3075SOL    HW110124   2.402   5.558   2.446
 3075SOL    HW210125   2.489   5.509   2.316
 3076SOL     OW10126   6.195   1.117   3.499
 3076SOL    HW110127   6.214   1.139   3.595
 3076SOL    HW210128   6.206   1.199   3.443
 3077SOL     OW10129   5.571   4.512   1.633
 3077SOL    HW110130   5.535   4.442   1.694
 3077SOL    HW210131   5.644   4.562   1.679
 3078SOL     OW10132   0.221   3.166   2.923
 3078SOL    HW110133   0.225   3.256   2.966
 3078SOL    HW210134   0.310   3.143   2.884
 3079SOL     OW10135   2.967   2.170   3.155
 3079SOL    HW110136   2.992   2.137   3.246
 3079SOL    HW210137   2.867   2.172   3.147
 3080SOL     OW10138   6.182   5.153   2.339
 3080SOL    HW110139   6.117   5.218   2.379
 3080SOL    HW210140   6.154   5.060   2.362
 3081SOL     OW10141   1.011   3.908   6.091
 3081SOL    HW110142   1.090   3.850   6.073
 3081SOL    HW210143   1.040   4.003   6.099
 3082SOL     OW10144   2.144   5.673   4.250
 3082SOL    HW110145   2.070   5.608   4.267
 3082SOL    HW210146   2.110   5.766   4.260
 3083SOL     OW10147   2.999   5.830   3.653
 3083SOL    HW110148   2.970   5.922   3.628
 3083SOL    HW210149   3.087   5.809   3.610
 3084SOL     OW10150   6.592   3.737   3.788
 3084SOL    HW110151   6.568   3.793   3.867
 3084SOL    HW210152   6.690   3.719   3.789
 3085SOL     OW10153   6.533   3.938   0.537
 3085SOL    HW110154   6.455   3.917   0.478
 3085SOL    HW210155   6.612   3.885   0.507
 3086SOL     OW10156   5.176   1.656   0.666
 3086SOL    HW110157   5.143   1.579   0.613
 3086SOL    HW210158   5.201   1.731   0.605
 3087SOL     OW10159   2.189   6.782   3.565
 3087SOL    HW110160   2.288   6.784   3.578
 3087SOL    HW210161   2.150   6.704   3.614
 3088SOL     OW10162   2.340   4.626   4.774
 3088SOL    HW110163   2.291   4.541   4.755
 3088SOL    HW210164   2.355   4.635   4.872
 3089SOL     OW10165   3.411   1.890   4.532
 3089SOL    HW110166   3.429   1.950   4.610
 3089SOL    HW210167   3.480   1.818   4.528
 3090SOL     OW10168   2.276   1.766   1.923
 3090SOL    HW110169   2.273   1.753   1.823
 3090SOL    HW210170   2.193   1.729   1.964
 3091SOL     OW10171   1.453   1.098   0.986
 3091SOL    HW110172   1.365   1.068   1.023
 3091SOL    HW210173   1.459   1.198   0.994
 3092SOL     OW10174   5.601   0.327   1.007
 3092SOL    HW110175   5.610   0.423   1.032
 3092SOL    HW210176   5.524   0.315   0.944
 3093SOL     OW10177   5.280   5.805   6.769
 3093SOL    HW110178   5.206   5.781   6.831
 3093SOL    HW210179   5.279   5.744   6.690
 3094SOL     OW10180   2.171   0.565   4.022
 3094SOL    HW110181   2.139   0.488   4.077
 3094SOL    HW210182   2.095   0.599   3.965
 3095SOL     OW10183   2.476   3.885   5.820
 3095SOL    HW110184   2.539   3.808   5.815
 3095SOL    HW210185   2.505   3.955   5.755
 3096SOL     OW10186   0.826   5.299   4.943
 3096SOL    HW110187   0.874   5.238   5.006
 3096SOL    HW210188   0.729   5.276   4.943
 3097SOL     OW10189   5.838   3.640   6.601
 3097SOL    HW110190   5.825   3.541   6.591
 3097SOL    HW210191   5.871   3.660   6.693
 3098SOL     OW10192   1.754   3.205   1.287
 3098SOL    HW110193   1.838   3.215   1.235
 3098SOL    HW210194   1.722   3.110   1.279
 3099SOL     OW10195   1.169   6.408   3.998
 3099SOL    HW110196   1.205   6.316   3.981
 3099SOL    HW210197   1.070   6.402   4.012
 3100SOL     OW10198   6.696   6.021   3.863
 3100SOL    HW110199   6.651   5.942   3.903
 3100SOL    HW210200   6.691   6.099   3.926
 3101SOL     OW10201   6.290   5.802   6.830
 3101SOL    HW110202   6.348   5.822   6.751
 3101SOL    HW210203   6.261   5.706   6.825
 3102SOL     OW10204   6.451   6.783   1.888
 3102SOL    HW110205   6.542   6.743   1.878
 3102SOL    HW210206   6.390   6.744   1.818
 3103SOL     OW10207   4.416   1.549   1.796
 3103SOL    HW110208   4.336   1.600   1.763
 3103SOL    HW210209   4.387   1.483   1.865
 3104SOL     OW10210   4.146   0.550   6.486
 3104SOL    HW110211   4.195   0.553   6.398
 3104SOL    HW210212   4.049   0.570   6.471
 3105SOL     OW10213   5.948   3.928   1.345
 3105SOL    HW110214   5.892   4.011   1.349
 3105SOL    HW210215   5.888   3.849   1.329
 3106SOL     OW10216   4.495   0.190   4.365
 3106SOL    HW110217   4.593   0.210   4.376
 3106SOL    HW210218   4.483   0.123   4.292
 3107SOL     OW10219   3.657   0.728   4.664
 3107SOL    HW110220   3.635   0.817   4.703
 3107SOL    HW210221   3.720   0.679   4.725
 3108SOL     OW10222   2.418   5.936   4.570
 3108SOL    HW110223   2.420   5.974   4.662
 3108SOL    HW210224   2.507   5.895   4.549
 3109SOL     OW10225   5.646   6.291   3.483
 3109SOL    HW110226   5.695   6.277   3.569
 3109SOL    HW210227   5.582   6.215   3.469
 3110SOL     OW10228   1.309   3.713   3.364
 3110SOL    HW110229   1.297   3.629   3.417
 3110SOL    HW210230   1.233   3.722   3.300
 3111SOL     OW10231   6.930   5.012   3.074
 3111SOL    HW110232   6.854   5.072   3.047
 3111SOL    HW210233   6.897   4.918   3.082
 3112SOL     OW10234   3.536   2.687   0.051
 3112SOL    HW110235   3.540   2.773   0.000
 3112SOL    HW210236   3.452   2.685   0.106
 3113SOL     OW10237   3.482   4.870   3.295
 3113SOL    HW110238   3.513   4.965   3.292
 3113SOL    HW210239   3.556   4.810   3.266
 3114SOL     OW10240   3.347   1.659   0.178
 3114SOL    HW110241   3.285   1.713   0.119
 3114SOL    HW210242   3.356   1.704   0.266
 3115SOL     OW10243   4.177   4.720   5.862
 3115SOL    HW110244   4.248   4.747   5.927
 3115SOL    HW210245   4.091   4.707   5.909
 3116SOL     OW10246   0.288   2.133   6.765
 3116SOL    HW110247   0.272   2.193   6.686
 3116SOL    HW210248   0.235   2.049   6.754
 3117SOL     OW10249   4.741   4.161   5.320
 3117SOL    HW110250   4.671   4.231   5.303
 3117SOL    HW210251   4.703   4.071   5.297
 3118SOL     OW10252   0.852   5.217   2.064
 3118SOL    HW110253   0.929   5.217   2.000
 3118SOL    HW210254   0.885   5.231   2.157
 3119SOL     OW10255   1.961   2.921   0.164
 3119SOL    HW110256   1.966   3.015   0.199
 3119SOL    HW210257   1.876   2.879   0.192
 3120SOL     OW10258   3.036   0.119   5.946
 3120SOL    HW110259   3.048   0.217   5.929
 3120SOL    HW210260   2.939   0.100   5.965
 3121SOL     OW10261   6.800   1.399   4.267
 3121SOL    HW110262   6.790   1.485   4.317
 3121SOL    HW210263   6.766   1.323   4.323
 3122SOL     OW10264   4.338   5.382   6.239
 3122SOL    HW110265   4.407   5.334   6.295
 3122SOL    HW210266   4.381   5.460   6.193
 3123SOL     OW10267   2.644   1.612   2.566
 3123SOL    HW110268   2.642   1.568   2.655
 3123SOL    HW210269   2.734   1.654   2.552
 3124SOL     OW10270   4.994   6.903   4.673
 3124SOL    HW110271   4.991   6.882   4.771
 3124SOL    HW210272   5.086   6.886   4.639
 3125SOL     OW10273   1.129   3.439   5.301
 3125SOL    HW110274   1.195   3.493   5.354
 3125SOL    HW210275   1.179   3.380   5.238
 3126SOL     OW10276   6.046   4.316   5.396
 3126SOL    HW110277   5.960   4.268   5.377
 3126SOL    HW210278   6.046   4.348   5.491
 3127SOL     OW10279   2.121   2.553   6.853
 3127SOL    HW110280   2.057   2.561   6.776
 3127SOL    HW210281   2.188   2.482   6.834
 3128SOL     OW10282   3.103   0.944   6.446
 3128SOL    HW110283   3.019   0.996   6.459
 3128SOL    HW210284   3.112   0.876   6.519
 3129SOL     OW10285   6.287   3.466   6.852
 3129SOL    HW110286   6.319   3.382   6.896
 3129SOL    HW210287   6.317   3.466   6.757
 3130SOL     OW10288   2.018   4.495   2.177
 3130SOL    HW110289   2.021   4.475   2.080
 3130SOL    HW210290   1.925   4.525   2.202
 3131SOL     OW10291   0.869   3.514   1.767
 3131SOL    HW110292   0.927   3.468   1.699
 3131SOL    HW210293   0.871   3.613   1.751
 3132SOL     OW10294   5.016   5.530   6.587
 3132SOL    HW110295   5.046   5.441   6.553
 3132SOL    HW210296   4.945   5.517   6.656
 3133SOL     OW10297   3.354   1.144   2.736
 3133SOL    HW110298   3.448   1.178   2.745
 3133SOL    HW210299   3.351   1.046   2.755
 3134SOL     OW10300   4.436   4.078   1.286
 3134SOL    HW110301   4.490   4.088   1.203
 3134SOL    HW210302   4.486   4.116   1.364
 3135SOL     OW10303   4.592   0.583   6.035
 3135SOL    HW110304   4.626   0.657   5.978
 3135SOL    HW210305   4.502   0.554   6.002
 3136SOL     OW10306   5.313   0.321   2.811
 3136SOL    HW110307   5.252   0.247   2.783
 3136SOL    HW210308   5.396   0.284   2.850
 3137SOL     OW10309   6.240   0.422   2.605
 3137SOL    HW110310   6.308   0.361   2.646
 3137SOL    HW210311   6.223   0.498   2.667
 3138SOL     OW10312   0.010   5.849   3.368
 3138SOL    HW110313   6.993   5.830   3.278
 3138SOL    HW210314   6.977   5.805   3.439
 3139SOL     OW10315   4.232   5.514   0.024
 3139SOL    HW110316   4.192   5.422   0.019
 3139SOL    HW210317   4.296   5.518   0.100
 3140SOL     OW10318   6.692   6.005   6.745
 3140SOL    HW110319   6.655   5.984   6.836
 3140SOL    HW210320   6.732   6.096   6.746
 3141SOL     OW10321   1.223   0.522   6.548
 3141SOL    HW110322   1.207   0.473   6.462
 3141SOL    HW210323   1.136   0.557   6.584
 3142SOL     OW10324   2.998   6.796   2.201
 3142SOL    HW110325   2.980   6.697   2.195
 3142SOL    HW210326   2.915   6.843   2.232
 3143SOL     OW10327   6.627   2.157   0.374
 3143SOL    HW110328   6.686   2.219   0.321
 3143SOL    HW210329   6.596   2.083   0.315
 3144SOL     OW10330   3.969   3.908   0.898
 3144SOL    HW110331   4.043   3.843   0.917
 3144SOL    HW210332   3.894   3.861   0.853
 3145SOL     OW10333   2.149   6.248   2.715
 3145SOL    HW110334   2.155   6.277   2.811
 3145SOL    HW210335   2.135   6.328   2.657
 3146SOL     OW10336   0.562   1.746   4.245
 3146SOL    HW110337   0.596   1.661   4.287
 3146SOL    HW210338   0.621   1.822   4.270
 3147SOL     OW10339   3.182   5.341   0.713
 3147SOL    HW110340   3.254   5.297   0.767
 3147SOL    HW210341   3.156   5.280   0.638
 3148SOL     OW10342   6.518   0.133   3.303
 3148SOL    HW110343   6.510   0.033   3.309
 3148SOL    HW210344   6.475   0.164   3.218
 3149SOL     OW10345   3.144   0.621   5.775
 3149SOL    HW110346   3.233   0.648   5.812
 3149SOL    HW210347   3.072   0.672   5.822
 3150SOL     OW10348   6.475   5.563   5.436
 3150SOL    HW110349   6.424   5.649   5.433
 3150SOL    HW210350   6.515   5.545   5.346
 3151SOL     OW10351   0.621   1.048   4.706
 3151SOL    HW110352   0.528   1.031   4.673
 3151SOL    HW210353   0.629   1.020   4.801
 3152SOL     OW10354   0.552   5.394   0.752
 3152SOL    HW110355   0.532   5.492   0.758
 3152SOL    HW210356   0.499   5.354   0.677
 3153SOL     OW10357   6.321   5.680   0.650
 3153SOL    HW110358   6.414   5.688   0.614
 3153SOL    HW210359   6.260   5.646   0.578
 3154SOL     OW10360   0.284   1.926   6.385
 3154SOL    HW110361   0.367   1.904   6.437
 3154SOL    HW210362   0.265   1.853   6.319
 3155SOL     OW10363   6.622   4.587   0.570
 3155SOL    HW110364   6.690   4.514   0.558
 3155SOL    HW210365   6.606   4.632   0.483
 3156SOL     OW10366   3.295   3.036   2.177
 3156SOL    HW110367   3.373   2.982   2.146
 3156SOL    HW210368   3.325   3.129   2.198
 3157SOL     OW10369   2.404   1.707   5.389
 3157SOL    HW110370   2.323   1.663   5.427
 3157SOL    HW210371   2.486   1.664   5.427
 3158SOL     OW10372   3.518   1.755   4.053
 3158SOL    HW110373   3.613   1.766   4.083
 3158SOL    HW210374   3.505   1.803   3.966
 3159SOL     OW10375   5.620   0.903   0.158
 3159SOL    HW110376   5.537   0.889   0.211
 3159SOL    HW210377   5.659   0.814   0.134
 3160SOL     OW10378   0.671   5.797   5.667
 3160SOL    HW110379   0.626   5.721   5.619
 3160SOL    HW210380   0.748   5.830   5.613
 3161SOL     OW10381   2.140   3.072   2.889
 3161SOL    HW110382   2.042   3.050   2.889
 3161SOL    HW210383   2.179   3.047   2.800
 3162SOL     OW10384   1.382   5.574   1.525
 3162SOL    HW110385   1.286   5.548   1.510
 3162SOL    HW210386   1.393   5.605   1.620
 3163SOL     OW10387   4.444   3.593   6.803
 3163SOL    HW110388   4.349   3.571   6.824
 3163SOL    HW210389   4.453   3.692   6.788
 3164SOL     OW10390   3.945   5.662   0.858
 3164SOL    HW110391   3.996   5.697   0.780
 3164SOL    HW210392   3.902   5.575   0.833
 3165SOL     OW10393   1.226   6.822   1.362
 3165SOL    HW110394   1.299   6.816   1.295
 3165SOL    HW210395   1.174   6.906   1.347
 3166SOL     OW10396   3.977   1.549   3.863
 3166SOL    HW110397   3.932   1.461   3.877
 3166SOL    HW210398   3.921   1.606   3.803
 3167SOL     OW10399   6.035   4.750   0.916
 3167SOL    HW110400   6.042   4.651   0.919
 3167SOL    HW210401   6.115   4.787   0.867
 3168SOL     OW10402   4.876   2.797   0.278
 3168SOL    HW110403   4.843   2.771   0.187
 3168SOL    HW210404   4.830   2.742   0.347
 3169SOL     OW10405   2.212   4.028   4.495
 3169SOL    HW110406   2.195   3.975   4.412
 3169SOL    HW210407   2.210   3.968   4.574
 3170SOL     OW10408   3.899   5.961   1.392
 3170SOL    HW110409   3.828   6.030   1.376
 3170SOL    HW210410   3.907   5.943   1.490
 3171SOL     OW10411   6.814   1.110   2.364
 3171SOL    HW110412   6.830   1.025   2.413
 3171SOL    HW210413   6.753   1.169   2.418
 3172SOL     OW10414   0.125   5.888   0.023
 3172SOL    HW110415   0.075   5.974   0.015
 3172SOL    HW210416   0.091   5.837   0.101
 3173SOL     OW10417   3.176   2.091   0.499
 3173SOL    HW110418   3.262   2.072   0.452
 3173SOL    HW210419   3.143   2.181   0.472
 3174SOL     OW10420   2.962   2.294   0.449
 3174SOL    HW110421   2.887   2.238   0.484
 3174SOL    HW210422   2.928   2.356   0.378
 3175SOL     OW10423   5.764   0.750   1.714
 3175SOL    HW110424   5.776   0.849   1.724
 3175SOL    HW210425   5.802   0.704   1.795
 3176SOL     OW10426   1.598   4.289   5.862
 3176SOL    HW110427   1.681   4.332   5.826
 3176SOL    HW210428   1.554   4.236   5.789
 3177SOL     OW10429   4.947   4.183   3.815
 3177SOL    HW110430   4.955   4.105   3.877
 3177SOL    HW210431   4.850   4.205   3.803
 3178SOL     OW10432   6.613   2.277   0.730
 3178SOL    HW110433   6.551   2.316   0.661
 3178SOL    HW210434   6.684   2.343   0.752
 3179SOL     OW10435   0.691   2.716   2.198
 3179SOL    HW110436   0.780   2.745   2.165
 3179SOL    HW210437   0.702   2.645   2.268
 3180SOL     OW10438   5.693   1.117   6.675
 3180SOL    HW110439   5.787   1.094   6.701
 3180SOL    HW210440   5.650   1.037   6.633
 3181SOL     OW10441   0.262   2.085   2.846
 3181SOL    HW110442   0.217   2.070   2.758
 3181SOL    HW210443   0.208   2.150   2.900
 3182SOL     OW10444   2.629   0.308   6.574
 3182SOL    HW110445   2.571   0.363   6.514
 3182SOL    HW210446   2.682   0.244   6.518
 3183SOL     OW10447   4.916   3.610   2.058
 3183SOL    HW110448   5.005   3.612   2.104
 3183SOL    HW210449   4.864   3.692   2.084
 3184SOL     OW10450   0.810   2.961   2.879
 3184SOL    HW110451   0.811   2.914   2.791
 3184SOL    HW210452   0.791   3.059   2.864
 3185SOL     OW10453   5.024   5.486   6.909
 3185SOL    HW110454   5.021   5.387   6.895
 3185SOL    HW210455   4.932   5.524   6.907
 3186SOL     OW10456   3.034   2.113   1.315
 3186SOL    HW110457   3.035   2.031   1.257
 3186SOL    HW210458   3.023   2.086   1.410
 3187SOL     OW10459   4.546   4.644   0.622
 3187SOL    HW110460   4.462   4.685   0.586
 3187SOL    HW210461   4.624   4.702   0.598
 3188SOL     OW10462   1.282   6.944   4.320
 3188SOL    HW110463   1.365   6.990   4.349
 3188SOL    HW210464   1.227   7.006   4.264
 3189SOL     OW10465   1.054   1.709   1.435
 3189SOL    HW110466   1.026   1.617   1.463
 3189SOL    HW210467   1.143   1.704   1.389
 3190SOL     OW10468   0.838   5.385   6.842
 3190SOL    HW110469   0.869   5.303   6.794
 3190SOL    HW210470   0.917   5.437   6.874
 3191SOL     OW10471   5.276   6.043   1.054
 3191SOL    HW110472   5.358   6.063   1.109
 3191SOL    HW210473   5.195   6.053   1.111
 3192SOL     OW10474   0.201   3.043   1.370
 3192SOL    HW110475   0.172   3.082   1.457
 3192SOL    HW210476   0.239   3.115   1.312
 3193SOL     OW10477   4.366   1.332   6.732
 3193SOL    HW110478   4.338   1.313   6.638
 3193SOL    HW210479   4.336   1.424   6.758
 3194SOL     OW10480   1.457   1.577   6.715
 3194SOL    HW110481   1.489   1.671   6.726
 3194SOL    HW210482   1.464   1.529   6.802
 3195SOL     OW10483   2.689   1.303   3.730
 3195SOL    HW110484   2.755   1.237   3.694
 3195SOL    HW210485   2.597   1.264   3.725
 3196SOL     OW10486   0.415   0.460   6.484
 3196SOL    HW110487   0.448   0.544   6.440
 3196SOL    HW210488   0.325   0.437   6.448
 3197SOL     OW10489   3.033   6.739   4.028
 3197SOL    HW110490   2.973   6.819   4.027
 3197SOL    HW210491   2.978   6.655   4.034
 3198SOL     OW10492   6.219   2.950   4.465
 3198SOL    HW110493   6.225   2.867   4.409
 3198SOL    HW210494   6.299   2.955   4.526
 3199SOL     OW10495   5.107   4.072   2.729
 3199SOL    HW110496   5.018   4.032   2.752
 3199SOL    HW210497   5.098   4.127   2.646
 3200SOL     OW10498   5.917   3.275   2.380
 3200SOL    HW110499   5.823   3.304   2.399
 3200SOL    HW210500   5.940   3.295   2.285
 3201SOL     OW10501   6.480   4.924   3.984
 3201SOL    HW110502   6.394   4.950   4.028
 3201SOL    HW210503   6.467   4.922   3.884
 3202SOL     OW10504   0.752   4.910   1.694
 3202SOL    HW110505   0.702   4.854   1.628
 3202SOL    HW210506   0.839   4.940   1.654
 3203SOL     OW10507   6.737   2.528   0.488
 3203SOL    HW110508   6.647   2.534   0.444
 3203SOL    HW210509   6.757   2.614   0.535
 3204SOL     OW10510   4.769   6.283   3.614
 3204SOL    HW110511   4.699   6.354   3.607
 3204SOL    HW210512   4.858   6.320   3.592
 3205SOL     OW10513   6.046   2.837   6.058
 3205SOL    HW110514   5.988   2.755   6.057
 3205SOL    HW210515   6.138   2.813   6.088
 3206SOL     OW10516   2.063   4.949   0.036
 3206SOL    HW110517   2.012   4.975   6.977
 3206SOL    HW210518   2.117   4.867   0.018
 3207SOL     OW10519   0.656   1.348   5.929
 3207SOL    HW110520   0.694   1.265   5.887
 3207SOL    HW210521   0.567   1.369   5.887
 3208SOL     OW10522   4.915   6.394   6.054
 3208SOL    HW110523   4.828   6.345   6.053
 3208SOL    HW210524   4.924   6.444   6.140
 3209SOL     OW10525   3.828   5.257   3.242
 3209SOL    HW110526   3.811   5.229   3.336
 3209SOL    HW210527   3.811   5.356   3.233
 3210SOL     OW10528   0.898   4.239   0.834
 3210SOL    HW110529   0.847   4.269   0.914
 3210SOL    HW210530   0.985   4.287   0.829
 3211SOL     OW10531   2.197   3.804   0.443
 3211SOL    HW110532   2.159   3.757   0.523
 3211SOL    HW210533   2.173   3.901   0.446
 3212SOL     OW10534   2.994   6.840   1.438
 3212SOL    HW110535   2.896   6.833   1.419
 3212SOL    HW210536   3.012   6.926   1.486
 3213SOL     OW10537   0.865   6.900   0.785
 3213SOL    HW110538   0.833   6.943   0.870
 3213SOL    HW210539   0.879   6.802   0.800
 3214SOL     OW10540   4.289   5.663   0.318
 3214SOL    HW110541   4.235   5.590   0.358
 3214SOL    HW210542   4.386   5.648   0.337
 3215SOL     OW10543   6.947   3.316   1.173
 3215SOL    HW110544   6.856   3.336   1.137
 3215SOL    HW210545   6.980   3.229   1.137
 3216SOL     OW10546   6.739   5.452   0.272
 3216SOL    HW110547   6.729   5.537   0.221
 3216SOL    HW210548   6.650   5.427   0.312
 3217SOL     OW10549   6.804   4.968   2.189
 3217SOL    HW110550   6.732   5.000   2.127
 3217SOL    HW210551   6.879   4.928   2.135
 3218SOL     OW10552   4.430   2.083   3.676
 3218SOL    HW110553   4.435   2.181   3.654
 3218SOL    HW210554   4.363   2.039   3.617
 3219SOL     OW10555   0.341   1.788   3.218
 3219SOL    HW110556   0.346   1.789   3.318
 3219SOL    HW210557   0.410   1.850   3.180
 3220SOL     OW10558   7.020   5.470   6.613
 3220SOL    HW110559   6.964   5.396   6.575
 3220SOL    HW210560   6.971   5.557   6.606
 3221SOL     OW10561   4.256   0.789   1.279
 3221SOL    HW110562   4.218   0.804   1.188
 3221SOL    HW210563   4.193   0.823   1.349
 3222SOL     OW10564   3.699   1.326   2.534
 3222SOL    HW110565   3.766   1.370   2.595
 3222SOL    HW210566   3.688   1.381   2.451
 3223SOL     OW10567   2.249   6.402   6.342
 3223SOL    HW110568   2.276   6.310   6.369
 3223SOL    HW210569   2.328   6.464   6.351
 3224SOL     OW10570   4.298   3.672   5.806
 3224SOL    HW110571   4.380   3.646   5.856
 3224SOL    HW210572   4.272   3.765   5.830
 3225SOL     OW10573   5.494   3.117   6.101
 3225SOL    HW110574   5.536   3.203   6.130
 3225SOL    HW210575   5.559   3.042   6.113
 3226SOL     OW10576   2.222   1.437   3.111
 3226SOL    HW110577   2.320   1.446   3.094
 3226SOL    HW210578   2.171   1.484   3.038
 3227SOL     OW10579   3.250   2.440   7.010
 3227SOL    HW110580   3.261   2.528   6.964
 3227SOL    HW210581   3.340   2.402   0.009
 3228SOL     OW10582   0.190   3.949   2.199
 3228SOL    HW110583   0.178   4.040   2.159
 3228SOL    HW210584   0.271   3.950   2.258
 3229SOL     OW10585   4.301   0.285   4.899
 3229SOL    HW110586   4.249   0.215   4.851
 3229SOL    HW210587   4.398   0.279   4.874
 3230SOL     OW10588   2.680   3.729   5.458
 3230SOL    HW110589   2.611   3.789   5.417
 3230SOL    HW210590   2.732   3.684   5.385
 3231SOL     OW10591   2.677   0.403   1.323
 3231SOL    HW110592   2.736   0.444   1.254
 3231SOL    HW210593   2.589   0.449   1.324
 3232SOL     OW10594   4.981   6.149   5.020
 3232SOL    HW110595   5.070   6.188   5.043
 3232SOL    HW210596   4.960   6.170   4.924
 3233SOL     OW10597   0.866   2.411   1.720
 3233SOL    HW110598   0.956   2.447   1.745
 3233SOL    HW210599   0.799   2.485   1.724
 3234SOL     OW10600   0.262   2.144   0.004
 3234SOL    HW110601   0.310   2.157   6.940
 3234SOL    HW210602   0.164   2.161   7.013
 3235SOL     OW10603   6.184   0.710   2.694
 3235SOL    HW110604   6.220   0.686   2.784
 3235SOL    HW210605   6.256   0.701   2.625
 3236SOL     OW10606   1.417   3.243   0.515
 3236SOL    HW110607   1.332   3.208   0.477
 3236SOL    HW210608   1.494   3.191   0.478
 3237SOL     OW10609   5.335   1.417   3.521
 3237SOL    HW110610   5.385   1.494   3.563
 3237SOL    HW210611   5.345   1.421   3.422
 3238SOL     OW10612   6.905   5.997   0.694
 3238SOL    HW110613   6.935   5.959   0.606
 3238SOL    HW210614   6.912   6.097   0.691
 3239SOL     OW10615   6.557   1.516   2.538
 3239SOL    HW110616   6.516   1.605   2.559
 3239SOL    HW210617   6.526   1.484   2.449
 3240SOL     OW10618   6.758   6.644   6.317
 3240SOL    HW110619   6.747   6.691   6.229
 3240SOL    HW210620   6.845   6.594   6.318
 3241SOL     OW10621   4.307   1.491   4.987
 3241SOL    HW110622   4.390   1.443   4.955
 3241SOL    HW210623   4.333   1.575   5.035
 3242SOL     OW10624   3.982   3.547   6.770
 3242SOL    HW110625   3.930   3.584   6.692
 3242SOL    HW210626   4.013   3.455   6.748
 3243SOL     OW10627   4.358   4.130   0.470
 3243SOL    HW110628   4.286   4.082   0.521
 3243SOL    HW210629   4.420   4.175   0.534
 3244SOL     OW10630   4.750   5.613   6.932
 3244SOL    HW110631   4.734   5.704   6.893
 3244SOL    HW210632   4.732   5.543   6.862
 3245SOL     OW10633   5.156   3.240   5.308
 3245SOL    HW110634   5.078   3.301   5.297
 3245SOL    HW210635   5.126   3.154   5.351
 3246SOL     OW10636   5.733   0.564   2.630
 3246SOL    HW110637   5.784   0.644   2.659
 3246SOL    HW210638   5.666   0.540   2.701
 3247SOL     OW10639   6.368   4.758   2.747
 3247SOL    HW110640   6.349   4.739   2.844
 3247SOL    HW210641   6.353   4.674   2.694
 3248SOL     OW10642   6.537   3.803   1.335
 3248SOL    HW110643   6.506   3.728   1.277
 3248SOL    HW210644   6.589   3.869   1.280
 3249SOL     OW10645   3.780   2.947   4.197
 3249SOL    HW110646   3.744   2.902   4.279
 3249SOL    HW210647   3.875   2.975   4.212
 3250SOL     OW10648   5.529   0.237   2.141
 3250SOL    HW110649   5.444   0.194   2.172
 3250SOL    HW210650   5.562   0.299   2.212
 3251SOL     OW10651   3.261   1.045   3.628
 3251SOL    HW110652   3.223   1.003   3.545
 3251SOL    HW210653   3.317   1.124   3.602
 3252SOL     OW10654   2.364   1.145   2.810
 3252SOL    HW110655   2.448   1.135   2.862
 3252SOL    HW210656   2.286   1.147   2.873
 3253SOL     OW10657   4.930   4.270   1.844
 3253SOL    HW110658   5.012   4.215   1.832
 3253SOL    HW210659   4.933   4.318   1.931
 3254SOL     OW10660   4.883   5.509   5.724
 3254SOL    HW110661   4.856   5.423   5.767
 3254SOL    HW210662   4.981   5.507   5.705
 3255SOL     OW10663   5.537   6.543   0.308
 3255SOL    HW110664   5.475   6.590   0.246
 3255SOL    HW210665   5.526   6.580   0.400
 3256SOL     OW10666   3.075   0.780   0.612
 3256SOL    HW110667   3.119   0.850   0.669
 3256SOL    HW210668   3.030   0.713   0.671
 3257SOL     OW10669   1.556   1.892   2.152
 3257SOL    HW110670   1.614   1.825   2.106
 3257SOL    HW210671   1.584   1.902   2.247
 3258SOL     OW10672   4.607   5.100   2.266
 3258SOL    HW110673   4.650   5.062   2.348
 3258SOL    HW210674   4.584   5.196   2.281
 3259SOL     OW10675   5.147   5.274   4.196
 3259SOL    HW110676   5.181   5.188   4.235
 3259SOL    HW210677   5.224   5.326   4.158
 3260SOL     OW10678   0.868   1.888   1.345
 3260SOL    HW110679   0.829   1.945   1.417
 3260SOL    HW210680   0.942   1.832   1.382
 3261SOL     OW10681   5.660   0.304   1.286
 3261SOL    HW110682   5.649   0.321   1.188
 3261SOL    HW210683   5.690   0.388   1.331
 3262SOL     OW10684   3.251   2.105   2.835
 3262SOL    HW110685   3.282   2.117   2.741
 3262SOL    HW210686   3.167   2.051   2.836
 3263SOL     OW10687   2.697   0.800   3.226
 3263SOL    HW110688   2.598   0.812   3.228
 3263SOL    HW210689   2.740   0.869   3.285
 3264SOL     OW10690   1.093   3.764   0.655
 3264SOL    HW110691   1.095   3.772   0.754
 3264SOL    HW210692   1.031   3.833   0.617
 3265SOL     OW10693   5.719   0.613   6.191
 3265SOL    HW110694   5.636   0.656   6.226
 3265SOL    HW210695   5.721   0.517   6.218
 3266SOL     OW10696   1.788   3.920   0.637
 3266SOL    HW110697   1.771   3.949   0.543
 3266SOL    HW210698   1.838   3.992   0.685
 3267SOL     OW10699   3.428   6.794   0.973
 3267SOL    HW110700   3.412   6.696   0.974
 3267SOL    HW210701   3.464   6.822   0.884
 3268SOL     OW10702   1.179   3.596   1.670
 3268SOL    HW110703   1.086   3.626   1.651
 3268SOL    HW210704   1.221   3.564   1.585
 3269SOL     OW10705   4.875   5.603   2.064
 3269SOL    HW110706   4.892   5.598   1.966
 3269SOL    HW210707   4.962   5.614   2.112
 3270SOL     OW10708   1.244   4.222   6.240
 3270SOL    HW110709   1.155   4.243   6.280
 3270SOL    HW210710   1.261   4.282   6.162
 3271SOL     OW10711   5.591   3.627   3.180
 3271SOL    HW110712   5.509   3.613   3.236
 3271SOL    HW210713   5.573   3.697   3.111
 3272SOL     OW10714   3.542   4.654   6.179
 3272SOL    HW110715   3.498   4.733   6.136
 3272SOL    HW210716   3.587   4.683   6.263
 3273SOL     OW10717   0.413   6.282   0.837
 3273SOL    HW110718   0.465   6.358   0.877
 3273SOL    HW210719   0.453   6.257   0.749
 3274SOL     OW10720   5.296   1.014   0.922
 3274SOL    HW110721   5.289   0.953   0.844
 3274SOL    HW210722   5.378   1.071   0.914
 3275SOL     OW10723   6.265   1.900   6.732
 3275SOL    HW110724   6.359   1.875   6.707
 3275SOL    HW210725   6.233   1.972   6.671
 3276SOL     OW10726   3.056   5.793   0.436
 3276SOL    HW110727   3.146   5.832   0.455
 3276SOL    HW210728   3.004   5.788   0.522
 3277SOL     OW10729   3.807   7.010   6.666
 3277SOL    HW110730   3.752   7.017   6.582
 3277SOL    HW210731   3.788   0.067   6.725
 3278SOL     OW10732   0.698   1.155   5.541
 3278SOL    HW110733   0.705   1.235   5.482
 3278SOL    HW210734   0.652   1.081   5.492
 3279SOL     OW10735   5.499   0.340   0.441
 3279SOL    HW110736   5.492   0.264   0.376
 3279SOL    HW210737   5.560   0.313   0.516
 3280SOL     OW10738   3.855   4.910   4.441
 3280SOL    HW110739   3.880   5.006   4.423
 3280SOL    HW210740   3.935   4.860   4.472
 3281SOL     OW10741   1.985   5.128   1.967
 3281SOL    HW110742   1.997   5.201   1.901
 3281SOL    HW210743   1.985   5.166   2.060
 3282SOL     OW10744   0.087   4.860   5.674
 3282SOL    HW110745   0.146   4.925   5.722
 3282SOL    HW210746   0.115   4.767   5.698
 3283SOL     OW10747   3.330   0.442   1.086
 3283SOL    HW110748   3.348   0.359   1.140
 3283SOL    HW210749   3.335   0.420   0.989
 3284SOL     OW10750   6.974   5.108   6.747
 3284SOL    HW110751   6.905   5.178   6.730
 3284SOL    HW210752   0.031   5.124   6.688
 3285SOL     OW10753   4.263   2.189   3.385
 3285SOL    HW110754   4.240   2.181   3.288
 3285SOL    HW210755   4.357   2.223   3.394
 3286SOL     OW10756   3.657   2.933   2.479
 3286SOL    HW110757   3.746   2.922   2.523
 3286SOL    HW210758   3.668   2.924   2.380
 3287SOL     OW10759   0.650   0.559   0.003
 3287SOL    HW110760   0.646   0.459   0.013
 3287SOL    HW210761   0.736   0.584   6.982
 3288SOL     OW10762   0.689   5.384   5.825
 3288SOL    HW110763   0.592   5.391   5.798
 3288SOL    HW210764   0.706   5.444   5.903
 3289SOL     OW10765   2.641   6.951   5.622
 3289SOL    HW110766   2.583   0.003   5.589
 3289SOL    HW210767   2.731   6.988   5.647
 3290SOL     OW10768   0.293   6.804   2.125
 3290SOL    HW110769   0.275   6.756   2.211
 3290SOL    HW210770   0.241   6.762   2.051
 3291SOL     OW10771   1.322   6.971   0.745
 3291SOL    HW110772   1.407   6.927   0.774
 3291SOL    HW210773   1.245   6.931   0.794
 3292SOL     OW10774   0.620   1.192   0.369
 3292SOL    HW110775   0.601   1.177   0.466
 3292SOL    HW210776   0.718   1.189   0.353
 3293SOL     OW10777   0.029   3.583   2.290
 3293SOL    HW110778   6.966   3.532   2.296
 3293SOL    HW210779   0.103   3.529   2.329
 3294SOL     OW10780   5.994   1.897   6.508
 3294SOL    HW110781   5.899   1.887   6.536
 3294SOL    HW210782   6.037   1.807   6.501
 3295SOL     OW10783   1.559   3.095   2.217
 3295SOL    HW110784   1.646   3.047   2.227
 3295SOL    HW210785   1.486   3.029   2.200
 3296SOL     OW10786   1.444   0.034   2.616
 3296SOL    HW110787   1.379   0.052   2.690
 3296SOL    HW210788   1.537   0.051   2.647
 3297SOL     OW10789   2.850   0.625   4.986
 3297SOL    HW110790   2.904   0.688   5.041
 3297SOL    HW210791   2.870   0.640   4.889
 3298SOL     OW10792   6.012   1.780   5.466
 3298SOL    HW110793   5.970   1.755   5.379
 3298SOL    HW210794   5.971   1.866   5.498
 3299SOL     OW10795   2.752   5.821   2.657
 3299SOL    HW110796   2.694   5.797   2.734
 3299SOL    HW210797   2.748   5.920   2.640
 3300SOL     OW10798   6.613   0.608   5.187
 3300SOL    HW110799   6.563   0.558   5.258
 3300SOL    HW210800   6.702   0.564   5.173
 3301SOL     OW10801   1.863   3.036   3.640
 3301SOL    HW110802   1.845   2.943   3.607
 3301SOL    HW210803   1.778   3.087   3.647
 3302SOL     OW10804   0.270   4.688   5.402
 3302SOL    HW110805   0.197   4.754   5.420
 3302SOL    HW210806   0.232   4.609   5.352
 3303SOL     OW10807   3.280   3.900   1.344
 3303SOL    HW110808   3.216   3.828   1.372
 3303SOL    HW210809   3.260   3.984   1.393
 3304SOL     OW10810   1.039   5.782   4.061
 3304SOL    HW110811   1.037   5.704   4.124
 3304SOL    HW210812   1.068   5.864   4.111
 3305SOL     OW10813   2.109   0.902   2.477
 3305SOL    HW110814   2.180   0.833   2.492
 3305SOL    HW210815   2.130   0.984   2.530
 3306SOL     OW10816   2.201   5.355   5.259
 3306SOL    HW110817   2.159   5.291   5.195
 3306SOL    HW210818   2.296   5.373   5.231
 3307SOL     OW10819   0.196   5.181   6.562
 3307SOL    HW110820   0.290   5.146   6.557
 3307SOL    HW210821   0.195   5.265   6.616
 3308SOL     OW10822   2.714   6.279   0.942
 3308SOL    HW110823   2.670   6.191   0.923
 3308SOL    HW210824   2.666   6.351   0.892
 3309SOL     OW10825   0.325   5.937   2.665
 3309SOL    HW110826   0.259   5.873   2.705
 3309SOL    HW210827   0.415   5.922   2.704
 3310SOL     OW10828   0.094   3.456   6.480
 3310SOL    HW110829   0.153   3.430   6.556
 3310SOL    HW210830   7.022   3.463   6.511
 3311SOL     OW10831   2.227   4.192   1.221
 3311SOL    HW110832   2.192   4.196   1.314
 3311SOL    HW210833   2.191   4.110   1.175
 3312SOL     OW10834   4.100   4.308   5.634
 3312SOL    HW110835   4.090   4.213   5.606
 3312SOL    HW210836   4.083   4.316   5.732
 3313SOL     OW10837   0.927   5.529   3.484
 3313SOL    HW110838   0.902   5.613   3.436
 3313SOL    HW210839   0.999   5.481   3.434
 3314SOL     OW10840   2.856   1.500   2.806
 3314SOL    HW110841   2.849   1.415   2.754
 3314SOL    HW210842   2.952   1.516   2.830
 3315SOL     OW10843   6.600   3.825   4.380
 3315SOL    HW110844   6.527   3.765   4.415
 3315SOL    HW210845   6.666   3.842   4.453
 3316SOL     OW10846   5.046   1.534   6.053
 3316SOL    HW110847   5.033   1.449   6.002
 3316SOL    HW210848   5.026   1.518   6.150
 3317SOL     OW10849   4.401   3.176   1.744
 3317SOL    HW110850   4.313   3.135   1.767
 3317SOL    HW210851   4.473   3.134   1.800
 3318SOL     OW10852   1.969   1.133   1.226
 3318SOL    HW110853   1.956   1.191   1.306
 3318SOL    HW210854   2.065   1.138   1.197
 3319SOL     OW10855   6.845   1.416   3.697
 3319SOL    HW110856   6.926   1.429   3.754
 3319SOL    HW210857   6.833   1.497   3.639
 3320SOL     OW10858   6.216   6.844   4.923
 3320SOL    HW110859   6.247   6.795   5.005
 3320SOL    HW210860   6.139   6.904   4.948
 3321SOL     OW10861   4.804   1.333   0.354
 3321SOL    HW110862   4.767   1.302   0.266
 3321SOL    HW210863   4.734   1.386   0.402
 3322SOL     OW10864   6.237   3.028   0.691
 3322SOL    HW110865   6.251   3.049   0.787
 3322SOL    HW210866   6.284   2.943   0.668
 3323SOL     OW10867   2.957   2.854   0.521
 3323SOL    HW110868   2.892   2.780   0.508
 3323SOL    HW210869   3.001   2.845   0.610
 3324SOL     OW10870   3.550   5.306   6.854
 3324SOL    HW110871   3.486   5.356   6.912
 3324SOL    HW210872   3.517   5.306   6.760
 3325SOL     OW10873   0.893   3.041   0.044
 3325SOL    HW110874   0.982   2.998   0.052
 3325SOL    HW210875   0.881   3.077   6.973
 3326SOL     OW10876   4.673   2.105   1.575
 3326SOL    HW110877   4.613   2.110   1.495
 3326SOL    HW210878   4.756   2.158   1.558
 3327SOL     OW10879   3.032   5.750   1.934
 3327SOL    HW110880   2.943   5.705   1.935
 3327SOL    HW210881   3.041   5.807   2.016
 3328SOL     OW10882   4.276   2.524   0.462
 3328SOL    HW110883   4.324   2.468   0.529
 3328SOL    HW210884   4.198   2.569   0.505
 3329SOL     OW10885   4.493   0.390   5.166
 3329SOL    HW110886   4.492   0.306   5.112
 3329SOL    HW210887   4.587   0.422   5.177
 3330SOL     OW10888   6.108   5.043   1.382
 3330SOL    HW110889   6.017   5.065   1.346
 3330SOL    HW210890   6.116   4.944   1.392
 3331SOL     OW10891   1.929   2.987   1.460
 3331SOL    HW110892   1.835   2.975   1.492
 3331SOL    HW210893   1.992   2.946   1.527
 3332SOL     OW10894   6.081   5.094   6.930
 3332SOL    HW110895   6.068   5.192   6.946
 3332SOL    HW210896   6.002   5.043   6.965
 3333SOL     OW10897   3.911   4.060   6.641
 3333SOL    HW110898   3.897   4.151   6.679
 3333SOL    HW210899   4.000   4.026   6.669
 3334SOL     OW10900   3.074   3.739   1.322
 3334SOL    HW110901   3.025   3.827   1.321
 3334SOL    HW210902   3.055   3.691   1.407
 3335SOL     OW10903   4.841   6.830   5.170
 3335SOL    HW110904   4.876   6.766   5.238
 3335SOL    HW210905   4.754   6.796   5.134
 3336SOL     OW10906   2.083   6.263   4.670
 3336SOL    HW110907   2.032   6.258   4.584
 3336SOL    HW210908   2.090   6.358   4.699
 3337SOL     OW10909   3.281   4.107   2.362
 3337SOL    HW110910   3.212   4.166   2.404
 3337SOL    HW210911   3.265   4.101   2.264
 3338SOL     OW10912   5.435   3.333   2.178
 3338SOL    HW110913   5.360   3.342   2.244
 3338SOL    HW210914   5.458   3.236   2.167
 3339SOL     OW10915   6.944   0.635   6.862
 3339SOL    HW110916   6.855   0.622   6.820
 3339SOL    HW210917   7.015   0.637   6.791
 3340SOL     OW10918   3.628   1.730   2.729
 3340SOL    HW110919   3.571   1.811   2.742
 3340SOL    HW210920   3.724   1.757   2.729
 3341SOL     OW10921   1.443   5.476   3.384
 3341SOL    HW110922   1.464   5.462   3.287
 3341SOL    HW210923   1.484   5.561   3.416
 3342SOL     OW10924   2.336   6.900   4.009
 3342SOL    HW110925   2.284   6.853   4.080
 3342SOL    HW210926   2.273   6.939   3.942
 3343SOL     OW10927   5.829   2.962   0.137
 3343SOL    HW110928   5.900   2.988   0.203
 3343SOL    HW210929   5.753   3.026   0.142
 3344SOL     OW10930   5.784   3.354   4.143
 3344SOL    HW110931   5.805   3.451   4.134
 3344SOL    HW210932   5.775   3.332   4.240
 3345SOL     OW10933   1.560   3.566   5.901
 3345SOL    HW110934   1.475   3.552   5.851
 3345SOL    HW210935   1.624   3.493   5.878
 3346SOL     OW10936   1.584   0.722   0.721
 3346SOL    HW110937   1.517   0.774   0.774
 3346SOL    HW210938   1.547   0.632   0.699
 3347SOL     OW10939   0.782   4.051   5.832
 3347SOL    HW110940   0.708   4.118   5.827
 3347SOL    HW210941   0.856   4.088   5.887
 3348SOL     OW10942   3.627   3.976   4.102
 3348SOL    HW110943   3.591   3.981   4.009
 3348SOL    HW210944   3.614   3.883   4.137
 3349SOL     OW10945   0.960   5.827   2.873
 3349SOL    HW110946   1.044   5.796   2.918
 3349SOL    HW210947   0.970   5.924   2.848
 3350SOL     OW10948   0.829   2.665   6.368
 3350SOL    HW110949   0.877   2.722   6.302
 3350SOL    HW210950   0.748   2.714   6.402
 3351SOL     OW10951   4.624   1.369   2.198
 3351SOL    HW110952   4.543   1.410   2.155
 3351SOL    HW210953   4.595   1.290   2.252
 3352SOL     OW10954   6.912   2.184   0.443
 3352SOL    HW110955   6.947   2.200   0.351
 3352SOL    HW210956   6.812   2.183   0.441
 3353SOL     OW10957   2.344   5.489   1.661
 3353SOL    HW110958   2.381   5.569   1.613
 3353SOL    HW210959   2.293   5.519   1.741
 3354SOL     OW10960   4.745   2.797   5.341
 3354SOL    HW110961   4.805   2.766   5.414
 3354SOL    HW210962   4.775   2.886   5.308
 3355SOL     OW10963   2.350   2.034   6.541
 3355SOL    HW110964   2.265   1.982   6.531
 3355SOL    HW210965   2.400   2.032   6.454
 3356SOL     OW10966   0.595   4.978   5.430
 3356SOL    HW110967   0.554   5.018   5.348
 3356SOL    HW210968   0.560   5.024   5.511
 3357SOL     OW10969   2.407   4.404   1.828
 3357SOL    HW110970   2.320   4.367   1.796
 3357SOL    HW210971   2.483   4.358   1.781
 3358SOL     OW10972   4.554   1.240   0.805
 3358SOL    HW110973   4.646   1.276   0.821
 3358SOL    HW210974   4.526   1.260   0.711
 3359SOL     OW10975   0.235   6.793   2.865
 3359SOL    HW110976   0.234   6.855   2.943
 3359SOL    HW210977   0.194   6.705   2.891
 3360SOL     OW10978   1.177   1.476   6.809
 3360SOL    HW110979   1.205   1.503   6.901
 3360SOL    HW210980   1.229   1.529   6.742
 3361SOL     OW10981   0.990   4.982   4.187
 3361SOL    HW110982   1.079   4.936   4.177
 3361SOL    HW210983   0.985   5.024   4.278
 3362SOL     OW10984   3.732   1.078   2.628
 3362SOL    HW110985   3.698   1.159   2.581
 3362SOL    HW210986   3.716   1.088   2.726
 3363SOL     OW10987   6.153   6.996   1.605
 3363SOL    HW110988   6.157   0.043   1.533
 3363SOL    HW210989   6.234   6.937   1.599
 3364SOL     OW10990   1.041   4.774   3.625
 3364SOL    HW110991   1.080   4.748   3.536
 3364SOL    HW210992   1.111   4.821   3.679
 3365SOL     OW10993   6.705   2.319   5.414
 3365SOL    HW110994   6.636   2.247   5.421
 3365SOL    HW210995   6.692   2.370   5.330
 3366SOL     OW10996   5.768   6.312   4.711
 3366SOL    HW110997   5.807   6.228   4.748
 3366SOL    HW210998   5.757   6.379   4.785
 3367SOL     OW10999   3.504   2.863   2.130
 3367SOL    HW111000   3.522   2.773   2.169
 3367SOL    HW211001   3.579   2.925   2.153
 3368SOL     OW11002   0.789   5.379   5.551
 3368SOL    HW111003   0.757   5.307   5.491
 3368SOL    HW211004   0.752   5.366   5.643
 3369SOL     OW11005   4.038   2.609   6.965
 3369SOL    HW111006   4.047   2.510   6.950
 3369SOL    HW211007   4.129   2.650   6.966
 3370SOL     OW11008   0.034   5.901   6.735
 3370SOL    HW111009   0.120   5.868   6.695
 3370SOL    HW211010   0.030   5.874   6.831
 3371SOL     OW11011   2.097   2.989   2.100
 3371SOL    HW111012   2.125   3.071   2.150
 3371SOL    HW211013   2.131   2.993   2.006
 3372SOL     OW11014   0.672   2.363   1.164
 3372SOL    HW111015   0.620   2.337   1.083
 3372SOL    HW211016   0.728   2.286   1.194
 3373SOL     OW11017   6.733   1.662   3.076
 3373SOL    HW111018   6.818   1.615   3.053
 3373SOL    HW211019   6.749   1.760   3.081
 3374SOL     OW11020   1.199   6.467   4.862
 3374SOL    HW111021   1.179   6.492   4.768
 3374SOL    HW211022   1.290   6.501   4.888
 3375SOL     OW11023   0.246   4.918   6.387
 3375SOL    HW111024   0.331   4.966   6.407
 3375SOL    HW211025   0.168   4.973   6.416
 3376SOL     OW11026   4.127   3.544   3.409
 3376SOL    HW111027   4.105   3.447   3.398
 3376SOL    HW211028   4.103   3.573   3.502
 3377SOL     OW11029   6.743   5.881   6.445
 3377SOL    HW111030   6.707   5.928   6.364
 3377SOL    HW211031   6.804   5.942   6.495
 3378SOL     OW11032   0.516   1.059   0.103
 3378SOL    HW111033   0.610   1.079   0.077
 3378SOL    HW211034   0.498   1.094   0.195
 3379SOL     OW11035   6.360   6.806   6.042
 3379SOL    HW111036   6.407   6.790   5.955
 3379SOL    HW211037   6.399   6.887   6.087
 3380SOL     OW11038   5.877   6.764   4.822
 3380SOL    HW111039   5.965   6.766   4.775
 3380SOL    HW211040   5.872   6.840   4.887
 3381SOL     OW11041   0.796   2.773   1.535
 3381SOL    HW111042   0.757   2.800   1.447
 3381SOL    HW211043   0.725   2.731   1.592
 3382SOL     OW11044   0.686   2.577   0.884
 3382SOL    HW111045   0.638   2.490   0.883
 3382SOL    HW211046   0.775   2.565   0.929
 3383SOL     OW11047   4.661   5.869   1.436
 3383SOL    HW111048   4.577   5.815   1.449
 3383SOL    HW211049   4.696   5.853   1.343
 3384SOL     OW11050   2.642   3.189   6.186
 3384SOL    HW111051   2.572   3.183   6.115
 3384SOL    HW211052   2.598   3.198   6.275
 3385SOL     OW11053   6.634   2.726   4.100
 3385SOL    HW111054   6.595   2.634   4.107
 3385SOL    HW211055   6.576   2.791   4.150
 3386SOL     OW11056   5.846   4.577   0.075
 3386SOL    HW111057   5.834   4.494   0.129
 3386SOL    HW211058   5.759   4.625   0.068
 3387SOL     OW11059   3.176   0.666   3.237
 3387SOL    HW111060   3.238   0.644   3.162
 3387SOL    HW211061   3.224   0.722   3.305
 3388SOL     OW11062   5.354   3.132   1.590
 3388SOL    HW111063   5.423   3.075   1.545
 3388SOL    HW211064   5.395   3.219   1.616
 3389SOL     OW11065   5.612   4.942   6.309
 3389SOL    HW111066   5.684   4.976   6.247
 3389SOL    HW211067   5.630   4.847   6.331
 3390SOL     OW11068   5.057   6.090   6.526
 3390SOL    HW111069   5.118   6.044   6.590
 3390SOL    HW211070   5.087   6.184   6.513
 3391SOL     OW11071   5.152   3.420   5.014
 3391SOL    HW111072   5.188   3.338   4.970
 3391SOL    HW211073   5.074   3.396   5.071
 3392SOL     OW11074   2.576   0.287   3.330
 3392SOL    HW111075   2.638   0.357   3.294
 3392SOL    HW211076   2.583   0.204   3.274
 3393SOL     OW11077   0.135   6.299   6.832
 3393SOL    HW111078   0.208   6.271   6.769
 3393SOL    HW211079   0.068   6.354   6.782
 3394SOL     OW11080   5.087   3.649   1.781
 3394SOL    HW111081   5.156   3.698   1.834
 3394SOL    HW211082   5.025   3.600   1.843
 3395SOL     OW11083   5.163   3.052   3.281
 3395SOL    HW111084   5.165   3.150   3.298
 3395SOL    HW211085   5.159   3.003   3.368
 3396SOL     OW11086   4.330   1.983   3.144
 3396SOL    HW111087   4.398   2.026   3.204
 3396SOL    HW211088   4.328   1.885   3.162
 3397SOL     OW11089   2.817   0.394   5.524
 3397SOL    HW111090   2.723   0.361   5.520
 3397SOL    HW211091   2.817   0.494   5.522
 3398SOL     OW11092   0.747   6.902   4.868
 3398SOL    HW111093   0.723   6.814   4.826
 3398SOL    HW211094   0.845   6.905   4.887
 3399SOL     OW11095   5.694   4.049   3.867
 3399SOL    HW111096   5.718   3.959   3.901
 3399SOL    HW211097   5.771   4.112   3.880
 3400SOL     OW11098   4.707   3.187   5.835
 3400SOL    HW111099   4.667   3.254   5.773
 3400SOL    HW211100   4.722   3.101   5.785
 3401SOL     OW11101   0.039   3.061   1.161
 3401SOL    HW111102   0.082   3.031   1.076
 3401SOL    HW211103   0.099   3.037   1.238
 3402SOL     OW11104   3.858   5.570   6.887
 3402SOL    HW111105   3.837   5.594   6.982
 3402SOL    HW211106   3.779   5.590   6.829
 3403SOL     OW11107   3.461   5.526   4.842
 3403SOL    HW111108   3.555   5.531   4.874
 3403SOL    HW211109   3.412   5.609   4.869
 3404SOL     OW11110   4.903   0.918   0.002
 3404SOL    HW111111   4.891   0.995   6.961
 3404SOL    HW211112   4.884   0.833   6.977
 3405SOL     OW11113   6.692   3.713   4.900
 3405SOL    HW111114   6.612   3.756   4.941
 3405SOL    HW211115   6.739   3.658   4.969
 3406SOL     OW11116   1.098   4.347   1.746
 3406SOL    HW111117   1.109   4.428   1.689
 3406SOL    HW211118   1.097   4.373   1.842
 3407SOL     OW11119   1.538   4.956   6.411
 3407SOL    HW111120   1.618   5.008   6.379
 3407SOL    HW211121   1.471   5.019   6.450
 3408SOL     OW11122   4.986   3.951   5.137
 3408SOL    HW111123   4.989   4.032   5.078
 3408SOL    HW211124   4.939   3.877   5.089
 3409SOL     OW11125   3.192   6.724   6.476
 3409SOL    HW111126   3.159   6.797   6.536
 3409SOL    HW211127   3.274   6.683   6.516
 3410SOL     OW11128   6.484   6.685   1.088
 3410SOL    HW111129   6.426   6.765   1.072
 3410SOL    HW211130   6.488   6.666   1.186
 3411SOL     OW11131   0.522   3.176   1.904
 3411SOL    HW111132   0.606   3.221   1.873
 3411SOL    HW211133   0.531   3.077   1.893
 3412SOL     OW11134   4.438   2.811   0.488
 3412SOL    HW111135   4.341   2.812   0.465
 3412SOL    HW211136   4.455   2.872   0.565
 3413SOL     OW11137   5.954   1.383   0.898
 3413SOL    HW111138   5.963   1.444   0.820
 3413SOL    HW211139   6.045   1.366   0.937
 3414SOL     OW11140   3.806   0.992   5.387
 3414SOL    HW111141   3.796   0.909   5.334
 3414SOL    HW211142   3.900   1.026   5.380
 3415SOL     OW11143   1.931   3.776   5.003
 3415SOL    HW111144   1.979   3.846   5.055
 3415SOL    HW211145   1.996   3.727   4.945
 3416SOL     OW11146   6.798   5.674   0.952
 3416SOL    HW111147   6.831   5.609   0.883
 3416SOL    HW211148   6.699   5.665   0.962
 3417SOL     OW11149   0.601   6.419   2.894
 3417SOL    HW111150   0.545   6.351   2.941
 3417SOL    HW211151   0.665   6.460   2.959
 3418SOL     OW11152   3.284   6.950   3.681
 3418SOL    HW111153   3.208   7.013   3.663
 3418SOL    HW211154   3.346   6.949   3.603
 3419SOL     OW11155   2.763   6.409   5.112
 3419SOL    HW111156   2.804   6.467   5.183
 3419SOL    HW211157   2.702   6.465   5.055
 3420SOL     OW11158   5.711   3.043   4.294
 3420SOL    HW111159   5.672   3.072   4.206
 3420SOL    HW211160   5.642   3.050   4.366
 3421SOL     OW11161   5.204   1.019   4.959
 3421SOL    HW111162   5.247   0.983   4.876
 3421SOL    HW211163   5.212   0.951   5.033
 3422SOL     OW11164   1.922   0.702   0.919
 3422SOL    HW111165   1.856   0.722   0.992
 3422SOL    HW211166   2.006   0.665   0.959
 3423SOL     OW11167   7.022   4.611   6.168
 3423SOL    HW111168   7.019   4.646   6.074
 3423SOL    HW211169   7.020   4.511   6.166
 3424SOL     OW11170   2.882   6.505   1.336
 3424SOL    HW111171   2.860   6.492   1.433
 3424SOL    HW211172   2.981   6.511   1.325
 3425SOL     OW11173   5.732   5.060   2.873
 3425SOL    HW111174   5.783   5.145   2.878
 3425SOL    HW211175   5.783   4.987   2.919
 3426SOL     OW11176   3.754   2.513   0.492
 3426SOL    HW111177   3.760   2.583   0.421
 3426SOL    HW211178   3.673   2.529   0.549
 3427SOL     OW11179   6.568   0.750   0.185
 3427SOL    HW111180   6.662   0.721   0.167
 3427SOL    HW211181   6.526   0.688   0.252
 3428SOL     OW11182   2.110   5.465   6.932
 3428SOL    HW111183   2.096   5.416   6.846
 3428SOL    HW211184   2.105   5.399   7.008
 3429SOL     OW11185   0.800   1.847   0.536
 3429SOL    HW111186   0.739   1.803   0.470
 3429SOL    HW211187   0.769   1.827   0.629
 3430SOL     OW11188   1.450   6.793   5.473
 3430SOL    HW111189   1.434   6.863   5.542
 3430SOL    HW211190   1.367   6.737   5.463
 3431SOL     OW11191   1.352   6.710   1.152
 3431SOL    HW111192   1.376   6.760   1.069
 3431SOL    HW211193   1.347   6.612   1.132
 3432SOL     OW11194   1.540   2.921   0.027
 3432SOL    HW111195   1.590   2.835   0.025
 3432SOL    HW211196   1.560   2.974   6.967
 3433SOL     OW11197   1.191   0.154   5.842
 3433SOL    HW111198   1.277   0.182   5.799
 3433SOL    HW211199   1.114   0.189   5.789
 3434SOL     OW11200   4.270   1.138   1.308
 3434SOL    HW111201   4.268   1.218   1.369
 3434SOL    HW211202   4.311   1.164   1.221
 3435SOL     OW11203   0.296   1.469   0.839
 3435SOL    HW111204   0.363   1.419   0.785
 3435SOL    HW211205   0.242   1.405   0.894
 3436SOL     OW11206   4.282   6.074   6.524
 3436SOL    HW111207   4.187   6.067   6.552
 3436SOL    HW211208   4.341   6.037   6.596
 3437SOL     OW11209   2.289   0.603   5.903
 3437SOL    HW111210   2.287   0.503   5.908
 3437SOL    HW211211   2.308   0.630   5.808
 3438SOL     OW11212   1.229   2.880   0.431
 3438SOL    HW111213   1.245   2.869   0.333
 3438SOL    HW211214   1.192   2.794   0.468
 3439SOL     OW11215   2.320   6.170   4.782
 3439SOL    HW111216   2.238   6.194   4.730
 3439SOL    HW211217   2.401   6.180   4.724
 3440SOL     OW11218   3.172   3.567   1.156
 3440SOL    HW111219   3.150   3.629   1.232
 3440SOL    HW211220   3.186   3.475   1.192
 3441SOL     OW11221   5.289   6.495   5.006
 3441SOL    HW111222   5.203   6.522   4.964
 3441SOL    HW211223   5.365   6.517   4.945
 3442SOL     OW11224   2.228   4.939   2.175
 3442SOL    HW111225   2.237   5.034   2.148
 3442SOL    HW211226   2.139   4.904   2.147
 3443SOL     OW11227   4.773   6.135   1.407
 3443SOL    HW111228   4.733   6.047   1.432
 3443SOL    HW211229   4.760   6.151   1.309
 3444SOL     OW11230   4.993   5.227   0.253
 3444SOL    HW111231   4.961   5.244   0.346
 3444SOL    HW211232   5.050   5.304   0.223
 3445SOL     OW11233   6.512   5.536   3.326
 3445SOL    HW111234   6.561   5.617   3.358
 3445SOL    HW211235   6.549   5.507   3.238
 3446SOL     OW11236   6.244   0.989   2.941
 3446SOL    HW111237   6.288   1.048   2.873
 3446SOL    HW211238   6.288   1.001   3.030
 3447SOL     OW11239   6.240   5.331   0.784
 3447SOL    HW111240   6.228   5.235   0.761
 3447SOL    HW211241   6.333   5.346   0.817
 3448SOL     OW11242   3.391   0.728   0.258
 3448SOL    HW111243   3.478   0.678   0.253
 3448SOL    HW211244   3.328   0.680   0.318
 3449SOL     OW11245   5.931   6.535   4.150
 3449SOL    HW111246   5.868   6.610   4.126
 3449SOL    HW211247   5.926   6.464   4.080
 3450SOL     OW11248   6.892   2.525   6.448
 3450SOL    HW111249   6.889   2.482   6.357
 3450SOL    HW211250   6.799   2.552   6.474
 3451SOL     OW11251   2.207   5.937   1.164
 3451SOL    HW111252   2.290   5.989   1.144
 3451SOL    HW211253   2.217   5.843   1.132
 3452SOL     OW11254   6.222   0.717   5.968
 3452SOL    HW111255   6.199   0.682   5.877
 3452SOL    HW211256   6.139   0.719   6.024
 3453SOL     OW11257   6.828   5.718   6.663
 3453SOL    HW111258   6.912   5.769   6.681
 3453SOL    HW211259   6.791   5.744   6.574
 3454SOL     OW11260   0.921   2.370   5.462
 3454SOL    HW111261   0.841   2.346   5.516
 3454SOL    HW211262   0.997   2.392   5.522
 3455SOL     OW11263   2.573   2.230   4.749
 3455SOL    HW111264   2.570   2.149   4.690
 3455SOL    HW211265   2.481   2.269   4.756
 3456SOL     OW11266   5.801   5.697   2.063
 3456SOL    HW111267   5.815   5.764   2.136
 3456SOL    HW211268   5.848   5.612   2.085
 3457SOL     OW11269   2.959   5.108   3.338
 3457SOL    HW111270   3.054   5.095   3.369
 3457SOL    HW211271   2.911   5.021   3.342
 3458SOL     OW11272   4.964   0.812   2.060
 3458SOL    HW111273   5.032   0.851   1.998
 3458SOL    HW211274   4.927   0.884   2.118
 3459SOL     OW11275   5.469   3.260   3.397
 3459SOL    HW111276   5.414   3.236   3.478
 3459SOL    HW211277   5.513   3.348   3.411
 3460SOL     OW11278   2.350   3.185   6.986
 3460SOL    HW111279   2.310   3.176   6.895
 3460SOL    HW211280   2.441   3.143   6.987
 3461SOL     OW11281   4.900   5.164   5.065
 3461SOL    HW111282   4.806   5.141   5.041
 3461SOL    HW211283   4.958   5.153   4.984
 3462SOL     OW11284   0.175   4.111   3.079
 3462SOL    HW111285   0.112   4.041   3.113
 3462SOL    HW211286   0.224   4.076   2.999
 3463SOL     OW11287   1.040   3.843   2.451
 3463SOL    HW111288   1.051   3.942   2.456
 3463SOL    HW211289   1.130   3.800   2.441
 3464SOL     OW11290   6.407   4.074   6.394
 3464SOL    HW111291   6.397   4.095   6.297
 3464SOL    HW211292   6.342   4.002   6.420
 3465SOL     OW11293   1.538   2.270   2.240
 3465SOL    HW111294   1.513   2.366   2.223
 3465SOL    HW211295   1.480   2.211   2.184
 3466SOL     OW11296   0.319   4.640   0.325
 3466SOL    HW111297   0.308   4.719   0.386
 3466SOL    HW211298   0.401   4.589   0.352
 3467SOL     OW11299   1.748   2.789   0.242
 3467SOL    HW111300   1.823   2.743   0.289
 3467SOL    HW211301   1.663   2.774   0.293
 3468SOL     OW11302   4.880   6.405   2.635
 3468SOL    HW111303   4.975   6.436   2.639
 3468SOL    HW211304   4.828   6.451   2.707
 3469SOL     OW11305   5.427   0.497   2.597
 3469SOL    HW111306   5.468   0.581   2.633
 3469SOL    HW211307   5.391   0.442   2.673
 3470SOL     OW11308   6.097   3.322   1.164
 3470SOL    HW111309   6.000   3.341   1.182
 3470SOL    HW211310   6.145   3.313   1.251
 3471SOL     OW11311   3.907   5.169   4.441
 3471SOL    HW111312   3.927   5.263   4.412
 3471SOL    HW211313   3.921   5.162   4.540
 3472SOL     OW11314   2.729   0.490   2.413
 3472SOL    HW111315   2.688   0.579   2.395
 3472SOL    HW211316   2.797   0.498   2.486
 3473SOL     OW11317   6.899   2.217   1.322
 3473SOL    HW111318   6.948   2.241   1.405
 3473SOL    HW211319   6.962   2.177   1.256
 3474SOL     OW11320   1.351   4.643   1.678
 3474SOL    HW111321   1.403   4.727   1.663
 3474SOL    HW211322   1.256   4.665   1.701
 3475SOL     OW11323   0.748   4.797   4.156
 3475SOL    HW111324   0.767   4.704   4.188
 3475SOL    HW211325   0.833   4.841   4.129
 3476SOL     OW11326   3.022   1.286   3.331
 3476SOL    HW111327   3.026   1.352   3.405
 3476SOL    HW211328   3.017   1.334   3.243
 3477SOL     OW11329   2.740   5.325   0.925
 3477SOL    HW111330   2.708   5.364   0.839
 3477SOL    HW211331   2.756   5.227   0.914
 3478SOL     OW11332   2.630   5.607   5.113
 3478SOL    HW111333   2.625   5.700   5.076
 3478SOL    HW211334   2.538   5.569   5.118
 3479SOL     OW11335   1.630   0.523   3.090
 3479SOL    HW111336   1.678   0.459   3.150
 3479SOL    HW211337   1.534   0.529   3.118
 3480SOL     OW11338   0.675   6.960   5.158
 3480SOL    HW111339   0.683   6.919   5.067
 3480SOL    HW211340   0.658   6.888   5.226
 3481SOL     OW11341   4.752   0.352   0.464
 3481SOL    HW111342   4.783   0.323   0.374
 3481SOL    HW211343   4.682   0.289   0.497
 3482SOL     OW11344   5.206   1.282   1.738
 3482SOL    HW111345   5.135   1.212   1.732
 3482SOL    HW211346   5.230   1.297   1.834
 3483SOL     OW11347   4.631   1.806   1.032
 3483SOL    HW111348   4.605   1.721   0.986
 3483SOL    HW211349   4.585   1.812   1.121
 3484SOL     OW11350   1.188   3.577   0.065
 3484SOL    HW111351   1.163   3.654   0.006
 3484SOL    HW211352   1.124   3.502   0.052
 3485SOL     OW11353   1.934   1.433   4.805
 3485SOL    HW111354   1.913   1.402   4.898
 3485SOL    HW211355   1.872   1.507   4.779
 3486SOL     OW11356   2.987   0.799   2.971
 3486SOL    HW111357   2.952   0.779   3.062
 3486SOL    HW211358   2.916   0.780   2.903
 3487SOL     OW11359   5.350   2.873   5.489
 3487SOL    HW111360   5.252   2.857   5.505
 3487SOL    HW211361   5.403   2.828   5.560
 3488SOL     OW11362   6.252   1.773   4.336
 3488SOL    HW111363   6.216   1.815   4.419
 3488SOL    HW211364   6.188   1.789   4.260
 3489SOL     OW11365   3.752   0.235   1.246
 3489SOL    HW111366   3.815   0.259   1.172
 3489SOL    HW211367   3.658   0.242   1.213
 3490SOL     OW11368   4.320   4.194   0.199
 3490SOL    HW111369   4.234   4.174   0.152
 3490SOL    HW211370   4.302   4.212   0.296
 3491SOL     OW11371   4.934   2.590   4.918
 3491SOL    HW111372   4.867   2.641   4.973
 3491SOL    HW211373   5.026   2.605   4.954
 3492SOL     OW11374   0.365   5.207   1.114
 3492SOL    HW111375   0.361   5.185   1.017
 3492SOL    HW211376   0.456   5.243   1.136
 3493SOL     OW11377   5.588   4.515   6.781
 3493SOL    HW111378   5.537   4.492   6.699
 3493SOL    HW211379   5.664   4.451   6.792
 3494SOL     OW11380   3.968   0.648   1.152
 3494SOL    HW111381   3.871   0.665   1.172
 3494SOL    HW211382   3.980   0.551   1.132
 3495SOL     OW11383   5.241   5.286   2.952
 3495SOL    HW111384   5.218   5.373   2.996
 3495SOL    HW211385   5.334   5.290   2.916
 3496SOL     OW11386   6.426   4.395   0.631
 3496SOL    HW111387   6.401   4.299   0.618
 3496SOL    HW211388   6.525   4.401   0.644
 3497SOL     OW11389   3.566   0.852   3.758
 3497SOL    HW111390   3.658   0.891   3.768
 3497SOL    HW211391   3.498   0.921   3.784
 3498SOL     OW11392   2.509   2.300   0.747
 3498SOL    HW111393   2.459   2.318   0.831
 3498SOL    HW211394   2.464   2.345   0.670
 3499SOL     OW11395   4.940   3.337   4.443
 3499SOL    HW111396   4.957   3.420   4.497
 3499SOL    HW211397   4.901   3.266   4.502
 3500SOL     OW11398   1.714   3.214   4.657
 3500SOL    HW111399   1.775   3.276   4.706
 3500SOL    HW211400   1.682   3.258   4.573
 3501SOL     OW11401   1.932   5.878   4.653
 3501SOL    HW111402   1.975   5.938   4.586
 3501SOL    HW211403   1.975   5.788   4.650
 3502SOL     OW11404   6.267   2.695   2.617
 3502SOL    HW111405   6.291   2.775   2.561
 3502SOL    HW211406   6.214   2.631   2.562
 3503SOL     OW11407   6.669   6.335   4.554
 3503SOL    HW111408   6.591   6.395   4.574
 3503SOL    HW211409   6.649   6.243   4.589
 3504SOL     OW11410   1.687   2.024   1.396
 3504SOL    HW111411   1.643   2.075   1.469
 3504SOL    HW211412   1.777   2.062   1.377
 3505SOL     OW11413   5.604   4.786   5.088
 3505SOL    HW111414   5.515   4.799   5.045
 3505SOL    HW211415   5.602   4.703   5.145
 3506SOL     OW11416   5.168   5.129   5.995
 3506SOL    HW111417   5.223   5.197   6.044
 3506SOL    HW211418   5.109   5.082   6.061
 3507SOL     OW11419   1.528   1.107   0.233
 3507SOL    HW111420   1.469   1.041   0.186
 3507SOL    HW211421   1.475   1.190   0.252
 3508SOL     OW11422   3.172   2.474   6.080
 3508SOL    HW111423   3.190   2.476   5.982
 3508SOL    HW211424   3.078   2.443   6.096
 3509SOL     OW11425   6.153   0.090   5.535
 3509SOL    HW111426   6.145   0.052   5.628
 3509SOL    HW211427   6.242   0.134   5.524
 3510SOL     OW11428   1.636   2.728   1.920
 3510SOL    HW111429   1.563   2.775   1.969
 3510SOL    HW211430   1.660   2.644   1.969
 3511SOL     OW11431   3.173   5.113   0.505
 3511SOL    HW111432   3.134   5.042   0.564
 3511SOL    HW211433   3.269   5.092   0.487
 3512SOL     OW11434   0.549   4.930   0.575
 3512SOL    HW111435   0.597   4.950   0.661
 3512SOL    HW211436   0.591   4.983   0.501
 3513SOL     OW11437   6.579   3.234   0.734
 3513SOL    HW111438   6.551   3.258   0.827
 3513SOL    HW211439   6.546   3.141   0.713
 3514SOL     OW11440   0.981   1.472   2.090
 3514SOL    HW111441   1.079   1.483   2.074
 3514SOL    HW211442   0.940   1.421   2.014
 3515SOL     OW11443   4.962   6.002   3.270
 3515SOL    HW111444   4.967   6.080   3.207
 3515SOL    HW211445   5.010   5.924   3.230
 3516SOL     OW11446   4.910   6.961   0.985
 3516SOL    HW111447   4.971   7.019   0.930
 3516SOL    HW211448   4.953   6.941   1.073
 3517SOL     OW11449   1.025   2.248   1.015
 3517SOL    HW111450   0.985   2.257   0.924
 3517SOL    HW211451   0.953   2.226   1.081
 3518SOL     OW11452   5.694   3.496   4.641
 3518SOL    HW111453   5.616   3.490   4.579
 3518SOL    HW211454   5.756   3.568   4.611
 3519SOL     OW11455   0.993   1.079   6.123
 3519SOL    HW111456   1.079   1.087   6.172
 3519SOL    HW211457   0.978   1.160   6.067
 3520SOL     OW11458   3.232   5.091   6.361
 3520SOL    HW111459   3.308   5.045   6.408
 3520SOL    HW211460   3.250   5.092   6.263
 3521SOL     OW11461   5.330   2.964   6.582
 3521SOL    HW111462   5.258   2.897   6.597
 3521SOL    HW211463   5.292   3.044   6.535
 3522SOL     OW11464   6.559   4.458   1.945
 3522SOL    HW111465   6.600   4.476   2.034
 3522SOL    HW211466   6.535   4.362   1.937
 3523SOL     OW11467   3.113   4.937   6.015
 3523SOL    HW111468   3.016   4.915   6.022
 3523SOL    HW211469   3.165   4.883   6.081
 3524SOL     OW11470   3.691   0.924   1.134
 3524SOL    HW111471   3.766   0.989   1.123
 3524SOL    HW211472   3.606   0.974   1.150
 3525SOL     OW11473   1.030   4.136   2.547
 3525SOL    HW111474   0.971   4.208   2.512
 3525SOL    HW211475   1.125   4.157   2.524
 3526SOL     OW11476   2.479   6.089   4.101
 3526SOL    HW111477   2.520   6.061   4.014
 3526SOL    HW211478   2.392   6.136   4.084
 3527SOL     OW11479   6.213   3.231   6.108
 3527SOL    HW111480   6.275   3.178   6.051
 3527SOL    HW211481   6.245   3.326   6.111
 3528SOL     OW11482   0.441   4.770   3.896
 3528SOL    HW111483   0.436   4.823   3.981
 3528SOL    HW211484   0.523   4.795   3.846
 3529SOL     OW11485   4.531   0.076   0.143
 3529SOL    HW111486   4.482   7.012   0.130
 3529SOL    HW211487   4.464   0.151   0.146
 3530SOL     OW11488   1.693   5.096   3.485
 3530SOL    HW111489   1.678   5.186   3.445
 3530SOL    HW211490   1.763   5.047   3.433
 3531SOL     OW11491   4.994   3.538   0.971
 3531SOL    HW111492   4.940   3.468   1.018
 3531SOL    HW211493   5.043   3.497   0.895
 3532SOL     OW11494   2.705   0.876   1.330
 3532SOL    HW111495   2.733   0.841   1.419
 3532SOL    HW211496   2.645   0.956   1.343
 3533SOL     OW11497   1.918   1.512   2.566
 3533SOL    HW111498   1.939   1.608   2.549
 3533SOL    HW211499   1.908   1.463   2.480
 3534SOL     OW11500   5.481   1.031   5.262
 3534SOL    HW111501   5.572   1.023   5.220
 3534SOL    HW211502   5.419   0.965   5.221
 3535SOL     OW11503   0.984   5.447   0.318
 3535SOL    HW111504   0.973   5.539   0.280
 3535SOL    HW211505   0.927   5.383   0.267
 3536SOL     OW11506   2.426   2.232   4.108
 3536SOL    HW111507   2.441   2.155   4.047
 3536SOL    HW211508   2.328   2.251   4.116
 3537SOL     OW11509   2.884   5.086   0.649
 3537SOL    HW111510   2.860   5.170   0.599
 3537SOL    HW211511   2.881   5.104   0.747
 3538SOL     OW11512   1.046   0.684   6.100
 3538SOL    HW111513   1.011   0.708   6.191
 3538SOL    HW211514   0.979   0.708   6.031
 3539SOL     OW11515   5.897   3.847   6.141
 3539SOL    HW111516   5.972   3.834   6.077
 3539SOL    HW211517   5.933   3.854   6.234
 3540SOL     OW11518   1.582   2.636   5.935
 3540SOL    HW111519   1.538   2.556   5.894
 3540SOL    HW211520   1.601   2.704   5.864
 3541SOL     OW11521   2.129   3.244   6.732
 3541SOL    HW111522   2.064   3.240   6.807
 3541SOL    HW211523   2.134   3.155   6.687
 3542SOL     OW11524   0.853   4.664   1.851
 3542SOL    HW111525   0.792   4.599   1.896
 3542SOL    HW211526   0.803   4.747   1.826
 3543SOL     OW11527   0.843   3.693   5.457
 3543SOL    HW111528   0.883   3.698   5.365
 3543SOL    HW211529   0.763   3.752   5.462
 3544SOL     OW11530   2.643   5.006   6.507
 3544SOL    HW111531   2.594   5.094   6.503
 3544SOL    HW211532   2.733   5.017   6.465
 3545SOL     OW11533   4.252   5.190   0.052
 3545SOL    HW111534   4.162   5.217   0.018
 3545SOL    HW211535   4.249   5.094   0.081
 3546SOL     OW11536   0.482   4.723   3.042
 3546SOL    HW111537   0.561   4.751   2.987
 3546SOL    HW211538   0.503   4.637   3.089
 3547SOL     OW11539   6.158   5.430   4.958
 3547SOL    HW111540   6.142   5.527   4.942
 3547SOL    HW211541   6.178   5.385   4.871
 3548SOL     OW11542   4.957   0.394   5.952
 3548SOL    HW111543   5.044   0.396   5.903
 3548SOL    HW211544   4.952   0.473   6.013
 3549SOL     OW11545   0.010   5.164   5.824
 3549SOL    HW111546   0.018   5.260   5.851
 3549SOL    HW211547   6.951   5.152   5.767
 3550SOL     OW11548   5.884   2.841   3.740
 3550SOL    HW111549   5.943   2.901   3.685
 3550SOL    HW211550   5.814   2.800   3.680
 3551SOL     OW11551   3.559   2.136   3.312
 3551SOL    HW111552   3.510   2.147   3.398
 3551SOL    HW211553   3.499   2.162   3.236
 3552SOL     OW11554   6.333   6.616   1.729
 3552SOL    HW111555   6.240   6.642   1.703
 3552SOL    HW211556   6.333   6.523   1.767
 3553SOL     OW11557   4.430   5.248   0.604
 3553SOL    HW111558   4.368   5.178   0.569
 3553SOL    HW211559   4.478   5.292   0.528
 3554SOL     OW11560   4.399   1.207   1.070
 3554SOL    HW111561   4.439   1.190   0.980
 3554SOL    HW211562   4.433   1.294   1.106
 3555SOL     OW11563   0.278   4.019   4.229
 3555SOL    HW111564   0.264   4.118   4.228
 3555SOL    HW211565   0.338   3.993   4.153
 3556SOL     OW11566   4.272   1.141   4.655
 3556SOL    HW111567   4.234   1.229   4.625
 3556SOL    HW211568   4.203   1.093   4.710
 3557SOL     OW11569   0.853   0.934   4.124
 3557SOL    HW111570   0.769   0.948   4.073
 3557SOL    HW211571   0.855   0.842   4.162
 3558SOL     OW11572   1.508   6.256   2.396
 3558SOL    HW111573   1.478   6.328   2.333
 3558SOL    HW211574   1.598   6.222   2.367
 3559SOL     OW11575   0.493   6.781   5.342
 3559SOL    HW111576   0.539   6.823   5.420
 3559SOL    HW211577   0.394   6.782   5.358
 3560SOL     OW11578   1.946   5.762   2.608
 3560SOL    HW111579   2.006   5.801   2.678
 3560SOL    HW211580   1.853   5.795   2.622
 3561SOL     OW11581   4.497   4.328   5.248
 3561SOL    HW111582   4.402   4.329   5.217
 3561SOL    HW211583   4.556   4.361   5.175
 3562SOL     OW11584   3.576   1.247   2.841
 3562SOL    HW111585   3.623   1.335   2.837
 3562SOL    HW211586   3.573   1.215   2.936
 3563SOL     OW11587   6.281   2.374   0.732
 3563SOL    HW111588   6.314   2.352   0.823
 3563SOL    HW211589   6.325   2.315   0.665
 3564SOL     OW11590   1.384   4.534   3.150
 3564SOL    HW111591   1.369   4.435   3.152
 3564SOL    HW211592   1.296   4.581   3.157
 3565SOL     OW11593   3.027   6.441   4.872
 3565SOL    HW111594   2.939   6.399   4.851
 3565SOL    HW211595   3.074   6.465   4.787
 3566SOL     OW11596   6.591   3.397   6.131
 3566SOL    HW111597   6.549   3.411   6.221
 3566SOL    HW211598   6.689   3.416   6.136
 3567SOL     OW11599   0.438   2.045   5.970
 3567SOL    HW111600   0.349   2.055   6.016
 3567SOL    HW211601   0.508   2.025   6.038
 3568SOL     OW11602   4.688   4.241   3.818
 3568SOL    HW111603   4.601   4.203   3.848
 3568SOL    HW211604   4.682   4.341   3.814
 3569SOL     OW11605   2.587   1.580   6.167
 3569SOL    HW111606   2.665   1.643   6.167
 3569SOL    HW211607   2.604   1.506   6.102
 3570SOL     OW11608   5.375   0.956   5.685
 3570SOL    HW111609   5.320   0.873   5.673
 3570SOL    HW211610   5.336   1.030   5.631
 3571SOL     OW11611   0.533   5.053   4.644
 3571SOL    HW111612   0.624   5.080   4.613
 3571SOL    HW211613   0.477   5.134   4.661
 3572SOL     OW11614   5.839   3.518   3.180
 3572SOL    HW111615   5.840   3.453   3.104
 3572SOL    HW211616   5.745   3.547   3.197
 3573SOL     OW11617   0.492   5.607   3.383
 3573SOL    HW111618   0.405   5.633   3.342
 3573SOL    HW211619   0.476   5.568   3.474
 3574SOL     OW11620   0.521   3.644   0.633
 3574SOL    HW111621   0.452   3.687   0.692
 3574SOL    HW211622   0.611   3.677   0.659
 3575SOL     OW11623   5.108   5.255   2.536
 3575SOL    HW111624   5.166   5.335   2.519
 3575SOL    HW211625   5.087   5.210   2.449
 3576SOL     OW11626   7.018   1.924   5.997
 3576SOL    HW111627   6.977   1.915   6.088
 3576SOL    HW211628   6.946   1.938   5.929
 3577SOL     OW11629   1.641   1.903   6.042
 3577SOL    HW111630   1.549   1.923   6.076
 3577SOL    HW211631   1.644   1.918   5.943
 3578SOL     OW11632   3.589   1.983   0.735
 3578SOL    HW111633   3.583   2.076   0.699
 3578SOL    HW211634   3.547   1.979   0.826
 3579SOL     OW11635   6.394   2.587   3.915
 3579SOL    HW111636   6.342   2.502   3.916
 3579SOL    HW211637   6.422   2.608   3.821
 3580SOL     OW11638   5.735   3.113   1.446
 3580SOL    HW111639   5.726   3.133   1.349
 3580SOL    HW211640   5.724   3.197   1.499
 3581SOL     OW11641   1.546   5.902   3.564
 3581SOL    HW111642   1.503   5.894   3.654
 3581SOL    HW211643   1.480   5.940   3.499
 3582SOL     OW11644   0.352   3.474   6.148
 3582SOL    HW111645   0.273   3.509   6.200
 3582SOL    HW211646   0.327   3.467   6.051
 3583SOL     OW11647   0.763   4.121   6.381
 3583SOL    HW111648   0.728   4.167   6.463
 3583SOL    HW211649   0.726   4.028   6.377
 3584SOL     OW11650   5.583   5.500   6.793
 3584SOL    HW111651   5.613   5.593   6.812
 3584SOL    HW211652   5.590   5.482   6.695
 3585SOL     OW11653   3.506   0.397   4.948
 3585SOL    HW111654   3.600   0.426   4.965
 3585SOL    HW211655   3.495   0.371   4.852
 3586SOL     OW11656   6.854   1.977   4.961
 3586SOL    HW111657   6.844   1.936   5.052
 3586SOL    HW211658   6.947   1.959   4.927
 3587SOL     OW11659   2.472   4.652   6.215
 3587SOL    HW111660   2.455   4.614   6.306
 3587SOL    HW211661   2.540   4.725   6.221
 3588SOL     OW11662   1.126   2.405   5.906
 3588SOL    HW111663   1.208   2.397   5.963
 3588SOL    HW211664   1.103   2.501   5.894
 3589SOL     OW11665   4.447   1.645   4.761
 3589SOL    HW111666   4.500   1.644   4.846
 3589SOL    HW211667   4.349   1.649   4.782
 3590SOL     OW11668   0.756   2.471   0.245
 3590SOL    HW111669   0.784   2.426   0.329
 3590SOL    HW211670   0.812   2.439   0.169
 3591SOL     OW11671   5.252   4.041   6.928
 3591SOL    HW111672   5.207   4.052   6.840
 3591SOL    HW211673   5.330   4.103   6.934
 3592SOL     OW11674   0.278   5.197   2.077
 3592SOL    HW111675   0.351   5.266   2.072
 3592SOL    HW211676   0.194   5.240   2.111
 3593SOL     OW11677   0.770   5.666   4.555
 3593SOL    HW111678   0.786   5.764   4.571
 3593SOL    HW211679   0.809   5.613   4.630
 3594SOL     OW11680   4.404   6.366   3.494
 3594SOL    HW111681   4.478   6.421   3.532
 3594SOL    HW211682   4.319   6.419   3.498
 3595SOL     OW11683   3.166   5.708   6.657
 3595SOL    HW111684   3.197   5.691   6.750
 3595SOL    HW211685   3.176   5.805   6.635
 3596SOL     OW11686   6.015   3.075   3.254
 3596SOL    HW111687   5.928   3.123   3.263
 3596SOL    HW211688   6.087   3.128   3.298
 3597SOL     OW11689   1.676   2.554   5.434
 3597SOL    HW111690   1.755   2.598   5.478
 3597SOL    HW211691   1.596   2.613   5.444
 3598SOL     OW11692   1.582   5.332   6.474
 3598SOL    HW111693   1.529   5.335   6.389
 3598SOL    HW211694   1.665   5.387   6.464
 3599SOL     OW11695   6.851   2.360   6.241
 3599SOL    HW111696   6.932   2.321   6.285
 3599SOL    HW211697   6.834   2.313   6.155
 3600SOL     OW11698   0.683   3.089   1.567
 3600SOL    HW111699   0.717   3.122   1.655
 3600SOL    HW211700   0.595   3.044   1.580
 3601SOL     OW11701   5.519   4.004   6.748
 3601SOL    HW111702   5.447   3.953   6.701
 3601SOL    HW211703   5.575   3.940   6.802
 3602SOL     OW11704   2.052   2.541   0.321
 3602SOL    HW111705   2.007   2.630   0.311
 3602SOL    HW211706   2.023   2.498   0.406
 3603SOL     OW11707   3.821   0.950   3.783
 3603SOL    HW111708   3.891   0.885   3.754
 3603SOL    HW211709   3.843   1.041   3.749
 3604SOL     OW11710   6.278   5.261   3.289
 3604SOL    HW111711   6.249   5.327   3.220
 3604SOL    HW211712   6.326   5.308   3.363
 3605SOL     OW11713   6.765   3.335   4.899
 3605SOL    HW111714   6.667   3.324   4.881
 3605SOL    HW211715   6.815   3.340   4.813
 3606SOL     OW11716   0.354   0.511   4.681
 3606SOL    HW111717   0.306   0.462   4.608
 3606SOL    HW211718   0.393   0.596   4.644
 3607SOL     OW11719   6.040   5.107   1.879
 3607SOL    HW111720   6.094   5.096   1.962
 3607SOL    HW211721   6.007   5.201   1.873
 3608SOL     OW11722   5.781   2.500   4.074
 3608SOL    HW111723   5.802   2.567   4.145
 3608SOL    HW211724   5.790   2.408   4.112
 3609SOL     OW11725   1.335   6.979   3.869
 3609SOL    HW111726   1.255   6.921   3.854
 3609SOL    HW211727   1.395   6.935   3.937
 3610SOL     OW11728   1.590   7.004   6.176
 3610SOL    HW111729   1.680   6.980   6.213
 3610SOL    HW211730   1.586   6.977   6.080
 3611SOL     OW11731   4.369   5.182   4.852
 3611SOL    HW111732   4.343   5.227   4.938
 3611SOL    HW211733   4.378   5.084   4.867
 3612SOL     OW11734   6.684   6.790   0.237
 3612SOL    HW111735   6.624   6.717   0.268
 3612SOL    HW211736   6.761   6.799   0.301
 3613SOL     OW11737   4.580   4.486   2.095
 3613SOL    HW111738   4.541   4.561   2.042
 3613SOL    HW211739   4.574   4.401   2.042
 3614SOL     OW11740   3.852   3.419   1.403
 3614SOL    HW111741   3.945   3.384   1.399
 3614SOL    HW211742   3.824   3.450   1.313
 3615SOL     OW11743   5.224   4.794   6.513
 3615SOL    HW111744   5.269   4.818   6.599
 3615SOL    HW211745   5.268   4.844   6.438
 3616SOL     OW11746   0.366   1.840   6.996
 3616SOL    HW111747   0.306   1.915   6.967
 3616SOL    HW211748   0.408   1.799   6.915
 3617SOL     OW11749   3.788   1.156   6.694
 3617SOL    HW111750   3.834   1.143   6.782
 3617SOL    HW211751   3.699   1.111   6.696
 3618SOL     OW11752   2.293   2.948   5.470
 3618SOL    HW111753   2.306   2.874   5.536
 3618SOL    HW211754   2.376   2.956   5.414
 3619SOL     OW11755   5.629   2.437   4.596
 3619SOL    HW111756   5.547   2.386   4.622
 3619SOL    HW211757   5.603   2.521   4.549
 3620SOL     OW11758   6.105   6.797   6.135
 3620SOL    HW111759   6.192   6.780   6.089
 3620SOL    HW211760   6.102   6.748   6.221
 3621SOL     OW11761   3.096   2.734   5.516
 3621SOL    HW111762   3.127   2.801   5.448
 3621SOL    HW211763   3.082   2.779   5.603
 3622SOL     OW11764   0.923   1.466   5.145
 3622SOL    HW111765   0.962   1.524   5.217
 3622SOL    HW211766   0.873   1.524   5.080
 3623SOL     OW11767   6.771   5.672   4.852
 3623SOL    HW111768   6.822   5.653   4.936
 3623SOL    HW211769   6.753   5.770   4.846
 3624SOL     OW11770   1.554   6.944   1.944
 3624SOL    HW111771   1.529   6.916   2.036
 3624SOL    HW211772   1.628   6.886   1.910
 3625SOL     OW11773   6.954   2.854   6.312
 3625SOL    HW111774   6.878   2.855   6.247
 3625SOL    HW211775   6.975   2.947   6.341
 3626SOL     OW11776   1.455   1.836   5.825
 3626SOL    HW111777   1.382   1.902   5.844
 3626SOL    HW211778   1.486   1.847   5.730
 3627SOL     OW11779   3.324   3.513   2.492
 3627SOL    HW111780   3.403   3.554   2.536
 3627SOL    HW211781   3.328   3.414   2.502
 3628SOL     OW11782   2.049   1.100   2.176
 3628SOL    HW111783   2.011   1.061   2.092
 3628SOL    HW211784   2.006   1.057   2.255
 3629SOL     OW11785   6.278   0.883   5.625
 3629SOL    HW111786   6.185   0.904   5.594
 3629SOL    HW211787   6.310   0.956   5.685
 3630SOL     OW11788   5.313   2.519   4.122
 3630SOL    HW111789   5.330   2.420   4.129
 3630SOL    HW211790   5.341   2.563   4.207
 3631SOL     OW11791   2.579   1.339   3.301
 3631SOL    HW111792   2.648   1.280   3.344
 3631SOL    HW211793   2.622   1.395   3.231
 3632SOL     OW11794   5.084   4.968   1.884
 3632SOL    HW111795   5.057   4.934   1.794
 3632SOL    HW211796   5.086   5.068   1.883
 3633SOL     OW11797   4.047   1.960   5.668
 3633SOL    HW111798   3.954   1.923   5.674
 3633SOL    HW211799   4.056   2.016   5.586
 3634SOL     OW11800   1.603   4.733   5.087
 3634SOL    HW111801   1.509   4.710   5.114
 3634SOL    HW211802   1.656   4.758   5.168
 3635SOL     OW11803   3.141   0.044   0.622
 3635SOL    HW111804   3.086   6.991   0.586
 3635SOL    HW211805   3.181   0.095   0.547
 3636SOL     OW11806   0.043   5.770   0.770
 3636SOL    HW111807   7.000   5.843   0.752
 3636SOL    HW211808   0.002   5.702   0.832
 3637SOL     OW11809   6.884   2.124   2.227
 3637SOL    HW111810   6.929   2.206   2.191
 3637SOL    HW211811   6.832   2.148   2.309
 3638SOL     OW11812   0.873   4.476   3.096
 3638SOL    HW111813   0.795   4.534   3.118
 3638SOL    HW211814   0.920   4.450   3.181
 3639SOL     OW11815   3.948   5.260   0.648
 3639SOL    HW111816   3.950   5.161   0.665
 3639SOL    HW211817   4.031   5.301   0.685
 3640SOL     OW11818   4.176   0.468   0.121
 3640SOL    HW111819   4.274   0.471   0.101
 3640SOL    HW211820   4.149   0.374   0.144
 3641SOL     OW11821   5.673   3.483   2.638
 3641SOL    HW111822   5.673   3.384   2.622
 3641SOL    HW211823   5.708   3.530   2.557
 3642SOL     OW11824   5.250   1.887   0.477
 3642SOL    HW111825   5.324   1.874   0.411
 3642SOL    HW211826   5.176   1.939   0.434
 3643SOL     OW11827   3.213   5.602   3.979
 3643SOL    HW111828   3.303   5.591   3.938
 3643SOL    HW211829   3.200   5.533   4.051
 3644SOL     OW11830   0.164   0.921   1.845
 3644SOL    HW111831   0.200   0.945   1.755
 3644SOL    HW211832   0.233   0.939   1.914
 3645SOL     OW11833   1.315   2.716   3.908
 3645SOL    HW111834   1.341   2.698   3.813
 3645SOL    HW211835   1.397   2.735   3.962
 3646SOL     OW11836   1.417   4.011   6.839
 3646SOL    HW111837   1.446   3.960   6.920
 3646SOL    HW211838   1.470   3.982   6.759
 3647SOL     OW11839   2.582   6.108   6.391
 3647SOL    HW111840   2.513   6.177   6.408
 3647SOL    HW211841   2.604   6.105   6.294
 3648SOL     OW11842   4.431   5.077   1.759
 3648SOL    HW111843   4.502   5.142   1.784
 3648SOL    HW211844   4.341   5.117   1.778
 3649SOL     OW11845   5.866   2.843   1.170
 3649SOL    HW111846   5.964   2.861   1.179
 3649SOL    HW211847   5.817   2.930   1.164
 3650SOL     OW11848   6.808   5.689   1.725
 3650SOL    HW111849   6.894   5.736   1.705
 3650SOL    HW211850   6.736   5.723   1.665
 3651SOL     OW11851   0.345   0.295   4.507
 3651SOL    HW111852   0.311   0.234   4.578
 3651SOL    HW211853   0.445   0.296   4.508
 3652SOL     OW11854   6.282   6.888   3.604
 3652SOL    HW111855   6.323   6.834   3.678
 3652SOL    HW211856   6.317   6.981   3.607
 3653SOL     OW11857   1.076   2.110   3.696
 3653SOL    HW111858   1.111   2.163   3.774
 3653SOL    HW211859   1.150   2.094   3.631
 3654SOL     OW11860   3.564   4.673   0.664
 3654SOL    HW111861   3.559   4.665   0.565
 3654SOL    HW211862   3.657   4.702   0.690
 3655SOL     OW11863   3.138   6.719   3.735
 3655SOL    HW111864   3.068   6.754   3.798
 3655SOL    HW211865   3.197   6.793   3.705
 3656SOL     OW11866   0.635   4.371   1.077
 3656SOL    HW111867   0.542   4.341   1.098
 3656SOL    HW211868   0.700   4.301   1.105
 3657SOL     OW11869   5.380   6.176   5.615
 3657SOL    HW111870   5.338   6.199   5.527
 3657SOL    HW211871   5.370   6.254   5.678
 3658SOL     OW11872   2.000   4.667   6.584
 3658SOL    HW111873   1.920   4.705   6.538
 3658SOL    HW211874   2.074   4.656   6.517
 3659SOL     OW11875   2.592   3.609   5.895
 3659SOL    HW111876   2.508   3.555   5.895
 3659SOL    HW211877   2.651   3.579   5.970
 3660SOL     OW11878   5.501   5.740   3.561
 3660SOL    HW111879   5.439   5.751   3.638
 3660SOL    HW211880   5.595   5.728   3.595
 3661SOL     OW11881   6.089   0.601   5.406
 3661SOL    HW111882   6.180   0.643   5.408
 3661SOL    HW211883   6.095   0.512   5.361
 3662SOL     OW11884   3.824   0.903   4.070
 3662SOL    HW111885   3.828   0.907   3.970
 3662SOL    HW211886   3.775   0.821   4.098
 3663SOL     OW11887   2.022   2.178   0.432
 3663SOL    HW111888   2.046   2.234   0.511
 3663SOL    HW211889   2.023   2.081   0.458
 3664SOL     OW11890   4.320   2.461   1.118
 3664SOL    HW111891   4.414   2.480   1.089
 3664SOL    HW211892   4.265   2.438   1.038
 3665SOL     OW11893   0.958   6.389   5.356
 3665SOL    HW111894   0.930   6.330   5.281
 3665SOL    HW211895   0.923   6.482   5.340
 3666SOL     OW11896   0.750   3.224   3.075
 3666SOL    HW111897   0.674   3.202   3.136
 3666SOL    HW211898   0.725   3.201   2.981
 3667SOL     OW11899   0.550   1.530   3.811
 3667SOL    HW111900   0.646   1.506   3.828
 3667SOL    HW211901   0.492   1.454   3.840
 3668SOL     OW11902   1.459   1.382   0.983
 3668SOL    HW111903   1.510   1.464   0.955
 3668SOL    HW211904   1.363   1.406   0.999
 3669SOL     OW11905   5.495   1.611   3.639
 3669SOL    HW111906   5.565   1.544   3.665
 3669SOL    HW211907   5.536   1.701   3.629
 3670SOL     OW11908   1.613   6.081   7.020
 3670SOL    HW111909   1.654   5.992   0.017
 3670SOL    HW211910   1.592   6.127   0.084
 3671SOL     OW11911   0.277   1.823   3.841
 3671SOL    HW111912   0.304   1.860   3.752
 3671SOL    HW211913   0.358   1.789   3.889
 3672SOL     OW11914   4.561   1.968   1.858
 3672SOL    HW111915   4.608   2.001   1.776
 3672SOL    HW211916   4.493   2.036   1.887
 3673SOL     OW11917   4.055   6.122   6.887
 3673SOL    HW111918   3.996   6.171   6.951
 3673SOL    HW211919   4.127   6.075   6.937
 3674SOL     OW11920   1.448   5.680   5.342
 3674SOL    HW111921   1.517   5.753   5.338
 3674SOL    HW211922   1.459   5.629   5.428
 3675SOL     OW11923   2.246   3.017   3.829
 3675SOL    HW111924   2.220   3.051   3.739
 3675SOL    HW211925   2.257   2.917   3.825
 3676SOL     OW11926   6.346   4.291   2.898
 3676SOL    HW111927   6.246   4.294   2.904
 3676SOL    HW211928   6.375   4.199   2.874
 3677SOL     OW11929   2.593   6.215   4.365
 3677SOL    HW111930   2.679   6.263   4.346
 3677SOL    HW211931   2.570   6.155   4.289
 3678SOL     OW11932   0.432   1.290   3.865
 3678SOL    HW111933   0.372   1.232   3.810
 3678SOL    HW211934   0.428   1.260   3.961
 3679SOL     OW11935   0.433   0.156   3.657
 3679SOL    HW111936   0.362   0.226   3.657
 3679SOL    HW211937   0.455   0.130   3.563
 3680SOL     OW11938   4.936   2.982   4.284
 3680SOL    HW111939   4.997   2.947   4.355
 3680SOL    HW211940   4.854   2.925   4.279
 3681SOL     OW11941   0.251   0.786   5.964
 3681SOL    HW111942   0.297   0.729   5.897
 3681SOL    HW211943   0.316   0.817   6.033
 3682SOL     OW11944   5.168   2.627   6.983
 3682SOL    HW111945   5.144   2.566   0.036
 3682SOL    HW211946   5.266   2.646   6.986
 3683SOL     OW11947   6.879   1.669   3.891
 3683SOL    HW111948   6.967   1.633   3.921
 3683SOL    HW211949   6.893   1.730   3.813
 3684SOL     OW11950   1.384   5.040   0.021
 3684SOL    HW111951   1.308   4.993   0.067
 3684SOL    HW211952   1.470   4.993   0.042
 3685SOL     OW11953   1.727   6.327   6.531
 3685SOL    HW111954   1.813   6.377   6.530
 3685SOL    HW211955   1.719   6.275   6.616
 3686SOL     OW11956   5.878   5.458   4.676
 3686SOL    HW111957   5.840   5.394   4.742
 3686SOL    HW211958   5.913   5.539   4.723
 3687SOL     OW11959   3.786   6.474   3.939
 3687SOL    HW111960   3.824   6.403   3.998
 3687SOL    HW211961   3.820   6.564   3.969
 3688SOL     OW11962   0.738   3.335   6.741
 3688SOL    HW111963   0.706   3.319   6.835
 3688SOL    HW211964   0.755   3.433   6.729
 3689SOL     OW11965   2.273   0.323   5.924
 3689SOL    HW111966   2.282   0.335   5.825
 3689SOL    HW211967   2.344   0.259   5.956
 3690SOL     OW11968   4.270   5.797   6.759
 3690SOL    HW111969   4.295   5.701   6.775
 3690SOL    HW211970   4.172   5.804   6.745
 3691SOL     OW11971   2.245   1.597   6.523
 3691SOL    HW111972   2.306   1.628   6.450
 3691SOL    HW211973   2.151   1.592   6.488
 3692SOL     OW11974   6.415   5.283   5.544
 3692SOL    HW111975   6.457   5.367   5.509
 3692SOL    HW211976   6.399   5.220   5.468
 3693SOL     OW11977   1.968   3.824   2.948
 3693SOL    HW111978   1.898   3.856   3.013
 3693SOL    HW211979   2.021   3.751   2.991
 3694SOL     OW11980   0.556   6.545   1.782
 3694SOL    HW111981   0.628   6.608   1.812
 3694SOL    HW211982   0.501   6.517   1.861
 3695SOL     OW11983   5.370   2.971   1.830
 3695SOL    HW111984   5.444   3.018   1.878
 3695SOL    HW211985   5.344   3.024   1.749
 3696SOL     OW11986   4.062   6.909   3.850
 3696SOL    HW111987   4.141   6.892   3.910
 3696SOL    HW211988   4.068   7.003   3.815
 3697SOL     OW11989   0.270   6.265   2.880
 3697SOL    HW111990   0.330   6.208   2.937
 3697SOL    HW211991   0.273   6.233   2.786
 3698SOL     OW11992   2.966   1.160   4.679
 3698SOL    HW111993   2.939   1.210   4.597
 3698SOL    HW211994   3.066   1.151   4.681
 3699SOL     OW11995   1.278   1.974   4.407
 3699SOL    HW111996   1.337   1.924   4.343
 3699SOL    HW211997   1.331   2.000   4.487
 3700SOL     OW11998   1.136   5.478   4.683
 3700SOL    HW111999   1.189   5.553   4.641
 3700SOL    HW212000   1.040   5.505   4.690
 3701SOL     OW12001   1.493   1.035   4.258
 3701SOL    HW112002   1.538   0.946   4.250
 3701SOL    HW212003   1.549   1.095   4.315
 3702SOL     OW12004   5.482   6.834   3.219
 3702SOL    HW112005   5.556   6.823   3.285
 3702SOL    HW212006   5.472   6.750   3.165
 3703SOL     OW12007   6.233   0.412   6.301
 3703SOL    HW112008   6.295   0.453   6.367
 3703SOL    HW212009   6.252   0.449   6.210
 3704SOL     OW12010   3.397   1.568   0.943
 3704SOL    HW112011   3.297   1.564   0.945
 3704SOL    HW212012   3.429   1.556   0.849
 3705SOL     OW12013   5.328   4.164   4.830
 3705SOL    HW112014   5.303   4.261   4.833
 3705SOL    HW212015   5.317   4.124   4.921
 3706SOL     OW12016   1.317   4.129   0.275
 3706SOL    HW112017   1.393   4.074   0.311
 3706SOL    HW212018   1.353   4.212   0.232
 3707SOL     OW12019   5.352   4.806   4.008
 3707SOL    HW112020   5.417   4.731   3.999
 3707SOL    HW212021   5.361   4.848   4.098
 3708SOL     OW12022   6.095   0.915   0.271
 3708SOL    HW112023   6.134   0.887   0.184
 3708SOL    HW212024   6.168   0.925   0.339
 3709SOL     OW12025   3.472   1.168   0.896
 3709SOL    HW112026   3.483   1.074   0.864
 3709SOL    HW212027   3.407   1.171   0.972
 3710SOL     OW12028   6.368   5.819   5.469
 3710SOL    HW112029   6.424   5.862   5.398
 3710SOL    HW212030   6.380   5.868   5.555
 3711SOL     OW12031   1.180   6.151   4.663
 3711SOL    HW112032   1.127   6.185   4.741
 3711SOL    HW212033   1.162   6.053   4.653
 3712SOL     OW12034   1.035   5.471   6.180
 3712SOL    HW112035   0.962   5.414   6.220
 3712SOL    HW212036   1.095   5.414   6.125
 3713SOL     OW12037   0.348   6.870   5.084
 3713SOL    HW112038   0.437   6.876   5.130
 3713SOL    HW212039   0.352   6.920   4.998
 3714SOL     OW12040   5.700   6.179   6.410
 3714SOL    HW112041   5.622   6.126   6.379
 3714SOL    HW212042   5.768   6.118   6.452
 3715SOL     OW12043   0.636   4.026   2.707
 3715SOL    HW112044   0.729   4.006   2.738
 3715SOL    HW212045   0.619   4.124   2.713
 3716SOL     OW12046   6.079   6.594   3.692
 3716SOL    HW112047   6.033   6.507   3.709
 3716SOL    HW212048   6.127   6.623   3.774
 3717SOL     OW12049   6.218   6.734   6.410
 3717SOL    HW112050   6.175   6.793   6.478
 3717SOL    HW212051   6.317   6.747   6.411
 3718SOL     OW12052   0.794   0.908   6.880
 3718SOL    HW112053   0.893   0.898   6.874
 3718SOL    HW212054   0.751   0.856   6.807
 3719SOL     OW12055   5.370   4.130   1.209
 3719SOL    HW112056   5.406   4.045   1.169
 3719SOL    HW212057   5.431   4.206   1.185
 3720SOL     OW12058   5.595   2.968   6.649
 3720SOL    HW112059   5.625   2.881   6.689
 3720SOL    HW212060   5.496   2.966   6.637
 3721SOL     OW12061   6.590   4.840   1.805
 3721SOL    HW112062   6.616   4.919   1.861
 3721SOL    HW212063   6.576   4.760   1.863
 3722SOL     OW12064   5.855   5.942   1.179
 3722SOL    HW112065   5.844   6.019   1.241
 3722SOL    HW212066   5.781   5.943   1.111
 3723SOL     OW12067   5.592   5.015   1.228
 3723SOL    HW112068   5.599   4.921   1.193
 3723SOL    HW212069   5.519   5.063   1.179
 3724SOL     OW12070   1.711   4.680   4.846
 3724SOL    HW112071   1.649   4.716   4.915
 3724SOL    HW212072   1.743   4.755   4.788
 3725SOL     OW12073   7.002   4.975   0.172
 3725SOL    HW112074   7.002   4.892   0.116
 3725SOL    HW212075   6.927   4.971   0.238
 3726SOL     OW12076   6.373   3.234   6.975
 3726SOL    HW112077   6.412   3.235   0.045
 3726SOL    HW212078   6.335   3.143   6.957
 3727SOL     OW12079   6.558   1.471   5.718
 3727SOL    HW112080   6.497   1.395   5.696
 3727SOL    HW212081   6.541   1.502   5.811
 3728SOL     OW12082   1.138   3.498   6.185
 3728SOL    HW112083   1.069   3.430   6.212
 3728SOL    HW212084   1.220   3.486   6.241
 3729SOL     OW12085   1.896   1.801   4.516
 3729SOL    HW112086   1.984   1.795   4.467
 3729SOL    HW212087   1.910   1.847   4.604
 3730SOL     OW12088   3.225   5.668   5.475
 3730SOL    HW112089   3.164   5.611   5.420
 3730SOL    HW212090   3.207   5.652   5.572
 3731SOL     OW12091   6.930   1.467   0.985
 3731SOL    HW112092   6.857   1.439   1.048
 3731SOL    HW212093   6.902   1.549   0.936
 3732SOL     OW12094   2.607   2.140   6.838
 3732SOL    HW112095   2.550   2.093   6.770
 3732SOL    HW212096   2.674   2.077   6.875
 3733SOL     OW12097   1.722   3.380   3.108
 3733SOL    HW112098   1.734   3.448   3.036
 3733SOL    HW212099   1.627   3.352   3.113
 3734SOL     OW12100   4.848   0.337   1.293
 3734SOL    HW112101   4.832   0.306   1.199
 3734SOL    HW212102   4.775   0.399   1.321
 3735SOL     OW12103   2.896   1.167   2.964
 3735SOL    HW112104   2.937   1.226   3.033
 3735SOL    HW212105   2.927   1.073   2.977
 3736SOL     OW12106   6.635   2.226   1.270
 3736SOL    HW112107   6.728   2.217   1.305
 3736SOL    HW212108   6.631   2.190   1.177
 3737SOL     OW12109   5.656   0.962   4.457
 3737SOL    HW112110   5.623   0.942   4.364
 3737SOL    HW212111   5.734   0.904   4.478
 3738SOL     OW12112   6.748   0.435   1.816
 3738SOL    HW112113   6.813   0.367   1.784
 3738SOL    HW212114   6.655   0.408   1.790
 3739SOL     OW12115   2.654   5.455   0.674
 3739SOL    HW112116   2.660   5.355   0.663
 3739SOL    HW212117   2.720   5.498   0.612
 3740SOL     OW12118   6.817   0.472   0.969
 3740SOL    HW112119   6.828   0.545   1.035
 3740SOL    HW212120   6.760   0.503   0.893
 3741SOL     OW12121   5.711   3.046   5.897
 3741SOL    HW112122   5.740   3.142   5.892
 3741SOL    HW212123   5.617   3.038   5.864
 3742SOL     OW12124   2.659   1.912   6.619
 3742SOL    HW112125   2.595   1.852   6.667
 3742SOL    HW212126   2.742   1.862   6.597
 3743SOL     OW12127   6.043   3.062   0.309
 3743SOL    HW112128   6.027   3.160   0.319
 3743SOL    HW212129   6.132   3.048   0.266
 3744SOL     OW12130   1.747   5.948   1.577
 3744SOL    HW112131   1.683   5.919   1.505
 3744SOL    HW212132   1.841   5.930   1.548
 3745SOL     OW12133   4.589   4.640   2.735
 3745SOL    HW112134   4.521   4.598   2.675
 3745SOL    HW212135   4.620   4.726   2.695
 3746SOL     OW12136   6.112   0.924   3.776
 3746SOL    HW112137   6.076   0.845   3.826
 3746SOL    HW212138   6.036   0.981   3.744
 3747SOL     OW12139   3.030   6.608   5.097
 3747SOL    HW112140   3.031   6.550   5.016
 3747SOL    HW212141   3.090   6.687   5.082
 3748SOL     OW12142   5.825   0.752   1.995
 3748SOL    HW112143   5.895   0.800   2.048
 3748SOL    HW212144   5.737   0.799   2.005
 3749SOL     OW12145   1.610   5.289   3.014
 3749SOL    HW112146   1.520   5.248   3.002
 3749SOL    HW212147   1.599   5.384   3.044
 3750SOL     OW12148   6.795   4.969   1.346
 3750SOL    HW112149   6.727   4.960   1.418
 3750SOL    HW212150   6.876   4.914   1.370
 3751SOL     OW12151   6.892   3.734   1.437
 3751SOL    HW112152   6.855   3.668   1.372
 3751SOL    HW212153   6.886   3.826   1.398
 3752SOL     OW12154   6.288   6.680   0.704
 3752SOL    HW112155   6.334   6.621   0.771
 3752SOL    HW212156   6.195   6.698   0.735
 3753SOL     OW12157   6.891   0.975   4.170
 3753SOL    HW112158   6.895   0.970   4.070
 3753SOL    HW212159   6.952   1.048   4.202
 3754SOL     OW12160   4.360   6.569   0.803
 3754SOL    HW112161   4.273   6.567   0.852
 3754SOL    HW212162   4.346   6.609   0.712
 3755SOL     OW12163   5.234   5.796   4.230
 3755SOL    HW112164   5.136   5.792   4.216
 3755SOL    HW212165   5.258   5.744   4.312
 3756SOL     OW12166   2.022   5.660   6.491
 3756SOL    HW112167   2.115   5.687   6.516
 3756SOL    HW212168   1.992   5.712   6.411
 3757SOL     OW12169   4.440   6.476   6.269
 3757SOL    HW112170   4.391   6.388   6.274
 3757SOL    HW212171   4.509   6.471   6.197
 3758SOL     OW12172   2.258   1.613   5.766
 3758SOL    HW112173   2.355   1.592   5.777
 3758SOL    HW212174   2.245   1.713   5.763
 3759SOL     OW12175   4.332   5.601   6.499
 3759SOL    HW112176   4.250   5.544   6.493
 3759SOL    HW212177   4.364   5.603   6.593
 3760SOL     OW12178   1.764   1.381   5.413
 3760SOL    HW112179   1.710   1.465   5.412
 3760SOL    HW212180   1.808   1.370   5.503
 3761SOL     OW12181   1.088   0.980   4.563
 3761SOL    HW112182   1.103   1.002   4.467
 3761SOL    HW212183   1.098   0.881   4.577
 3762SOL     OW12184   1.302   3.640   0.317
 3762SOL    HW112185   1.367   3.714   0.335
 3762SOL    HW212186   1.296   3.625   0.218
 3763SOL     OW12187   6.612   3.975   1.766
 3763SOL    HW112188   6.602   3.901   1.832
 3763SOL    HW212189   6.589   4.062   1.810
 3764SOL     OW12190   1.793   6.766   3.511
 3764SOL    HW112191   1.700   6.769   3.546
 3764SOL    HW212192   1.818   6.856   3.475
 3765SOL     OW12193   4.715   0.717   0.687
 3765SOL    HW112194   4.729   0.740   0.784
 3765SOL    HW212195   4.804   0.698   0.645
 3766SOL     OW12196   1.157   0.904   3.542
 3766SOL    HW112197   1.169   0.875   3.447
 3766SOL    HW212198   1.144   1.003   3.545
 3767SOL     OW12199   2.193   4.658   0.328
 3767SOL    HW112200   2.284   4.617   0.317
 3767SOL    HW212201   2.201   4.757   0.314
 3768SOL     OW12202   1.502   6.460   4.864
 3768SOL    HW112203   1.598   6.469   4.840
 3768SOL    HW212204   1.459   6.389   4.808
 3769SOL     OW12205   6.418   6.460   5.483
 3769SOL    HW112206   6.405   6.452   5.581
 3769SOL    HW212207   6.431   6.556   5.459
 3770SOL     OW12208   1.974   0.654   6.756
 3770SOL    HW112209   1.961   0.717   6.832
 3770SOL    HW212210   1.968   0.560   6.789
 3771SOL     OW12211   5.929   3.358   6.505
 3771SOL    HW112212   5.866   3.283   6.486
 3771SOL    HW212213   6.009   3.322   6.553
 3772SOL     OW12214   6.864   0.877   6.633
 3772SOL    HW112215   6.770   0.865   6.665
 3772SOL    HW212216   6.919   0.799   6.661
 3773SOL     OW12217   6.202   2.715   6.398
 3773SOL    HW112218   6.142   2.784   6.358
 3773SOL    HW212219   6.282   2.702   6.339
 3774SOL     OW12220   0.275   6.046   0.343
 3774SOL    HW112221   0.268   6.086   0.252
 3774SOL    HW212222   0.286   6.119   0.411
 3775SOL     OW12223   4.686   5.148   1.971
 3775SOL    HW112224   4.675   5.244   1.992
 3775SOL    HW212225   4.691   5.136   1.872
 3776SOL     OW12226   4.129   0.821   0.263
 3776SOL    HW112227   4.178   0.852   0.344
 3776SOL    HW212228   4.119   0.722   0.266
 3777SOL     OW12229   3.433   5.564   3.700
 3777SOL    HW112230   3.455   5.472   3.735
 3777SOL    HW212231   3.516   5.620   3.701
 3778SOL     OW12232   3.723   4.877   2.395
 3778SOL    HW112233   3.805   4.849   2.345
 3778SOL    HW212234   3.648   4.890   2.331
 3779SOL     OW12235   1.867   4.803   0.753
 3779SOL    HW112236   1.810   4.789   0.835
 3779SOL    HW212237   1.963   4.790   0.777
 3780SOL     OW12238   5.791   6.080   5.112
 3780SOL    HW112239   5.853   6.007   5.142
 3780SOL    HW212240   5.843   6.158   5.079
 3781SOL     OW12241   0.722   6.707   4.542
 3781SOL    HW112242   0.699   6.804   4.549
 3781SOL    HW212243   0.791   6.694   4.470
 3782SOL     OW12244   2.811   0.869   4.229
 3782SOL    HW112245   2.783   0.876   4.133
 3782SOL    HW212246   2.874   0.944   4.250
 3783SOL     OW12247   5.846   5.681   4.010
 3783SOL    HW112248   5.908   5.663   4.087
 3783SOL    HW212249   5.753   5.655   4.035
 3784SOL     OW12250   4.892   2.832   2.198
 3784SOL    HW112251   4.966   2.871   2.143
 3784SOL    HW212252   4.847   2.759   2.147
 3785SOL     OW12253   2.219   2.213   6.197
 3785SOL    HW112254   2.194   2.229   6.293
 3785SOL    HW212255   2.235   2.301   6.152
 3786SOL     OW12256   2.059   5.850   2.855
 3786SOL    HW112257   2.132   5.893   2.908
 3786SOL    HW212258   1.975   5.850   2.909
 3787SOL     OW12259   6.066   1.111   2.242
 3787SOL    HW112260   6.021   1.183   2.189
 3787SOL    HW212261   6.108   1.152   2.323
 3788SOL     OW12262   0.652   4.187   4.643
 3788SOL    HW112263   0.644   4.132   4.726
 3788SOL    HW212264   0.708   4.139   4.576
 3789SOL     OW12265   0.272   2.702   5.212
 3789SOL    HW112266   0.262   2.665   5.120
 3789SOL    HW212267   0.329   2.784   5.209
 3790SOL     OW12268   1.219   4.637   5.331
 3790SOL    HW112269   1.122   4.624   5.313
 3790SOL    HW212270   1.236   4.732   5.356
 3791SOL     OW12271   5.312   0.606   0.130
 3791SOL    HW112272   5.399   0.604   0.179
 3791SOL    HW212273   5.253   0.676   0.170
 3792SOL     OW12274   0.942   1.883   5.190
 3792SOL    HW112275   0.859   1.869   5.135
 3792SOL    HW212276   0.927   1.959   5.253
 3793SOL     OW12277   5.215   6.785   2.396
 3793SOL    HW112278   5.177   6.856   2.455
 3793SOL    HW212279   5.171   6.790   2.306
 3794SOL     OW12280   2.463   3.735   0.470
 3794SOL    HW112281   2.495   3.645   0.439
 3794SOL    HW212282   2.363   3.734   0.478
 3795SOL     OW12283   4.217   6.427   6.620
 3795SOL    HW112284   4.147   6.457   6.686
 3795SOL    HW212285   4.262   6.507   6.582
 3796SOL     OW12286   2.718   1.969   2.266
 3796SOL    HW112287   2.745   2.055   2.309
 3796SOL    HW212288   2.738   1.974   2.168
 3797SOL     OW12289   6.685   4.135   1.365
 3797SOL    HW112290   6.611   4.109   1.303
 3797SOL    HW212291   6.649   4.197   1.435
 3798SOL     OW12292   2.409   5.459   2.838
 3798SOL    HW112293   2.500   5.500   2.827
 3798SOL    HW212294   2.406   5.371   2.792
 3799SOL     OW12295   0.668   2.447   4.074
 3799SOL    HW112296   0.581   2.472   4.117
 3799SOL    HW212297   0.651   2.379   4.002
 3800SOL     OW12298   5.700   3.272   3.870
 3800SOL    HW112299   5.775   3.306   3.813
 3800SOL    HW212300   5.726   3.280   3.966
 3801SOL     OW12301   6.284   6.848   3.330
 3801SOL    HW112302   6.302   6.755   3.297
 3801SOL    HW212303   6.285   6.849   3.430
 3802SOL     OW12304   1.340   2.156   3.188
 3802SOL    HW112305   1.278   2.153   3.110
 3802SOL    HW212306   1.296   2.204   3.264
 3803SOL     OW12307   3.149   2.329   1.700
 3803SOL    HW112308   3.082   2.382   1.752
 3803SOL    HW212309   3.158   2.368   1.608
 3804SOL     OW12310   4.807   1.405   3.883
 3804SOL    HW112311   4.822   1.475   3.813
 3804SOL    HW212312   4.711   1.377   3.882
 3805SOL     OW12313   2.593   2.855   1.672
 3805SOL    HW112314   2.612   2.953   1.680
 3805SOL    HW212315   2.602   2.811   1.761
 3806SOL     OW12316   3.537   3.690   6.494
 3806SOL    HW112317   3.562   3.594   6.487
 3806SOL    HW212318   3.612   3.747   6.462
 3807SOL     OW12319   1.622   5.756   2.856
 3807SOL    HW112320   1.629   5.774   2.758
 3807SOL    HW212321   1.659   5.665   2.876
 3808SOL     OW12322   3.846   0.461   0.577
 3808SOL    HW112323   3.888   0.379   0.615
 3808SOL    HW212324   3.897   0.542   0.607
 3809SOL     OW12325   5.293   2.941   1.084
 3809SOL    HW112326   5.232   3.010   1.046
 3809SOL    HW212327   5.370   2.926   1.021
 3810SOL     OW12328   4.393   2.296   4.460
 3810SOL    HW112329   4.402   2.197   4.469
 3810SOL    HW212330   4.418   2.340   4.547
 3811SOL     OW12331   1.319   4.127   4.400
 3811SOL    HW112332   1.247   4.107   4.334
 3811SOL    HW212333   1.340   4.044   4.452
 3812SOL     OW12334   5.311   6.620   4.492
 3812SOL    HW112335   5.332   6.524   4.511
 3812SOL    HW212336   5.275   6.628   4.399
 3813SOL     OW12337   4.380   4.549   0.372
 3813SOL    HW112338   4.314   4.476   0.387
 3813SOL    HW212339   4.470   4.519   0.404
 3814SOL     OW12340   0.021   6.666   6.987
 3814SOL    HW112341   0.055   6.676   6.893
 3814SOL    HW212342   0.077   6.721   0.026
 3815SOL     OW12343   4.682   2.665   0.428
 3815SOL    HW112344   4.758   2.663   0.493
 3815SOL    HW212345   4.605   2.716   0.467
 3816SOL     OW12346   1.048   5.910   6.532
 3816SOL    HW112347   1.034   5.832   6.471
 3816SOL    HW212348   0.963   5.961   6.541
 3817SOL     OW12349   4.718   4.170   2.711
 3817SOL    HW112350   4.785   4.218   2.768
 3817SOL    HW212351   4.665   4.237   2.659
 3818SOL     OW12352   6.120   0.815   0.583
 3818SOL    HW112353   6.180   0.870   0.525
 3818SOL    HW212354   6.028   0.855   0.583
 3819SOL     OW12355   5.366   5.619   2.051
 3819SOL    HW112356   5.431   5.682   2.010
 3819SOL    HW212357   5.325   5.562   1.980
 3820SOL     OW12358   5.595   6.843   3.464
 3820SOL    HW112359   5.675   6.900   3.486
 3820SOL    HW212360   5.512   6.895   3.480
 3821SOL     OW12361   2.116   1.713   1.078
 3821SOL    HW112362   2.195   1.757   1.121
 3821SOL    HW212363   2.140   1.619   1.052
 3822SOL     OW12364   1.905   6.759   2.175
 3822SOL    HW112365   1.852   6.789   2.255
 3822SOL    HW212366   1.891   6.823   2.099
 3823SOL     OW12367   3.080   2.798   5.788
 3823SOL    HW112368   3.029   2.792   5.874
 3823SOL    HW212369   3.098   2.894   5.767
 3824SOL     OW12370   6.005   2.315   0.718
 3824SOL    HW112371   5.976   2.274   0.804
 3824SOL    HW212372   6.104   2.331   0.721
 3825SOL     OW12373   0.767   6.278   0.577
 3825SOL    HW112374   0.851   6.242   0.538
 3825SOL    HW212375   0.690   6.255   0.517
 3826SOL     OW12376   0.885   2.867   6.733
 3826SOL    HW112377   0.978   2.846   6.703
 3826SOL    HW212378   0.886   2.953   6.786
 3827SOL     OW12379   2.315   2.490   1.199
 3827SOL    HW112380   2.352   2.580   1.175
 3827SOL    HW212381   2.348   2.464   1.290
 3828SOL     OW12382   3.834   2.622   1.648
 3828SOL    HW112383   3.862   2.593   1.739
 3828SOL    HW212384   3.804   2.542   1.595
 3829SOL     OW12385   1.285   4.814   4.272
 3829SOL    HW112386   1.237   4.750   4.332
 3829SOL    HW212387   1.368   4.847   4.317
 3830SOL     OW12388   0.944   1.010   3.868
 3830SOL    HW112389   0.917   0.992   3.963
 3830SOL    HW212390   0.886   0.957   3.806
 3831SOL     OW12391   4.531   2.504   2.214
 3831SOL    HW112392   4.597   2.578   2.203
 3831SOL    HW212393   4.496   2.477   2.124
 3832SOL     OW12394   5.807   0.861   3.082
 3832SOL    HW112395   5.891   0.833   3.034
 3832SOL    HW212396   5.756   0.924   3.024
 3833SOL     OW12397   0.472   6.378   5.474
 3833SOL    HW112398   0.571   6.391   5.477
 3833SOL    HW212399   0.439   6.398   5.382
 3834SOL     OW12400   4.669   3.519   1.736
 3834SOL    HW112401   4.584   3.555   1.700
 3834SOL    HW212402   4.741   3.588   1.727
 3835SOL     OW12403   3.206   5.599   4.683
 3835SOL    HW112404   3.276   5.557   4.626
 3835SOL    HW212405   3.180   5.537   4.757
 3836SOL     OW12406   1.704   4.026   5.519
 3836SOL    HW112407   1.609   3.995   5.529
 3836SOL    HW212408   1.764   3.946   5.509
 3837SOL     OW12409   4.816   4.209   6.976
 3837SOL    HW112410   4.794   4.238   6.883
 3837SOL    HW212411   4.871   4.280   7.021
 3838SOL     OW12412   6.762   3.792   4.628
 3838SOL    HW112413   6.714   3.731   4.692
 3838SOL    HW212414   6.834   3.741   4.581
 3839SOL     OW12415   4.265   0.691   3.631
 3839SOL    HW112416   4.344   0.675   3.691
 3839SOL    HW212417   4.296   0.728   3.544
 3840SOL     OW12418   1.888   1.354   5.629
 3840SOL    HW112419   1.985   1.360   5.652
 3840SOL    HW212420   1.833   1.362   5.713
 3841SOL     OW12421   0.341   3.158   5.387
 3841SOL    HW112422   0.399   3.161   5.305
 3841SOL    HW212423   0.246   3.141   5.361
 3842SOL     OW12424   1.411   3.755   6.584
 3842SOL    HW112425   1.420   3.656   6.592
 3842SOL    HW212426   1.502   3.797   6.581
 3843SOL     OW12427   6.800   4.201   2.783
 3843SOL    HW112428   6.758   4.160   2.865
 3843SOL    HW212429   6.762   4.157   2.702
 3844SOL     OW12430   0.314   3.050   6.365
 3844SOL    HW112431   0.407   3.076   6.340
 3844SOL    HW212432   0.294   3.083   6.457
 3845SOL     OW12433   3.728   2.999   3.339
 3845SOL    HW112434   3.657   3.062   3.371
 3845SOL    HW212435   3.739   2.925   3.405
 3846SOL     OW12436   0.588   5.003   4.023
 3846SOL    HW112437   0.614   4.999   3.927
 3846SOL    HW212438   0.621   4.921   4.070
 3847SOL     OW12439   6.195   0.805   4.483
 3847SOL    HW112440   6.253   0.769   4.556
 3847SOL    HW212441   6.168   0.899   4.506
 3848SOL     OW12442   3.115   5.693   3.017
 3848SOL    HW112443   3.165   5.637   3.082
 3848SOL    HW212444   3.080   5.636   2.943
 3849SOL     OW12445   0.578   1.620   5.180
 3849SOL    HW112446   0.558   1.558   5.104
 3849SOL    HW212447   0.492   1.648   5.224
 3850SOL     OW12448   2.661   3.137   1.360
 3850SOL    HW112449   2.681   3.202   1.434
 3850SOL    HW212450   2.600   3.180   1.294
 3851SOL     OW12451   1.849   4.517   2.728
 3851SOL    HW112452   1.940   4.506   2.768
 3851SOL    HW212453   1.783   4.466   2.782
 3852SOL     OW12454   4.645   6.641   4.258
 3852SOL    HW112455   4.602   6.566   4.208
 3852SOL    HW212456   4.578   6.715   4.270
 3853SOL     OW12457   1.039   3.212   3.193
 3853SOL    HW112458   1.013   3.205   3.097
 3853SOL    HW212459   1.017   3.127   3.241
 3854SOL     OW12460   0.766   3.435   2.283
 3854SOL    HW112461   0.828   3.446   2.205
 3854SOL    HW212462   0.672   3.429   2.251
 3855SOL     OW12463   4.960   6.167   6.831
 3855SOL    HW112464   4.948   6.233   6.756
 3855SOL    HW212465   5.050   6.125   6.824
 3856SOL     OW12466   6.673   6.558   5.790
 3856SOL    HW112467   6.700   6.537   5.696
 3856SOL    HW212468   6.744   6.527   5.853
 3857SOL     OW12469   0.603   5.930   6.116
 3857SOL    HW112470   0.624   5.986   6.196
 3857SOL    HW212471   0.684   5.923   6.058
 3858SOL     OW12472   1.368   6.361   5.477
 3858SOL    HW112473   1.317   6.447   5.472
 3858SOL    HW212474   1.387   6.339   5.572
 3859SOL     OW12475   6.485   1.996   3.002
 3859SOL    HW112476   6.558   1.959   3.059
 3859SOL    HW212477   6.409   2.026   3.060
 3860SOL     OW12478   1.662   0.503   5.635
 3860SOL    HW112479   1.726   0.579   5.645
 3860SOL    HW212480   1.595   0.506   5.709
 3861SOL     OW12481   4.972   4.810   2.414
 3861SOL    HW112482   4.963   4.716   2.381
 3861SOL    HW212483   4.942   4.815   2.509
 3862SOL     OW12484   0.858   0.488   4.742
 3862SOL    HW112485   0.846   0.389   4.753
 3862SOL    HW212486   0.882   0.528   4.831
 3863SOL     OW12487   5.121   2.796   6.705
 3863SOL    HW112488   5.056   2.811   6.779
 3863SOL    HW212489   5.106   2.704   6.666
 3864SOL     OW12490   2.843   1.135   5.618
 3864SOL    HW112491   2.924   1.083   5.593
 3864SOL    HW212492   2.808   1.101   5.706
 3865SOL     OW12493   3.375   6.912   0.578
 3865SOL    HW112494   3.299   6.971   0.606
 3865SOL    HW212495   3.461   6.961   0.591
 3866SOL     OW12496   4.124   0.961   0.880
 3866SOL    HW112497   4.197   1.014   0.836
 3866SOL    HW212498   4.051   0.944   0.815
 3867SOL     OW12499   1.419   3.840   3.851
 3867SOL    HW112500   1.398   3.748   3.816
 3867SOL    HW212501   1.417   3.905   3.775
 3868SOL     OW12502   2.538   6.847   1.099
 3868SOL    HW112503   2.524   6.929   1.044
 3868SOL    HW212504   2.532   6.766   1.041
 3869SOL     OW12505   0.067   3.220   4.584
 3869SOL    HW112506   0.098   3.250   4.674
 3869SOL    HW212507   0.146   3.202   4.525
 3870SOL     OW12508   4.767   4.932   0.900
 3870SOL    HW112509   4.778   5.013   0.842
 3870SOL    HW212510   4.856   4.902   0.932
 3871SOL     OW12511   4.423   0.251   2.164
 3871SOL    HW112512   4.517   0.285   2.157
 3871SOL    HW212513   4.361   0.317   2.122
 3872SOL     OW12514   4.165   3.231   2.045
 3872SOL    HW112515   4.139   3.307   2.104
 3872SOL    HW212516   4.265   3.225   2.040
 3873SOL     OW12517   6.892   4.665   1.265
 3873SOL    HW112518   6.953   4.601   1.218
 3873SOL    HW212519   6.916   4.669   1.362
 3874SOL     OW12520   3.495   5.864   6.709
 3874SOL    HW112521   3.494   5.894   6.804
 3874SOL    HW212522   3.437   5.924   6.654
 3875SOL     OW12523   0.965   2.699   2.415
 3875SOL    HW112524   1.048   2.664   2.457
 3875SOL    HW212525   0.894   2.628   2.418
 3876SOL     OW12526   5.801   5.206   6.973
 3876SOL    HW112527   5.708   5.173   6.988
 3876SOL    HW212528   5.817   5.287   0.007
 3877SOL     OW12529   0.205   2.529   6.692
 3877SOL    HW112530   0.139   2.453   6.690
 3877SOL    HW212531   0.209   2.566   6.785
 3878SOL     OW12532   2.499   6.528   5.559
 3878SOL    HW112533   2.426   6.513   5.626
 3878SOL    HW212534   2.476   6.484   5.473
 3879SOL     OW12535   5.136   6.449   1.295
 3879SOL    HW112536   5.071   6.381   1.329
 3879SOL    HW212537   5.197   6.477   1.369
 3880SOL     OW12538   6.041   4.211   3.536
 3880SOL    HW112539   5.966   4.211   3.470
 3880SOL    HW212540   6.098   4.293   3.522
 3881SOL     OW12541   1.314   4.994   0.321
 3881SOL    HW112542   1.219   4.990   0.291
 3881SOL    HW212543   1.330   5.081   0.369
 3882SOL     OW12544   6.308   1.508   4.805
 3882SOL    HW112545   6.380   1.569   4.838
 3882SOL    HW212546   6.298   1.431   4.868
 3883SOL     OW12547   4.780   1.090   3.117
 3883SOL    HW112548   4.818   1.073   3.208
 3883SOL    HW212549   4.853   1.117   3.055
 3884SOL     OW12550   1.712   5.902   4.325
 3884SOL    HW112551   1.691   5.980   4.266
 3884SOL    HW212552   1.811   5.890   4.330
 3885SOL     OW12553   6.460   1.202   4.030
 3885SOL    HW112554   6.390   1.130   4.027
 3885SOL    HW212555   6.450   1.261   3.950
 3886SOL     OW12556   6.765   6.856   5.038
 3886SOL    HW112557   6.774   6.778   4.977
 3886SOL    HW212558   6.773   6.826   5.133
 3887SOL     OW12559   5.557   1.737   5.431
 3887SOL    HW112560   5.595   1.714   5.521
 3887SOL    HW212561   5.480   1.676   5.411
 3888SOL     OW12562   0.621   0.271   6.582
 3888SOL    HW112563   0.537   0.315   6.550
 3888SOL    HW212564   0.637   0.187   6.530
 3889SOL     OW12565   6.899   2.647   5.967
 3889SOL    HW112566   6.913   2.689   5.878
 3889SOL    HW212567   6.982   2.656   6.022
 3890SOL     OW12568   5.816   5.848   2.708
 3890SOL    HW112569   5.906   5.856   2.752
 3890SOL    HW212570   5.815   5.903   2.624
 3891SOL     OW12571   5.413   5.025   4.502
 3891SOL    HW112572   5.314   5.010   4.500
 3891SOL    HW212573   5.443   5.033   4.597
 3892SOL     OW12574   0.062   0.960   2.532
 3892SOL    HW112575   0.084   0.877   2.479
 3892SOL    HW212576   6.985   0.963   2.548
 3893SOL     OW12577   2.856   5.219   2.157
 3893SOL    HW112578   2.906   5.305   2.147
 3893SOL    HW212579   2.892   5.153   2.091
 3894SOL     OW12580   2.870   1.752   0.273
 3894SOL    HW112581   2.902   1.699   0.351
 3894SOL    HW212582   2.892   1.848   0.286
 3895SOL     OW12583   1.048   1.027   5.480
 3895SOL    HW112584   0.956   1.051   5.509
 3895SOL    HW212585   1.101   0.995   5.559
 3896SOL     OW12586   0.272   2.354   6.007
 3896SOL    HW112587   0.188   2.386   5.963
 3896SOL    HW212588   0.252   2.274   6.063
 3897SOL     OW12589   3.492   6.378   2.044
 3897SOL    HW112590   3.567   6.373   1.978
 3897SOL    HW212591   3.406   6.393   1.996
 3898SOL     OW12592   3.128   3.325   3.316
 3898SOL    HW112593   3.159   3.360   3.404
 3898SOL    HW212594   3.032   3.351   3.302
 3899SOL     OW12595   4.654   1.211   4.193
 3899SOL    HW112596   4.668   1.227   4.290
 3899SOL    HW212597   4.740   1.225   4.144
 3900SOL     OW12598   5.090   3.233   3.525
 3900SOL    HW112599   5.019   3.274   3.582
 3900SOL    HW212600   5.168   3.209   3.582
 3901SOL     OW12601   2.803   6.265   5.462
 3901SOL    HW112602   2.778   6.359   5.439
 3901SOL    HW212603   2.901   6.259   5.479
 3902SOL     OW12604   4.860   3.845   2.186
 3902SOL    HW112605   4.952   3.840   2.224
 3902SOL    HW212606   4.812   3.925   2.222
 3903SOL     OW12607   4.281   3.202   6.915
 3903SOL    HW112608   4.262   3.125   6.976
 3903SOL    HW212609   4.342   3.267   6.961
 3904SOL     OW12610   1.884   0.987   6.254
 3904SOL    HW112611   1.822   1.066   6.261
 3904SOL    HW212612   1.908   0.956   6.346
 3905SOL     OW12613   5.636   6.071   5.913
 3905SOL    HW112614   5.658   6.051   5.817
 3905SOL    HW212615   5.691   6.013   5.973
 3906SOL     OW12616   1.684   4.842   5.990
 3906SOL    HW112617   1.678   4.764   5.928
 3906SOL    HW212618   1.616   4.832   6.063
 3907SOL     OW12619   0.260   1.073   4.131
 3907SOL    HW112620   0.201   1.145   4.169
 3907SOL    HW212621   0.228   0.984   4.162
 3908SOL     OW12622   1.230   1.128   6.205
 3908SOL    HW112623   1.265   1.171   6.121
 3908SOL    HW212624   1.262   1.180   6.284
 3909SOL     OW12625   6.271   4.253   6.574
 3909SOL    HW112626   6.344   4.210   6.520
 3909SOL    HW212627   6.308   4.282   6.662
 3910SOL     OW12628   3.550   4.083   1.879
 3910SOL    HW112629   3.588   4.056   1.790
 3910SOL    HW212630   3.607   4.046   1.952
 3911SOL     OW12631   5.084   1.195   0.718
 3911SOL    HW112632   5.045   1.174   0.629
 3911SOL    HW212633   5.182   1.212   0.708
 3912SOL     OW12634   3.825   0.797   6.223
 3912SOL    HW112635   3.778   0.740   6.157
 3912SOL    HW212636   3.801   0.893   6.207
 3913SOL     OW12637   3.479   6.246   6.831
 3913SOL    HW112638   3.412   6.180   6.866
 3913SOL    HW212639   3.532   6.283   6.907
 3914SOL     OW12640   5.190   0.848   1.543
 3914SOL    HW112641   5.275   0.797   1.555
 3914SOL    HW212642   5.113   0.784   1.534
 3915SOL     OW12643   4.412   6.784   6.987
 3915SOL    HW112644   4.352   6.845   6.935
 3915SOL    HW212645   4.405   6.691   6.950
 3916SOL     OW12646   2.750   0.069   3.066
 3916SOL    HW112647   2.783   0.149   3.016
 3916SOL    HW212648   2.803   7.011   3.038
 3917SOL     OW12649   2.054   4.495   0.852
 3917SOL    HW112650   2.036   4.438   0.932
 3917SOL    HW212651   2.142   4.541   0.863
 3918SOL     OW12652   3.869   0.220   0.972
 3918SOL    HW112653   3.965   0.247   0.968
 3918SOL    HW212654   3.811   0.298   0.948
 3919SOL     OW12655   3.900   0.525   6.665
 3919SOL    HW112656   3.979   0.506   6.723
 3919SOL    HW212657   3.820   0.542   6.723
 3920SOL     OW12658   2.508   0.748   0.187
 3920SOL    HW112659   2.453   0.730   0.105
 3920SOL    HW212660   2.462   0.817   0.243
 3921SOL     OW12661   0.271   2.285   6.503
 3921SOL    HW112662   0.180   2.289   6.462
 3921SOL    HW212663   0.330   2.226   6.447
 3922SOL     OW12664   4.756   5.073   1.438
 3922SOL    HW112665   4.776   4.992   1.383
 3922SOL    HW212666   4.673   5.117   1.403
 3923SOL     OW12667   5.644   2.204   0.909
 3923SOL    HW112668   5.663   2.279   0.972
 3923SOL    HW212669   5.652   2.237   0.814
 3924SOL     OW12670   0.574   4.524   3.240
 3924SOL    HW112671   0.637   4.579   3.296
 3924SOL    HW212672   0.532   4.454   3.297
 3925SOL     OW12673   5.117   4.961   1.479
 3925SOL    HW112674   5.045   5.024   1.505
 3925SOL    HW212675   5.203   4.988   1.523
 3926SOL     OW12676   0.390   0.199   5.297
 3926SOL    HW112677   0.319   0.134   5.326
 3926SOL    HW212678   0.354   0.292   5.298
 3927SOL     OW12679   0.788   3.091   4.116
 3927SOL    HW112680   0.845   3.014   4.089
 3927SOL    HW212681   0.843   3.175   4.116
 3928SOL     OW12682   3.292   5.982   2.682
 3928SOL    HW112683   3.203   6.024   2.701
 3928SOL    HW212684   3.283   5.882   2.681
 3929SOL     OW12685   0.277   0.889   0.408
 3929SOL    HW112686   0.298   0.966   0.347
 3929SOL    HW212687   0.269   0.922   0.502
 3930SOL     OW12688   0.851   2.157   3.584
 3930SOL    HW112689   0.933   2.157   3.641
 3930SOL    HW212690   0.869   2.209   3.500
 3931SOL     OW12691   1.851   1.995   1.735
 3931SOL    HW112692   1.909   2.055   1.790
 3931SOL    HW212693   1.759   2.033   1.731
 3932SOL     OW12694   2.744   5.231   4.580
 3932SOL    HW112695   2.665   5.261   4.528
 3932SOL    HW212696   2.731   5.136   4.609
 3933SOL     OW12697   1.512   6.777   0.223
 3933SOL    HW112698   1.446   6.851   0.233
 3933SOL    HW212699   1.589   6.792   0.285
 3934SOL     OW12700   0.036   0.913   3.031
 3934SOL    HW112701   0.118   0.971   3.026
 3934SOL    HW212702   7.008   0.918   2.945
 3935SOL     OW12703   0.569   1.691   5.886
 3935SOL    HW112704   0.536   1.598   5.864
 3935SOL    HW212705   0.537   1.717   5.977
 3936SOL     OW12706   6.802   6.248   5.553
 3936SOL    HW112707   6.886   6.201   5.526
 3936SOL    HW212708   6.750   6.274   5.471
 3937SOL     OW12709   0.508   6.075   3.363
 3937SOL    HW112710   0.451   6.126   3.298
 3937SOL    HW212711   0.459   6.064   3.449
 3938SOL     OW12712   6.628   3.528   4.246
 3938SOL    HW112713   6.557   3.548   4.314
 3938SOL    HW212714   6.609   3.440   4.204
 3939SOL     OW12715   2.724   1.681   3.887
 3939SOL    HW112716   2.636   1.706   3.927
 3939SOL    HW212717   2.710   1.650   3.793
 3940SOL     OW12718   2.691   4.775   1.870
 3940SOL    HW112719   2.747   4.712   1.923
 3940SOL    HW212720   2.635   4.831   1.931
 3941SOL     OW12721   5.633   6.899   4.277
 3941SOL    HW112722   5.698   6.974   4.291
 3941SOL    HW212723   5.623   6.848   4.363
 3942SOL     OW12724   0.994   6.157   5.498
 3942SOL    HW112725   1.089   6.147   5.529
 3942SOL    HW212726   0.977   6.253   5.476
 3943SOL     OW12727   0.890   3.148   2.240
 3943SOL    HW112728   0.815   3.111   2.185
 3943SOL    HW212729   0.887   3.248   2.236
 3944SOL     OW12730   5.442   3.903   5.810
 3944SOL    HW112731   5.510   3.920   5.881
 3944SOL    HW212732   5.482   3.846   5.739
 3945SOL     OW12733   1.279   2.093   3.521
 3945SOL    HW112734   1.260   2.005   3.478
 3945SOL    HW212735   1.239   2.166   3.467
 3946SOL     OW12736   0.390   4.093   6.640
 3946SOL    HW112737   0.364   4.029   6.568
 3946SOL    HW212738   0.449   4.047   6.706
 3947SOL     OW12739   5.858   4.920   0.549
 3947SOL    HW112740   5.918   4.969   0.486
 3947SOL    HW212741   5.775   4.891   0.502
 3948SOL     OW12742   1.418   3.824   0.056
 3948SOL    HW112743   1.337   3.862   0.011
 3948SOL    HW212744   1.427   3.864   0.148
 3949SOL     OW12745   6.298   0.194   3.457
 3949SOL    HW112746   6.315   0.134   3.535
 3949SOL    HW212747   6.383   0.206   3.405
 3950SOL     OW12748   4.149   4.021   1.775
 3950SOL    HW112749   4.235   4.070   1.791
 3950SOL    HW212750   4.099   4.013   1.861
 3951SOL     OW12751   6.994   1.563   6.953
 3951SOL    HW112752   6.957   1.646   6.995
 3951SOL    HW212753   0.062   1.544   6.990
 3952SOL     OW12754   5.995   3.080   4.385
 3952SOL    HW112755   5.915   3.028   4.414
 3952SOL    HW212756   6.078   3.032   4.414
 3953SOL     OW12757   3.388   4.429   5.599
 3953SOL    HW112758   3.356   4.391   5.512
 3953SOL    HW212759   3.374   4.362   5.672
 3954SOL     OW12760   6.153   4.984   5.785
 3954SOL    HW112761   6.190   5.000   5.876
 3954SOL    HW212762   6.135   5.071   5.739
 3955SOL     OW12763   4.739   6.275   7.013
 3955SOL    HW112764   4.790   6.189   7.004
 3955SOL    HW212765   4.717   6.310   6.922
 3956SOL     OW12766   0.610   2.901   5.094
 3956SOL    HW112767   0.636   2.987   5.139
 3956SOL    HW212768   0.527   2.915   5.040
 3957SOL     OW12769   3.178   5.890   3.382
 3957SOL    HW112770   3.122   5.956   3.431
 3957SOL    HW212771   3.216   5.824   3.448
 3958SOL     OW12772   5.786   6.726   0.147
 3958SOL    HW112773   5.772   6.675   0.232
 3958SOL    HW212774   5.844   6.672   0.085
 3959SOL     OW12775   3.401   6.517   0.935
 3959SOL    HW112776   3.405   6.444   1.004
 3959SOL    HW212777   3.492   6.529   0.894
 3960SOL     OW12778   5.382   2.609   6.065
 3960SOL    HW112779   5.303   2.628   6.123
 3960SOL    HW212780   5.352   2.603   5.969
 3961SOL     OW12781   4.897   2.242   1.530
 3961SOL    HW112782   4.980   2.291   1.556
 3961SOL    HW212783   4.922   2.151   1.496
 3962SOL     OW12784   0.671   5.849   6.717
 3962SOL    HW112785   0.662   5.940   6.758
 3962SOL    HW212786   0.628   5.781   6.775
 3963SOL     OW12787   6.028   5.514   3.553
 3963SOL    HW112788   6.092   5.445   3.588
 3963SOL    HW212789   6.075   5.573   3.488
 3964SOL     OW12790   4.763   5.602   5.311
 3964SOL    HW112791   4.704   5.665   5.361
 3964SOL    HW212792   4.780   5.520   5.366
 3965SOL     OW12793   3.472   4.863   5.998
 3965SOL    HW112794   3.411   4.824   5.929
 3965SOL    HW212795   3.562   4.878   5.957
 3966SOL     OW12796   6.341   5.094   6.843
 3966SOL    HW112797   6.246   5.070   6.862
 3966SOL    HW212798   6.371   5.166   6.905
 3967SOL     OW12799   1.045   4.989   3.209
 3967SOL    HW112800   1.082   4.999   3.117
 3967SOL    HW212801   1.015   5.078   3.243
 3968SOL     OW12802   5.611   0.662   2.330
 3968SOL    HW112803   5.615   0.585   2.393
 3968SOL    HW212804   5.630   0.630   2.237
 3969SOL     OW12805   0.782   4.822   2.705
 3969SOL    HW112806   0.779   4.846   2.608
 3969SOL    HW212807   0.827   4.733   2.716
 3970SOL     OW12808   4.958   5.341   3.583
 3970SOL    HW112809   4.910   5.346   3.495
 3970SOL    HW212810   4.918   5.407   3.646
 3971SOL     OW12811   3.176   5.362   2.547
 3971SOL    HW112812   3.228   5.440   2.512
 3971SOL    HW212813   3.159   5.374   2.645
 3972SOL     OW12814   0.762   5.962   0.404
 3972SOL    HW112815   0.689   6.028   0.387
 3972SOL    HW212816   0.730   5.870   0.381
 3973SOL     OW12817   3.513   3.568   4.820
 3973SOL    HW112818   3.498   3.663   4.796
 3973SOL    HW212819   3.603   3.538   4.787
 3974SOL     OW12820   0.702   0.753   6.228
 3974SOL    HW112821   0.794   0.725   6.256
 3974SOL    HW212822   0.699   0.853   6.219
 3975SOL     OW12823   6.584   0.455   5.926
 3975SOL    HW112824   6.639   0.537   5.937
 3975SOL    HW212825   6.511   0.453   5.994
 3976SOL     OW12826   1.232   4.960   1.068
 3976SOL    HW112827   1.204   4.942   0.974
 3976SOL    HW212828   1.326   4.996   1.069
 3977SOL     OW12829   2.984   5.374   5.850
 3977SOL    HW112830   2.913   5.321   5.804
 3977SOL    HW212831   3.049   5.312   5.894
 3978SOL     OW12832   5.215   0.653   4.795
 3978SOL    HW112833   5.255   0.740   4.767
 3978SOL    HW212834   5.234   0.583   4.725
 3979SOL     OW12835   2.134   6.154   1.909
 3979SOL    HW112836   2.202   6.113   1.848
 3979SOL    HW212837   2.181   6.195   1.988
 3980SOL     OW12838   6.816   3.899   5.623
 3980SOL    HW112839   6.873   3.972   5.660
 3980SOL    HW212840   6.760   3.860   5.697
 3981SOL     OW12841   1.056   1.712   5.892
 3981SOL    HW112842   1.083   1.802   5.926
 3981SOL    HW212843   0.965   1.690   5.926
 3982SOL     OW12844   2.801   0.597   4.474
 3982SOL    HW112845   2.744   0.522   4.439
 3982SOL    HW212846   2.885   0.602   4.420
 3983SOL     OW12847   3.046   5.877   4.278
 3983SOL    HW112848   3.023   5.789   4.320
 3983SOL    HW212849   2.991   5.889   4.195
 3984SOL     OW12850   2.237   0.106   1.366
 3984SOL    HW112851   2.154   0.138   1.411
 3984SOL    HW212852   2.316   0.129   1.423
 3985SOL     OW12853   2.158   3.872   6.800
 3985SOL    HW112854   2.155   3.912   6.892
 3985SOL    HW212855   2.091   3.917   6.742
 3986SOL     OW12856   0.484   1.633   2.738
 3986SOL    HW112857   0.561   1.584   2.778
 3986SOL    HW212858   0.427   1.670   2.811
 3987SOL     OW12859   1.630   5.266   4.942
 3987SOL    HW112860   1.606   5.363   4.932
 3987SOL    HW212861   1.573   5.211   4.881
 3988SOL     OW12862   3.685   1.735   5.533
 3988SOL    HW112863   3.678   1.637   5.547
 3988SOL    HW212864   3.660   1.758   5.439
 3989SOL     OW12865   5.899   0.505   5.884
 3989SOL    HW112866   5.843   0.579   5.921
 3989SOL    HW212867   5.961   0.541   5.815
 3990SOL     OW12868   5.656   1.951   4.355
 3990SOL    HW112869   5.593   1.873   4.363
 3990SOL    HW212870   5.695   1.954   4.263
 3991SOL     OW12871   6.802   2.258   3.534
 3991SOL    HW112872   6.857   2.340   3.548
 3991SOL    HW212873   6.711   2.272   3.572
 3992SOL     OW12874   4.640   3.019   6.788
 3992SOL    HW112875   4.615   3.098   6.844
 3992SOL    HW212876   4.731   3.033   6.750
 3993SOL     OW12877   2.572   1.940   3.602
 3993SOL    HW112878   2.550   2.037   3.613
 3993SOL    HW212879   2.600   1.923   3.508
 3994SOL     OW12880   2.050   2.629   4.769
 3994SOL    HW112881   1.999   2.594   4.848
 3994SOL    HW212882   2.147   2.607   4.780
 3995SOL     OW12883   2.324   4.904   4.073
 3995SOL    HW112884   2.386   4.919   3.996
 3995SOL    HW212885   2.358   4.955   4.153
 3996SOL     OW12886   1.943   1.347   5.103
 3996SOL    HW112887   1.849   1.324   5.130
 3996SOL    HW212888   2.007   1.293   5.158
 3997SOL     OW12889   4.850   3.913   3.535
 3997SOL    HW112890   4.948   3.911   3.555
 3997SOL    HW212891   4.834   3.868   3.447
 3998SOL     OW12892   5.356   2.188   2.218
 3998SOL    HW112893   5.332   2.152   2.128
 3998SOL    HW212894   5.325   2.125   2.289
 3999SOL     OW12895   5.986   3.723   3.694
 3999SOL    HW112896   6.014   3.817   3.673
 3999SOL    HW212897   5.935   3.686   3.616
 4000SOL     OW12898   3.334   5.133   2.617
 4000SOL    HW112899   3.294   5.221   2.592
 4000SOL    HW212900   3.429   5.145   2.644
 4001SOL     OW12901   2.165   3.595   5.327
 4001SOL    HW112902   2.209   3.685   5.330
 4001SOL    HW212903   2.069   3.606   5.298
 4002SOL     OW12904   3.709   3.880   5.016
 4002SOL    HW112905   3.738   3.806   4.956
 4002SOL    HW212906   3.789   3.933   5.045
 4003SOL     OW12907   2.110   1.149   5.840
 4003SOL    HW112908   2.187   1.102   5.881
 4003SOL    HW212909   2.137   1.242   5.813
 4004SOL     OW12910   5.993   2.729   4.681
 4004SOL    HW112911   6.067   2.794   4.697
 4004SOL    HW212912   5.939   2.719   4.764
 4005SOL     OW12913   5.262   4.706   1.222
 4005SOL    HW112914   5.268   4.613   1.185
 4005SOL    HW212915   5.181   4.712   1.281
 4006SOL     OW12916   5.235   4.655   2.218
 4006SOL    HW112917   5.281   4.744   2.220
 4006SOL    HW212918   5.236   4.615   2.310
 4007SOL     OW12919   0.517   2.418   2.836
 4007SOL    HW112920   0.585   2.369   2.890
 4007SOL    HW212921   0.564   2.482   2.775
 4008SOL     OW12922   3.301   1.502   5.907
 4008SOL    HW112923   3.323   1.557   5.826
 4008SOL    HW212924   3.269   1.562   5.980
 4009SOL     OW12925   4.136   1.940   1.088
 4009SOL    HW112926   4.077   1.863   1.068
 4009SOL    HW212927   4.135   2.004   1.011
 4010SOL     OW12928   2.646   3.266   1.605
 4010SOL    HW112929   2.564   3.212   1.623
 4010SOL    HW212930   2.638   3.355   1.650
 4011SOL     OW12931   0.197   6.729   1.881
 4011SOL    HW112932   0.266   6.662   1.851
 4011SOL    HW212933   0.209   6.814   1.830
 4012SOL     OW12934   4.434   6.156   1.975
 4012SOL    HW112935   4.475   6.243   1.951
 4012SOL    HW212936   4.354   6.172   2.034
 4013SOL     OW12937   2.409   0.344   1.158
 4013SOL    HW112938   2.339   0.328   1.088
 4013SOL    HW212939   2.393   0.283   1.236
 4014SOL     OW12940   3.534   5.801   4.022
 4014SOL    HW112941   3.451   5.842   4.059
 4014SOL    HW212942   3.534   5.809   3.922
 4015SOL     OW12943   4.312   4.460   6.973
 4015SOL    HW112944   4.353   4.395   0.014
 4015SOL    HW212945   4.213   4.455   6.978
 4016SOL     OW12946   2.352   5.937   0.088
 4016SOL    HW112947   2.321   5.885   0.009
 4016SOL    HW212948   2.287   6.011   0.108
 4017SOL     OW12949   0.832   6.187   5.973
 4017SOL    HW112950   0.855   6.137   6.056
 4017SOL    HW212951   0.830   6.285   5.993
 4018SOL     OW12952   4.792   6.709   1.047
 4018SOL    HW112953   4.871   6.648   1.054
 4018SOL    HW212954   4.822   6.797   1.009
 4019SOL     OW12955   5.834   4.063   2.941
 4019SOL    HW112956   5.771   4.008   2.996
 4019SOL    HW212957   5.925   4.020   2.941
 4020SOL     OW12958   6.959   3.232   5.924
 4020SOL    HW112959   6.877   3.184   5.955
 4020SOL    HW212960   6.993   3.292   5.996
 4021SOL     OW12961   3.481   3.945   5.127
 4021SOL    HW112962   3.563   3.929   5.072
 4021SOL    HW212963   3.400   3.917   5.074
 4022SOL     OW12964   4.661   6.911   6.977
 4022SOL    HW112965   4.574   6.863   6.969
 4022SOL    HW212966   4.650   6.989   0.017
 4023SOL     OW12967   0.461   0.568   4.156
 4023SOL    HW112968   0.383   0.560   4.094
 4023SOL    HW212969   0.434   0.620   4.237
 4024SOL     OW12970   2.504   5.560   4.258
 4024SOL    HW112971   2.405   5.557   4.245
 4024SOL    HW212972   2.528   5.507   4.339
 4025SOL     OW12973   0.908   6.369   4.012
 4025SOL    HW112974   0.849   6.329   3.942
 4025SOL    HW212975   0.857   6.379   4.097
 4026SOL     OW12976   6.060   6.663   3.182
 4026SOL    HW112977   5.974   6.690   3.139
 4026SOL    HW212978   6.056   6.682   3.280
 4027SOL     OW12979   2.675   2.221   0.545
 4027SOL    HW112980   2.669   2.286   0.621
 4027SOL    HW212981   2.646   2.267   0.460
 4028SOL     OW12982   3.759   1.498   3.518
 4028SOL    HW112983   3.755   1.550   3.603
 4028SOL    HW212984   3.793   1.556   3.444
 4029SOL     OW12985   3.211   4.400   5.930
 4029SOL    HW112986   3.213   4.491   5.887
 4029SOL    HW212987   3.277   4.340   5.884
 4030SOL     OW12988   0.491   1.668   1.633
 4030SOL    HW112989   0.548   1.740   1.674
 4030SOL    HW212990   0.548   1.589   1.611
 4031SOL     OW12991   5.273   5.757   3.422
 4031SOL    HW112992   5.365   5.771   3.459
 4031SOL    HW212993   5.212   5.828   3.456
 4032SOL     OW12994   6.504   0.638   2.025
 4032SOL    HW112995   6.425   0.614   2.081
 4032SOL    HW212996   6.495   0.599   1.934
 4033SOL     OW12997   2.182   3.558   1.378
 4033SOL    HW112998   2.102   3.527   1.326
 4033SOL    HW212999   2.157   3.572   1.474
 4034SOL     OW13000   6.492   1.712   4.540
 4034SOL    HW113001   6.426   1.749   4.474
 4034SOL    HW213002   6.468   1.743   4.632
 4035SOL     OW13003   6.339   2.287   1.306
 4035SOL    HW113004   6.428   2.333   1.315
 4035SOL    HW213005   6.315   2.281   1.209
 4036SOL     OW13006   4.302   5.512   2.514
 4036SOL    HW113007   4.254   5.595   2.543
 4036SOL    HW213008   4.388   5.537   2.469
 4037SOL     OW13009   2.041   1.314   0.193
 4037SOL    HW113010   2.061   1.237   0.253
 4037SOL    HW213011   1.947   1.306   0.159
 4038SOL     OW13012   4.761   3.022   1.520
 4038SOL    HW113013   4.750   2.931   1.559
 4038SOL    HW213014   4.799   3.084   1.589
 4039SOL     OW13015   5.620   4.936   1.703
 4039SOL    HW113016   5.581   4.919   1.612
 4039SOL    HW213017   5.692   5.005   1.696
 4040SOL     OW13018   3.894   6.976   6.103
 4040SOL    HW113019   3.956   6.973   6.024
 4040SOL    HW213020   3.803   6.944   6.075
 4041SOL     OW13021   1.066   5.041   1.264
 4041SOL    HW113022   0.966   5.039   1.272
 4041SOL    HW213023   1.094   4.997   1.179
 4042SOL     OW13024   6.240   5.498   3.144
 4042SOL    HW113025   6.238   5.558   3.224
 4042SOL    HW213026   6.295   5.540   3.072
 4043SOL     OW13027   6.119   1.800   5.020
 4043SOL    HW113028   6.132   1.899   5.021
 4043SOL    HW213029   6.065   1.773   5.100
 4044SOL     OW13030   4.546   0.094   3.284
 4044SOL    HW113031   4.537   0.161   3.358
 4044SOL    HW213032   4.635   0.104   3.240
 4045SOL     OW13033   3.757   5.864   5.066
 4045SOL    HW113034   3.705   5.942   5.033
 4045SOL    HW213035   3.797   5.885   5.155
 4046SOL     OW13036   1.445   1.789   4.293
 4046SOL    HW113037   1.542   1.809   4.302
 4046SOL    HW213038   1.414   1.737   4.373
 4047SOL     OW13039   2.071   2.297   0.189
 4047SOL    HW113040   2.065   2.396   0.200
 4047SOL    HW213041   2.067   2.254   0.279
 4048SOL     OW13042   4.873   2.022   1.842
 4048SOL    HW113043   4.855   1.931   1.806
 4048SOL    HW213044   4.823   2.090   1.788
 4049SOL     OW13045   6.228   5.094   6.346
 4049SOL    HW113046   6.315   5.106   6.298
 4049SOL    HW213047   6.217   4.997   6.369
 4050SOL     OW13048   1.553   0.339   1.516
 4050SOL    HW113049   1.501   0.419   1.546
 4050SOL    HW213050   1.613   0.308   1.589
 4051SOL     OW13051   4.047   2.018   0.138
 4051SOL    HW113052   4.029   1.986   0.044
 4051SOL    HW213053   4.033   1.942   0.201
 4052SOL     OW13054   6.801   1.275   3.024
 4052SOL    HW113055   6.795   1.372   3.000
 4052SOL    HW213056   6.873   1.262   3.091
 4053SOL     OW13057   3.011   5.598   3.790
 4053SOL    HW113058   3.010   5.691   3.752
 4053SOL    HW213059   3.074   5.595   3.867
 4054SOL     OW13060   6.150   3.733   1.844
 4054SOL    HW113061   6.121   3.803   1.909
 4054SOL    HW213062   6.150   3.770   1.752
 4055SOL     OW13063   3.153   3.009   0.082
 4055SOL    HW113064   3.092   3.033   0.007
 4055SOL    HW213065   3.107   3.027   0.169
 4056SOL     OW13066   3.982   4.064   0.505
 4056SOL    HW113067   4.057   4.035   0.564
 4056SOL    HW213068   3.900   4.078   0.560
 4057SOL     OW13069   6.026   2.851   1.576
 4057SOL    HW113070   6.065   2.943   1.566
 4057SOL    HW213071   5.928   2.858   1.591
 4058SOL     OW13072   1.921   0.138   4.638
 4058SOL    HW113073   1.852   0.081   4.683
 4058SOL    HW213074   1.911   0.233   4.668
 4059SOL     OW13075   1.744   1.949   3.342
 4059SOL    HW113076   1.796   2.006   3.406
 4059SOL    HW213077   1.682   2.007   3.289
 4060SOL     OW13078   5.626   5.598   4.627
 4060SOL    HW113079   5.705   5.539   4.643
 4060SOL    HW213080   5.544   5.542   4.617
 4061SOL     OW13081   2.851   4.818   2.206
 4061SOL    HW113082   2.949   4.815   2.221
 4061SOL    HW213083   2.820   4.730   2.168
 4062SOL     OW13084   1.795   2.181   2.223
 4062SOL    HW113085   1.707   2.222   2.245
 4062SOL    HW213086   1.791   2.141   2.131
 4063SOL     OW13087   6.226   6.531   6.669
 4063SOL    HW113088   6.220   6.599   6.595
 4063SOL    HW213089   6.161   6.458   6.652
 4064SOL     OW13090   2.464   0.236   3.745
 4064SOL    HW113091   2.542   0.287   3.710
 4064SOL    HW213092   2.490   0.191   3.830
 4065SOL     OW13093   0.489   0.068   1.244
 4065SOL    HW113094   0.389   0.075   1.254
 4065SOL    HW213095   0.527   0.160   1.230
 4066SOL     OW13096   5.623   5.354   3.857
 4066SOL    HW113097   5.539   5.347   3.804
 4066SOL    HW213098   5.670   5.266   3.857
 4067SOL     OW13099   6.275   3.107   3.039
 4067SOL    HW113100   6.179   3.097   3.012
 4067SOL    HW213101   6.328   3.029   3.006
 4068SOL     OW13102   2.560   1.222   4.671
 4068SOL    HW113103   2.603   1.308   4.700
 4068SOL    HW213104   2.582   1.205   4.575
 4069SOL     OW13105   2.447   5.217   6.204
 4069SOL    HW113106   2.493   5.306   6.195
 4069SOL    HW213107   2.425   5.201   6.300
 4070SOL     OW13108   0.262   3.460   2.352
 4070SOL    HW113109   0.325   3.506   2.415
 4070SOL    HW213110   0.270   3.361   2.363
 4071SOL     OW13111   1.334   0.702   5.489
 4071SOL    HW113112   1.344   0.763   5.411
 4071SOL    HW213113   1.237   0.684   5.505
 4072SOL     OW13114   0.284   5.524   4.309
 4072SOL    HW113115   0.361   5.479   4.263
 4072SOL    HW213116   0.198   5.492   4.269
 4073SOL     OW13117   2.735   6.092   6.603
 4073SOL    HW113118   2.680   6.093   6.520
 4073SOL    HW213119   2.727   6.180   6.650
 4074SOL     OW13120   6.880   3.427   1.985
 4074SOL    HW113121   6.871   3.497   1.914
 4074SOL    HW213122   6.794   3.418   2.034
 4075SOL     OW13123   3.805   1.971   1.973
 4075SOL    HW113124   3.784   2.047   2.034
 4075SOL    HW213125   3.778   1.994   1.880
 4076SOL     OW13126   2.722   2.714   5.611
 4076SOL    HW113127   2.677   2.666   5.686
 4076SOL    HW213128   2.783   2.784   5.648
 4077SOL     OW13129   3.218   0.939   0.773
 4077SOL    HW113130   3.317   0.923   0.766
 4077SOL    HW213131   3.190   0.936   0.869
 4078SOL     OW13132   0.118   6.109   2.013
 4078SOL    HW113133   0.055   6.059   1.954
 4078SOL    HW213134   0.158   6.046   2.080
 4079SOL     OW13135   1.635   2.093   3.931
 4079SOL    HW113136   1.621   2.129   3.838
 4079SOL    HW213137   1.554   2.042   3.959
 4080SOL     OW13138   3.557   4.355   6.710
 4080SOL    HW113139   3.567   4.274   6.767
 4080SOL    HW213140   3.633   4.359   6.644
 4081SOL     OW13141   1.846   2.711   4.580
 4081SOL    HW113142   1.830   2.808   4.599
 4081SOL    HW213143   1.918   2.677   4.641
 4082SOL     OW13144   1.512   3.420   0.813
 4082SOL    HW113145   1.529   3.449   0.908
 4082SOL    HW213146   1.596   3.384   0.774
 4083SOL     OW13147   0.117   4.515   1.629
 4083SOL    HW113148   0.050   4.558   1.569
 4083SOL    HW213149   0.110   4.415   1.621
 4084SOL     OW13150   4.736   2.093   3.490
 4084SOL    HW113151   4.817   2.054   3.446
 4084SOL    HW213152   4.752   2.190   3.510
 4085SOL     OW13153   2.369   6.177   0.921
 4085SOL    HW113154   2.339   6.273   0.920
 4085SOL    HW213155   2.324   6.127   0.847
 4086SOL     OW13156   1.121   5.472   1.711
 4086SOL    HW113157   1.080   5.462   1.802
 4086SOL    HW213158   1.149   5.382   1.677
 4087SOL     OW13159   1.895   1.356   3.467
 4087SOL    HW113160   1.982   1.316   3.497
 4087SOL    HW213161   1.862   1.419   3.538
 4088SOL     OW13162   5.944   0.780   6.691
 4088SOL    HW113163   5.911   0.790   6.784
 4088SOL    HW213164   5.875   0.735   6.635
 4089SOL     OW13165   5.825   5.307   4.057
 4089SOL    HW113166   5.879   5.355   3.988
 4089SOL    HW213167   5.731   5.297   4.023
 4090SOL     OW13168   1.429   5.679   5.068
 4090SOL    HW113169   1.340   5.644   5.040
 4090SOL    HW213170   1.444   5.660   5.165
 4091SOL     OW13171   6.567   6.495   6.481
 4091SOL    HW113172   6.582   6.511   6.384
 4091SOL    HW213173   6.484   6.441   6.494
 4092SOL     OW13174   5.808   2.254   4.441
 4092SOL    HW113175   5.816   2.334   4.500
 4092SOL    HW213176   5.713   2.223   4.439
 4093SOL     OW13177   4.550   5.670   2.386
 4093SOL    HW113178   4.544   5.707   2.293
 4093SOL    HW213179   4.623   5.603   2.391
 4094SOL     OW13180   1.869   5.393   5.625
 4094SOL    HW113181   1.946   5.361   5.569
 4094SOL    HW213182   1.791   5.412   5.566
 4095SOL     OW13183   0.817   3.466   0.365
 4095SOL    HW113184   0.834   3.369   0.348
 4095SOL    HW213185   0.901   3.508   0.401
 4096SOL     OW13186   4.854   0.015   6.496
 4096SOL    HW113187   4.868   7.015   6.592
 4096SOL    HW213188   4.809   6.960   6.451
 4097SOL     OW13189   4.086   4.961   4.979
 4097SOL    HW113190   4.152   4.896   4.943
 4097SOL    HW213191   3.995   4.940   4.944
 4098SOL     OW13192   6.727   2.641   1.654
 4098SOL    HW113193   6.730   2.546   1.686
 4098SOL    HW213194   6.816   2.684   1.670
 4099SOL     OW13195   3.432   5.002   1.210
 4099SOL    HW113196   3.335   5.026   1.213
 4099SOL    HW213197   3.458   4.957   1.295
 4100SOL     OW13198   7.003   0.258   4.508
 4100SOL    HW113199   6.962   0.293   4.592
 4100SOL    HW213200   6.988   0.323   4.434
 4101SOL     OW13201   6.369   0.964   6.272
 4101SOL    HW113202   6.424   0.909   6.336
 4101SOL    HW213203   6.276   0.927   6.267
 4102SOL     OW13204   0.116   0.723   0.657
 4102SOL    HW113205   0.212   0.724   0.683
 4102SOL    HW213206   0.103   0.662   0.579
 4103SOL     OW13207   6.931   0.004   0.048
 4103SOL    HW113208   6.990   0.082   0.065
 4103SOL    HW213209   6.922   6.972   0.132
 4104SOL     OW13210   6.866   4.802   2.777
 4104SOL    HW113211   6.814   4.797   2.862
 4104SOL    HW213212   6.813   4.852   2.708
 4105SOL     OW13213   5.398   0.031   1.863
 4105SOL    HW113214   5.409   0.130   1.850
 4105SOL    HW213215   5.384   7.010   1.774
 4106SOL     OW13216   6.451   3.229   2.835
 4106SOL    HW113217   6.370   3.230   2.893
 4106SOL    HW213218   6.453   3.311   2.778
 4107SOL     OW13219   0.954   5.106   0.734
 4107SOL    HW113220   1.038   5.055   0.747
 4107SOL    HW213221   0.965   5.199   0.771
 4108SOL     OW13222   5.950   4.952   5.602
 4108SOL    HW113223   6.016   4.943   5.677
 4108SOL    HW213224   5.954   5.045   5.566
 4109SOL     OW13225   6.486   6.746   4.529
 4109SOL    HW113226   6.409   6.741   4.466
 4109SOL    HW213227   6.465   6.811   4.602
 4110SOL     OW13228   4.465   3.541   6.186
 4110SOL    HW113229   4.545   3.588   6.148
 4110SOL    HW213230   4.477   3.442   6.176
 4111SOL     OW13231   5.274   3.663   0.182
 4111SOL    HW113232   5.272   3.709   0.093
 4111SOL    HW213233   5.195   3.602   0.189
 4112SOL     OW13234   5.179   6.089   4.687
 4112SOL    HW113235   5.149   6.184   4.676
 4112SOL    HW213236   5.101   6.028   4.673
 4113SOL     OW13237   5.220   6.222   5.085
 4113SOL    HW113238   5.239   6.314   5.053
 4113SOL    HW213239   5.267   6.156   5.026
 4114SOL     OW13240   3.625   2.132   4.304
 4114SOL    HW113241   3.645   2.155   4.208
 4114SOL    HW213242   3.528   2.145   4.322
 4115SOL     OW13243   3.555   5.478   1.845
 4115SOL    HW113244   3.598   5.392   1.815
 4115SOL    HW213245   3.478   5.456   1.904
 4116SOL     OW13246   3.587   0.924   2.327
 4116SOL    HW113247   3.625   0.976   2.404
 4116SOL    HW213248   3.637   0.947   2.244
 4117SOL     OW13249   1.544   3.671   2.532
 4117SOL    HW113250   1.554   3.769   2.553
 4117SOL    HW213251   1.513   3.660   2.438
 4118SOL     OW13252   4.358   5.850   0.117
 4118SOL    HW113253   4.274   5.838   0.063
 4118SOL    HW213254   4.353   5.793   0.199
 4119SOL     OW13255   3.145   1.926   3.940
 4119SOL    HW113256   3.204   1.869   3.997
 4119SOL    HW213257   3.139   2.018   3.978
 4120SOL     OW13258   3.530   1.084   6.604
 4120SOL    HW113259   3.471   1.082   6.524
 4120SOL    HW213260   3.475   1.087   6.687
 4121SOL     OW13261   5.940   0.894   4.329
 4121SOL    HW113262   6.029   0.883   4.285
 4121SOL    HW213263   5.953   0.914   4.426
 4122SOL     OW13264   1.186   6.016   4.012
 4122SOL    HW113265   1.272   6.063   4.027
 4122SOL    HW213266   1.117   6.051   4.075
 4123SOL     OW13267   4.118   4.659   5.446
 4123SOL    HW113268   4.079   4.735   5.393
 4123SOL    HW213269   4.185   4.696   5.511
 4124SOL     OW13270   0.255   6.153   0.092
 4124SOL    HW113271   0.230   6.248   0.111
 4124SOL    HW213272   0.194   6.116   0.021
 4125SOL     OW13273   4.861   1.538   2.283
 4125SOL    HW113274   4.792   1.471   2.256
 4125SOL    HW213275   4.912   1.568   2.202
 4126SOL     OW13276   1.758   3.504   4.401
 4126SOL    HW113277   1.662   3.527   4.383
 4126SOL    HW213278   1.796   3.568   4.467
 4127SOL     OW13279   5.324   4.829   5.094
 4127SOL    HW113280   5.282   4.903   5.146
 4127SOL    HW213281   5.333   4.748   5.153
 4128SOL     OW13282   0.902   2.721   2.015
 4128SOL    HW113283   0.939   2.636   1.977
 4128SOL    HW213284   0.863   2.776   1.942
 4129SOL     OW13285   4.042   1.329   6.068
 4129SOL    HW113286   4.123   1.311   6.012
 4129SOL    HW213287   3.963   1.282   6.029
 4130SOL     OW13288   6.982   3.291   6.918
 4130SOL    HW113289   0.031   3.299   6.848
 4130SOL    HW213290   0.001   3.289   7.009
 4131SOL     OW13291   0.556   1.372   3.562
 4131SOL    HW113292   0.557   1.444   3.632
 4131SOL    HW213293   0.489   1.395   3.492
 4132SOL     OW13294   5.019   4.185   3.490
 4132SOL    HW113295   4.925   4.195   3.460
 4132SOL    HW213296   5.032   4.093   3.528
 4133SOL     OW13297   3.165   5.632   0.802
 4133SOL    HW113298   3.150   5.535   0.781
 4133SOL    HW213299   3.247   5.664   0.756
 4134SOL     OW13300   2.409   3.805   1.037
 4134SOL    HW113301   2.465   3.876   1.078
 4134SOL    HW213302   2.422   3.719   1.087
 4135SOL     OW13303   1.175   1.526   2.768
 4135SOL    HW113304   1.209   1.432   2.775
 4135SOL    HW213305   1.111   1.544   2.842
 4136SOL     OW13306   1.507   2.935   3.773
 4136SOL    HW113307   1.423   2.951   3.721
 4136SOL    HW213308   1.519   3.007   3.841
 4137SOL     OW13309   1.021   4.348   1.141
 4137SOL    HW113310   1.034   4.252   1.117
 4137SOL    HW213311   1.003   4.356   1.239
 4138SOL     OW13312   4.993   5.837   2.599
 4138SOL    HW113313   4.928   5.770   2.565
 4138SOL    HW213314   5.018   5.900   2.526
 4139SOL     OW13315   1.929   1.753   5.763
 4139SOL    HW113316   2.005   1.732   5.824
 4139SOL    HW213317   1.961   1.750   5.668
 4140SOL     OW13318   3.510   0.247   5.622
 4140SOL    HW113319   3.557   0.230   5.535
 4140SOL    HW213320   3.420   0.286   5.605
 4141SOL     OW13321   5.707   6.417   0.724
 4141SOL    HW113322   5.654   6.355   0.782
 4141SOL    HW213323   5.749   6.365   0.649
 4142SOL     OW13324   6.741   4.818   1.088
 4142SOL    HW113325   6.803   4.744   1.114
 4142SOL    HW213326   6.737   4.886   1.162
 4143SOL     OW13327   5.599   1.923   0.650
 4143SOL    HW113328   5.658   1.964   0.580
 4143SOL    HW213329   5.511   1.899   0.609
 4144SOL     OW13330   4.831   3.011   0.047
 4144SOL    HW113331   4.868   2.935   7.016
 4144SOL    HW213332   4.787   2.974   0.129
 4145SOL     OW13333   0.089   6.465   1.394
 4145SOL    HW113334   0.040   6.494   1.476
 4145SOL    HW213335   0.187   6.460   1.414
 4146SOL     OW13336   6.469   0.228   3.045
 4146SOL    HW113337   6.512   0.307   3.002
 4146SOL    HW213338   6.371   0.228   3.024
 4147SOL     OW13339   4.919   4.230   6.490
 4147SOL    HW113340   4.832   4.192   6.459
 4147SOL    HW213341   4.912   4.257   6.585
 4148SOL     OW13342   1.278   0.407   5.347
 4148SOL    HW113343   1.210   0.474   5.315
 4148SOL    HW213344   1.275   0.403   5.447
 4149SOL     OW13345   0.231   3.401   0.839
 4149SOL    HW113346   0.314   3.454   0.857
 4149SOL    HW213347   0.155   3.464   0.819
 4150SOL     OW13348   1.234   0.404   5.627
 4150SOL    HW113349   1.146   0.357   5.637
 4150SOL    HW213350   1.218   0.503   5.631
 4151SOL     OW13351   2.459   5.994   5.662
 4151SOL    HW113352   2.532   5.950   5.610
 4151SOL    HW213353   2.370   5.960   5.630
 4152SOL     OW13354   4.388   5.665   0.775
 4152SOL    HW113355   4.385   5.738   0.707
 4152SOL    HW213356   4.436   5.698   0.857
 4153SOL     OW13357   5.132   5.421   0.133
 4153SOL    HW113358   5.081   5.503   0.161
 4153SOL    HW213359   5.156   5.429   0.036
 4154SOL     OW13360   7.008   5.442   3.116
 4154SOL    HW113361   7.002   5.465   3.213
 4154SOL    HW213362   0.016   5.347   3.106
 4155SOL     OW13363   1.059   1.219   3.148
 4155SOL    HW113364   1.142   1.234   3.095
 4155SOL    HW213365   1.069   1.260   3.239
 4156SOL     OW13366   5.792   6.061   4.846
 4156SOL    HW113367   5.740   5.992   4.796
 4156SOL    HW213368   5.788   6.041   4.944
 4157SOL     OW13369   4.446   5.265   3.839
 4157SOL    HW113370   4.443   5.227   3.932
 4157SOL    HW213371   4.388   5.210   3.780
 4158SOL     OW13372   0.320   4.052   1.848
 4158SOL    HW113373   0.304   3.959   1.880
 4158SOL    HW213374   0.400   4.053   1.789
 4159SOL     OW13375   1.655   3.795   3.953
 4159SOL    HW113376   1.574   3.840   3.916
 4159SOL    HW213377   1.630   3.743   4.035
 4160SOL     OW13378   6.340   0.974   0.926
 4160SOL    HW113379   6.362   0.943   1.018
 4160SOL    HW213380   6.273   0.911   0.885
 4161SOL     OW13381   0.857   1.426   1.130
 4161SOL    HW113382   0.786   1.396   1.066
 4161SOL    HW213383   0.827   1.409   1.224
 4162SOL     OW13384   6.955   6.032   6.514
 4162SOL    HW113385   6.987   6.127   6.504
 4162SOL    HW213386   6.982   5.998   6.604
 4163SOL     OW13387   4.967   6.825   3.095
 4163SOL    HW113388   4.953   6.777   3.181
 4163SOL    HW213389   4.945   6.763   3.019
 4164SOL     OW13390   1.759   6.836   5.758
 4164SOL    HW113391   1.723   6.750   5.721
 4164SOL    HW213392   1.858   6.836   5.753
 4165SOL     OW13393   4.178   0.048   6.365
 4165SOL    HW113394   4.116   0.034   6.442
 4165SOL    HW213395   4.192   6.983   6.318
 4166SOL     OW13396   6.326   2.730   0.710
 4166SOL    HW113397   6.306   2.709   0.615
 4166SOL    HW213398   6.241   2.741   0.761
 4167SOL     OW13399   1.583   3.677   0.951
 4167SOL    HW113400   1.600   3.776   0.957
 4167SOL    HW213401   1.553   3.654   0.859
 4168SOL     OW13402   6.593   4.613   1.261
 4168SOL    HW113403   6.553   4.659   1.341
 4168SOL    HW213404   6.684   4.651   1.242
 4169SOL     OW13405   6.167   4.138   4.554
 4169SOL    HW113406   6.161   4.236   4.538
 4169SOL    HW213407   6.168   4.120   4.653
 4170SOL     OW13408   4.587   4.229   5.888
 4170SOL    HW113409   4.640   4.288   5.948
 4170SOL    HW213410   4.648   4.163   5.844
 4171SOL     OW13411   6.544   5.975   0.596
 4171SOL    HW113412   6.450   6.000   0.572
 4171SOL    HW213413   6.547   5.878   0.621
 4172SOL     OW13414   0.965   1.996   5.929
 4172SOL    HW113415   0.898   1.928   5.899
 4172SOL    HW213416   0.920   2.084   5.942
 4173SOL     OW13417   5.323   4.132   5.661
 4173SOL    HW113418   5.352   4.053   5.715
 4173SOL    HW213419   5.279   4.101   5.577
 4174SOL     OW13420   5.748   0.416   3.494
 4174SOL    HW113421   5.705   0.501   3.523
 4174SOL    HW213422   5.703   0.338   3.539
 4175SOL     OW13423   2.176   6.393   4.202
 4175SOL    HW113424   2.248   6.395   4.272
 4175SOL    HW213425   2.192   6.316   4.140
 4176SOL     OW13426   3.155   5.913   2.112
 4176SOL    HW113427   3.169   6.012   2.110
 4176SOL    HW213428   3.243   5.867   2.098
 4177SOL     OW13429   6.617   4.161   5.325
 4177SOL    HW113430   6.658   4.243   5.364
 4177SOL    HW213431   6.538   4.186   5.270
 4178SOL     OW13432   4.750   0.724   3.611
 4178SOL    HW113433   4.768   0.765   3.700
 4178SOL    HW213434   4.819   0.654   3.592
 4179SOL     OW13435   4.671   2.499   3.750
 4179SOL    HW113436   4.654   2.442   3.830
 4179SOL    HW213437   4.700   2.590   3.779
 4180SOL     OW13438   5.741   4.747   0.792
 4180SOL    HW113439   5.782   4.834   0.764
 4180SOL    HW213440   5.678   4.716   0.722
 4181SOL     OW13441   2.222   1.472   0.942
 4181SOL    HW113442   2.157   1.447   0.869
 4181SOL    HW213443   2.312   1.486   0.902
 4182SOL     OW13444   0.866   6.735   3.028
 4182SOL    HW113445   0.815   6.650   3.043
 4182SOL    HW213446   0.841   6.774   2.940
 4183SOL     OW13447   3.858   1.287   0.025
 4183SOL    HW113448   3.855   1.271   0.124
 4183SOL    HW213449   3.885   1.203   7.001
 4184SOL     OW13450   4.917   5.063   1.676
 4184SOL    HW113451   4.861   5.047   1.594
 4184SOL    HW213452   4.972   5.146   1.662
 4185SOL     OW13453   0.377   5.466   2.295
 4185SOL    HW113454   0.368   5.473   2.196
 4185SOL    HW213455   0.430   5.544   2.329
 4186SOL     OW13456   2.114   5.226   0.100
 4186SOL    HW113457   2.210   5.237   0.126
 4186SOL    HW213458   2.088   5.130   0.109
 4187SOL     OW13459   3.374   3.363   5.617
 4187SOL    HW113460   3.327   3.444   5.583
 4187SOL    HW213461   3.369   3.361   5.716
 4188SOL     OW13462   4.784   6.905   4.486
 4188SOL    HW113463   4.859   6.905   4.553
 4188SOL    HW213464   4.743   6.814   4.482
 4189SOL     OW13465   3.878   5.948   5.284
 4189SOL    HW113466   3.799   5.992   5.327
 4189SOL    HW213467   3.962   5.980   5.328
 4190SOL     OW13468   0.966   0.755   0.187
 4190SOL    HW113469   1.062   0.746   0.213
 4190SOL    HW213470   0.910   0.758   0.270
 4191SOL     OW13471   5.078   4.039   3.061
 4191SOL    HW113472   5.001   4.026   2.998
 4191SOL    HW213473   5.083   4.135   3.089
 4192SOL     OW13474   0.927   1.538   4.099
 4192SOL    HW113475   0.950   1.462   4.037
 4192SOL    HW213476   1.010   1.573   4.141
 4193SOL     OW13477   1.191   0.747   1.923
 4193SOL    HW113478   1.196   0.768   1.825
 4193SOL    HW213479   1.279   0.715   1.955
 4194SOL     OW13480   5.589   0.774   5.012
 4194SOL    HW113481   5.666   0.810   5.067
 4194SOL    HW213482   5.557   0.845   4.950
 4195SOL     OW13483   3.908   6.238   1.772
 4195SOL    HW113484   3.965   6.279   1.842
 4195SOL    HW213485   3.937   6.144   1.755
 4196SOL     OW13486   5.596   2.067   3.415
 4196SOL    HW113487   5.517   2.127   3.407
 4196SOL    HW213488   5.585   2.009   3.496
 4197SOL     OW13489   5.253   5.516   5.845
 4197SOL    HW113490   5.213   5.517   5.937
 4197SOL    HW213491   5.313   5.595   5.834
 4198SOL     OW13492   5.590   3.167   0.084
 4198SOL    HW113493   5.557   3.199   7.017
 4198SOL    HW213494   5.540   3.214   0.157
 4199SOL     OW13495   2.286   2.724   5.964
 4199SOL    HW113496   2.291   2.822   5.988
 4199SOL    HW213497   2.305   2.669   6.046
 4200SOL     OW13498   3.335   6.547   6.071
 4200SOL    HW113499   3.298   6.630   6.113
 4200SOL    HW213500   3.261   6.493   6.032
 4201SOL     OW13501   5.990   6.345   3.549
 4201SOL    HW113502   6.061   6.341   3.479
 4201SOL    HW213503   5.960   6.252   3.572
 4202SOL     OW13504   4.291   4.903   5.678
 4202SOL    HW113505   4.373   4.941   5.719
 4202SOL    HW213506   4.249   4.837   5.740
 4203SOL     OW13507   4.999   4.938   0.450
 4203SOL    HW113508   5.079   4.904   0.402
 4203SOL    HW213509   4.917   4.914   0.399
 4204SOL     OW13510   4.029   3.183   2.574
 4204SOL    HW113511   3.967   3.232   2.512
 4204SOL    HW213512   4.035   3.233   2.660
 4205SOL     OW13513   3.944   5.702   3.556
 4205SOL    HW113514   3.928   5.781   3.496
 4205SOL    HW213515   4.009   5.727   3.627
 4206SOL     OW13516   6.866   0.183   6.299
 4206SOL    HW113517   6.773   0.214   6.314
 4206SOL    HW213518   6.909   0.239   6.227
 4207SOL     OW13519   1.471   1.240   1.762
 4207SOL    HW113520   1.556   1.293   1.755
 4207SOL    HW213521   1.396   1.291   1.721
 4208SOL     OW13522   0.738   3.852   6.381
 4208SOL    HW113523   0.783   3.768   6.412
 4208SOL    HW213524   0.652   3.829   6.336
 4209SOL     OW13525   0.308   0.963   5.722
 4209SOL    HW113526   0.358   0.877   5.731
 4209SOL    HW213527   0.246   0.973   5.800
 4210SOL     OW13528   2.976   3.318   2.411
 4210SOL    HW113529   2.986   3.411   2.445
 4210SOL    HW213530   3.015   3.253   2.477
 4211SOL     OW13531   3.834   5.251   5.701
 4211SOL    HW113532   3.768   5.220   5.769
 4211SOL    HW213533   3.790   5.257   5.612
 4212SOL     OW13534   6.060   2.388   2.782
 4212SOL    HW113535   5.988   2.399   2.714
 4212SOL    HW213536   6.086   2.478   2.818
 4213SOL     OW13537   2.316   1.195   1.611
 4213SOL    HW113538   2.345   1.284   1.648
 4213SOL    HW213539   2.238   1.162   1.664
 4214SOL     OW13540   1.769   4.798   5.300
 4214SOL    HW113541   1.849   4.743   5.276
 4214SOL    HW213542   1.707   4.744   5.357
 4215SOL     OW13543   6.974   6.448   4.937
 4215SOL    HW113544   6.928   6.361   4.954
 4215SOL    HW213545   0.027   6.433   4.872
 4216SOL     OW13546   1.372   1.758   3.283
 4216SOL    HW113547   1.439   1.704   3.232
 4216SOL    HW213548   1.393   1.754   3.381
 4217SOL     OW13549   0.254   0.349   2.917
 4217SOL    HW113550   0.207   0.319   3.000
 4217SOL    HW213551   0.335   0.402   2.942
 4218SOL     OW13552   4.365   1.074   1.614
 4218SOL    HW113553   4.298   1.004   1.640
 4218SOL    HW213554   4.328   1.129   1.539
 4219SOL     OW13555   2.510   5.192   3.162
 4219SOL    HW113556   2.510   5.126   3.237
 4219SOL    HW213557   2.431   5.177   3.104
 4220SOL     OW13558   5.340   2.400   3.265
 4220SOL    HW113559   5.279   2.476   3.288
 4220SOL    HW213560   5.435   2.432   3.269
 4221SOL     OW13561   6.223   5.211   6.614
 4221SOL    HW113562   6.266   5.147   6.677
 4221SOL    HW213563   6.235   5.179   6.520
 4222SOL     OW13564   6.127   2.111   3.354
 4222SOL    HW113565   6.096   2.017   3.368
 4222SOL    HW213566   6.049   2.169   3.329
 4223SOL     OW13567   3.315   3.695   5.784
 4223SOL    HW113568   3.337   3.745   5.700
 4223SOL    HW213569   3.216   3.676   5.785
 4224SOL     OW13570   4.829   3.091   3.334
 4224SOL    HW113571   4.826   3.159   3.262
 4224SOL    HW213572   4.923   3.079   3.366
 4225SOL     OW13573   3.964   0.816   5.807
 4225SOL    HW113574   3.988   0.790   5.901
 4225SOL    HW213575   3.876   0.775   5.783
 4226SOL     OW13576   1.100   0.970   2.342
 4226SOL    HW113577   1.128   1.063   2.319
 4226SOL    HW213578   1.112   0.911   2.262
 4227SOL     OW13579   4.010   4.952   6.827
 4227SOL    HW113580   3.926   4.932   6.879
 4227SOL    HW213581   4.087   4.906   6.870
 4228SOL     OW13582   0.778   3.688   4.301
 4228SOL    HW113583   0.703   3.738   4.344
 4228SOL    HW213584   0.757   3.590   4.300
 4229SOL     OW13585   4.755   4.804   5.384
 4229SOL    HW113586   4.785   4.710   5.370
 4229SOL    HW213587   4.719   4.815   5.476
 4230SOL     OW13588   1.818   0.516   4.163
 4230SOL    HW113589   1.820   0.616   4.159
 4230SOL    HW213590   1.756   0.481   4.093
 4231SOL     OW13591   5.506   6.438   4.845
 4231SOL    HW113592   5.570   6.423   4.770
 4231SOL    HW213593   5.515   6.363   4.911
 4232SOL     OW13594   0.457   4.746   2.711
 4232SOL    HW113595   0.393   4.817   2.740
 4232SOL    HW213596   0.544   4.789   2.686
 4233SOL     OW13597   0.102   0.169   0.161
 4233SOL    HW113598   0.042   0.184   0.240
 4233SOL    HW213599   0.160   0.250   0.148
 4234SOL     OW13600   2.152   0.415   6.187
 4234SOL    HW113601   2.186   0.393   6.096
 4234SOL    HW213602   2.059   0.382   6.198
 4235SOL     OW13603   5.242   3.916   5.978
 4235SOL    HW113604   5.306   3.913   5.902
 4235SOL    HW213605   5.272   3.855   6.051
 4236SOL     OW13606   0.555   3.530   3.110
 4236SOL    HW113607   0.649   3.555   3.131
 4236SOL    HW213608   0.501   3.613   3.091
 4237SOL     OW13609   6.540   5.360   3.037
 4237SOL    HW113610   6.444   5.339   3.024
 4237SOL    HW213611   6.596   5.290   2.991
 4238SOL     OW13612   3.247   4.905   2.448
 4238SOL    HW113613   3.291   4.984   2.490
 4238SOL    HW213614   3.170   4.876   2.505
 4239SOL     OW13615   5.371   1.769   3.329
 4239SOL    HW113616   5.316   1.775   3.413
 4239SOL    HW213617   5.433   1.848   3.325
 4240SOL     OW13618   2.579   0.269   0.269
 4240SOL    HW113619   2.610   0.198   0.207
 4240SOL    HW213620   2.500   0.236   0.321
 4241SOL     OW13621   6.006   0.390   1.137
 4241SOL    HW113622   5.976   0.468   1.192
 4241SOL    HW213623   6.029   0.313   1.197
 4242SOL     OW13624   2.252   0.581   3.213
 4242SOL    HW113625   2.278   0.496   3.259
 4242SOL    HW213626   2.158   0.605   3.236
 4243SOL     OW13627   6.101   3.968   3.612
 4243SOL    HW113628   6.136   3.913   3.536
 4243SOL    HW213629   6.094   4.063   3.584
 4244SOL     OW13630   5.363   4.693   1.615
 4244SOL    HW113631   5.446   4.637   1.609
 4244SOL    HW213632   5.383   4.785   1.583
 4245SOL     OW13633   6.102   0.889   6.296
 4245SOL    HW113634   6.084   0.985   6.276
 4245SOL    HW213635   6.040   0.831   6.243
 4246SOL     OW13636   5.754   3.186   3.253
 4246SOL    HW113637   5.688   3.122   3.293
 4246SOL    HW213638   5.786   3.249   3.324
 4247SOL     OW13639   2.264   4.952   3.225
 4247SOL    HW113640   2.225   4.869   3.265
 4247SOL    HW213641   2.240   5.031   3.281
 4248SOL     OW13642   1.797   1.217   3.998
 4248SOL    HW113643   1.828   1.309   3.976
 4248SOL    HW213644   1.707   1.201   3.959
 4249SOL     OW13645   4.901   1.259   4.109
 4249SOL    HW113646   4.992   1.286   4.141
 4249SOL    HW213647   4.886   1.294   4.016
 4250SOL     OW13648   6.388   6.215   4.517
 4250SOL    HW113649   6.465   6.152   4.511
 4250SOL    HW213650   6.407   6.297   4.463
 4251SOL     OW13651   5.855   3.305   0.904
 4251SOL    HW113652   5.880   3.323   0.999
 4251SOL    HW213653   5.914   3.359   0.843
 4252SOL     OW13654   6.030   6.333   6.344
 4252SOL    HW113655   5.967   6.297   6.275
 4252SOL    HW213656   5.986   6.330   6.433
 4253SOL     OW13657   3.113   6.849   1.199
 4253SOL    HW113658   3.089   6.844   1.296
 4253SOL    HW213659   3.146   6.941   1.178
 4254SOL     OW13660   1.560   3.467   1.935
 4254SOL    HW113661   1.508   3.502   2.014
 4254SOL    HW213662   1.561   3.367   1.938
 4255SOL     OW13663   6.752   4.031   3.825
 4255SOL    HW113664   6.673   4.052   3.767
 4255SOL    HW213665   6.758   4.098   3.899
 4256SOL     OW13666   1.202   6.019   1.221
 4256SOL    HW113667   1.174   6.107   1.260
 4256SOL    HW213668   1.289   6.030   1.172
 4257SOL     OW13669   3.688   1.435   4.491
 4257SOL    HW113670   3.595   1.422   4.525
 4257SOL    HW213671   3.741   1.352   4.508
 4258SOL     OW13672   3.166   5.921   0.662
 4258SOL    HW113673   3.149   5.907   0.760
 4258SOL    HW213674   3.229   5.997   0.650
 4259SOL     OW13675   1.476   6.915   1.002
 4259SOL    HW113676   1.464   6.987   1.070
 4259SOL    HW213677   1.533   6.949   0.927
 4260SOL     OW13678   5.716   0.339   3.220
 4260SOL    HW113679   5.767   0.336   3.306
 4260SOL    HW213680   5.745   0.418   3.166
 4261SOL     OW13681   1.921   0.673   2.530
 4261SOL    HW113682   1.991   0.738   2.559
 4261SOL    HW213683   1.962   0.582   2.523
 4262SOL     OW13684   0.527   3.844   6.212
 4262SOL    HW113685   0.577   3.895   6.141
 4262SOL    HW213686   0.522   3.748   6.186
 4263SOL     OW13687   2.703   0.501   3.254
 4263SOL    HW113688   2.687   0.596   3.280
 4263SOL    HW213689   2.795   0.492   3.217
 4264SOL     OW13690   6.765   2.528   4.862
 4264SOL    HW113691   6.764   2.430   4.882
 4264SOL    HW213692   6.820   2.544   4.779
 4265SOL     OW13693   4.085   1.249   0.594
 4265SOL    HW113694   4.012   1.240   0.662
 4265SOL    HW213695   4.045   1.270   0.505
 4266SOL     OW13696   2.091   6.646   6.403
 4266SOL    HW113697   2.120   6.730   6.447
 4266SOL    HW213698   2.170   6.597   6.367
 4267SOL     OW13699   2.034   3.706   4.745
 4267SOL    HW113700   2.121   3.752   4.764
 4267SOL    HW213701   2.051   3.614   4.710
 4268SOL     OW13702   1.305   5.837   6.665
 4268SOL    HW113703   1.397   5.866   6.638
 4268SOL    HW213704   1.238   5.880   6.604
 4269SOL     OW13705   3.004   0.091   2.702
 4269SOL    HW113706   2.929   0.025   2.706
 4269SOL    HW213707   2.989   0.153   2.626
 4270SOL     OW13708   4.124   3.552   2.666
 4270SOL    HW113709   4.164   3.472   2.711
 4270SOL    HW213710   4.125   3.539   2.567
 4271SOL     OW13711   6.827   0.502   0.512
 4271SOL    HW113712   6.832   0.601   0.525
 4271SOL    HW213713   6.762   0.482   0.438
 4272SOL     OW13714   6.843   2.202   4.497
 4272SOL    HW113715   6.873   2.120   4.545
 4272SOL    HW213716   6.756   2.184   4.451
 4273SOL     OW13717   4.396   6.669   4.599
 4273SOL    HW113718   4.311   6.624   4.572
 4273SOL    HW213719   4.451   6.606   4.654
 4274SOL     OW13720   1.654   0.054   1.648
 4274SOL    HW113721   1.566   0.073   1.605
 4274SOL    HW213722   1.701   7.004   1.598
 4275SOL     OW13723   6.807   2.106   4.003
 4275SOL    HW113724   6.731   2.170   4.019
 4275SOL    HW213725   6.790   2.021   4.052
 4276SOL     OW13726   2.613   5.196   3.797
 4276SOL    HW113727   2.605   5.276   3.855
 4276SOL    HW213728   2.705   5.157   3.806
 4277SOL     OW13729   6.484   4.904   3.175
 4277SOL    HW113730   6.471   4.826   3.113
 4277SOL    HW213731   6.458   4.988   3.128
 4278SOL     OW13732   0.272   0.048   4.905
 4278SOL    HW113733   0.368   0.045   4.876
 4278SOL    HW213734   0.220   7.002   4.854
 4279SOL     OW13735   2.757   1.173   3.406
 4279SOL    HW113736   2.844   1.205   3.369
 4279SOL    HW213737   2.771   1.088   3.457
 4280SOL     OW13738   5.799   6.920   5.808
 4280SOL    HW113739   5.881   6.978   5.814
 4280SOL    HW213740   5.789   6.867   5.891
 4281SOL     OW13741   6.067   5.081   3.348
 4281SOL    HW113742   6.037   5.065   3.254
 4281SOL    HW213743   6.155   5.128   3.347
 4282SOL     OW13744   3.123   4.106   0.396
 4282SOL    HW113745   3.188   4.099   0.472
 4282SOL    HW213746   3.033   4.075   0.426
 4283SOL     OW13747   2.420   0.808   3.252
 4283SOL    HW113748   2.354   0.876   3.286
 4283SOL    HW213749   2.371   0.732   3.209
 4284SOL     OW13750   3.547   4.012   1.262
 4284SOL    HW113751   3.562   3.921   1.298
 4284SOL    HW213752   3.449   4.026   1.245
 4285SOL     OW13753   2.417   0.753   5.661
 4285SOL    HW113754   2.408   0.842   5.705
 4285SOL    HW213755   2.400   0.762   5.563
 4286SOL     OW13756   5.406   6.787   6.102
 4286SOL    HW113757   5.419   6.695   6.141
 4286SOL    HW213758   5.490   6.839   6.112
 4287SOL     OW13759   4.949   0.580   6.162
 4287SOL    HW113760   5.012   0.563   6.238
 4287SOL    HW213761   4.860   0.540   6.183
 4288SOL     OW13762   0.707   5.458   3.627
 4288SOL    HW113763   0.731   5.450   3.723
 4288SOL    HW213764   0.790   5.471   3.572
 4289SOL     OW13765   0.020   2.765   5.507
 4289SOL    HW113766   0.074   2.687   5.476
 4289SOL    HW213767   0.015   2.833   5.433
 4290SOL     OW13768   1.416   6.231   4.055
 4290SOL    HW113769   1.428   6.235   4.155
 4290SOL    HW213770   1.488   6.285   4.011
 4291SOL     OW13771   4.593   3.479   7.007
 4291SOL    HW113772   4.533   3.427   0.046
 4291SOL    HW213773   4.537   3.524   6.938
 4292SOL     OW13774   6.865   3.019   0.116
 4292SOL    HW113775   6.854   2.968   0.031
 4292SOL    HW213776   6.939   2.979   0.170
 4293SOL     OW13777   3.106   3.580   0.075
 4293SOL    HW113778   3.195   3.557   0.037
 4293SOL    HW213779   3.089   3.678   0.063
 4294SOL     OW13780   1.912   1.332   6.844
 4294SOL    HW113781   1.840   1.347   6.911
 4294SOL    HW213782   1.923   1.414   6.787
 4295SOL     OW13783   4.719   5.861   4.913
 4295SOL    HW113784   4.634   5.811   4.935
 4295SOL    HW213785   4.758   5.824   4.829
 4296SOL     OW13786   3.311   6.902   0.071
 4296SOL    HW113787   3.334   6.863   0.160
 4296SOL    HW213788   3.395   6.913   0.018
 4297SOL     OW13789   5.677   0.097   1.718
 4297SOL    HW113790   5.594   0.144   1.747
 4297SOL    HW213791   5.756   0.154   1.738
 4298SOL     OW13792   3.708   5.670   0.687
 4298SOL    HW113793   3.801   5.698   0.662
 4298SOL    HW213794   3.710   5.580   0.728
 4299SOL     OW13795   1.932   3.037   6.907
 4299SOL    HW113796   1.899   3.015   6.999
 4299SOL    HW213797   2.029   3.012   6.900
 4300SOL     OW13798   2.633   6.851   0.606
 4300SOL    HW113799   2.542   6.835   0.567
 4300SOL    HW213800   2.674   6.932   0.564
 4301SOL     OW13801   4.994   0.228   1.485
 4301SOL    HW113802   4.936   0.252   1.407
 4301SOL    HW213803   4.976   0.292   1.560
 4302SOL     OW13804   0.162   0.043   6.341
 4302SOL    HW113805   0.159   0.131   6.293
 4302SOL    HW213806   0.068   0.013   6.360
 4303SOL     OW13807   0.000   4.347   4.063
 4303SOL    HW113808   6.927   4.324   4.082
 4303SOL    HW213809   0.011   4.447   4.064
 4304SOL     OW13810   3.210   2.985   2.476
 4304SOL    HW113811   3.237   2.998   2.381
 4304SOL    HW213812   3.212   2.887   2.498
 4305SOL     OW13813   0.985   6.991   5.589
 4305SOL    HW113814   1.035   6.925   5.645
 4305SOL    HW213815   1.050   0.031   5.546
 4306SOL     OW13816   4.431   5.118   4.347
 4306SOL    HW113817   4.451   5.089   4.441
 4306SOL    HW213818   4.334   5.138   4.339
 4307SOL     OW13819   6.206   3.925   5.210
 4307SOL    HW113820   6.284   3.886   5.259
 4307SOL    HW213821   6.230   4.017   5.177
 4308SOL     OW13822   6.226   5.357   1.705
 4308SOL    HW113823   6.241   5.258   1.717
 4308SOL    HW213824   6.185   5.374   1.616
 4309SOL     OW13825   1.022   1.402   1.422
 4309SOL    HW113826   0.924   1.403   1.403
 4309SOL    HW213827   1.073   1.403   1.336
 4310SOL     OW13828   1.075   2.551   1.827
 4310SOL    HW113829   1.158   2.513   1.867
 4310SOL    HW213830   1.087   2.649   1.811
 4311SOL     OW13831   0.517   6.185   2.178
 4311SOL    HW113832   0.545   6.245   2.253
 4311SOL    HW213833   0.560   6.095   2.189
 4312SOL     OW13834   1.216   5.868   2.082
 4312SOL    HW113835   1.240   5.770   2.081
 4312SOL    HW213836   1.289   5.921   2.041
 4313SOL     OW13837   5.350   2.199   0.999
 4313SOL    HW113838   5.416   2.271   0.980
 4313SOL    HW213839   5.378   2.115   0.951
 4314SOL     OW13840   5.385   1.749   5.109
 4314SOL    HW113841   5.325   1.747   5.029
 4314SOL    HW213842   5.383   1.660   5.155
 4315SOL     OW13843   2.529   0.838   3.726
 4315SOL    HW113844   2.538   0.753   3.777
 4315SOL    HW213845   2.552   0.822   3.630
 4316SOL     OW13846   4.787   0.914   1.582
 4316SOL    HW113847   4.722   0.983   1.549
 4316SOL    HW213848   4.761   0.824   1.547
 4317SOL     OW13849   5.647   2.270   5.340
 4317SOL    HW113850   5.637   2.348   5.277
 4317SOL    HW213851   5.725   2.214   5.311
 4318SOL     OW13852   0.735   1.871   5.002
 4318SOL    HW113853   0.785   1.912   4.926
 4318SOL    HW213854   0.642   1.906   5.003
 4319SOL     OW13855   1.751   1.937   1.034
 4319SOL    HW113856   1.673   1.986   1.072
 4319SOL    HW213857   1.789   1.989   0.957
 4320SOL     OW13858   4.062   4.846   0.930
 4320SOL    HW113859   4.077   4.926   0.988
 4320SOL    HW213860   4.002   4.781   0.976
 4321SOL     OW13861   0.080   4.720   4.904
 4321SOL    HW113862   0.037   4.635   4.872
 4321SOL    HW213863   0.177   4.704   4.921
 4322SOL     OW13864   6.598   2.838   6.831
 4322SOL    HW113865   6.684   2.844   6.781
 4322SOL    HW213866   6.616   2.834   6.929
 4323SOL     OW13867   4.559   4.313   0.386
 4323SOL    HW113868   4.597   4.329   0.295
 4323SOL    HW213869   4.502   4.231   0.384
 4324SOL     OW13870   5.652   4.645   5.734
 4324SOL    HW113871   5.648   4.693   5.822
 4324SOL    HW213872   5.694   4.704   5.665
 4325SOL     OW13873   2.793   1.416   1.771
 4325SOL    HW113874   2.879   1.364   1.771
 4325SOL    HW213875   2.716   1.353   1.780
 4326SOL     OW13876   4.933   4.506   2.043
 4326SOL    HW113877   4.895   4.512   1.950
 4326SOL    HW213878   5.009   4.570   2.052
 4327SOL     OW13879   5.731   5.594   1.670
 4327SOL    HW113880   5.798   5.658   1.708
 4327SOL    HW213881   5.684   5.547   1.745
 4328SOL     OW13882   4.709   4.400   5.637
 4328SOL    HW113883   4.626   4.437   5.678
 4328SOL    HW213884   4.786   4.411   5.700
 4329SOL     OW13885   4.764   2.752   6.134
 4329SOL    HW113886   4.689   2.688   6.154
 4329SOL    HW213887   4.822   2.761   6.215
 4330SOL     OW13888   1.855   6.207   4.866
 4330SOL    HW113889   1.929   6.201   4.800
 4330SOL    HW213890   1.858   6.296   4.912
 4331SOL     OW13891   5.754   1.360   2.316
 4331SOL    HW113892   5.797   1.356   2.406
 4331SOL    HW213893   5.825   1.364   2.245
 4332SOL     OW13894   5.178   3.150   2.795
 4332SOL    HW113895   5.240   3.096   2.852
 4332SOL    HW213896   5.084   3.117   2.807
 4333SOL     OW13897   4.790   1.463   5.566
 4333SOL    HW113898   4.770   1.550   5.521
 4333SOL    HW213899   4.852   1.478   5.642
 4334SOL     OW13900   2.236   2.770   2.702
 4334SOL    HW113901   2.242   2.865   2.671
 4334SOL    HW213902   2.175   2.764   2.781
 4335SOL     OW13903   3.616   3.395   1.979
 4335SOL    HW113904   3.624   3.483   2.026
 4335SOL    HW213905   3.536   3.398   1.918
 4336SOL     OW13906   2.869   6.663   5.882
 4336SOL    HW113907   2.791   6.637   5.938
 4336SOL    HW213908   2.947   6.685   5.942
 4337SOL     OW13909   1.315   4.360   0.876
 4337SOL    HW113910   1.274   4.419   0.806
 4337SOL    HW213911   1.310   4.405   0.965
 4338SOL     OW13912   6.214   6.561   5.890
 4338SOL    HW113913   6.141   6.599   5.832
 4338SOL    HW213914   6.301   6.603   5.866
 4339SOL     OW13915   4.060   2.885   6.136
 4339SOL    HW113916   4.140   2.927   6.092
 4339SOL    HW213917   4.023   2.813   6.077
 4340SOL     OW13918   6.624   3.535   1.445
 4340SOL    HW113919   6.555   3.603   1.468
 4340SOL    HW213920   6.620   3.460   1.512
 4341SOL     OW13921   1.264   5.227   1.730
 4341SOL    HW113922   1.319   5.228   1.646
 4341SOL    HW213923   1.306   5.166   1.797
 4342SOL     OW13924   5.367   4.113   2.786
 4342SOL    HW113925   5.274   4.084   2.763
 4342SOL    HW213926   5.371   4.141   2.881
 4343SOL     OW13927   2.848   6.036   4.632
 4343SOL    HW113928   2.819   5.944   4.603
 4343SOL    HW213929   2.944   6.049   4.607
 4344SOL     OW13930   0.943   4.037   2.793
 4344SOL    HW113931   0.999   3.971   2.843
 4344SOL    HW213932   0.997   4.080   2.722
 4345SOL     OW13933   4.024   3.889   4.591
 4345SOL    HW113934   3.981   3.954   4.653
 4345SOL    HW213935   4.013   3.920   4.497
 4346SOL     OW13936   2.075   3.611   3.086
 4346SOL    HW113937   2.103   3.533   3.030
 4346SOL    HW213938   2.012   3.581   3.157
 4347SOL     OW13939   5.449   0.055   2.908
 4347SOL    HW113940   5.475   0.041   3.003
 4347SOL    HW213941   5.524   0.025   2.848
 4348SOL     OW13942   0.030   5.444   4.159
 4348SOL    HW113943   7.005   5.524   4.122
 4348SOL    HW213944   0.045   5.378   4.086
 4349SOL     OW13945   6.252   2.094   3.106
 4349SOL    HW113946   6.227   2.090   3.203
 4349SOL    HW213947   6.233   2.186   3.071
 4350SOL     OW13948   3.778   1.847   4.029
 4350SOL    HW113949   3.759   1.945   4.040
 4350SOL    HW213950   3.868   1.826   4.066
 4351SOL     OW13951   1.339   6.035   1.525
 4351SOL    HW113952   1.345   6.123   1.572
 4351SOL    HW213953   1.248   6.024   1.485
 4352SOL     OW13954   6.156   3.953   2.584
 4352SOL    HW113955   6.092   3.911   2.649
 4352SOL    HW213956   6.249   3.941   2.617
 4353SOL     OW13957   3.760   2.894   6.563
 4353SOL    HW113958   3.799   2.840   6.638
 4353SOL    HW213959   3.768   2.992   6.585
 4354SOL     OW13960   1.996   1.021   6.710
 4354SOL    HW113961   1.981   0.951   6.640
 4354SOL    HW213962   2.086   1.062   6.698
 4355SOL     OW13963   2.546   6.958   2.321
 4355SOL    HW113964   2.464   7.014   2.320
 4355SOL    HW213965   2.548   6.902   2.403
 4356SOL     OW13966   5.070   3.225   6.649
 4356SOL    HW113967   4.986   3.188   6.609
 4356SOL    HW213968   5.057   3.240   6.747
 4357SOL     OW13969   6.703   0.884   1.603
 4357SOL    HW113970   6.712   0.977   1.637
 4357SOL    HW213971   6.731   0.820   1.675
 4358SOL     OW13972   6.668   1.016   1.089
 4358SOL    HW113973   6.596   0.974   1.145
 4358SOL    HW213974   6.703   0.948   1.024
 4359SOL     OW13975   1.236   1.156   6.874
 4359SOL    HW113976   1.242   1.256   6.874
 4359SOL    HW213977   1.271   1.121   6.787
 4360SOL     OW13978   1.076   3.610   3.886
 4360SOL    HW113979   1.088   3.520   3.929
 4360SOL    HW213980   1.036   3.673   3.952
 4361SOL     OW13981   2.261   3.851   1.870
 4361SOL    HW113982   2.173   3.805   1.882
 4361SOL    HW213983   2.316   3.800   1.804
 4362SOL     OW13984   6.537   5.445   3.807
 4362SOL    HW113985   6.525   5.533   3.761
 4362SOL    HW213986   6.597   5.458   3.887
 4363SOL     OW13987   4.618   2.278   0.991
 4363SOL    HW113988   4.709   2.244   1.013
 4363SOL    HW213989   4.558   2.200   0.970
 4364SOL     OW13990   2.994   3.860   3.607
 4364SOL    HW113991   3.015   3.892   3.699
 4364SOL    HW213992   3.062   3.896   3.543
 4365SOL     OW13993   2.852   0.553   1.963
 4365SOL    HW113994   2.911   0.472   1.966
 4365SOL    HW213995   2.781   0.546   2.033
 4366SOL     OW13996   6.062   0.014   6.369
 4366SOL    HW113997   5.976   0.029   6.417
 4366SOL    HW213998   6.082   6.938   6.365
 4367SOL     OW13999   2.680   4.955   4.172
 4367SOL    HW114000   2.755   4.889   4.164
 4367SOL    HW214001   2.603   4.925   4.117
 4368SOL     OW14002   3.746   5.569   1.515
 4368SOL    HW114003   3.661   5.590   1.468
 4368SOL    HW214004   3.822   5.572   1.450
 4369SOL     OW14005   4.644   4.913   2.681
 4369SOL    HW114006   4.552   4.916   2.721
 4369SOL    HW214007   4.656   4.992   2.620
 4370SOL     OW14008   3.706   4.560   1.671
 4370SOL    HW114009   3.788   4.616   1.666
 4370SOL    HW214010   3.636   4.608   1.724
 4371SOL     OW14011   1.637   1.854   2.421
 4371SOL    HW114012   1.641   1.941   2.470
 4371SOL    HW214013   1.722   1.804   2.434
 4372SOL     OW14014   2.424   2.379   4.393
 4372SOL    HW114015   2.445   2.329   4.309
 4372SOL    HW214016   2.456   2.327   4.472
 4373SOL     OW14017   4.572   0.965   6.960
 4373SOL    HW114018   4.503   0.953   0.009
 4373SOL    HW214019   4.650   0.905   6.978
 4374SOL     OW14020   0.565   1.772   1.340
 4374SOL    HW114021   0.659   1.791   1.310
 4374SOL    HW214022   0.563   1.766   1.440
 4375SOL     OW14023   4.195   6.044   3.177
 4375SOL    HW114024   4.265   5.984   3.138
 4375SOL    HW214025   4.236   6.102   3.247
 4376SOL     OW14026   6.120   0.025   2.776
 4376SOL    HW114027   6.066   6.964   2.766
 4376SOL    HW214028   6.212   0.010   2.739
 4377SOL     OW14029   5.643   5.756   6.835
 4377SOL    HW114030   5.727   5.790   6.794
 4377SOL    HW214031   5.583   5.834   6.856
 4378SOL     OW14032   1.706   3.103   2.714
 4378SOL    HW114033   1.642   3.056   2.654
 4378SOL    HW214034   1.755   3.173   2.662
 4379SOL     OW14035   2.417   2.031   2.165
 4379SOL    HW114036   2.473   1.953   2.138
 4379SOL    HW214037   2.424   2.044   2.264
 4380SOL     OW14038   1.369   6.599   3.619
 4380SOL    HW114039   1.389   6.567   3.526
 4380SOL    HW214040   1.332   6.523   3.672
 4381SOL     OW14041   2.330   4.245   5.264
 4381SOL    HW114042   2.348   4.153   5.229
 4381SOL    HW214043   2.416   4.289   5.287
 4382SOL     OW14044   6.246   3.492   6.155
 4382SOL    HW114045   6.156   3.492   6.197
 4382SOL    HW214046   6.240   3.531   6.063
 4383SOL     OW14047   0.813   2.856   5.880
 4383SOL    HW114048   0.799   2.866   5.781
 4383SOL    HW214049   0.745   2.910   5.929
 4384SOL     OW14050   5.383   1.750   6.565
 4384SOL    HW114051   5.306   1.703   6.609
 4384SOL    HW214052   5.398   1.712   6.474
 4385SOL     OW14053   6.306   2.908   5.278
 4385SOL    HW114054   6.322   2.866   5.368
 4385SOL    HW214055   6.263   2.998   5.290
 4386SOL     OW14056   2.390   3.741   6.748
 4386SOL    HW114057   2.301   3.779   6.769
 4386SOL    HW214058   2.448   3.811   6.707
 4387SOL     OW14059   6.972   1.044   1.965
 4387SOL    HW114060   6.995   1.018   2.058
 4387SOL    HW214061   0.021   1.012   1.902
 4388SOL     OW14062   5.201   1.038   6.536
 4388SOL    HW114063   5.191   1.033   6.635
 4388SOL    HW214064   5.178   1.130   6.504
 4389SOL     OW14065   6.556   2.963   0.757
 4389SOL    HW114066   6.594   2.897   0.822
 4389SOL    HW214067   6.535   2.916   0.671
 4390SOL     OW14068   3.780   1.441   1.944
 4390SOL    HW114069   3.723   1.478   2.017
 4390SOL    HW214070   3.789   1.509   1.871
 4391SOL     OW14071   1.518   5.754   6.112
 4391SOL    HW114072   1.541   5.818   6.185
 4391SOL    HW214073   1.599   5.700   6.088
 4392SOL     OW14074   6.478   3.256   5.750
 4392SOL    HW114075   6.487   3.341   5.802
 4392SOL    HW214076   6.554   3.248   5.686
 4393SOL     OW14077   5.656   6.958   2.694
 4393SOL    HW114078   5.617   6.867   2.710
 4393SOL    HW214079   5.705   6.958   2.607
 4394SOL     OW14080   5.699   6.172   2.695
 4394SOL    HW114081   5.767   6.122   2.749
 4394SOL    HW214082   5.710   6.270   2.709
 4395SOL     OW14083   4.098   0.655   1.723
 4395SOL    HW114084   4.120   0.563   1.756
 4395SOL    HW214085   4.027   0.649   1.653
 4396SOL     OW14086   2.644   2.370   4.039
 4396SOL    HW114087   2.567   2.333   4.091
 4396SOL    HW214088   2.610   2.417   3.957
 4397SOL     OW14089   6.939   1.082   4.564
 4397SOL    HW114090   6.923   1.178   4.585
 4397SOL    HW214091   6.960   1.032   4.648
 4398SOL     OW14092   0.723   4.945   4.975
 4398SOL    HW114093   0.636   4.990   4.996
 4398SOL    HW214094   0.752   4.970   4.883
 4399SOL     OW14095   1.673   1.434   1.782
 4399SOL    HW114096   1.740   1.415   1.710
 4399SOL    HW214097   1.610   1.504   1.750
 4400SOL     OW14098   3.002   6.906   5.162
 4400SOL    HW114099   2.937   6.973   5.126
 4400SOL    HW214100   2.952   6.831   5.205
 4401SOL     OW14101   5.038   0.307   6.608
 4401SOL    HW114102   5.049   0.238   6.537
 4401SOL    HW214103   4.954   0.291   6.659
 4402SOL     OW14104   2.598   6.485   1.307
 4402SOL    HW114105   2.565   6.408   1.361
 4402SOL    HW214106   2.694   6.503   1.330
 4403SOL     OW14107   0.770   6.968   3.501
 4403SOL    HW114108   0.768   0.031   3.449
 4403SOL    HW214109   0.819   6.898   3.449
 4404SOL     OW14110   0.247   4.211   5.414
 4404SOL    HW114111   0.258   4.140   5.485
 4404SOL    HW214112   0.319   4.200   5.346
 4405SOL     OW14113   2.093   4.431   1.228
 4405SOL    HW114114   2.157   4.501   1.197
 4405SOL    HW214115   2.133   4.340   1.214
 4406SOL     OW14116   0.031   4.238   0.482
 4406SOL    HW114117   0.091   4.245   0.401
 4406SOL    HW214118   0.088   4.234   0.564
 4407SOL     OW14119   0.179   4.185   0.748
 4407SOL    HW114120   0.219   4.143   0.667
 4407SOL    HW214121   0.250   4.233   0.799
 4408SOL     OW14122   3.508   0.777   1.414
 4408SOL    HW114123   3.562   0.833   1.351
 4408SOL    HW214124   3.557   0.693   1.435
 4409SOL     OW14125   4.554   6.922   1.457
 4409SOL    HW114126   4.595   6.867   1.384
 4409SOL    HW214127   4.625   6.973   1.504
 4410SOL     OW14128   1.453   5.725   0.138
 4410SOL    HW114129   1.456   5.630   0.167
 4410SOL    HW214130   1.447   5.730   0.039
 4411SOL     OW14131   3.197   3.446   3.562
 4411SOL    HW114132   3.247   3.373   3.609
 4411SOL    HW214133   3.119   3.474   3.618
 4412SOL     OW14134   3.759   0.313   4.567
 4412SOL    HW114135   3.694   0.373   4.521
 4412SOL    HW214136   3.852   0.338   4.541
 4413SOL     OW14137   5.289   5.705   4.764
 4413SOL    HW114138   5.196   5.740   4.774
 4413SOL    HW214139   5.303   5.629   4.827
 4414SOL     OW14140   3.880   4.577   1.321
 4414SOL    HW114141   3.979   4.576   1.306
 4414SOL    HW214142   3.847   4.671   1.318
 4415SOL     OW14143   3.877   3.494   6.492
 4415SOL    HW114144   3.851   3.590   6.481
 4415SOL    HW214145   3.803   3.436   6.460
 4416SOL     OW14146   2.474   0.347   4.182
 4416SOL    HW114147   2.399   0.286   4.205
 4416SOL    HW214148   2.538   0.351   4.259
 4417SOL     OW14149   5.945   4.505   3.137
 4417SOL    HW114150   5.870   4.440   3.125
 4417SOL    HW214151   5.939   4.576   3.068
 4418SOL     OW14152   5.670   1.452   2.804
 4418SOL    HW114153   5.636   1.373   2.752
 4418SOL    HW214154   5.653   1.436   2.902
 4419SOL     OW14155   5.805   5.626   0.702
 4419SOL    HW114156   5.734   5.595   0.639
 4419SOL    HW214157   5.799   5.725   0.713
 4420SOL     OW14158   5.021   1.512   1.593
 4420SOL    HW114159   5.114   1.490   1.622
 4420SOL    HW214160   4.993   1.449   1.520
 4421SOL     OW14161   1.764   1.375   4.566
 4421SOL    HW114162   1.818   1.338   4.490
 4421SOL    HW214163   1.812   1.359   4.652
 4422SOL     OW14164   2.851   4.341   5.759
 4422SOL    HW114165   2.858   4.257   5.705
 4422SOL    HW214166   2.820   4.416   5.701
 4423SOL     OW14167   1.197   2.673   5.556
 4423SOL    HW114168   1.120   2.709   5.502
 4423SOL    HW214169   1.273   2.739   5.552
 4424SOL     OW14170   5.475   0.183   4.453
 4424SOL    HW114171   5.500   0.100   4.501
 4424SOL    HW214172   5.418   0.240   4.513
 4425SOL     OW14173   3.286   5.138   6.823
 4425SOL    HW114174   3.257   5.060   6.878
 4425SOL    HW214175   3.320   5.211   6.883
 4426SOL     OW14176   0.059   1.363   4.824
 4426SOL    HW114177   0.042   1.361   4.725
 4426SOL    HW214178   0.138   1.305   4.845
 4427SOL     OW14179   0.260   5.916   2.133
 4427SOL    HW114180   0.348   5.893   2.092
 4427SOL    HW214181   0.270   5.926   2.232
 4428SOL     OW14182   3.044   5.910   1.694
 4428SOL    HW114183   3.008   5.868   1.610
 4428SOL    HW214184   3.030   5.847   1.770
 4429SOL     OW14185   3.059   0.536   2.802
 4429SOL    HW114186   3.095   0.625   2.830
 4429SOL    HW214187   3.118   0.463   2.837
 4430SOL     OW14188   4.977   3.707   4.890
 4430SOL    HW114189   5.066   3.729   4.931
 4430SOL    HW214190   4.920   3.661   4.958
 4431SOL     OW14191   2.392   0.708   2.088
 4431SOL    HW114192   2.315   0.772   2.086
 4431SOL    HW214193   2.477   0.760   2.088
 4432SOL     OW14194   4.135   3.365   4.343
 4432SOL    HW114195   4.085   3.336   4.262
 4432SOL    HW214196   4.164   3.461   4.332
 4433SOL     OW14197   5.491   0.479   4.993
 4433SOL    HW114198   5.529   0.451   4.905
 4433SOL    HW214199   5.515   0.575   5.010
 4434SOL     OW14200   4.042   1.984   3.712
 4434SOL    HW114201   4.043   2.056   3.643
 4434SOL    HW214202   4.047   2.025   3.803
 4435SOL     OW14203   4.408   3.807   1.391
 4435SOL    HW114204   4.503   3.806   1.420
 4435SOL    HW214205   4.390   3.890   1.338
 4436SOL     OW14206   3.526   1.727   1.120
 4436SOL    HW114207   3.506   1.716   1.217
 4436SOL    HW214208   3.488   1.650   1.069
 4437SOL     OW14209   5.640   1.367   3.697
 4437SOL    HW114210   5.670   1.419   3.777
 4437SOL    HW214211   5.715   1.362   3.631
 4438SOL     OW14212   5.101   0.626   0.841
 4438SOL    HW114213   5.062   0.614   0.749
 4438SOL    HW214214   5.176   0.692   0.837
 4439SOL     OW14215   0.487   5.704   1.122
 4439SOL    HW114216   0.394   5.683   1.153
 4439SOL    HW214217   0.483   5.738   1.028
 4440SOL     OW14218   2.378   5.167   0.770
 4440SOL    HW114219   2.286   5.128   0.769
 4440SOL    HW214220   2.373   5.262   0.800
 4441SOL     OW14221   6.560   1.908   2.749
 4441SOL    HW114222   6.531   1.923   2.843
 4441SOL    HW214223   6.495   1.846   2.704
 4442SOL     OW14224   2.605   5.829   4.954
 4442SOL    HW114225   2.508   5.853   4.957
 4442SOL    HW214226   2.660   5.911   4.971
 4443SOL     OW14227   0.022   2.661   0.743
 4443SOL    HW114228   0.022   2.562   0.725
 4443SOL    HW214229   0.107   2.701   0.710
 4444SOL     OW14230   3.790   5.037   6.157
 4444SOL    HW114231   3.781   5.137   6.164
 4444SOL    HW214232   3.766   5.008   6.065
 4445SOL     OW14233   6.786   0.675   1.148
 4445SOL    HW114234   6.754   0.719   1.064
 4445SOL    HW214235   6.765   0.734   1.226
 4446SOL     OW14236   5.733   1.254   1.910
 4446SOL    HW114237   5.698   1.347   1.901
 4446SOL    HW214238   5.695   1.211   1.992
 4447SOL     OW14239   5.431   4.213   6.553
 4447SOL    HW114240   5.483   4.129   6.540
 4447SOL    HW214241   5.493   4.291   6.556
 4448SOL     OW14242   2.876   3.935   1.291
 4448SOL    HW114243   2.816   3.856   1.280
 4448SOL    HW214244   2.884   3.984   1.204
 4449SOL     OW14245   5.007   0.647   5.729
 4449SOL    HW114246   4.963   0.676   5.813
 4449SOL    HW214247   4.939   0.608   5.667
 4450SOL     OW14248   3.616   3.104   4.075
 4450SOL    HW114249   3.654   3.196   4.062
 4450SOL    HW214250   3.687   3.044   4.110
 4451SOL     OW14251   5.850   3.983   4.300
 4451SOL    HW114252   5.948   3.977   4.320
 4451SOL    HW214253   5.837   3.999   4.203
 4452SOL     OW14254   5.308   6.376   4.038
 4452SOL    HW114255   5.282   6.338   4.127
 4452SOL    HW214256   5.356   6.305   3.985
 4453SOL     OW14257   0.199   2.851   1.628
 4453SOL    HW114258   0.192   2.909   1.709
 4453SOL    HW214259   0.184   2.906   1.546
 4454SOL     OW14260   0.211   1.864   6.728
 4454SOL    HW114261   0.152   1.823   6.659
 4454SOL    HW214262   0.306   1.864   6.695
 4455SOL     OW14263   3.549   6.285   6.396
 4455SOL    HW114264   3.645   6.266   6.419
 4455SOL    HW214265   3.516   6.216   6.332
 4456SOL     OW14266   3.388   5.218   1.929
 4456SOL    HW114267   3.377   5.123   1.899
 4456SOL    HW214268   3.464   5.224   1.994
 4457SOL     OW14269   4.536   2.002   0.841
 4457SOL    HW114270   4.577   1.924   0.889
 4457SOL    HW214271   4.523   1.979   0.745
 4458SOL     OW14272   1.391   3.480   6.572
 4458SOL    HW114273   1.455   3.403   6.566
 4458SOL    HW214274   1.335   3.469   6.654
 4459SOL     OW14275   4.755   0.782   4.431
 4459SOL    HW114276   4.723   0.876   4.441
 4459SOL    HW214277   4.708   0.738   4.355
 4460SOL     OW14278   3.097   3.068   5.690
 4460SOL    HW114279   3.106   3.108   5.599
 4460SOL    HW214280   3.086   3.140   5.757
 4461SOL     OW14281   1.687   1.039   2.181
 4461SOL    HW114282   1.620   1.032   2.255
 4461SOL    HW214283   1.774   1.000   2.210
 4462SOL     OW14284   6.207   4.190   2.199
 4462SOL    HW114285   6.286   4.241   2.233
 4462SOL    HW214286   6.201   4.199   2.100
 4463SOL     OW14287   4.719   2.757   6.572
 4463SOL    HW114288   4.767   2.830   6.621
 4463SOL    HW214289   4.652   2.797   6.510
 4464SOL     OW14290   0.088   4.924   0.815
 4464SOL    HW114291   0.141   4.985   0.756
 4464SOL    HW214292   0.103   4.950   0.911
 4465SOL     OW14293   2.650   5.483   2.158
 4465SOL    HW114294   2.588   5.489   2.080
 4465SOL    HW214295   2.740   5.454   2.127
 4466SOL     OW14296   2.354   1.358   3.479
 4466SOL    HW114297   2.447   1.360   3.442
 4466SOL    HW214298   2.300   1.432   3.438
 4467SOL     OW14299   2.086   0.016   2.692
 4467SOL    HW114300   2.173   0.001   2.739
 4467SOL    HW214301   2.013   6.989   2.739
 4468SOL     OW14302   1.954   2.804   1.248
 4468SOL    HW114303   1.921   2.861   1.324
 4468SOL    HW214304   1.959   2.709   1.277
 4469SOL     OW14305   4.201   0.125   1.193
 4469SOL    HW114306   4.197   0.069   1.276
 4469SOL    HW214307   4.291   0.115   1.151
 4470SOL     OW14308   6.124   2.628   2.158
 4470SOL    HW114309   6.220   2.644   2.138
 4470SOL    HW214310   6.084   2.570   2.086
 4471SOL     OW14311   0.171   1.617   6.506
 4471SOL    HW114312   0.255   1.609   6.560
 4471SOL    HW214313   0.102   1.555   6.542
 4472SOL     OW14314   1.656   3.028   4.107
 4472SOL    HW114315   1.677   2.959   4.176
 4472SOL    HW214316   1.740   3.055   4.060
 4473SOL     OW14317   6.977   2.611   4.222
 4473SOL    HW114318   7.007   2.588   4.130
 4473SOL    HW214319   6.979   2.529   4.279
 4474SOL     OW14320   3.264   0.876   1.500
 4474SOL    HW114321   3.247   0.961   1.452
 4474SOL    HW214322   3.343   0.829   1.460
 4475SOL     OW14323   1.700   3.923   2.720
 4475SOL    HW114324   1.800   3.920   2.728
 4475SOL    HW214325   1.660   3.925   2.811
 4476SOL     OW14326   4.285   6.904   4.020
 4476SOL    HW114327   4.367   6.847   4.027
 4476SOL    HW214328   4.238   6.905   4.108
 4477SOL     OW14329   1.421   0.251   5.745
 4477SOL    HW114330   1.370   0.316   5.689
 4477SOL    HW214331   1.474   0.300   5.814
 4478SOL     OW14332   3.753   6.477   2.704
 4478SOL    HW114333   3.778   6.380   2.704
 4478SOL    HW214334   3.758   6.512   2.610
 4479SOL     OW14335   1.457   1.002   1.442
 4479SOL    HW114336   1.524   1.041   1.379
 4479SOL    HW214337   1.490   1.011   1.536
 4480SOL     OW14338   2.466   3.127   5.975
 4480SOL    HW114339   2.513   3.195   5.920
 4480SOL    HW214340   2.464   3.039   5.927
 4481SOL     OW14341   2.535   6.202   5.503
 4481SOL    HW114342   2.520   6.108   5.535
 4481SOL    HW214343   2.632   6.213   5.478
 4482SOL     OW14344   1.306   4.552   4.455
 4482SOL    HW114345   1.237   4.488   4.489
 4482SOL    HW214346   1.350   4.513   4.374
 4483SOL     OW14347   4.875   3.405   1.898
 4483SOL    HW114348   4.784   3.410   1.857
 4483SOL    HW214349   4.887   3.482   1.960
 4484SOL     OW14350   3.644   2.882   5.808
 4484SOL    HW114351   3.554   2.845   5.783
 4484SOL    HW214352   3.655   2.877   5.907
 4485SOL     OW14353   5.098   1.974   5.111
 4485SOL    HW114354   5.057   1.982   5.020
 4485SOL    HW214355   5.197   1.970   5.103
 4486SOL     OW14356   5.184   4.821   4.674
 4486SOL    HW114357   5.268   4.779   4.706
 4486SOL    HW214358   5.186   4.830   4.575
 4487SOL     OW14359   2.635   2.648   6.314
 4487SOL    HW114360   2.689   2.725   6.278
 4487SOL    HW214361   2.671   2.622   6.404
 4488SOL     OW14362   6.472   3.165   5.995
 4488SOL    HW114363   6.534   3.222   6.048
 4488SOL    HW214364   6.490   3.178   5.897
 4489SOL     OW14365   6.232   5.563   4.602
 4489SOL    HW114366   6.246   5.601   4.693
 4489SOL    HW214367   6.302   5.599   4.540
 4490SOL     OW14368   6.368   2.655   3.019
 4490SOL    HW114369   6.287   2.660   3.077
 4490SOL    HW214370   6.347   2.599   2.939
 4491SOL     OW14371   6.939   2.339   4.747
 4491SOL    HW114372   6.902   2.292   4.666
 4491SOL    HW214373   6.911   2.289   4.829
 4492SOL     OW14374   5.689   4.388   2.027
 4492SOL    HW114375   5.667   4.299   2.069
 4492SOL    HW214376   5.640   4.396   1.940
 4493SOL     OW14377   5.050   6.109   5.306
 4493SOL    HW114378   5.042   6.010   5.320
 4493SOL    HW214379   5.011   6.133   5.217
 4494SOL     OW14380   6.626   1.258   5.345
 4494SOL    HW114381   6.660   1.169   5.374
 4494SOL    HW214382   6.526   1.256   5.344
 4495SOL     OW14383   3.840   6.007   4.833
 4495SOL    HW114384   3.761   6.066   4.817
 4495SOL    HW214385   3.820   5.914   4.800
 4496SOL     OW14386   5.597   5.513   0.986
 4496SOL    HW114387   5.499   5.520   0.968
 4496SOL    HW214388   5.648   5.544   0.906
 4497SOL     OW14389   4.853   0.701   6.852
 4497SOL    HW114390   4.808   0.613   6.865
 4497SOL    HW214391   4.812   0.747   6.773
 4498SOL     OW14392   6.827   3.497   6.513
 4498SOL    HW114393   6.741   3.446   6.511
 4498SOL    HW214394   6.870   3.493   6.423
 4499SOL     OW14395   6.598   3.236   4.094
 4499SOL    HW114396   6.636   3.156   4.048
 4499SOL    HW214397   6.598   3.221   4.192
 4500SOL     OW14398   3.081   3.986   3.937
 4500SOL    HW114399   3.143   3.917   3.975
 4500SOL    HW214400   2.987   3.952   3.944
 4501SOL     OW14401   0.422   3.495   4.676
 4501SOL    HW114402   0.413   3.567   4.745
 4501SOL    HW214403   0.421   3.536   4.585
 4502SOL     OW14404   1.235   2.687   6.555
 4502SOL    HW114405   1.220   2.709   6.652
 4502SOL    HW214406   1.282   2.764   6.511
 4503SOL     OW14407   3.514   6.828   2.102
 4503SOL    HW114408   3.551   6.919   2.120
 4503SOL    HW214409   3.416   6.827   2.119
 4504SOL     OW14410   6.292   1.436   5.228
 4504SOL    HW114411   6.194   1.449   5.215
 4504SOL    HW214412   6.326   1.501   5.295
 4505SOL     OW14413   6.194   5.491   2.323
 4505SOL    HW114414   6.167   5.573   2.374
 4505SOL    HW214415   6.113   5.445   2.287
 4506SOL     OW14416   4.287   1.867   3.522
 4506SOL    HW114417   4.212   1.854   3.456
 4506SOL    HW214418   4.286   1.792   3.588
 4507SOL     OW14419   5.538   5.333   2.330
 4507SOL    HW114420   5.442   5.333   2.302
 4507SOL    HW214421   5.586   5.260   2.281
 4508SOL     OW14422   0.550   4.502   5.956
 4508SOL    HW114423   0.488   4.578   5.935
 4508SOL    HW214424   0.596   4.521   6.043
 4509SOL     OW14425   5.063   2.490   2.274
 4509SOL    HW114426   5.018   2.512   2.361
 4509SOL    HW214427   4.994   2.463   2.207
 4510SOL     OW14428   4.395   1.008   4.425
 4510SOL    HW114429   4.346   1.048   4.503
 4510SOL    HW214430   4.349   0.923   4.397
 4511SOL     OW14431   0.179   3.339   6.750
 4511SOL    HW114432   0.249   3.382   6.807
 4511SOL    HW214433   0.217   3.257   6.708
 4512SOL     OW14434   2.406   0.096   4.909
 4512SOL    HW114435   2.435   0.183   4.948
 4512SOL    HW214436   2.307   0.096   4.896
 4513SOL     OW14437   6.066   5.629   0.500
 4513SOL    HW114438   6.048   5.715   0.452
 4513SOL    HW214439   6.019   5.630   0.588
 4514SOL     OW14440   4.636   1.472   6.271
 4514SOL    HW114441   4.586   1.408   6.213
 4514SOL    HW214442   4.587   1.484   6.358
 4515SOL     OW14443   0.170   2.623   5.750
 4515SOL    HW114444   0.105   2.548   5.761
 4515SOL    HW214445   0.141   2.681   5.674
 4516SOL     OW14446   1.244   0.577   0.048
 4516SOL    HW114447   1.227   0.534   0.136
 4516SOL    HW214448   1.158   0.590   7.021
 4517SOL     OW14449   3.222   1.178   6.760
 4517SOL    HW114450   3.149   1.177   6.692
 4517SOL    HW214451   3.247   1.083   6.782
 4518SOL     OW14452   0.045   0.460   3.111
 4518SOL    HW114453   0.014   0.542   3.159
 4518SOL    HW214454   6.989   0.418   3.065
 4519SOL     OW14455   5.803   0.386   1.645
 4519SOL    HW114456   5.867   0.399   1.721
 4519SOL    HW214457   5.722   0.444   1.660
 4520SOL     OW14458   4.693   5.741   4.667
 4520SOL    HW114459   4.600   5.714   4.691
 4520SOL    HW214460   4.717   5.704   4.577
 4521SOL     OW14461   6.101   2.254   4.174
 4521SOL    HW114462   6.001   2.249   4.166
 4521SOL    HW214463   6.141   2.170   4.136
 4522SOL     OW14464   6.074   0.050   3.361
 4522SOL    HW114465   6.105   6.981   3.336
 4522SOL    HW214466   6.150   0.102   3.399
 4523SOL     OW14467   1.656   4.754   0.491
 4523SOL    HW114468   1.568   4.716   0.520
 4523SOL    HW214469   1.699   4.799   0.569
 4524SOL     OW14470   5.858   2.368   3.724
 4524SOL    HW114471   5.889   2.372   3.629
 4524SOL    HW214472   5.769   2.414   3.732
 4525SOL     OW14473   4.960   1.342   3.560
 4525SOL    HW114474   4.938   1.409   3.630
 4525SOL    HW214475   5.002   1.388   3.482
 4526SOL     OW14476   5.977   0.349   1.443
 4526SOL    HW114477   5.985   0.442   1.408
 4526SOL    HW214478   5.900   0.344   1.507
 4527SOL     OW14479   4.187   1.232   3.613
 4527SOL    HW114480   4.270   1.199   3.657
 4527SOL    HW214481   4.209   1.266   3.521
 4528SOL     OW14482   4.770   0.157   0.234
 4528SOL    HW114483   4.828   0.147   0.153
 4528SOL    HW214484   4.676   0.130   0.211
 4529SOL     OW14485   3.358   1.366   5.208
 4529SOL    HW114486   3.404   1.446   5.245
 4529SOL    HW214487   3.373   1.288   5.269
 4530SOL     OW14488   1.438   3.400   6.291
 4530SOL    HW114489   1.445   3.441   6.381
 4530SOL    HW214490   1.495   3.318   6.287
 4531SOL     OW14491   0.337   3.577   4.404
 4531SOL    HW114492   0.250   3.547   4.443
 4531SOL    HW214493   0.327   3.586   4.305
 4532SOL     OW14494   5.851   2.165   3.311
 4532SOL    HW114495   5.754   2.165   3.336
 4532SOL    HW214496   5.869   2.090   3.249
 4533SOL     OW14497   1.671   0.770   2.059
 4533SOL    HW114498   1.687   0.727   2.148
 4533SOL    HW214499   1.648   0.866   2.072
 4534SOL     OW14500   4.645   4.440   4.748
 4534SOL    HW114501   4.713   4.367   4.759
 4534SOL    HW214502   4.662   4.512   4.815
 4535SOL     OW14503   4.939   1.432   2.520
 4535SOL    HW114504   5.037   1.413   2.521
 4535SOL    HW214505   4.916   1.491   2.443
 4536SOL     OW14506   3.869   1.281   3.882
 4536SOL    HW114507   3.886   1.256   3.787
 4536SOL    HW214508   3.771   1.275   3.902
 4537SOL     OW14509   3.668   2.842   6.092
 4537SOL    HW114510   3.640   2.749   6.115
 4537SOL    HW214511   3.657   2.901   6.172
 4538SOL     OW14512   2.108   0.340   4.173
 4538SOL    HW114513   2.041   0.364   4.243
 4538SOL    HW214514   2.168   0.268   4.208
 4539SOL     OW14515   1.994   0.700   4.743
 4539SOL    HW114516   2.087   0.736   4.731
 4539SOL    HW214517   1.938   0.768   4.791
 4540SOL     OW14518   2.997   3.054   5.276
 4540SOL    HW114519   2.900   3.034   5.292
 4540SOL    HW214520   3.022   3.139   5.323
 4541SOL     OW14521   6.141   1.329   1.273
 4541SOL    HW114522   6.134   1.309   1.176
 4541SOL    HW214523   6.049   1.337   1.312
 4542SOL     OW14524   6.382   0.992   3.180
 4542SOL    HW114525   6.396   0.936   3.261
 4542SOL    HW214526   6.447   1.069   3.181
 4543SOL     OW14527   4.595   1.848   1.327
 4543SOL    HW114528   4.675   1.819   1.380
 4543SOL    HW214529   4.597   1.948   1.318
 4544SOL     OW14530   2.951   6.146   6.019
 4544SOL    HW114531   2.917   6.058   6.052
 4544SOL    HW214532   2.899   6.220   6.062
 4545SOL     OW14533   5.256   3.834   4.909
 4545SOL    HW114534   5.240   3.903   4.838
 4545SOL    HW214535   5.353   3.815   4.916
 4546SOL     OW14536   2.146   1.134   6.524
 4546SOL    HW114537   2.104   1.170   6.440
 4546SOL    HW214538   2.239   1.170   6.531
 4547SOL     OW14539   5.897   2.625   3.337
 4547SOL    HW114540   5.813   2.678   3.352
 4547SOL    HW214541   5.886   2.568   3.256
 4548SOL     OW14542   1.200   4.109   4.723
 4548SOL    HW114543   1.242   4.147   4.805
 4548SOL    HW214544   1.269   4.058   4.671
 4549SOL     OW14545   5.620   4.436   2.310
 4549SOL    HW114546   5.665   4.399   2.391
 4549SOL    HW214547   5.664   4.400   2.228
 4550SOL     OW14548   1.371   5.980   3.315
 4550SOL    HW114549   1.413   5.911   3.256
 4550SOL    HW214550   1.334   6.053   3.260
 4551SOL     OW14551   6.486   1.929   5.893
 4551SOL    HW114552   6.402   1.887   5.858
 4551SOL    HW214553   6.565   1.890   5.847
 4552SOL     OW14554   6.373   2.639   0.985
 4552SOL    HW114555   6.417   2.701   1.049
 4552SOL    HW214556   6.391   2.669   0.891
 4553SOL     OW14557   3.726   4.339   6.499
 4553SOL    HW114558   3.799   4.374   6.441
 4553SOL    HW214559   3.701   4.247   6.468
 4554SOL     OW14560   5.268   0.264   1.506
 4554SOL    HW114561   5.252   0.328   1.431
 4554SOL    HW214562   5.181   0.227   1.537
 4555SOL     OW14563   3.447   1.567   5.698
 4555SOL    HW114564   3.532   1.519   5.681
 4555SOL    HW214565   3.408   1.599   5.612
 4556SOL     OW14566   4.457   2.405   4.201
 4556SOL    HW114567   4.491   2.496   4.225
 4556SOL    HW214568   4.429   2.357   4.285
 4557SOL     OW14569   5.068   6.562   4.867
 4557SOL    HW114570   5.016   6.556   4.952
 4557SOL    HW214571   5.034   6.639   4.813
 4558SOL     OW14572   0.600   4.058   4.859
 4558SOL    HW114573   0.616   3.978   4.917
 4558SOL    HW214574   0.502   4.074   4.851
 4559SOL     OW14575   0.575   3.906   1.994
 4559SOL    HW114576   0.481   3.892   1.964
 4559SOL    HW214577   0.628   3.823   1.977
 4560SOL     OW14578   5.499   5.127   2.738
 4560SOL    HW114579   5.520   5.218   2.703
 4560SOL    HW214580   5.579   5.090   2.785
 4561SOL     OW14581   2.501   0.881   1.757
 4561SOL    HW114582   2.517   0.874   1.855
 4561SOL    HW214583   2.569   0.941   1.716
 4562SOL     OW14584   3.190   6.235   4.922
 4562SOL    HW114585   3.123   6.305   4.899
 4562SOL    HW214586   3.143   6.155   4.959
 4563SOL     OW14587   0.565   3.957   0.903
 4563SOL    HW114588   0.492   3.915   0.849
 4563SOL    HW214589   0.594   4.042   0.859
 4564SOL     OW14590   6.872   0.002   0.532
 4564SOL    HW114591   6.942   0.063   0.567
 4564SOL    HW214592   6.869   6.941   0.588
 4565SOL     OW14593   0.012   1.135   5.671
 4565SOL    HW114594   0.061   1.219   5.696
 4565SOL    HW214595   6.937   1.154   5.664
 4566SOL     OW14596   6.538   2.003   0.749
 4566SOL    HW114597   6.473   1.996   0.825
 4566SOL    HW214598   6.592   2.087   0.759
 4567SOL     OW14599   0.082   0.647   0.056
 4567SOL    HW114600   0.025   0.680   7.003
 4567SOL    HW214601   0.169   0.614   0.021
 4568SOL     OW14602   1.739   4.079   6.047
 4568SOL    HW114603   1.715   4.148   5.979
 4568SOL    HW214604   1.795   4.008   6.005
 4569SOL     OW14605   2.129   1.214   3.514
 4569SOL    HW114606   2.201   1.283   3.514
 4569SOL    HW214607   2.112   1.183   3.607
 4570SOL     OW14608   0.758   6.257   3.250
 4570SOL    HW114609   0.672   6.226   3.290
 4570SOL    HW214610   0.817   6.178   3.232
 4571SOL     OW14611   4.326   3.172   6.121
 4571SOL    HW114612   4.343   3.222   6.037
 4571SOL    HW214613   4.247   3.212   6.169
 4572SOL     OW14614   0.901   6.570   6.997
 4572SOL    HW114615   0.925   6.641   0.041
 4572SOL    HW214616   0.847   6.499   0.020
 4573SOL     OW14617   6.245   6.748   0.457
 4573SOL    HW114618   6.230   6.847   0.461
 4573SOL    HW214619   6.270   6.714   0.547
 4574SOL     OW14620   6.612   3.923   1.060
 4574SOL    HW114621   6.552   3.991   1.102
 4574SOL    HW214622   6.632   3.948   0.966
 4575SOL     OW14623   5.691   1.894   6.517
 4575SOL    HW114624   5.605   1.930   6.552
 4575SOL    HW214625   5.685   1.883   6.418
 4576SOL     OW14626   2.537   6.302   6.151
 4576SOL    HW114627   2.564   6.284   6.057
 4576SOL    HW214628   2.466   6.237   6.179
 4577SOL     OW14629   0.879   1.718   4.569
 4577SOL    HW114630   0.947   1.645   4.563
 4577SOL    HW214631   0.923   1.806   4.554
 4578SOL     OW14632   1.012   3.473   4.977
 4578SOL    HW114633   1.066   3.392   4.954
 4578SOL    HW214634   1.072   3.542   5.018
 4579SOL     OW14635   4.849   2.371   3.542
 4579SOL    HW114636   4.773   2.419   3.585
 4579SOL    HW214637   4.843   2.382   3.442
 4580SOL     OW14638   4.591   4.561   6.969
 4580SOL    HW114639   4.593   4.659   6.949
 4580SOL    HW214640   4.507   4.521   6.933
 4581SOL     OW14641   2.601   4.793   2.765
 4581SOL    HW114642   2.563   4.718   2.821
 4581SOL    HW214643   2.590   4.771   2.668
 4582SOL     OW14644   5.944   6.449   4.576
 4582SOL    HW114645   5.899   6.523   4.526
 4582SOL    HW214646   5.876   6.395   4.625
 4583SOL     OW14647   2.190   1.891   5.769
 4583SOL    HW114648   2.198   1.943   5.683
 4583SOL    HW214649   2.170   1.954   5.844
 4584SOL     OW14650   0.057   5.417   5.916
 4584SOL    HW114651   0.033   5.495   5.856
 4584SOL    HW214652   0.133   5.443   5.975
 4585SOL     OW14653   2.448   7.014   3.076
 4585SOL    HW114654   2.362   0.042   3.068
 4585SOL    HW214655   2.519   0.040   3.025
 4586SOL     OW14656   3.115   4.427   0.484
 4586SOL    HW114657   3.140   4.515   0.446
 4586SOL    HW214658   3.155   4.354   0.428
 4587SOL     OW14659   3.943   3.901   1.929
 4587SOL    HW114660   3.978   3.891   2.022
 4587SOL    HW214661   3.843   3.905   1.932
 4588SOL     OW14662   4.147   3.657   4.774
 4588SOL    HW114663   4.110   3.673   4.683
 4588SOL    HW214664   4.125   3.734   4.833
 4589SOL     OW14665   5.894   1.027   2.531
 4589SOL    HW114666   5.829   0.992   2.463
 4589SOL    HW214667   5.885   1.126   2.538
 4590SOL     OW14668   4.757   5.815   0.207
 4590SOL    HW114669   4.699   5.873   0.264
 4590SOL    HW214670   4.742   5.839   0.111
 4591SOL     OW14671   0.746   6.572   4.780
 4591SOL    HW114672   0.805   6.495   4.757
 4591SOL    HW214673   0.744   6.637   4.703
 4592SOL     OW14674   3.301   1.507   1.573
 4592SOL    HW114675   3.275   1.600   1.599
 4592SOL    HW214676   3.384   1.480   1.621
 4593SOL     OW14677   4.363   5.524   3.742
 4593SOL    HW114678   4.364   5.578   3.826
 4593SOL    HW214679   4.395   5.431   3.761
 4594SOL     OW14680   3.094   0.835   1.700
 4594SOL    HW114681   3.155   0.848   1.622
 4594SOL    HW214682   3.075   0.923   1.743
 4595SOL     OW14683   4.103   2.131   6.681
 4595SOL    HW114684   4.114   2.225   6.713
 4595SOL    HW214685   4.059   2.076   6.752
 4596SOL     OW14686   5.970   6.822   2.779
 4596SOL    HW114687   5.917   6.794   2.859
 4596SOL    HW214688   5.982   6.743   2.718
 4597SOL     OW14689   4.361   4.298   6.546
 4597SOL    HW114690   4.277   4.306   6.492
 4597SOL    HW214691   4.377   4.384   6.594
 4598SOL     OW14692   1.948   5.648   0.214
 4598SOL    HW114693   1.897   5.562   0.217
 4598SOL    HW214694   1.970   5.671   0.119
 4599SOL     OW14695   0.695   5.654   0.398
 4599SOL    HW114696   0.738   5.565   0.381
 4599SOL    HW214697   0.623   5.669   0.330
 4600SOL     OW14698   0.896   4.571   5.313
 4600SOL    HW114699   0.840   4.648   5.284
 4600SOL    HW214700   0.854   4.528   5.393
 4601SOL     OW14701   1.768   0.344   6.110
 4601SOL    HW114702   1.704   0.324   6.184
 4601SOL    HW214703   1.845   0.280   6.114
 4602SOL     OW14704   0.869   5.566   1.236
 4602SOL    HW114705   0.783   5.617   1.233
 4602SOL    HW214706   0.858   5.486   1.295
 4603SOL     OW14707   3.078   6.277   0.825
 4603SOL    HW114708   3.070   6.357   0.884
 4603SOL    HW214709   3.033   6.199   0.868
 4604SOL     OW14710   4.695   0.428   1.591
 4604SOL    HW114711   4.657   0.520   1.580
 4604SOL    HW214712   4.625   0.360   1.566
 4605SOL     OW14713   3.572   0.772   3.496
 4605SOL    HW114714   3.617   0.683   3.486
 4605SOL    HW214715   3.567   0.796   3.593
 4606SOL     OW14716   0.900   0.117   1.727
 4606SOL    HW114717   0.912   0.098   1.824
 4606SOL    HW214718   0.869   0.211   1.715
 4607SOL     OW14719   2.314   2.364   0.948
 4607SOL    HW114720   2.217   2.349   0.929
 4607SOL    HW214721   2.324   2.407   1.038
 4608SOL     OW14722   0.762   6.282   3.779
 4608SOL    HW114723   0.740   6.369   3.735
 4608SOL    HW214724   0.727   6.206   3.723
 4609SOL     OW14725   4.630   5.001   6.507
 4609SOL    HW114726   4.569   4.962   6.438
 4609SOL    HW214727   4.609   5.098   6.518
 4610SOL     OW14728   4.979   2.856   0.980
 4610SOL    HW114729   4.949   2.945   1.017
 4610SOL    HW214730   5.002   2.867   0.883
 4611SOL     OW14731   6.955   6.298   5.834
 4611SOL    HW114732   6.895   6.302   5.754
 4611SOL    HW214733   6.960   6.204   5.868
 4612SOL     OW14734   1.217   6.000   0.086
 4612SOL    HW114735   1.229   6.033   0.180
 4612SOL    HW214736   1.119   5.992   0.066
 4613SOL     OW14737   2.238   6.282   2.146
 4613SOL    HW114738   2.197   6.355   2.200
 4613SOL    HW214739   2.322   6.251   2.190
 4614SOL     OW14740   6.887   3.599   4.420
 4614SOL    HW114741   6.812   3.549   4.376
 4614SOL    HW214742   6.953   3.627   4.350
 4615SOL     OW14743   1.457   0.585   0.294
 4615SOL    HW114744   1.514   0.655   0.336
 4615SOL    HW214745   1.387   0.555   0.359
 4616SOL     OW14746   6.148   0.642   5.719
 4616SOL    HW114747   6.188   0.713   5.661
 4616SOL    HW214748   6.113   0.568   5.661
 4617SOL     OW14749   0.448   2.583   2.438
 4617SOL    HW114750   0.362   2.627   2.462
 4617SOL    HW214751   0.434   2.521   2.361
 4618SOL     OW14752   2.045   2.956   4.939
 4618SOL    HW114753   2.097   3.002   5.011
 4618SOL    HW214754   2.103   2.941   4.859
 4619SOL     OW14755   3.248   6.267   3.046
 4619SOL    HW114756   3.285   6.292   3.136
 4619SOL    HW214757   3.302   6.193   3.007
 4620SOL     OW14758   2.544   4.754   0.515
 4620SOL    HW114759   2.604   4.806   0.453
 4620SOL    HW214760   2.580   4.662   0.527
 4621SOL     OW14761   5.460   1.119   2.439
 4621SOL    HW114762   5.497   1.052   2.375
 4621SOL    HW214763   5.452   1.207   2.394
 4622SOL     OW14764   2.390   4.441   0.286
 4622SOL    HW114765   2.313   4.429   0.349
 4622SOL    HW214766   2.460   4.373   0.307
 4623SOL     OW14767   5.815   6.723   0.590
 4623SOL    HW114768   5.894   6.746   0.646
 4623SOL    HW214769   5.754   6.803   0.583
 4624SOL     OW14770   5.550   0.141   3.179
 4624SOL    HW114771   5.585   0.065   3.234
 4624SOL    HW214772   5.613   0.219   3.186
 4625SOL     OW14773   1.312   3.936   0.557
 4625SOL    HW114774   1.323   4.019   0.612
 4625SOL    HW214775   1.347   3.857   0.608
 4626SOL     OW14776   5.282   5.397   2.242
 4626SOL    HW114777   5.313   5.473   2.185
 4626SOL    HW214778   5.198   5.359   2.204
 4627SOL     OW14779   2.871   4.768   4.207
 4627SOL    HW114780   2.948   4.810   4.255
 4627SOL    HW214781   2.801   4.743   4.274
 4628SOL     OW14782   6.373   4.584   3.892
 4628SOL    HW114783   6.383   4.683   3.899
 4628SOL    HW214784   6.462   4.542   3.872
 4629SOL     OW14785   2.022   5.101   5.782
 4629SOL    HW114786   2.045   5.006   5.805
 4629SOL    HW214787   1.998   5.106   5.685
 4630SOL     OW14788   3.861   5.431   2.347
 4630SOL    HW114789   3.866   5.504   2.415
 4630SOL    HW214790   3.884   5.344   2.391
 4631SOL     OW14791   2.017   6.571   3.052
 4631SOL    HW114792   2.067   6.501   3.002
 4631SOL    HW214793   2.042   6.661   3.016
 4632SOL     OW14794   3.586   5.248   2.649
 4632SOL    HW114795   3.642   5.247   2.732
 4632SOL    HW214796   3.639   5.209   2.573
 4633SOL     OW14797   5.399   1.382   4.159
 4633SOL    HW114798   5.400   1.465   4.103
 4633SOL    HW214799   5.431   1.405   4.252
 4634SOL     OW14800   2.784   5.215   5.764
 4634SOL    HW114801   2.813   5.119   5.765
 4634SOL    HW214802   2.696   5.223   5.811
 4635SOL     OW14803   5.438   3.651   1.221
 4635SOL    HW114804   5.448   3.686   1.315
 4635SOL    HW214805   5.455   3.725   1.156
 4636SOL     OW14806   2.567   5.219   0.145
 4636SOL    HW114807   2.526   5.299   0.101
 4636SOL    HW214808   2.495   5.155   0.172
 4637SOL     OW14809   0.781   6.766   0.184
 4637SOL    HW114810   0.767   6.679   0.231
 4637SOL    HW214811   0.875   6.798   0.201
 4638SOL     OW14812   5.118   2.962   0.128
 4638SOL    HW114813   5.019   2.974   0.125
 4638SOL    HW214814   5.156   2.973   0.036
 4639SOL     OW14815   2.845   4.336   5.336
 4639SOL    HW114816   2.870   4.352   5.432
 4639SOL    HW214817   2.882   4.409   5.279
 4640SOL     OW14818   4.881   4.423   3.624
 4640SOL    HW114819   4.841   4.378   3.545
 4640SOL    HW214820   4.831   4.507   3.643
 4641SOL     OW14821   1.913   6.436   5.019
 4641SOL    HW114822   1.866   6.510   5.067
 4641SOL    HW214823   1.987   6.401   5.076
 4642SOL     OW14824   0.263   5.311   3.756
 4642SOL    HW114825   0.328   5.285   3.828
 4642SOL    HW214826   0.306   5.376   3.694
 4643SOL     OW14827   5.722   3.090   1.160
 4643SOL    HW114828   5.748   3.186   1.168
 4643SOL    HW214829   5.623   3.082   1.172
 4644SOL     OW14830   7.001   4.877   5.095
 4644SOL    HW114831   0.030   4.824   5.028
 4644SOL    HW214832   7.009   4.833   5.185
 4645SOL     OW14833   0.722   1.508   4.281
 4645SOL    HW114834   0.778   1.452   4.342
 4645SOL    HW214835   0.774   1.530   4.198
 4646SOL     OW14836   2.021   5.343   3.856
 4646SOL    HW114837   2.071   5.292   3.786
 4646SOL    HW214838   2.077   5.352   3.938
 4647SOL     OW14839   1.554   1.093   3.965
 4647SOL    HW114840   1.574   1.029   3.891
 4647SOL    HW214841   1.507   1.045   4.039
 4648SOL     OW14842   4.550   1.168   2.380
 4648SOL    HW114843   4.563   1.224   2.463
 4648SOL    HW214844   4.453   1.147   2.370
 4649SOL     OW14845   5.422   0.165   6.474
 4649SOL    HW114846   5.387   0.142   6.565
 4649SOL    HW214847   5.453   0.082   6.428
 4650SOL     OW14848   4.729   5.438   3.191
 4650SOL    HW114849   4.632   5.458   3.182
 4650SOL    HW214850   4.768   5.420   3.101
 4651SOL     OW14851   6.739   1.677   0.474
 4651SOL    HW114852   6.731   1.577   0.466
 4651SOL    HW214853   6.647   1.716   0.480
 4652SOL     OW14854   7.000   0.445   4.300
 4652SOL    HW114855   0.048   0.511   4.326
 4652SOL    HW214856   6.935   0.487   4.237
 4653SOL     OW14857   5.921   4.975   0.202
 4653SOL    HW114858   5.980   4.895   0.189
 4653SOL    HW214859   5.968   5.042   0.259
 4654SOL     OW14860   0.751   6.522   0.328
 4654SOL    HW114861   0.750   6.534   0.428
 4654SOL    HW214862   0.842   6.492   0.300
 4655SOL     OW14863   6.423   4.524   1.694
 4655SOL    HW114864   6.454   4.517   1.789
 4655SOL    HW214865   6.342   4.583   1.690
 4656SOL     OW14866   0.916   0.638   3.640
 4656SOL    HW114867   0.947   0.543   3.641
 4656SOL    HW214868   0.940   0.683   3.726
 4657SOL     OW14869   5.378   5.928   1.427
 4657SOL    HW114870   5.300   5.930   1.490
 4657SOL    HW214871   5.446   5.863   1.460
 4658SOL     OW14872   4.103   0.667   2.661
 4658SOL    HW114873   4.082   0.644   2.756
 4658SOL    HW214874   4.035   0.733   2.627
 4659SOL     OW14875   3.122   4.500   5.323
 4659SOL    HW114876   3.054   4.512   5.250
 4659SOL    HW214877   3.086   4.437   5.392
 4660SOL     OW14878   1.248   4.425   5.812
 4660SOL    HW114879   1.314   4.362   5.771
 4660SOL    HW214880   1.252   4.512   5.764
 4661SOL     OW14881   3.511   3.893   5.555
 4661SOL    HW114882   3.516   3.991   5.534
 4661SOL    HW214883   3.597   3.849   5.530
 4662SOL     OW14884   3.837   6.942   5.367
 4662SOL    HW114885   3.796   6.851   5.377
 4662SOL    HW214886   3.832   6.971   5.272
 4663SOL     OW14887   0.825   1.541   2.544
 4663SOL    HW114888   0.814   1.563   2.448
 4663SOL    HW214889   0.769   1.603   2.600
 4664SOL     OW14890   1.184   1.539   0.849
 4664SOL    HW114891   1.246   1.617   0.852
 4664SOL    HW214892   1.208   1.479   0.773
 4665SOL     OW14893   3.764   6.997   0.203
 4665SOL    HW114894   3.720   0.045   0.258
 4665SOL    HW214895   3.694   6.944   0.155
 4666SOL     OW14896   1.324   2.217   0.947
 4666SOL    HW114897   1.339   2.121   0.969
 4666SOL    HW214898   1.234   2.246   0.979
 4667SOL     OW14899   5.733   3.548   2.389
 4667SOL    HW114900   5.815   3.605   2.391
 4667SOL    HW214901   5.720   3.512   2.297
 4668SOL     OW14902   5.101   1.798   2.754
 4668SOL    HW114903   5.062   1.717   2.712
 4668SOL    HW214904   5.027   1.855   2.790
 4669SOL     OW14905   4.634   6.321   6.770
 4669SOL    HW114906   4.657   6.296   6.676
 4669SOL    HW214907   4.552   6.271   6.799
 4670SOL     OW14908   2.882   2.229   5.091
 4670SOL    HW114909   2.974   2.260   5.067
 4670SOL    HW214910   2.881   2.198   5.186
 4671SOL     OW14911   6.716   3.076   2.272
 4671SOL    HW114912   6.787   3.038   2.213
 4671SOL    HW214913   6.713   3.024   2.358
 4672SOL     OW14914   2.973   4.790   6.383
 4672SOL    HW114915   2.976   4.885   6.416
 4672SOL    HW214916   3.063   4.766   6.346
 4673SOL     OW14917   5.290   6.508   1.495
 4673SOL    HW114918   5.385   6.478   1.493
 4673SOL    HW214919   5.259   6.513   1.590
 4674SOL     OW14920   5.053   0.146   6.380
 4674SOL    HW114921   5.095   0.079   6.318
 4674SOL    HW214922   4.963   0.114   6.407
 4675SOL     OW14923   0.707   1.291   6.276
 4675SOL    HW114924   0.647   1.354   6.229
 4675SOL    HW214925   0.797   1.333   6.288
 4676SOL     OW14926   6.947   6.083   3.734
 4676SOL    HW114927   6.897   6.078   3.820
 4676SOL    HW214928   6.906   6.153   3.675
 4677SOL     OW14929   3.010   1.054   6.915
 4677SOL    HW114930   3.063   1.121   6.864
 4677SOL    HW214931   2.915   1.085   6.922
 4678SOL     OW14932   2.126   4.768   3.357
 4678SOL    HW114933   2.122   4.745   3.454
 4678SOL    HW214934   2.113   4.685   3.303
 4679SOL     OW14935   3.336   0.513   0.687
 4679SOL    HW114936   3.430   0.488   0.665
 4679SOL    HW214937   3.277   0.492   0.609
 4680SOL     OW14938   2.917   1.776   6.817
 4680SOL    HW114939   2.896   1.788   6.720
 4680SOL    HW214940   2.885   1.856   6.868
 4681SOL     OW14941   5.027   4.996   6.736
 4681SOL    HW114942   5.115   5.027   6.700
 4681SOL    HW214943   5.043   4.939   6.817
 4682SOL     OW14944   4.788   4.505   5.390
 4682SOL    HW114945   4.773   4.470   5.297
 4682SOL    HW214946   4.735   4.451   5.455
 4683SOL     OW14947   5.095   5.057   2.330
 4683SOL    HW114948   5.054   4.971   2.362
 4683SOL    HW214949   5.179   5.036   2.279
 4684SOL     OW14950   5.792   0.497   5.180
 4684SOL    HW114951   5.720   0.553   5.222
 4684SOL    HW214952   5.834   0.548   5.105
 4685SOL     OW14953   1.057   5.364   5.491
 4685SOL    HW114954   0.967   5.356   5.533
 4685SOL    HW214955   1.122   5.400   5.558
 4686SOL     OW14956   4.304   4.898   0.177
 4686SOL    HW114957   4.380   4.894   0.242
 4686SOL    HW214958   4.229   4.842   0.211
 4687SOL     OW14959   5.526   3.452   4.436
 4687SOL    HW114960   5.435   3.495   4.432
 4687SOL    HW214961   5.542   3.401   4.351
 4688SOL     OW14962   5.697   4.193   4.944
 4688SOL    HW114963   5.642   4.170   5.024
 4688SOL    HW214964   5.677   4.129   4.870
 4689SOL     OW14965   4.755   0.654   0.321
 4689SOL    HW114966   4.669   0.704   0.325
 4689SOL    HW214967   4.745   0.565   0.365
 4690SOL     OW14968   1.130   0.133   0.039
 4690SOL    HW114969   1.148   0.119   6.964
 4690SOL    HW214970   1.212   0.171   0.083
 4691SOL     OW14971   2.960   4.769   1.089
 4691SOL    HW114972   2.962   4.850   1.147
 4691SOL    HW214973   3.000   4.691   1.138
 4692SOL     OW14974   5.578   5.442   1.838
 4692SOL    HW114975   5.481   5.463   1.848
 4692SOL    HW214976   5.595   5.350   1.875
 4693SOL     OW14977   1.747   2.107   3.572
 4693SOL    HW114978   1.648   2.092   3.579
 4693SOL    HW214979   1.794   2.039   3.629
 4694SOL     OW14980   1.609   0.799   0.364
 4694SOL    HW114981   1.708   0.796   0.376
 4694SOL    HW214982   1.584   0.880   0.310
 4695SOL     OW14983   0.798   4.317   2.439
 4695SOL    HW114984   0.731   4.269   2.382
 4695SOL    HW214985   0.836   4.393   2.387
 4696SOL     OW14986   0.175   3.997   0.237
 4696SOL    HW114987   0.116   4.061   0.187
 4696SOL    HW214988   0.204   3.924   0.176
 4697SOL     OW14989   1.580   3.356   1.120
 4697SOL    HW114990   1.645   3.431   1.102
 4697SOL    HW214991   1.630   3.277   1.156
 4698SOL     OW14992   4.462   5.832   2.578
 4698SOL    HW114993   4.496   5.780   2.499
 4698SOL    HW214994   4.364   5.820   2.587
 4699SOL     OW14995   1.313   6.713   2.207
 4699SOL    HW114996   1.365   6.798   2.210
 4699SOL    HW214997   1.275   6.700   2.116
 4700SOL     OW14998   6.957   1.080   2.825
 4700SOL    HW114999   6.959   1.166   2.876
 4700SOL    HW215000   6.873   1.076   2.771
 4701SOL     OW15001   2.315   2.046   0.185
 4701SOL    HW115002   2.366   2.010   0.264
 4701SOL    HW215003   2.341   2.141   0.170
 4702SOL     OW15004   4.863   4.673   0.049
 4702SOL    HW115005   4.901   4.581   0.056
 4702SOL    HW215006   4.767   4.668   0.023
 4703SOL     OW15007   0.468   1.617   2.408
 4703SOL    HW115008   0.472   1.677   2.488
 4703SOL    HW215009   0.430   1.668   2.331
 4704SOL     OW15010   6.809   6.249   6.716
 4704SOL    HW115011   6.868   6.250   6.634
 4704SOL    HW215012   6.769   6.340   6.728
 4705SOL     OW15013   4.098   2.820   1.375
 4705SOL    HW115014   4.056   2.856   1.459
 4705SOL    HW215015   4.155   2.890   1.334
 4706SOL     OW15016   2.499   0.043   0.956
 4706SOL    HW115017   2.419   0.021   0.900
 4706SOL    HW215018   2.552   0.115   0.911
 4707SOL     OW15019   1.193   6.794   0.591
 4707SOL    HW115020   1.191   6.730   0.668
 4707SOL    HW215021   1.264   6.863   0.607
 4708SOL     OW15022   1.585   2.184   6.262
 4708SOL    HW115023   1.531   2.135   6.193
 4708SOL    HW215024   1.679   2.148   6.263
 4709SOL     OW15025   4.584   5.818   5.402
 4709SOL    HW115026   4.591   5.880   5.323
 4709SOL    HW215027   4.488   5.792   5.415
 4710SOL     OW15028   4.731   0.289   5.869
 4710SOL    HW115029   4.819   0.336   5.873
 4710SOL    HW215030   4.679   0.308   5.953
 4711SOL     OW15031   6.117   1.388   1.807
 4711SOL    HW115032   6.069   1.398   1.720
 4711SOL    HW215033   6.136   1.478   1.846
 4712SOL     OW15034   3.235   4.481   6.899
 4712SOL    HW115035   3.326   4.490   6.859
 4712SOL    HW215036   3.172   4.541   6.850
 4713SOL     OW15037   3.383   4.052   0.850
 4713SOL    HW115038   3.454   4.121   0.862
 4713SOL    HW215039   3.359   4.013   0.938
 4714SOL     OW15040   0.891   1.910   6.190
 4714SOL    HW115041   0.893   1.956   6.102
 4714SOL    HW215042   0.966   1.944   6.248
 4715SOL     OW15043   6.261   3.161   2.306
 4715SOL    HW115044   6.252   3.157   2.207
 4715SOL    HW215045   6.177   3.200   2.346
 4716SOL     OW15046   4.188   6.596   6.088
 4716SOL    HW115047   4.091   6.592   6.063
 4716SOL    HW215048   4.207   6.524   6.155
 4717SOL     OW15049   0.303   6.190   3.917
 4717SOL    HW115050   0.242   6.208   3.995
 4717SOL    HW215051   0.324   6.092   3.913
 4718SOL     OW15052   5.654   2.432   1.354
 4718SOL    HW115053   5.659   2.531   1.344
 4718SOL    HW215054   5.736   2.399   1.401
 4719SOL     OW15055   4.824   3.178   1.746
 4719SOL    HW115056   4.774   3.125   1.814
 4719SOL    HW215057   4.881   3.246   1.793
 4720SOL     OW15058   2.077   5.278   6.220
 4720SOL    HW115059   2.133   5.211   6.172
 4720SOL    HW215060   2.051   5.242   6.309
 4721SOL     OW15061   6.233   1.925   2.451
 4721SOL    HW115062   6.163   1.967   2.394
 4721SOL    HW215063   6.269   1.992   2.515
 4722SOL     OW15064   1.233   6.161   6.677
 4722SOL    HW115065   1.167   6.089   6.658
 4722SOL    HW215066   1.281   6.140   6.763
 4723SOL     OW15067   2.805   3.028   5.964
 4723SOL    HW115068   2.821   2.980   5.877
 4723SOL    HW215069   2.873   2.999   6.031
 4724SOL     OW15070   6.050   6.782   3.512
 4724SOL    HW115071   6.038   6.708   3.577
 4724SOL    HW215072   6.110   6.852   3.550
 4725SOL     OW15073   6.863   5.185   0.817
 4725SOL    HW115074   6.907   5.165   0.905
 4725SOL    HW215075   6.841   5.283   0.813
 4726SOL     OW15076   0.952   3.322   6.268
 4726SOL    HW115077   0.967   3.241   6.211
 4726SOL    HW215078   0.876   3.305   6.331
 4727SOL     OW15079   1.145   6.276   1.311
 4727SOL    HW115080   1.178   6.341   1.379
 4727SOL    HW215081   1.057   6.308   1.274
 4728SOL     OW15082   5.965   1.450   1.598
 4728SOL    HW115083   5.994   1.535   1.553
 4728SOL    HW215084   5.913   1.394   1.533
 4729SOL     OW15085   3.970   1.704   0.523
 4729SOL    HW115086   4.025   1.631   0.563
 4729SOL    HW215087   3.873   1.686   0.542
 4730SOL     OW15088   3.581   5.880   5.901
 4730SOL    HW115089   3.509   5.815   5.924
 4730SOL    HW215090   3.557   5.970   5.936
 4731SOL     OW15091   3.334   0.443   0.040
 4731SOL    HW115092   3.319   0.541   0.056
 4731SOL    HW215093   3.342   0.426   6.964
 4732SOL     OW15094   1.836   4.462   5.385
 4732SOL    HW115095   1.747   4.432   5.419
 4732SOL    HW215096   1.882   4.386   5.338
 4733SOL     OW15097   1.612   4.442   3.864
 4733SOL    HW115098   1.680   4.515   3.854
 4733SOL    HW215099   1.521   4.483   3.875
 4734SOL     OW15100   4.163   3.597   6.945
 4734SOL    HW115101   4.157   3.530   7.019
 4734SOL    HW215102   4.079   3.596   6.892
 4735SOL     OW15103   6.976   5.039   4.283
 4735SOL    HW115104   0.015   5.009   4.210
 4735SOL    HW215105   6.895   4.982   4.284
 4736SOL     OW15106   6.257   1.800   5.801
 4736SOL    HW115107   6.166   1.835   5.777
 4736SOL    HW215108   6.287   1.736   5.731
 4737SOL     OW15109   2.764   4.431   1.635
 4737SOL    HW115110   2.798   4.494   1.565
 4737SOL    HW215111   2.790   4.465   1.725
 4738SOL     OW15112   1.242   6.133   3.122
 4738SOL    HW115113   1.196   6.216   3.152
 4738SOL    HW215114   1.311   6.156   3.053
 4739SOL     OW15115   4.858   1.658   2.653
 4739SOL    HW115116   4.890   1.728   2.589
 4739SOL    HW215117   4.884   1.567   2.620
 4740SOL     OW15118   0.446   2.240   1.062
 4740SOL    HW115119   0.381   2.307   1.097
 4740SOL    HW215120   0.406   2.149   1.067
 4741SOL     OW15121   5.648   3.692   0.809
 4741SOL    HW115122   5.595   3.648   0.736
 4741SOL    HW215123   5.677   3.783   0.779
 4742SOL     OW15124   3.055   0.007   6.488
 4742SOL    HW115125   2.969   6.979   6.475
 4742SOL    HW215126   3.094   0.029   6.399
 4743SOL     OW15127   1.815   3.426   4.807
 4743SOL    HW115128   1.805   3.346   4.866
 4743SOL    HW215129   1.911   3.437   4.781
 4744SOL     OW15130   2.500   4.365   6.441
 4744SOL    HW115131   2.435   4.324   6.377
 4744SOL    HW215132   2.588   4.378   6.396
 4745SOL     OW15133   3.136   5.219   5.985
 4745SOL    HW115134   3.101   5.126   5.992
 4745SOL    HW215135   3.235   5.219   5.999
 4746SOL     OW15136   5.679   5.968   2.369
 4746SOL    HW115137   5.769   5.924   2.373
 4746SOL    HW215138   5.622   5.933   2.444
 4747SOL     OW15139   2.140   4.029   6.456
 4747SOL    HW115140   2.099   3.983   6.377
 4747SOL    HW215141   2.072   4.034   6.530
 4748SOL     OW15142   0.911   4.885   0.420
 4748SOL    HW115143   0.910   4.980   0.451
 4748SOL    HW215144   0.958   4.879   0.332
 4749SOL     OW15145   2.829   6.535   5.357
 4749SOL    HW115146   2.841   6.573   5.449
 4749SOL    HW215147   2.784   6.603   5.299
 4750SOL     OW15148   0.506   4.148   3.744
 4750SOL    HW115149   0.420   4.139   3.695
 4750SOL    HW215150   0.567   4.072   3.720
 4751SOL     OW15151   3.589   1.992   1.503
 4751SOL    HW115152   3.571   2.023   1.409
 4751SOL    HW215153   3.632   2.067   1.554
 4752SOL     OW15154   3.342   1.048   6.400
 4752SOL    HW115155   3.326   1.144   6.422
 4752SOL    HW215156   3.255   1.000   6.394
 4753SOL     OW15157   5.241   0.083   3.939
 4753SOL    HW115158   5.283   0.021   3.872
 4753SOL    HW215159   5.237   0.037   4.028
 4754SOL     OW15160   5.516   7.014   4.667
 4754SOL    HW115161   5.540   0.048   4.746
 4754SOL    HW215162   5.575   6.933   4.665
 4755SOL     OW15163   2.157   0.666   1.070
 4755SOL    HW115164   2.227   0.605   1.033
 4755SOL    HW215165   2.200   0.733   1.131
 4756SOL     OW15166   5.899   3.037   0.831
 4756SOL    HW115167   5.956   3.092   0.770
 4756SOL    HW215168   5.871   3.093   0.910
 4757SOL     OW15169   2.101   1.987   1.014
 4757SOL    HW115170   2.189   2.012   1.053
 4757SOL    HW215171   2.093   1.888   1.008
 4758SOL     OW15172   2.522   0.100   3.965
 4758SOL    HW115173   2.485   0.013   3.996
 4758SOL    HW215174   2.507   0.170   4.035
 4759SOL     OW15175   5.917   4.902   4.918
 4759SOL    HW115176   5.868   4.929   4.835
 4759SOL    HW215177   6.014   4.925   4.908
 4760SOL     OW15178   2.093   1.964   0.586
 4760SOL    HW115179   2.107   1.881   0.531
 4760SOL    HW215180   2.171   1.976   0.648
 4761SOL     OW15181   0.488   6.113   6.924
 4761SOL    HW115182   0.457   6.175   6.852
 4761SOL    HW215183   0.440   6.135   7.009
 4762SOL     OW15184   0.994   5.834   2.215
 4762SOL    HW115185   1.006   5.748   2.263
 4762SOL    HW215186   1.076   5.856   2.162
 4763SOL     OW15187   6.320   6.504   3.560
 4763SOL    HW115188   6.318   6.409   3.591
 4763SOL    HW215189   6.246   6.555   3.604
 4764SOL     OW15190   4.988   3.846   4.644
 4764SOL    HW115191   5.072   3.893   4.672
 4764SOL    HW215192   4.947   3.800   4.722
 4765SOL     OW15193   4.515   0.604   3.681
 4765SOL    HW115194   4.589   0.632   3.621
 4765SOL    HW215195   4.547   0.533   3.743
 4766SOL     OW15196   5.359   5.673   3.995
 4766SOL    HW115197   5.277   5.631   3.956
 4766SOL    HW215198   5.340   5.701   4.089
 4767SOL     OW15199   3.518   5.163   5.667
 4767SOL    HW115200   3.556   5.219   5.593
 4767SOL    HW215201   3.520   5.067   5.640
 4768SOL     OW15202   4.264   1.388   5.902
 4768SOL    HW115203   4.252   1.487   5.900
 4768SOL    HW215204   4.359   1.367   5.923
 4769SOL     OW15205   5.049   3.575   6.978
 4769SOL    HW115206   5.128   3.633   6.954
 4769SOL    HW215207   5.041   3.501   6.912
 4770SOL     OW15208   1.151   0.722   4.598
 4770SOL    HW115209   1.242   0.701   4.634
 4770SOL    HW215210   1.133   0.665   4.517
 4771SOL     OW15211   3.095   5.910   4.929
 4771SOL    HW115212   3.184   5.867   4.944
 4771SOL    HW215213   3.064   5.953   5.014
 4772SOL     OW15214   3.627   4.517   1.347
 4772SOL    HW115215   3.725   4.525   1.331
 4772SOL    HW215216   3.578   4.523   1.259
 4773SOL     OW15217   6.794   5.596   3.838
 4773SOL    HW115218   6.839   5.510   3.861
 4773SOL    HW215219   6.819   5.622   3.745
 4774SOL     OW15220   1.431   3.330   2.178
 4774SOL    HW115221   1.497   3.405   2.184
 4774SOL    HW215222   1.474   3.245   2.211
 4775SOL     OW15223   5.184   6.066   2.251
 4775SOL    HW115224   5.095   6.094   2.289
 4775SOL    HW215225   5.180   6.070   2.151
 4776SOL     OW15226   1.221   6.620   5.534
 4776SOL    HW115227   1.188   6.669   5.614
 4776SOL    HW215228   1.146   6.609   5.469
 4777SOL     OW15229   2.431   5.061   1.051
 4777SOL    HW115230   2.426   4.964   1.074
 4777SOL    HW215231   2.430   5.072   0.952
 4778SOL     OW15232   6.357   2.395   3.363
 4778SOL    HW115233   6.323   2.408   3.456
 4778SOL    HW215234   6.406   2.309   3.357
 4779SOL     OW15235   6.597   6.496   2.672
 4779SOL    HW115236   6.544   6.568   2.627
 4779SOL    HW215237   6.668   6.538   2.729
 4780SOL     OW15238   5.332   1.177   7.022
 4780SOL    HW115239   5.327   1.276   0.014
 4780SOL    HW215240   5.428   1.151   7.008
 4781SOL     OW15241   2.924   5.460   2.059
 4781SOL    HW115242   3.024   5.453   2.058
 4781SOL    HW215243   2.889   5.456   1.965
 4782SOL     OW15244   4.559   5.609   0.310
 4782SOL    HW115245   4.563   5.595   0.211
 4782SOL    HW215246   4.626   5.678   0.336
 4783SOL     OW15247   4.398   4.022   7.005
 4783SOL    HW115248   4.497   4.004   7.008
 4783SOL    HW215249   4.375   4.088   0.054
 4784SOL     OW15250   6.046   4.196   6.777
 4784SOL    HW115251   6.047   4.217   6.679
 4784SOL    HW215252   6.081   4.275   6.828
 4785SOL     OW15253   0.778   6.583   2.040
 4785SOL    HW115254   0.831   6.641   1.978
 4785SOL    HW215255   0.838   6.512   2.078
 4786SOL     OW15256   2.381   1.675   7.001
 4786SOL    HW115257   2.312   1.735   6.960
 4786SOL    HW215258   2.449   1.731   0.028
 4787SOL     OW15259   4.225   1.364   2.363
 4787SOL    HW115260   4.198   1.359   2.459
 4787SOL    HW215261   4.150   1.332   2.306
 4788SOL     OW15262   0.395   5.859   5.395
 4788SOL    HW115263   0.408   5.935   5.459
 4788SOL    HW215264   0.482   5.839   5.349
 4789SOL     OW15265   5.320   1.309   0.766
 4789SOL    HW115266   5.384   1.380   0.737
 4789SOL    HW215267   5.361   1.255   0.839
 4790SOL     OW15268   5.923   2.173   5.261
 4790SOL    HW115269   5.977   2.244   5.306
 4790SOL    HW215270   5.882   2.113   5.330
 4791SOL     OW15271   6.788   2.971   1.912
 4791SOL    HW115272   6.697   2.932   1.897
 4791SOL    HW215273   6.802   3.048   1.850
 4792SOL     OW15274   1.767   3.994   3.116
 4792SOL    HW115275   1.783   4.089   3.143
 4792SOL    HW215276   1.686   3.989   3.058
 4793SOL     OW15277   1.869   3.001   5.571
 4793SOL    HW115278   1.954   3.043   5.603
 4793SOL    HW215279   1.875   2.984   5.473
 4794SOL     OW15280   4.558   0.528   3.347
 4794SOL    HW115281   4.529   0.494   3.258
 4794SOL    HW215282   4.658   0.538   3.347
 4795SOL     OW15283   5.656   2.549   3.823
 4795SOL    HW115284   5.561   2.580   3.829
 4795SOL    HW215285   5.694   2.542   3.915
 4796SOL     OW15286   4.707   1.629   5.011
 4796SOL    HW115287   4.630   1.654   5.070
 4796SOL    HW215288   4.728   1.705   4.950
 4797SOL     OW15289   1.264   6.148   5.359
 4797SOL    HW115290   1.226   6.196   5.280
 4797SOL    HW215291   1.299   6.215   5.425
 4798SOL     OW15292   0.292   3.728   4.788
 4798SOL    HW115293   0.242   3.762   4.709
 4798SOL    HW215294   0.250   3.761   4.873
 4799SOL     OW15295   5.162   1.871   6.885
 4799SOL    HW115296   5.205   1.947   6.835
 4799SOL    HW215297   5.064   1.870   6.864
 4800SOL     OW15298   3.616   2.989   6.336
 4800SOL    HW115299   3.676   2.943   6.401
 4800SOL    HW215300   3.521   2.981   6.367
 4801SOL     OW15301   2.738   2.496   6.521
 4801SOL    HW115302   2.707   2.415   6.570
 4801SOL    HW215303   2.789   2.555   6.584
 4802SOL     OW15304   1.162   6.719   1.969
 4802SOL    HW115305   1.111   6.634   1.957
 4802SOL    HW215306   1.117   6.793   1.919
 4803SOL     OW15307   0.253   5.475   0.917
 4803SOL    HW115308   0.311   5.555   0.905
 4803SOL    HW215309   0.280   5.404   0.852
 4804SOL     OW15310   5.413   5.831   0.583
 4804SOL    HW115311   5.325   5.788   0.561
 4804SOL    HW215312   5.420   5.918   0.535
 4805SOL     OW15313   5.592   1.871   2.377
 4805SOL    HW115314   5.630   1.786   2.413
 4805SOL    HW215315   5.626   1.948   2.431
 4806SOL     OW15316   1.349   4.675   2.913
 4806SOL    HW115317   1.254   4.685   2.942
 4806SOL    HW215318   1.407   4.662   2.994
 4807SOL     OW15319   0.555   5.188   0.407
 4807SOL    HW115320   0.551   5.136   0.322
 4807SOL    HW215321   0.463   5.222   0.430
 4808SOL     OW15322   5.653   4.264   0.112
 4808SOL    HW115323   5.613   4.195   0.173
 4808SOL    HW215324   5.605   4.260   0.024
 4809SOL     OW15325   3.967   4.374   0.016
 4809SOL    HW115326   3.872   4.383   0.046
 4809SOL    HW215327   3.993   4.278   0.014
 4810SOL     OW15328   1.540   4.844   2.475
 4810SOL    HW115329   1.612   4.802   2.530
 4810SOL    HW215330   1.509   4.779   2.405
 4811SOL     OW15331   2.612   3.919   1.711
 4811SOL    HW115332   2.557   3.848   1.755
 4811SOL    HW215333   2.704   3.917   1.748
 4812SOL     OW15334   6.756   5.456   3.182
 4812SOL    HW115335   6.686   5.412   3.125
 4812SOL    HW215336   6.841   5.465   3.129
 4813SOL     OW15337   5.258   2.634   1.097
 4813SOL    HW115338   5.234   2.714   1.152
 4813SOL    HW215339   5.357   2.623   1.096
 4814SOL     OW15340   6.767   3.682   1.055
 4814SOL    HW115341   6.760   3.665   0.957
 4814SOL    HW215342   6.739   3.775   1.075
 4815SOL     OW15343   5.414   4.420   2.789
 4815SOL    HW115344   5.409   4.350   2.717
 4815SOL    HW215345   5.408   4.377   2.879
 4816SOL     OW15346   2.300   4.620   0.842
 4816SOL    HW115347   2.271   4.689   0.775
 4816SOL    HW215348   2.347   4.546   0.794
 4817SOL     OW15349   0.643   2.003   6.278
 4817SOL    HW115350   0.701   2.073   6.321
 4817SOL    HW215351   0.701   1.930   6.241
 4818SOL     OW15352   1.252   6.382   3.727
 4818SOL    HW115353   1.163   6.343   3.702
 4818SOL    HW215354   1.245   6.425   3.817
 4819SOL     OW15355   1.441   1.804   0.410
 4819SOL    HW115356   1.347   1.837   0.417
 4819SOL    HW215357   1.469   1.806   0.314
 4820SOL     OW15358   6.071   2.211   2.231
 4820SOL    HW115359   6.054   2.201   2.329
 4820SOL    HW215360   5.995   2.170   2.180
 4821SOL     OW15361   1.120   6.741   2.406
 4821SOL    HW115362   1.170   6.721   2.321
 4821SOL    HW215363   1.129   6.838   2.427
 4822SOL     OW15364   1.967   2.446   4.947
 4822SOL    HW115365   2.057   2.439   4.991
 4822SOL    HW215366   1.895   2.437   5.016
 4823SOL     OW15367   1.771   0.902   4.750
 4823SOL    HW115368   1.716   0.905   4.667
 4823SOL    HW215369   1.859   0.948   4.734
 4824SOL     OW15370   5.058   2.228   4.681
 4824SOL    HW115371   5.126   2.192   4.745
 4824SOL    HW215372   4.977   2.168   4.682
 4825SOL     OW15373   1.895   2.981   4.693
 4825SOL    HW115374   1.939   2.987   4.782
 4825SOL    HW215375   1.839   3.063   4.678
 4826SOL     OW15376   5.642   1.545   0.168
 4826SOL    HW115377   5.630   1.629   0.114
 4826SOL    HW215378   5.639   1.466   0.107
 4827SOL     OW15379   6.249   1.745   0.867
 4827SOL    HW115380   6.158   1.708   0.847
 4827SOL    HW215381   6.316   1.671   0.867
 4828SOL     OW15382   4.996   2.572   1.010
 4828SOL    HW115383   4.983   2.671   1.011
 4828SOL    HW215384   5.087   2.550   1.047
 4829SOL     OW15385   3.694   6.133   6.054
 4829SOL    HW115386   3.790   6.156   6.073
 4829SOL    HW215387   3.655   6.201   5.992
 4830SOL     OW15388   4.162   6.575   4.499
 4830SOL    HW115389   4.179   6.583   4.401
 4830SOL    HW215390   4.129   6.484   4.521
 4831SOL     OW15391   0.979   4.262   6.296
 4831SOL    HW115392   0.891   4.240   6.337
 4831SOL    HW215393   0.965   4.323   6.217
 4832SOL     OW15394   3.769   2.917   3.886
 4832SOL    HW115395   3.790   2.907   3.983
 4832SOL    HW215396   3.833   2.981   3.844
 4833SOL     OW15397   4.638   2.296   2.688
 4833SOL    HW115398   4.638   2.257   2.781
 4833SOL    HW215399   4.580   2.378   2.687
 4834SOL     OW15400   3.461   6.350   0.550
 4834SOL    HW115401   3.471   6.447   0.576
 4834SOL    HW215402   3.432   6.298   0.630
 4835SOL     OW15403   5.914   1.665   0.240
 4835SOL    HW115404   5.921   1.728   0.163
 4835SOL    HW215405   5.858   1.586   0.213
 4836SOL     OW15406   5.176   2.635   5.036
 4836SOL    HW115407   5.209   2.557   5.088
 4836SOL    HW215408   5.225   2.640   4.948
 4837SOL     OW15409   6.943   3.941   3.136
 4837SOL    HW115410   6.903   4.030   3.157
 4837SOL    HW215411   6.932   3.921   3.039
 4838SOL     OW15412   1.277   5.619   0.361
 4838SOL    HW115413   1.312   5.589   0.272
 4838SOL    HW215414   1.219   5.547   0.400
 4839SOL     OW15415   1.827   3.368   0.137
 4839SOL    HW115416   1.760   3.294   0.144
 4839SOL    HW215417   1.796   3.446   0.192
 4840SOL     OW15418   6.352   4.306   6.839
 4840SOL    HW115419   6.312   4.394   6.865
 4840SOL    HW215420   6.370   4.253   6.921
 4841SOL     OW15421   2.325   5.224   2.154
 4841SOL    HW115422   2.287   5.239   2.245
 4841SOL    HW215423   2.411   5.173   2.162
 4842SOL     OW15424   3.630   5.233   2.070
 4842SOL    HW115425   3.728   5.250   2.068
 4842SOL    HW215426   3.608   5.168   2.143
 4843SOL     OW15427   6.879   3.518   1.659
 4843SOL    HW115428   6.966   3.468   1.655
 4843SOL    HW215429   6.893   3.611   1.624
 4844SOL     OW15430   0.781   3.604   6.704
 4844SOL    HW115431   0.732   3.691   6.695
 4844SOL    HW215432   0.855   3.600   6.638
 4845SOL     OW15433   4.894   5.183   6.878
 4845SOL    HW115434   4.932   5.105   6.827
 4845SOL    HW215435   4.890   5.159   6.975
 4846SOL     OW15436   6.567   2.345   3.638
 4846SOL    HW115437   6.472   2.355   3.608
 4846SOL    HW215438   6.613   2.434   3.633
 4847SOL     OW15439   2.240   0.271   6.540
 4847SOL    HW115440   2.142   0.290   6.543
 4847SOL    HW215441   2.263   0.225   6.454
 4848SOL     OW15442   1.527   1.419   4.443
 4848SOL    HW115443   1.611   1.387   4.485
 4848SOL    HW215444   1.500   1.506   4.485
 4849SOL     OW15445   0.861   6.114   6.566
 4849SOL    HW115446   0.839   6.209   6.541
 4849SOL    HW215447   0.817   6.091   6.652
 4850SOL     OW15448   4.058   1.153   1.815
 4850SOL    HW115449   3.966   1.146   1.853
 4850SOL    HW215450   4.081   1.069   1.768
 4851SOL     OW15451   3.526   6.366   5.966
 4851SOL    HW115452   3.591   6.415   5.907
 4851SOL    HW215453   3.474   6.432   6.019
 4852SOL     OW15454   2.194   5.677   4.902
 4852SOL    HW115455   2.230   5.593   4.942
 4852SOL    HW215456   2.167   5.661   4.807
 4853SOL     OW15457   3.353   0.986   3.118
 4853SOL    HW115458   3.395   0.922   3.182
 4853SOL    HW215459   3.262   1.011   3.150
 4854SOL     OW15460   4.507   6.176   1.477
 4854SOL    HW115461   4.442   6.252   1.483
 4854SOL    HW215462   4.582   6.191   1.541
 4855SOL     OW15463   6.017   2.505   4.270
 4855SOL    HW115464   5.998   2.487   4.367
 4855SOL    HW215465   6.081   2.437   4.235
 4856SOL     OW15466   1.656   3.225   3.391
 4856SOL    HW115467   1.734   3.283   3.418
 4856SOL    HW215468   1.680   3.129   3.404
 4857SOL     OW15469   3.414   2.086   3.984
 4857SOL    HW115470   3.454   2.165   3.939
 4857SOL    HW215471   3.323   2.110   4.019
 4858SOL     OW15472   0.234   0.514   4.925
 4858SOL    HW115473   0.290   0.508   4.843
 4858SOL    HW215474   0.243   0.430   4.978
 4859SOL     OW15475   0.886   5.984   3.175
 4859SOL    HW115476   0.978   5.953   3.153
 4859SOL    HW215477   0.874   5.988   3.274
 4860SOL     OW15478   4.511   4.554   0.882
 4860SOL    HW115479   4.416   4.549   0.914
 4860SOL    HW215480   4.514   4.589   0.789
 4861SOL     OW15481   5.589   5.383   0.032
 4861SOL    HW115482   5.555   5.290   0.021
 4861SOL    HW215483   5.595   5.428   6.965
 4862SOL     OW15484   2.132   4.448   5.081
 4862SOL    HW115485   2.187   4.382   5.030
 4862SOL    HW215486   2.070   4.400   5.142
 4863SOL     OW15487   5.025   4.030   1.479
 4863SOL    HW115488   4.943   4.023   1.536
 4863SOL    HW215489   5.002   4.008   1.385
 4864SOL     OW15490   3.878   1.773   2.166
 4864SOL    HW115491   3.866   1.856   2.111
 4864SOL    HW215492   3.944   1.790   2.238
 4865SOL     OW15493   2.539   0.045   4.332
 4865SOL    HW115494   2.624   0.071   4.286
 4865SOL    HW215495   2.536   6.968   4.342
 4866SOL     OW15496   6.404   4.201   0.927
 4866SOL    HW115497   6.403   4.156   0.839
 4866SOL    HW215498   6.489   4.254   0.937
 4867SOL     OW15499   4.845   5.376   2.340
 4867SOL    HW115500   4.752   5.375   2.304
 4867SOL    HW215501   4.854   5.451   2.406
 4868SOL     OW15502   6.982   5.041   2.408
 4868SOL    HW115503   0.021   4.964   2.427
 4868SOL    HW215504   6.922   5.018   2.332
 4869SOL     OW15505   0.269   1.814   1.694
 4869SOL    HW115506   0.272   1.832   1.792
 4869SOL    HW215507   0.340   1.748   1.671
 4870SOL     OW15508   0.058   6.080   1.405
 4870SOL    HW115509   0.116   6.126   1.472
 4870SOL    HW215510   0.042   6.141   1.327
 4871SOL     OW15511   0.641   1.636   4.680
 4871SOL    HW115512   0.736   1.648   4.649
 4871SOL    HW215513   0.585   1.712   4.649
 4872SOL     OW15514   6.993   5.615   4.496
 4872SOL    HW115515   7.016   5.518   4.504
 4872SOL    HW215516   0.001   5.664   4.578
 4873SOL     OW15517   6.808   4.851   3.506
 4873SOL    HW115518   6.709   4.863   3.500
 4873SOL    HW215519   6.853   4.932   3.469
 4874SOL     OW15520   5.946   3.344   3.405
 4874SOL    HW115521   5.905   3.423   3.359
 4874SOL    HW215522   6.043   3.363   3.422
 4875SOL     OW15523   5.694   3.534   1.887
 4875SOL    HW115524   5.595   3.529   1.870
 4875SOL    HW215525   5.726   3.626   1.868
 4876SOL     OW15526   5.588   1.230   4.051
 4876SOL    HW115527   5.618   1.169   4.124
 4876SOL    HW215528   5.518   1.292   4.086
 4877SOL     OW15529   0.211   1.830   0.459
 4877SOL    HW115530   0.135   1.860   0.517
 4877SOL    HW215531   0.255   1.750   0.501
 4878SOL     OW15532   6.015   0.635   3.326
 4878SOL    HW115533   6.039   0.556   3.384
 4878SOL    HW215534   6.045   0.719   3.371
 4879SOL     OW15535   4.283   5.885   3.480
 4879SOL    HW115536   4.305   5.832   3.398
 4879SOL    HW215537   4.351   5.957   3.492
 4880SOL     OW15538   6.213   2.966   6.952
 4880SOL    HW115539   6.260   2.890   6.905
 4880SOL    HW215540   6.123   2.935   6.982
 4881SOL     OW15541   1.970   0.078   6.421
 4881SOL    HW115542   1.949   0.165   6.465
 4881SOL    HW215543   1.902   0.010   6.448
 4882SOL     OW15544   5.152   1.262   4.248
 4882SOL    HW115545   5.174   1.190   4.313
 4882SOL    HW215546   5.234   1.284   4.194
 4883SOL     OW15547   4.776   5.136   2.540
 4883SOL    HW115548   4.831   5.106   2.617
 4883SOL    HW215549   4.826   5.206   2.488
 4884SOL     OW15550   3.702   0.437   0.912
 4884SOL    HW115551   3.716   0.493   0.830
 4884SOL    HW215552   3.719   0.492   0.994
 4885SOL     OW15553   2.043   6.041   2.491
 4885SOL    HW115554   2.114   6.048   2.562
 4885SOL    HW215555   2.080   5.991   2.413
 4886SOL     OW15556   0.095   6.415   0.679
 4886SOL    HW115557   0.119   6.471   0.759
 4886SOL    HW215558   0.175   6.362   0.651
 4887SOL     OW15559   0.491   0.246   3.210
 4887SOL    HW115560   0.416   0.259   3.276
 4887SOL    HW215561   0.521   0.151   3.212
 4888SOL     OW15562   2.068   6.509   4.787
 4888SOL    HW115563   2.039   6.489   4.880
 4888SOL    HW215564   2.042   6.602   4.762
 4889SOL     OW15565   6.031   0.913   6.990
 4889SOL    HW115566   5.939   0.896   6.956
 4889SOL    HW215567   6.054   1.010   6.978
 4890SOL     OW15568   0.814   1.548   6.024
 4890SOL    HW115569   0.768   1.634   6.046
 4890SOL    HW215570   0.746   1.477   6.007
 4891SOL     OW15571   1.824   5.738   0.500
 4891SOL    HW115572   1.744   5.757   0.444
 4891SOL    HW215573   1.900   5.798   0.473
 4892SOL     OW15574   2.917   5.726   1.519
 4892SOL    HW115575   3.005   5.681   1.537
 4892SOL    HW215576   2.928   5.790   1.443
 4893SOL     OW15577   0.219   4.060   1.511
 4893SOL    HW115578   0.194   3.981   1.454
 4893SOL    HW215579   0.309   4.046   1.551
 4894SOL     OW15580   2.490   2.151   2.430
 4894SOL    HW115581   2.573   2.099   2.450
 4894SOL    HW215582   2.489   2.234   2.487
 4895SOL     OW15583   0.971   5.513   2.671
 4895SOL    HW115584   0.980   5.612   2.660
 4895SOL    HW215585   0.943   5.493   2.765
 4896SOL     OW15586   2.312   5.070   1.855
 4896SOL    HW115587   2.387   5.051   1.918
 4896SOL    HW215588   2.286   5.166   1.862
 4897SOL     OW15589   2.327   4.513   5.827
 4897SOL    HW115590   2.293   4.456   5.902
 4897SOL    HW215591   2.300   4.473   5.739
 4898SOL     OW15592   3.892   1.686   4.231
 4898SOL    HW115593   3.855   1.772   4.267
 4898SOL    HW215594   3.818   1.620   4.221
 4899SOL     OW15595   5.897   5.294   3.384
 4899SOL    HW115596   5.940   5.206   3.407
 4899SOL    HW215597   5.918   5.361   3.454
 4900SOL     OW15598   2.299   5.446   4.957
 4900SOL    HW115599   2.357   5.415   5.032
 4900SOL    HW215600   2.351   5.442   4.871
 4901SOL     OW15601   3.128   6.827   5.641
 4901SOL    HW115602   3.105   6.749   5.582
 4901SOL    HW215603   3.189   6.889   5.592
 4902SOL     OW15604   2.242   2.558   4.276
 4902SOL    HW115605   2.315   2.501   4.313
 4902SOL    HW215606   2.168   2.565   4.343
 4903SOL     OW15607   3.065   6.125   0.060
 4903SOL    HW115608   2.988   6.098   0.118
 4903SOL    HW215609   3.043   6.209   0.012
 4904SOL     OW15610   1.222   0.376   4.185
 4904SOL    HW115611   1.236   0.403   4.280
 4904SOL    HW215612   1.307   0.392   4.133
 4905SOL     OW15613   4.388   1.454   2.074
 4905SOL    HW115614   4.328   1.476   2.150
 4905SOL    HW215615   4.348   1.380   2.019
 4906SOL     OW15616   4.192   1.804   6.507
 4906SOL    HW115617   4.111   1.845   6.466
 4906SOL    HW215618   4.169   1.765   6.596
 4907SOL     OW15619   4.532   5.798   0.965
 4907SOL    HW115620   4.595   5.873   0.943
 4907SOL    HW215621   4.446   5.835   1.000
 4908SOL     OW15622   4.757   4.813   6.181
 4908SOL    HW115623   4.779   4.790   6.276
 4908SOL    HW215624   4.748   4.728   6.128
 4909SOL     OW15625   6.835   0.320   4.711
 4909SOL    HW115626   6.753   0.376   4.727
 4909SOL    HW215627   6.811   0.223   4.716
 4910SOL     OW15628   5.164   6.186   4.248
 4910SOL    HW115629   5.192   6.139   4.165
 4910SOL    HW215630   5.089   6.134   4.291
 4911SOL     OW15631   0.250   3.271   5.046
 4911SOL    HW115632   0.214   3.178   5.037
 4911SOL    HW215633   0.335   3.270   5.098
 4912SOL     OW15634   5.541   2.658   1.062
 4912SOL    HW115635   5.575   2.565   1.051
 4912SOL    HW215636   5.607   2.723   1.024
 4913SOL     OW15637   3.176   3.639   3.916
 4913SOL    HW115638   3.179   3.564   3.983
 4913SOL    HW215639   3.119   3.612   3.839
 4914SOL     OW15640   3.428   6.897   4.934
 4914SOL    HW115641   3.495   6.834   4.896
 4914SOL    HW215642   3.340   6.885   4.887
 4915SOL     OW15643   4.245   0.810   4.276
 4915SOL    HW115644   4.183   0.829   4.200
 4915SOL    HW215645   4.193   0.776   4.354
 4916SOL     OW15646   2.182   1.336   4.100
 4916SOL    HW115647   2.228   1.272   4.161
 4916SOL    HW215648   2.158   1.289   4.015
 4917SOL     OW15649   1.983   4.933   0.526
 4917SOL    HW115650   1.961   5.030   0.520
 4917SOL    HW215651   1.928   4.891   0.598
 4918SOL     OW15652   3.592   6.580   2.208
 4918SOL    HW115653   3.551   6.517   2.142
 4918SOL    HW215654   3.590   6.673   2.170
 4919SOL     OW15655   2.248   2.230   6.699
 4919SOL    HW115656   2.195   2.199   6.778
 4919SOL    HW215657   2.291   2.151   6.654
 4920SOL     OW15658   4.821   0.568   5.550
 4920SOL    HW115659   4.840   0.519   5.465
 4920SOL    HW215660   4.761   0.646   5.530
 4921SOL     OW15661   1.918   4.241   0.544
 4921SOL    HW115662   1.848   4.294   0.496
 4921SOL    HW215663   1.973   4.189   0.478
 4922SOL     OW15664   1.801   3.217   4.995
 4922SOL    HW115665   1.842   3.133   4.960
 4922SOL    HW215666   1.705   3.201   5.017
 4923SOL     OW15667   3.686   1.368   0.513
 4923SOL    HW115668   3.724   1.422   0.587
 4923SOL    HW215669   3.611   1.418   0.469
 4924SOL     OW15670   2.157   2.214   5.812
 4924SOL    HW115671   2.154   2.196   5.911
 4924SOL    HW215672   2.207   2.299   5.795
 4925SOL     OW15673   5.655   6.942   2.191
 4925SOL    HW115674   5.753   6.960   2.180
 4925SOL    HW215675   5.605   0.006   2.181
 4926SOL     OW15676   5.638   2.343   0.058
 4926SOL    HW115677   5.626   2.254   0.014
 4926SOL    HW215678   5.720   2.341   0.116
 4927SOL     OW15679   3.841   3.614   4.136
 4927SOL    HW115680   3.923   3.571   4.172
 4927SOL    HW215681   3.866   3.680   4.065
 4928SOL     OW15682   6.946   0.300   6.545
 4928SOL    HW115683   6.852   0.332   6.551
 4928SOL    HW215684   6.955   0.235   6.470
 4929SOL     OW15685   1.443   4.465   5.272
 4929SOL    HW115686   1.369   4.533   5.280
 4929SOL    HW215687   1.508   4.479   5.346
 4930SOL     OW15688   4.858   1.016   2.191
 4930SOL    HW115689   4.914   1.097   2.203
 4930SOL    HW215690   4.774   1.040   2.142
 4931SOL     OW15691   6.174   0.172   1.386
 4931SOL    HW115692   6.264   0.194   1.424
 4931SOL    HW215693   6.105   0.230   1.429
 4932SOL     OW15694   2.203   3.018   1.827
 4932SOL    HW115695   2.289   3.038   1.781
 4932SOL    HW215696   2.150   3.103   1.838
 4933SOL     OW15697   2.230   0.201   3.574
 4933SOL    HW115698   2.189   0.140   3.507
 4933SOL    HW215699   2.321   0.168   3.598
 4934SOL     OW15700   1.783   4.718   3.157
 4934SOL    HW115701   1.725   4.797   3.177
 4934SOL    HW215702   1.855   4.746   3.093
 4935SOL     OW15703   1.439   1.497   6.475
 4935SOL    HW115704   1.430   1.536   6.567
 4935SOL    HW215705   1.455   1.571   6.409
 4936SOL     OW15706   1.897   4.873   1.115
 4936SOL    HW115707   1.861   4.957   1.154
 4936SOL    HW215708   1.986   4.891   1.071
 4937SOL     OW15709   6.763   3.007   6.016
 4937SOL    HW115710   6.723   3.003   6.108
 4937SOL    HW215711   6.694   2.979   5.949
 4938SOL     OW15712   2.288   5.724   6.602
 4938SOL    HW115713   2.300   5.718   6.701
 4938SOL    HW215714   2.344   5.798   6.566
 4939SOL     OW15715   0.504   1.739   3.984
 4939SOL    HW115716   0.531   1.733   4.080
 4939SOL    HW215717   0.514   1.650   3.941
 4940SOL     OW15718   0.495   1.626   5.517
 4940SOL    HW115719   0.571   1.580   5.562
 4940SOL    HW215720   0.441   1.559   5.465
 4941SOL     OW15721   4.486   2.745   5.191
 4941SOL    HW115722   4.566   2.771   5.246
 4941SOL    HW215723   4.403   2.772   5.239
 4942SOL     OW15724   5.135   2.971   5.906
 4942SOL    HW115725   5.151   3.023   5.822
 4942SOL    HW215726   5.050   3.002   5.948
 4943SOL     OW15727   4.994   4.171   6.007
 4943SOL    HW115728   4.955   4.200   6.095
 4943SOL    HW215729   5.065   4.237   5.979
 4944SOL     OW15730   2.569   4.212   1.720
 4944SOL    HW115731   2.660   4.245   1.695
 4944SOL    HW215732   2.570   4.112   1.722
 4945SOL     OW15733   1.161   6.571   4.587
 4945SOL    HW115734   1.089   6.548   4.522
 4945SOL    HW215735   1.248   6.533   4.556
 4946SOL     OW15736   0.929   5.173   6.694
 4946SOL    HW115737   0.931   5.132   6.603
 4946SOL    HW215738   1.010   5.145   6.745
 4947SOL     OW15739   2.110   0.517   0.625
 4947SOL    HW115740   2.170   0.529   0.546
 4947SOL    HW215741   2.076   0.423   0.627
 4948SOL     OW15742   1.992   2.816   3.065
 4948SOL    HW115743   1.904   2.864   3.060
 4948SOL    HW215744   1.977   2.718   3.049
 4949SOL     OW15745   6.273   4.714   5.777
 4949SOL    HW115746   6.346   4.687   5.839
 4949SOL    HW215747   6.270   4.814   5.771
 4950SOL     OW15748   2.124   4.785   4.755
 4950SOL    HW115749   2.209   4.740   4.730
 4950SOL    HW215750   2.078   4.733   4.827
 4951SOL     OW15751   5.903   1.296   4.174
 4951SOL    HW115752   5.871   1.387   4.201
 4951SOL    HW215753   5.895   1.287   4.075
 4952SOL     OW15754   6.944   0.003   6.493
 4952SOL    HW115755   6.886   0.027   6.571
 4952SOL    HW215756   6.909   0.048   6.411
 4953SOL     OW15757   1.836   7.017   3.430
 4953SOL    HW115758   1.770   0.056   3.476
 4953SOL    HW215759   1.820   7.020   3.332
 4954SOL     OW15760   2.748   3.439   0.214
 4954SOL    HW115761   2.793   3.463   0.128
 4954SOL    HW215762   2.750   3.517   0.275
 4955SOL     OW15763   3.387   6.407   0.090
 4955SOL    HW115764   3.342   6.395   0.179
 4955SOL    HW215765   3.471   6.458   0.102
 4956SOL     OW15766   2.463   0.093   5.471
 4956SOL    HW115767   2.488   0.189   5.462
 4956SOL    HW215768   2.367   0.081   5.446
 4957SOL     OW15769   5.661   2.533   1.899
 4957SOL    HW115770   5.755   2.513   1.926
 4957SOL    HW215771   5.599   2.506   1.973
 4958SOL     OW15772   0.594   5.367   5.305
 4958SOL    HW115773   0.688   5.395   5.288
 4958SOL    HW215774   0.573   5.288   5.247
 4959SOL     OW15775   6.300   2.277   1.050
 4959SOL    HW115776   6.393   2.312   1.041
 4959SOL    HW215777   6.297   2.181   1.019
 4960SOL     OW15778   3.667   4.886   3.780
 4960SOL    HW115779   3.751   4.911   3.732
 4960SOL    HW215780   3.602   4.847   3.715
 4961SOL     OW15781   4.080   1.038   5.429
 4961SOL    HW115782   4.148   1.004   5.365
 4961SOL    HW215783   4.065   1.136   5.412
 4962SOL     OW15784   5.548   2.884   0.098
 4962SOL    HW115785   5.552   2.982   0.114
 4962SOL    HW215786   5.555   2.835   0.186
 4963SOL     OW15787   0.376   6.508   0.561
 4963SOL    HW115788   0.379   6.544   0.468
 4963SOL    HW215789   0.383   6.584   0.626
 4964SOL     OW15790   2.879   6.876   4.447
 4964SOL    HW115791   2.961   6.824   4.472
 4964SOL    HW215792   2.841   6.840   4.362
 4965SOL     OW15793   0.525   0.621   2.050
 4965SOL    HW115794   0.425   0.620   2.050
 4965SOL    HW215795   0.557   0.701   2.101
 4966SOL     OW15796   2.687   6.773   5.248
 4966SOL    HW115797   2.663   6.823   5.165
 4966SOL    HW215798   2.605   6.763   5.305
 4967SOL     OW15799   3.652   5.079   5.084
 4967SOL    HW115800   3.688   5.069   4.991
 4967SOL    HW215801   3.609   5.169   5.094
 4968SOL     OW15802   0.382   1.371   3.326
 4968SOL    HW115803   0.367   1.320   3.242
 4968SOL    HW215804   0.381   1.469   3.306
 4969SOL     OW15805   2.001   5.413   2.996
 4969SOL    HW115806   2.045   5.373   3.076
 4969SOL    HW215807   2.067   5.467   2.944
 4970SOL     OW15808   2.456   2.287   2.065
 4970SOL    HW115809   2.412   2.200   2.087
 4970SOL    HW215810   2.528   2.306   2.131
 4971SOL     OW15811   5.432   5.629   3.216
 4971SOL    HW115812   5.415   5.726   3.199
 4971SOL    HW215813   5.509   5.618   3.278
 4972SOL     OW15814   0.846   3.778   1.155
 4972SOL    HW115815   0.908   3.856   1.153
 4972SOL    HW215816   0.787   3.784   1.236
 4973SOL     OW15817   1.258   0.085   1.960
 4973SOL    HW115818   1.229   0.010   1.900
 4973SOL    HW215819   1.358   0.089   1.963
 4974SOL     OW15820   6.754   4.437   1.120
 4974SOL    HW115821   6.679   4.476   1.173
 4974SOL    HW215822   6.813   4.384   1.181
 4975SOL     OW15823   6.060   4.167   5.869
 4975SOL    HW115824   6.152   4.205   5.872
 4975SOL    HW215825   6.027   4.151   5.962
 4976SOL     OW15826   2.521   1.748   4.054
 4976SOL    HW115827   2.470   1.682   4.109
 4976SOL    HW215828   2.618   1.746   4.081
 4977SOL     OW15829   4.185   4.041   6.697
 4977SOL    HW115830   4.233   3.956   6.679
 4977SOL    HW215831   4.228   4.116   6.647
 4978SOL     OW15832   6.382   4.578   5.211
 4978SOL    HW115833   6.370   4.480   5.192
 4978SOL    HW215834   6.357   4.596   5.306
 4979SOL     OW15835   6.680   6.811   6.090
 4979SOL    HW115836   6.659   6.905   6.119
 4979SOL    HW215837   6.609   6.749   6.124
 4980SOL     OW15838   4.959   6.191   3.078
 4980SOL    HW115839   4.926   6.137   3.000
 4980SOL    HW215840   5.044   6.237   3.053
 4981SOL     OW15841   4.229   5.181   0.887
 4981SOL    HW115842   4.263   5.142   0.802
 4981SOL    HW215843   4.178   5.112   0.938
 4982SOL     OW15844   3.032   0.761   5.197
 4982SOL    HW115845   3.108   0.823   5.218
 4982SOL    HW215846   3.035   0.683   5.261
 4983SOL     OW15847   5.813   4.049   5.796
 4983SOL    HW115848   5.877   4.093   5.860
 4983SOL    HW215849   5.857   4.040   5.707
 4984SOL     OW15850   5.158   4.495   2.841
 4984SOL    HW115851   5.118   4.553   2.770
 4984SOL    HW215852   5.251   4.470   2.816
 4985SOL     OW15853   5.253   0.463   3.614
 4985SOL    HW115854   5.276   0.494   3.522
 4985SOL    HW215855   5.259   0.363   3.618
 4986SOL     OW15856   0.118   4.411   1.262
 4986SOL    HW115857   0.041   4.352   1.286
 4986SOL    HW215858   0.194   4.393   1.324
 4987SOL     OW15859   1.037   0.362   2.364
 4987SOL    HW115860   1.047   0.444   2.421
 4987SOL    HW215861   0.971   0.300   2.407
 4988SOL     OW15862   5.773   0.892   2.312
 4988SOL    HW115863   5.740   0.798   2.311
 4988SOL    HW215864   5.861   0.897   2.265
 4989SOL     OW15865   5.203   6.582   1.782
 4989SOL    HW115866   5.124   6.617   1.832
 4989SOL    HW215867   5.286   6.627   1.816
 4990SOL     OW15868   2.571   2.287   5.396
 4990SOL    HW115869   2.624   2.370   5.380
 4990SOL    HW215870   2.505   2.275   5.322
 4991SOL     OW15871   6.253   5.530   3.862
 4991SOL    HW115872   6.321   5.516   3.790
 4991SOL    HW215873   6.263   5.623   3.899
 4992SOL     OW15874   4.937   1.176   2.645
 4992SOL    HW115875   4.838   1.157   2.645
 4992SOL    HW215876   4.956   1.257   2.591
 4993SOL     OW15877   3.397   6.073   4.711
 4993SOL    HW115878   3.422   5.976   4.718
 4993SOL    HW215879   3.467   6.129   4.755
 4994SOL     OW15880   1.940   0.584   3.806
 4994SOL    HW115881   1.880   0.539   3.872
 4994SOL    HW215882   1.977   0.515   3.743
 4995SOL     OW15883   0.183   2.583   5.433
 4995SOL    HW115884   0.217   2.489   5.443
 4995SOL    HW215885   0.222   2.624   5.351
 4996SOL     OW15886   0.529   1.014   2.730
 4996SOL    HW115887   0.457   0.965   2.779
 4996SOL    HW215888   0.496   1.039   2.639
 4997SOL     OW15889   4.917   2.540   2.491
 4997SOL    HW115890   4.840   2.476   2.492
 4997SOL    HW215891   4.943   2.562   2.585
 4998SOL     OW15892   2.129   4.183   4.892
 4998SOL    HW115893   2.046   4.191   4.947
 4998SOL    HW215894   2.194   4.121   4.937
 4999SOL     OW15895   6.357   4.130   0.330
 4999SOL    HW115896   6.406   4.161   0.249
 4999SOL    HW215897   6.325   4.036   0.316
 5000SOL     OW15898   3.716   6.775   3.240
 5000SOL    HW115899   3.786   6.765   3.169
 5000SOL    HW215900   3.626   6.759   3.200
 5001SOL     OW15901   0.020   4.262   1.558
 5001SOL    HW115902   6.994   4.202   1.621
 5001SOL    HW215903   0.095   4.212   1.515
 5002SOL     OW15904   0.252   3.101   2.300
 5002SOL    HW115905   0.338   3.054   2.318
 5002SOL    HW215906   0.258   3.149   2.212
 5003SOL     OW15907   2.965   5.629   2.705
 5003SOL    HW115908   2.899   5.691   2.663
 5003SOL    HW215909   2.945   5.535   2.677
 5004SOL     OW15910   2.512   5.201   5.832
 5004SOL    HW115911   2.424   5.170   5.795
 5004SOL    HW215912   2.533   5.149   5.915
 5005SOL     OW15913   2.954   2.747   0.819
 5005SOL    HW115914   2.956   2.650   0.794
 5005SOL    HW215915   3.043   2.788   0.798
 5006SOL     OW15916   4.972   0.409   0.973
 5006SOL    HW115917   5.029   0.481   0.934
 5006SOL    HW215918   4.876   0.427   0.953
 5007SOL     OW15919   0.940   6.834   0.509
 5007SOL    HW115920   0.943   6.933   0.523
 5007SOL    HW215921   1.030   6.795   0.527
 5008SOL     OW15922   5.757   6.813   1.937
 5008SOL    HW115923   5.722   6.902   1.966
 5008SOL    HW215924   5.741   6.745   2.008
 5009SOL     OW15925   0.435   0.682   0.948
 5009SOL    HW115926   0.522   0.729   0.965
 5009SOL    HW215927   0.430   0.657   0.851
 5010SOL     OW15928   3.995   3.049   2.193
 5010SOL    HW115929   4.053   3.053   2.275
 5010SOL    HW215930   4.051   3.064   2.112
 5011SOL     OW15931   1.537   3.960   2.509
 5011SOL    HW115932   1.604   3.948   2.582
 5011SOL    HW215933   1.585   3.982   2.424
 5012SOL     OW15934   5.909   4.430   6.526
 5012SOL    HW115935   5.815   4.406   6.499
 5012SOL    HW215936   5.972   4.362   6.488
 5013SOL     OW15937   4.912   0.905   0.299
 5013SOL    HW115938   4.868   0.936   0.215
 5013SOL    HW215939   4.861   0.827   0.337
 5014SOL     OW15940   6.494   4.805   0.700
 5014SOL    HW115941   6.545   4.727   0.663
 5014SOL    HW215942   6.554   4.856   0.762
 5015SOL     OW15943   4.650   1.921   4.421
 5015SOL    HW115944   4.641   1.927   4.322
 5015SOL    HW215945   4.621   1.830   4.452
 5016SOL     OW15946   1.496   2.747   0.406
 5016SOL    HW115947   1.440   2.746   0.323
 5016SOL    HW215948   1.458   2.814   0.470
 5017SOL     OW15949   1.943   2.886   0.797
 5017SOL    HW115950   1.902   2.842   0.877
 5017SOL    HW215951   1.931   2.985   0.802
 5018SOL     OW15952   0.470   3.887   2.266
 5018SOL    HW115953   0.528   3.928   2.337
 5018SOL    HW215954   0.514   3.899   2.176
 5019SOL     OW15955   1.326   4.795   5.947
 5019SOL    HW115956   1.358   4.806   6.041
 5019SOL    HW215957   1.392   4.836   5.884
 5020SOL     OW15958   5.485   0.671   6.366
 5020SOL    HW115959   5.459   0.574   6.368
 5020SOL    HW215960   5.426   0.722   6.429
 5021SOL     OW15961   0.839   1.385   0.037
 5021SOL    HW115962   0.823   1.286   0.026
 5021SOL    HW215963   0.906   1.416   6.991
 5022SOL     OW15964   0.880   1.229   0.307
 5022SOL    HW115965   0.959   1.189   0.260
 5022SOL    HW215966   0.911   1.299   0.370
 5023SOL     OW15967   6.997   2.762   1.411
 5023SOL    HW115968   6.993   2.860   1.389
 5023SOL    HW215969   6.958   2.746   1.502
 5024SOL     OW15970   6.252   5.087   1.630
 5024SOL    HW115971   6.223   5.085   1.534
 5024SOL    HW215972   6.257   4.994   1.665
 5025SOL     OW15973   3.013   1.828   2.237
 5025SOL    HW115974   2.959   1.752   2.199
 5025SOL    HW215975   3.108   1.798   2.249
 5026SOL     OW15976   6.141   6.096   5.792
 5026SOL    HW115977   6.076   6.144   5.733
 5026SOL    HW215978   6.158   6.150   5.874
 5027SOL     OW15979   6.741   6.743   1.867
 5027SOL    HW115980   6.731   6.767   1.964
 5027SOL    HW215981   6.832   6.706   1.851
 5028SOL     OW15982   0.190   1.911   2.524
 5028SOL    HW115983   0.123   1.985   2.531
 5028SOL    HW215984   0.148   1.833   2.476
 5029SOL     OW15985   6.737   2.394   2.071
 5029SOL    HW115986   6.657   2.354   2.117
 5029SOL    HW215987   6.817   2.336   2.087
 5030SOL     OW15988   0.222   6.760   0.484
 5030SOL    HW115989   0.276   6.763   0.567
 5030SOL    HW215990   0.135   6.715   0.502
 5031SOL     OW15991   5.885   0.204   5.468
 5031SOL    HW115992   5.832   0.193   5.384
 5031SOL    HW215993   5.965   0.145   5.465
 5032SOL     OW15994   2.107   2.293   0.686
 5032SOL    HW115995   2.038   2.273   0.755
 5032SOL    HW215996   2.186   2.233   0.700
 5033SOL     OW15997   1.828   0.317   5.494
 5033SOL    HW115998   1.771   0.400   5.501
 5033SOL    HW215999   1.825   0.268   5.581
 5034SOL     OW16000   5.763   0.599   3.794
 5034SOL    HW116001   5.727   0.666   3.729
 5034SOL    HW216002   5.760   0.637   3.886
 5035SOL     OW16003   1.085   4.002   0.304
 5035SOL    HW116004   1.162   4.061   0.280
 5035SOL    HW216005   1.116   3.931   0.368
 5036SOL     OW16006   0.632   4.553   6.782
 5036SOL    HW116007   0.617   4.642   6.737
 5036SOL    HW216008   0.713   4.510   6.743
 5037SOL     OW16009   4.843   4.028   2.411
 5037SOL    HW116010   4.860   3.943   2.462
 5037SOL    HW216011   4.922   4.089   2.420
 5038SOL     OW16012   2.752   4.158   5.972
 5038SOL    HW116013   2.776   4.238   5.916
 5038SOL    HW216014   2.799   4.163   6.060
 5039SOL     OW16015   3.333   4.668   5.450
 5039SOL    HW116016   3.262   4.641   5.386
 5039SOL    HW216017   3.339   4.600   5.524
 5040SOL     OW16018   1.627   5.814   5.659
 5040SOL    HW116019   1.559   5.828   5.731
 5040SOL    HW216020   1.639   5.899   5.608
 5041SOL     OW16021   2.062   1.356   2.726
 5041SOL    HW116022   2.096   1.381   2.817
 5041SOL    HW216023   2.023   1.436   2.682
 5042SOL     OW16024   6.796   2.709   0.065
 5042SOL    HW116025   6.858   2.667   0.133
 5042SOL    HW216026   6.810   2.665   6.999
 5043SOL     OW16027   3.515   0.356   6.049
 5043SOL    HW116028   3.459   0.409   5.985
 5043SOL    HW216029   3.482   0.262   6.054
 5044SOL     OW16030   0.550   6.506   6.917
 5044SOL    HW116031   0.615   6.435   6.947
 5044SOL    HW216032   0.488   6.528   6.992
 5045SOL     OW16033   5.330   0.778   6.563
 5045SOL    HW116034   5.245   0.743   6.602
 5045SOL    HW216035   5.328   0.878   6.562
 5046SOL     OW16036   3.458   4.096   2.643
 5046SOL    HW116037   3.504   4.127   2.726
 5046SOL    HW216038   3.389   4.163   2.615
 5047SOL     OW16039   0.610   4.208   2.279
 5047SOL    HW116040   0.603   4.121   2.328
 5047SOL    HW216041   0.520   4.252   2.275
 5048SOL     OW16042   0.471   1.615   1.951
 5048SOL    HW116043   0.488   1.641   1.856
 5048SOL    HW216044   0.426   1.526   1.954
 5049SOL     OW16045   5.671   2.172   6.042
 5049SOL    HW116046   5.661   2.252   5.982
 5049SOL    HW216047   5.735   2.193   6.116
 5050SOL     OW16048   1.266   1.482   1.279
 5050SOL    HW116049   1.319   1.515   1.358
 5050SOL    HW216050   1.284   1.384   1.267
 5051SOL     OW16051   4.999   4.855   1.035
 5051SOL    HW116052   5.015   4.954   1.030
 5051SOL    HW216053   4.933   4.836   1.108
 5052SOL     OW16054   2.514   0.479   6.419
 5052SOL    HW116055   2.450   0.556   6.416
 5052SOL    HW216056   2.607   0.512   6.402
 5053SOL     OW16057   2.365   4.324   2.984
 5053SOL    HW116058   2.373   4.324   3.084
 5053SOL    HW216059   2.313   4.244   2.955
 5054SOL     OW16060   3.340   5.814   4.981
 5054SOL    HW116061   3.377   5.905   5.001
 5054SOL    HW216062   3.339   5.759   5.064
 5055SOL     OW16063   1.614   1.623   5.476
 5055SOL    HW116064   1.654   1.715   5.477
 5055SOL    HW216065   1.584   1.600   5.384
 5056SOL     OW16066   6.543   4.161   0.035
 5056SOL    HW116067   6.569   4.072   7.021
 5056SOL    HW216068   6.615   4.227   0.016
 5057SOL     OW16069   0.098   6.199   4.122
 5057SOL    HW116070   0.032   6.273   4.116
 5057SOL    HW216071   0.105   6.168   4.217
 5058SOL     OW16072   3.132   3.235   5.468
 5058SOL    HW116073   3.118   3.285   5.383
 5058SOL    HW216074   3.207   3.277   5.520
 5059SOL     OW16075   6.021   1.605   3.899
 5059SOL    HW116076   6.091   1.535   3.913
 5059SOL    HW216077   6.064   1.689   3.866
 5060SOL     OW16078   0.770   1.859   5.802
 5060SOL    HW116079   0.710   1.784   5.830
 5060SOL    HW216080   0.799   1.844   5.708
 5061SOL     OW16081   4.132   3.139   1.773
 5061SOL    HW116082   4.136   3.197   1.854
 5061SOL    HW216083   4.066   3.065   1.788
 5062SOL     OW16084   5.225   0.973   2.927
 5062SOL    HW116085   5.198   0.960   2.832
 5062SOL    HW216086   5.324   0.961   2.935
 5063SOL     OW16087   1.501   0.128   2.365
 5063SOL    HW116088   1.514   0.106   2.462
 5063SOL    HW216089   1.410   0.169   2.353
 5064SOL     OW16090   5.176   4.127   1.846
 5064SOL    HW116091   5.124   4.043   1.835
 5064SOL    HW216092   5.250   4.129   1.778
 5065SOL     OW16093   1.792   1.468   3.692
 5065SOL    HW116094   1.757   1.562   3.692
 5065SOL    HW216095   1.715   1.404   3.691
 5066SOL     OW16096   4.444   4.698   1.926
 5066SOL    HW116097   4.380   4.626   1.898
 5066SOL    HW216098   4.492   4.733   1.845
 5067SOL     OW16099   4.581   0.678   1.618
 5067SOL    HW116100   4.579   0.744   1.543
 5067SOL    HW216101   4.518   0.707   1.690
 5068SOL     OW16102   2.732   4.901   6.764
 5068SOL    HW116103   2.680   4.911   6.679
 5068SOL    HW216104   2.676   4.929   6.841
 5069SOL     OW16105   2.555   3.036   5.565
 5069SOL    HW116106   2.519   3.044   5.658
 5069SOL    HW216107   2.531   3.118   5.513
 5070SOL     OW16108   4.391   4.968   3.626
 5070SOL    HW116109   4.422   4.897   3.563
 5070SOL    HW216110   4.448   5.049   3.617
 5071SOL     OW16111   3.961   1.932   3.115
 5071SOL    HW116112   3.925   1.982   3.194
 5071SOL    HW216113   3.912   1.845   3.105
 5072SOL     OW16114   1.122   0.261   1.627
 5072SOL    HW116115   1.164   0.306   1.707
 5072SOL    HW216116   1.037   0.217   1.654
 5073SOL     OW16117   0.485   5.954   1.293
 5073SOL    HW116118   0.565   5.899   1.316
 5073SOL    HW216119   0.409   5.894   1.267
 5074SOL     OW16120   3.343   2.849   1.298
 5074SOL    HW116121   3.443   2.846   1.294
 5074SOL    HW216122   3.307   2.757   1.285
 5075SOL     OW16123   1.268   2.069   6.641
 5075SOL    HW116124   1.205   2.143   6.618
 5075SOL    HW216125   1.357   2.107   6.665
 5076SOL     OW16126   4.313   0.566   0.552
 5076SOL    HW116127   4.360   0.582   0.638
 5076SOL    HW216128   4.375   0.522   0.487
 5077SOL     OW16129   2.227   4.474   5.546
 5077SOL    HW116130   2.313   4.508   5.507
 5077SOL    HW216131   2.210   4.381   5.515
 5078SOL     OW16132   0.520   1.056   3.716
 5078SOL    HW116133   0.616   1.039   3.693
 5078SOL    HW216134   0.512   1.146   3.760
 5079SOL     OW16135   2.141   3.146   5.586
 5079SOL    HW116136   2.179   3.057   5.561
 5079SOL    HW216137   2.161   3.212   5.514
 5080SOL     OW16138   5.749   6.794   6.512
 5080SOL    HW116139   5.798   6.745   6.441
 5080SOL    HW216140   5.801   6.876   6.538
 5081SOL     OW16141   3.128   3.187   4.629
 5081SOL    HW116142   3.058   3.254   4.606
 5081SOL    HW216143   3.158   3.201   4.723
 5082SOL     OW16144   4.954   5.424   0.583
 5082SOL    HW116145   4.924   5.450   0.674
 5082SOL    HW216146   5.044   5.380   0.588
 5083SOL     OW16147   2.460   6.506   2.456
 5083SOL    HW116148   2.541   6.459   2.423
 5083SOL    HW216149   2.378   6.460   2.422
 5084SOL     OW16150   0.499   4.325   3.993
 5084SOL    HW116151   0.542   4.257   3.933
 5084SOL    HW216152   0.437   4.382   3.939
 5085SOL     OW16153   5.753   3.179   6.403
 5085SOL    HW116154   5.707   3.223   6.326
 5085SOL    HW216155   5.710   3.090   6.420
 5086SOL     OW16156   1.302   5.596   3.004
 5086SOL    HW116157   1.221   5.654   3.019
 5086SOL    HW216158   1.288   5.508   3.048
 5087SOL     OW16159   1.759   5.401   2.641
 5087SOL    HW116160   1.815   5.483   2.653
 5087SOL    HW216161   1.819   5.322   2.627
 5088SOL     OW16162   6.365   1.114   4.507
 5088SOL    HW116163   6.407   1.074   4.426
 5088SOL    HW216164   6.427   1.182   4.546
 5089SOL     OW16165   5.066   4.273   4.497
 5089SOL    HW116166   5.086   4.177   4.516
 5089SOL    HW216167   5.050   4.321   4.584
 5090SOL     OW16168   1.927   4.109   2.454
 5090SOL    HW116169   2.013   4.123   2.406
 5090SOL    HW216170   1.944   4.070   2.545
 5091SOL     OW16171   0.639   0.842   2.226
 5091SOL    HW116172   0.642   0.915   2.158
 5091SOL    HW216173   0.602   0.878   2.312
 5092SOL     OW16174   3.253   3.677   1.840
 5092SOL    HW116175   3.271   3.641   1.748
 5092SOL    HW216176   3.173   3.631   1.879
 5093SOL     OW16177   2.692   1.303   1.379
 5093SOL    HW116178   2.641   1.359   1.445
 5093SOL    HW216179   2.639   1.293   1.295
 5094SOL     OW16180   2.512   5.506   6.203
 5094SOL    HW116181   2.500   5.529   6.106
 5094SOL    HW216182   2.563   5.579   6.248
 5095SOL     OW16183   5.802   2.228   4.158
 5095SOL    HW116184   5.798   2.240   4.257
 5095SOL    HW216185   5.766   2.138   4.134
 5096SOL     OW16186   3.819   4.735   0.759
 5096SOL    HW116187   3.880   4.694   0.691
 5096SOL    HW216188   3.835   4.692   0.848
 5097SOL     OW16189   1.589   0.813   6.609
 5097SOL    HW116190   1.553   0.818   6.702
 5097SOL    HW216191   1.542   0.741   6.559
 5098SOL     OW16192   2.284   0.384   1.886
 5098SOL    HW116193   2.348   0.458   1.868
 5098SOL    HW216194   2.277   0.326   1.804
 5099SOL     OW16195   0.765   6.364   6.481
 5099SOL    HW116196   0.748   6.433   6.551
 5099SOL    HW216197   0.685   6.357   6.421
 5100SOL     OW16198   3.470   5.323   5.073
 5100SOL    HW116199   3.471   5.340   4.974
 5100SOL    HW216200   3.376   5.302   5.101
 5101SOL     OW16201   5.326   6.644   0.042
 5101SOL    HW116202   5.243   6.700   0.036
 5101SOL    HW216203   5.405   6.703   0.058
 5102SOL     OW16204   5.213   6.702   4.254
 5102SOL    HW116205   5.288   6.736   4.198
 5102SOL    HW216206   5.126   6.723   4.209
 5103SOL     OW16207   7.020   1.458   4.097
 5103SOL    HW116208   6.939   1.428   4.146
 5103SOL    HW216209   0.075   1.466   4.160
 5104SOL     OW16210   1.906   6.886   2.816
 5104SOL    HW116211   1.812   6.862   2.838
 5104SOL    HW216212   1.968   6.820   2.858
 5105SOL     OW16213   3.328   2.819   0.475
 5105SOL    HW116214   3.398   2.755   0.445
 5105SOL    HW216215   3.347   2.910   0.437
 5106SOL     OW16216   4.299   1.201   0.383
 5106SOL    HW116217   4.293   1.101   0.385
 5106SOL    HW216218   4.207   1.240   0.382
 5107SOL     OW16219   3.220   0.936   0.315
 5107SOL    HW116220   3.137   0.912   0.365
 5107SOL    HW216221   3.261   0.852   0.278
 5108SOL     OW16222   3.175   3.026   4.987
 5108SOL    HW116223   3.240   2.953   5.008
 5108SOL    HW216224   3.112   3.037   5.063
 5109SOL     OW16225   1.101   0.548   0.657
 5109SOL    HW116226   1.131   0.629   0.707
 5109SOL    HW216227   1.044   0.491   0.717
 5110SOL     OW16228   0.158   0.290   6.211
 5110SOL    HW116229   0.090   0.313   6.141
 5110SOL    HW216230   0.248   0.323   6.183
 5111SOL     OW16231   1.946   1.090   5.404
 5111SOL    HW116232   2.023   1.094   5.340
 5111SOL    HW216233   1.928   1.181   5.440
 5112SOL     OW16234   1.291   0.282   2.872
 5112SOL    HW116235   1.265   0.378   2.882
 5112SOL    HW216236   1.229   0.225   2.927
 5113SOL     OW16237   2.223   0.036   1.065
 5113SOL    HW116238   2.320   0.056   1.050
 5113SOL    HW216239   2.212   6.961   1.083
 5114SOL     OW16240   2.866   1.159   0.146
 5114SOL    HW116241   2.911   1.227   0.204
 5114SOL    HW216242   2.919   1.147   0.062
 5115SOL     OW16243   2.274   5.205   4.526
 5115SOL    HW116244   2.205   5.175   4.591
 5115SOL    HW216245   2.319   5.126   4.485
 5116SOL     OW16246   6.302   0.157   6.362
 5116SOL    HW116247   6.211   0.118   6.378
 5116SOL    HW216248   6.294   0.256   6.352
 5117SOL     OW16249   2.551   4.510   4.544
 5117SOL    HW116250   2.506   4.422   4.532
 5117SOL    HW216251   2.512   4.558   4.622
 5118SOL     OW16252   5.095   0.425   0.064
 5118SOL    HW116253   5.161   0.499   0.070
 5118SOL    HW216254   5.003   0.463   0.053
 5119SOL     OW16255   5.116   0.993   1.931
 5119SOL    HW116256   5.170   1.034   2.005
 5119SOL    HW216257   5.047   1.060   1.900
 5120SOL     OW16258   4.034   1.248   4.120
 5120SOL    HW116259   4.122   1.219   4.081
 5120SOL    HW216260   3.964   1.249   4.048
 5121SOL     OW16261   2.805   1.994   6.967
 5121SOL    HW116262   2.739   1.945   0.002
 5121SOL    HW216263   2.874   2.038   0.003
 5122SOL     OW16264   3.367   6.842   2.605
 5122SOL    HW116265   3.450   6.859   2.659
 5122SOL    HW216266   3.287   6.873   2.656
 5123SOL     OW16267   4.544   2.000   5.083
 5123SOL    HW116268   4.489   2.069   5.131
 5123SOL    HW216269   4.637   2.000   5.120
 5124SOL     OW16270   3.299   5.082   5.371
 5124SOL    HW116271   3.335   5.058   5.461
 5124SOL    HW216272   3.303   5.002   5.311
 5125SOL     OW16273   6.271   3.118   4.249
 5125SOL    HW116274   6.256   3.046   4.317
 5125SOL    HW216275   6.182   3.152   4.217
 5126SOL     OW16276   6.722   5.101   5.378
 5126SOL    HW116277   6.625   5.097   5.352
 5126SOL    HW216278   6.748   5.016   5.423
 5127SOL     OW16279   0.914   3.799   6.974
 5127SOL    HW116280   0.872   3.870   6.918
 5127SOL    HW216281   0.867   3.794   0.040
 5128SOL     OW16282   6.721   0.771   6.426
 5128SOL    HW116283   6.762   0.833   6.492
 5128SOL    HW216284   6.621   0.783   6.426
 5129SOL     OW16285   5.094   0.499   2.840
 5129SOL    HW116286   5.091   0.572   2.771
 5129SOL    HW216287   5.183   0.455   2.837
 5130SOL     OW16288   1.729   5.607   3.718
 5130SOL    HW116289   1.759   5.584   3.810
 5130SOL    HW216290   1.705   5.523   3.669
 5131SOL     OW16291   2.565   5.281   3.531
 5131SOL    HW116292   2.650   5.316   3.493
 5131SOL    HW216293   2.581   5.245   3.623
 5132SOL     OW16294   3.175   2.515   5.816
 5132SOL    HW116295   3.123   2.587   5.770
 5132SOL    HW216296   3.243   2.478   5.753
 5133SOL     OW16297   1.562   5.565   6.946
 5133SOL    HW116298   1.616   5.515   6.879
 5133SOL    HW216299   1.466   5.568   6.916
 5134SOL     OW16300   6.482   1.143   2.426
 5134SOL    HW116301   6.520   1.205   2.357
 5134SOL    HW216302   6.435   1.068   2.381
 5135SOL     OW16303   5.250   3.541   4.438
 5135SOL    HW116304   5.297   3.629   4.448
 5135SOL    HW216305   5.153   3.553   4.460
 5136SOL     OW16306   5.580   0.809   6.716
 5136SOL    HW116307   5.487   0.773   6.717
 5136SOL    HW216308   5.617   0.805   6.623
 5137SOL     OW16309   4.723   3.656   5.635
 5137SOL    HW116310   4.684   3.662   5.543
 5137SOL    HW216311   4.724   3.748   5.676
 5138SOL     OW16312   3.649   2.845   4.674
 5138SOL    HW116313   3.702   2.898   4.741
 5138SOL    HW216314   3.556   2.831   4.708
 5139SOL     OW16315   0.872   0.283   3.821
 5139SOL    HW116316   0.792   0.300   3.763
 5139SOL    HW216317   0.856   0.323   3.911
 5140SOL     OW16318   3.792   2.371   5.347
 5140SOL    HW116319   3.743   2.290   5.378
 5140SOL    HW216320   3.726   2.444   5.327
 5141SOL     OW16321   6.307   3.592   0.662
 5141SOL    HW116322   6.295   3.559   0.755
 5141SOL    HW216323   6.341   3.518   0.604
 5142SOL     OW16324   5.411   6.280   3.266
 5142SOL    HW116325   5.462   6.366   3.261
 5142SOL    HW216326   5.450   6.215   3.201
 5143SOL     OW16327   6.777   4.317   4.141
 5143SOL    HW116328   6.758   4.415   4.147
 5143SOL    HW216329   6.694   4.268   4.114
 5144SOL     OW16330   1.250   4.887   5.399
 5144SOL    HW116331   1.337   4.926   5.428
 5144SOL    HW216332   1.182   4.961   5.390
 5145SOL     OW16333   3.734   5.978   6.603
 5145SOL    HW116334   3.657   5.917   6.621
 5145SOL    HW216335   3.749   5.984   6.504
 5146SOL     OW16336   3.414   3.427   5.032
 5146SOL    HW116337   3.460   3.481   4.962
 5146SOL    HW216338   3.443   3.460   5.123
 5147SOL     OW16339   6.621   5.758   3.384
 5147SOL    HW116340   6.711   5.797   3.364
 5147SOL    HW216341   6.573   5.818   3.448
 5148SOL     OW16342   0.106   1.302   1.571
 5148SOL    HW116343   0.097   1.221   1.513
 5148SOL    HW216344   0.016   1.326   1.608
 5149SOL     OW16345   6.488   5.693   3.726
 5149SOL    HW116346   6.468   5.752   3.648
 5149SOL    HW216347   6.506   5.749   3.806
 5150SOL     OW16348   2.165   5.395   3.243
 5150SOL    HW116349   2.128   5.487   3.232
 5150SOL    HW216350   2.222   5.391   3.325
 5151SOL     OW16351   6.904   4.041   2.120
 5151SOL    HW116352   6.947   3.952   2.107
 5151SOL    HW216353   6.806   4.033   2.106
 5152SOL     OW16354   1.352   5.453   0.125
 5152SOL    HW116355   1.423   5.412   0.183
 5152SOL    HW216356   1.325   5.388   0.054
 5153SOL     OW16357   0.876   2.124   0.327
 5153SOL    HW116358   0.779   2.148   0.328
 5153SOL    HW216359   0.917   2.147   0.415
 5154SOL     OW16360   0.936   3.090   6.110
 5154SOL    HW116361   0.838   3.100   6.124
 5154SOL    HW216362   0.966   3.000   6.143
 5155SOL     OW16363   4.116   6.461   2.262
 5155SOL    HW116364   4.208   6.466   2.300
 5155SOL    HW216365   4.069   6.548   2.278
 5156SOL     OW16366   5.634   4.761   5.990
 5156SOL    HW116367   5.672   4.719   6.072
 5156SOL    HW216368   5.564   4.828   6.016
 5157SOL     OW16369   3.245   1.697   3.271
 5157SOL    HW116370   3.184   1.694   3.350
 5157SOL    HW216371   3.337   1.726   3.300
 5158SOL     OW16372   3.476   1.955   0.980
 5158SOL    HW116373   3.470   2.030   1.045
 5158SOL    HW216374   3.514   1.874   1.026
 5159SOL     OW16375   5.817   3.596   5.939
 5159SOL    HW116376   5.885   3.651   5.987
 5159SOL    HW216377   5.817   3.620   5.842
 5160SOL     OW16378   0.490   5.136   2.970
 5160SOL    HW116379   0.489   5.212   3.034
 5160SOL    HW216380   0.400   5.091   2.971
 5161SOL     OW16381   1.713   3.586   0.257
 5161SOL    HW116382   1.662   3.616   0.338
 5161SOL    HW216383   1.797   3.639   0.249
 5162SOL     OW16384   0.945   6.103   2.532
 5162SOL    HW116385   1.011   6.168   2.493
 5162SOL    HW216386   0.970   6.011   2.504
 5163SOL     OW16387   2.796   6.654   0.704
 5163SOL    HW116388   2.742   6.729   0.666
 5163SOL    HW216389   2.893   6.677   0.698
 5164SOL     OW16390   3.503   2.349   0.043
 5164SOL    HW116391   3.583   2.407   0.057
 5164SOL    HW216392   3.520   2.259   0.084
 5165SOL     OW16393   0.435   4.110   5.865
 5165SOL    HW116394   0.428   4.024   5.916
 5165SOL    HW216395   0.353   4.165   5.882
 5166SOL     OW16396   1.298   6.058   2.462
 5166SOL    HW116397   1.353   6.138   2.488
 5166SOL    HW216398   1.349   6.003   2.396
 5167SOL     OW16399   6.471   5.175   5.775
 5167SOL    HW116400   6.497   5.254   5.830
 5167SOL    HW216401   6.437   5.205   5.686
 5168SOL     OW16402   5.283   3.542   1.593
 5168SOL    HW116403   5.217   3.555   1.667
 5168SOL    HW216404   5.235   3.512   1.511
 5169SOL     OW16405   4.036   1.953   4.089
 5169SOL    HW116406   4.116   1.928   4.145
 5169SOL    HW216407   3.975   2.011   4.143
 5170SOL     OW16408   1.286   3.888   4.925
 5170SOL    HW116409   1.237   3.903   4.839
 5170SOL    HW216410   1.384   3.904   4.910
 5171SOL     OW16411   0.624   4.077   5.618
 5171SOL    HW116412   0.623   4.177   5.615
 5171SOL    HW216413   0.707   4.046   5.665
 5172SOL     OW16414   1.487   3.388   2.486
 5172SOL    HW116415   1.397   3.346   2.486
 5172SOL    HW216416   1.515   3.408   2.581
 5173SOL     OW16417   5.091   5.108   4.854
 5173SOL    HW116418   5.170   5.097   4.794
 5173SOL    HW216419   5.070   5.020   4.898
 5174SOL     OW16420   2.416   4.842   3.597
 5174SOL    HW116421   2.396   4.916   3.661
 5174SOL    HW216422   2.342   4.775   3.600
 5175SOL     OW16423   3.133   4.061   6.486
 5175SOL    HW116424   3.036   4.034   6.486
 5175SOL    HW216425   3.141   4.154   6.521
 5176SOL     OW16426   5.786   3.138   6.868
 5176SOL    HW116427   5.871   3.091   6.893
 5176SOL    HW216428   5.738   3.085   6.799
 5177SOL     OW16429   5.496   6.953   0.659
 5177SOL    HW116430   5.596   6.954   0.670
 5177SOL    HW216431   5.457   6.882   0.718
 5178SOL     OW16432   0.718   3.601   2.820
 5178SOL    HW116433   0.631   3.553   2.807
 5178SOL    HW216434   0.707   3.669   2.893
 5179SOL     OW16435   4.997   4.588   4.278
 5179SOL    HW116436   5.087   4.544   4.279
 5179SOL    HW216437   4.929   4.524   4.243
 5180SOL     OW16438   2.435   1.664   0.721
 5180SOL    HW116439   2.347   1.636   0.686
 5180SOL    HW216440   2.442   1.764   0.717
 5181SOL     OW16441   5.367   0.948   2.617
 5181SOL    HW116442   5.397   1.011   2.546
 5181SOL    HW216443   5.271   0.965   2.639
 5182SOL     OW16444   3.948   4.711   1.771
 5182SOL    HW116445   4.037   4.673   1.747
 5182SOL    HW216446   3.954   4.755   1.861
 5183SOL     OW16447   3.849   1.885   2.666
 5183SOL    HW116448   3.898   1.960   2.710
 5183SOL    HW216449   3.797   1.920   2.588
 5184SOL     OW16450   0.553   2.190   3.959
 5184SOL    HW116451   0.577   2.114   3.898
 5184SOL    HW216452   0.482   2.160   4.023
 5185SOL     OW16453   5.535   0.771   2.750
 5185SOL    HW116454   5.456   0.818   2.711
 5185SOL    HW216455   5.619   0.802   2.706
 5186SOL     OW16456   6.316   1.664   0.209
 5186SOL    HW116457   6.287   1.738   0.147
 5186SOL    HW216458   6.245   1.649   0.278
 5187SOL     OW16459   1.365   6.099   4.314
 5187SOL    HW116460   1.434   6.079   4.383
 5187SOL    HW216461   1.284   6.044   4.331
 5188SOL     OW16462   0.009   5.862   1.635
 5188SOL    HW116463   0.101   5.847   1.671
 5188SOL    HW216464   0.013   5.919   1.553
 5189SOL     OW16465   4.312   4.912   0.758
 5189SOL    HW116466   4.273   4.908   0.667
 5189SOL    HW216467   4.319   4.820   0.796
 5190SOL     OW16468   0.475   2.615   4.226
 5190SOL    HW116469   0.424   2.567   4.296
 5190SOL    HW216470   0.549   2.668   4.268
 5191SOL     OW16471   4.019   6.871   2.069
 5191SOL    HW116472   4.017   6.830   2.160
 5191SOL    HW216473   4.093   6.937   2.064
 5192SOL     OW16474   2.113   5.485   1.085
 5192SOL    HW116475   2.198   5.433   1.091
 5192SOL    HW216476   2.046   5.446   1.147
 5193SOL     OW16477   5.586   5.619   4.941
 5193SOL    HW116478   5.589   5.607   4.842
 5193SOL    HW216479   5.498   5.585   4.976
 5194SOL     OW16480   3.857   2.188   0.209
 5194SOL    HW116481   3.918   2.118   0.172
 5194SOL    HW216482   3.909   2.270   0.232
 5195SOL     OW16483   6.819   0.209   3.983
 5195SOL    HW116484   6.875   0.131   3.954
 5195SOL    HW216485   6.809   0.208   4.083
 5196SOL     OW16486   3.950   6.479   1.684
 5196SOL    HW116487   4.048   6.492   1.693
 5196SOL    HW216488   3.924   6.391   1.722
 5197SOL     OW16489   2.563   3.883   6.144
 5197SOL    HW116490   2.623   3.909   6.219
 5197SOL    HW216491   2.598   3.923   6.059
 5198SOL     OW16492   4.745   5.833   3.007
 5198SOL    HW116493   4.661   5.886   3.020
 5198SOL    HW216494   4.816   5.868   3.069
 5199SOL     OW16495   1.187   6.430   0.471
 5199SOL    HW116496   1.153   6.480   0.550
 5199SOL    HW216497   1.234   6.492   0.409
 5200SOL     OW16498   0.644   3.903   5.255
 5200SOL    HW116499   0.604   3.871   5.169
 5200SOL    HW216500   0.606   3.992   5.278
 5201SOL     OW16501   0.095   0.169   3.112
 5201SOL    HW116502   0.063   0.263   3.124
 5201SOL    HW216503   0.020   0.106   3.133
 5202SOL     OW16504   5.977   3.107   6.100
 5202SOL    HW116505   6.002   3.014   6.074
 5202SOL    HW216506   6.059   3.158   6.125
 5203SOL     OW16507   2.102   2.813   6.970
 5203SOL    HW116508   2.055   2.846   0.030
 5203SOL    HW216509   2.096   2.713   6.965
 5204SOL     OW16510   3.860   4.974   6.588
 5204SOL    HW116511   3.805   5.056   6.571
 5204SOL    HW216512   3.914   4.988   6.671
 5205SOL     OW16513   0.586   6.181   0.406
 5205SOL    HW116514   0.497   6.150   0.440
 5205SOL    HW216515   0.573   6.249   0.334
 5206SOL     OW16516   0.605   4.306   5.798
 5206SOL    HW116517   0.537   4.238   5.825
 5206SOL    HW216518   0.583   4.394   5.840
 5207SOL     OW16519   1.423   5.931   3.805
 5207SOL    HW116520   1.327   5.904   3.801
 5207SOL    HW216521   1.430   6.031   3.804
 5208SOL     OW16522   4.108   2.453   6.172
 5208SOL    HW116523   4.009   2.461   6.177
 5208SOL    HW216524   4.133   2.356   6.168
 5209SOL     OW16525   5.466   5.905   3.159
 5209SOL    HW116526   5.444   5.988   3.108
 5209SOL    HW216527   5.508   5.930   3.246
 5210SOL     OW16528   4.308   2.528   5.997
 5210SOL    HW116529   4.242   2.543   5.924
 5210SOL    HW216530   4.264   2.544   6.086
 5211SOL     OW16531   3.169   2.848   5.275
 5211SOL    HW116532   3.244   2.848   5.208
 5211SOL    HW216533   3.101   2.917   5.249
 5212SOL     OW16534   6.787   2.434   0.817
 5212SOL    HW116535   6.867   2.432   0.758
 5212SOL    HW216536   6.814   2.413   0.911
 5213SOL     OW16537   4.768   3.505   6.375
 5213SOL    HW116538   4.779   3.472   6.281
 5213SOL    HW216539   4.805   3.598   6.382
 5214SOL     OW16540   4.578   1.661   5.711
 5214SOL    HW116541   4.671   1.684   5.741
 5214SOL    HW216542   4.516   1.735   5.739
 5215SOL     OW16543   6.599   5.007   3.402
 5215SOL    HW116544   6.552   4.962   3.326
 5215SOL    HW216545   6.677   5.060   3.366
 5216SOL     OW16546   5.088   4.736   2.014
 5216SOL    HW116547   5.089   4.829   1.977
 5216SOL    HW216548   5.156   4.729   2.087
 5217SOL     OW16549   3.804   5.554   4.707
 5217SOL    HW116550   3.860   5.472   4.694
 5217SOL    HW216551   3.751   5.571   4.624
 5218SOL     OW16552   0.752   0.885   3.659
 5218SOL    HW116553   0.791   0.852   3.574
 5218SOL    HW216554   0.700   0.812   3.703
 5219SOL     OW16555   4.095   1.292   5.724
 5219SOL    HW116556   4.104   1.193   5.713
 5219SOL    HW216557   4.179   1.329   5.765
 5220SOL     OW16558   1.371   5.877   2.914
 5220SOL    HW116559   1.446   5.811   2.907
 5220SOL    HW216560   1.342   5.904   2.822
 5221SOL     OW16561   5.723   2.148   3.844
 5221SOL    HW116562   5.759   2.229   3.891
 5221SOL    HW216563   5.797   2.104   3.793
 5222SOL     OW16564   3.432   5.962   3.316
 5222SOL    HW116565   3.341   5.940   3.351
 5222SOL    HW216566   3.441   6.061   3.304
 5223SOL     OW16567   6.943   2.597   1.209
 5223SOL    HW116568   6.993   2.624   1.127
 5223SOL    HW216569   6.969   2.657   1.285
 5224SOL     OW16570   0.125   2.618   3.992
 5224SOL    HW116571   0.058   2.635   3.920
 5224SOL    HW216572   0.133   2.519   4.006
 5225SOL     OW16573   0.748   0.246   3.192
 5225SOL    HW116574   0.654   0.260   3.161
 5225SOL    HW216575   0.772   0.149   3.184
 5226SOL     OW16576   0.383   5.993   4.666
 5226SOL    HW116577   0.360   6.057   4.593
 5226SOL    HW216578   0.354   5.901   4.641
 5227SOL     OW16579   1.065   3.208   4.402
 5227SOL    HW116580   1.083   3.154   4.320
 5227SOL    HW216581   0.966   3.226   4.409
 5228SOL     OW16582   6.574   2.820   1.510
 5228SOL    HW116583   6.596   2.910   1.549
 5228SOL    HW216584   6.627   2.750   1.559
 5229SOL     OW16585   1.726   5.806   0.005
 5229SOL    HW116586   1.637   5.760   0.003
 5229SOL    HW216587   1.788   5.761   6.963
 5230SOL     OW16588   0.688   6.072   0.967
 5230SOL    HW116589   0.699   6.057   0.869
 5230SOL    HW216590   0.739   6.154   0.994
 5231SOL     OW16591   4.471   3.299   5.469
 5231SOL    HW116592   4.428   3.228   5.524
 5231SOL    HW216593   4.433   3.388   5.494
 5232SOL     OW16594   3.505   2.239   5.883
 5232SOL    HW116595   3.517   2.310   5.814
 5232SOL    HW216596   3.499   2.150   5.838
 5233SOL     OW16597   5.117   0.955   2.659
 5233SOL    HW116598   5.049   1.028   2.646
 5233SOL    HW216599   5.073   0.866   2.650
 5234SOL     OW16600   2.563   0.901   6.851
 5234SOL    HW116601   2.474   0.900   6.805
 5234SOL    HW216602   2.576   0.815   6.900
 5235SOL     OW16603   1.427   2.772   1.469
 5235SOL    HW116604   1.365   2.694   1.460
 5235SOL    HW216605   1.374   2.854   1.488
 5236SOL     OW16606   5.510   3.951   2.607
 5236SOL    HW116607   5.469   4.015   2.673
 5236SOL    HW216608   5.500   3.987   2.515
 5237SOL     OW16609   1.671   1.268   5.156
 5237SOL    HW116610   1.712   1.273   5.247
 5237SOL    HW216611   1.651   1.172   5.133
 5238SOL     OW16612   0.722   4.351   0.509
 5238SOL    HW116613   0.799   4.293   0.483
 5238SOL    HW216614   0.720   4.362   0.609
 5239SOL     OW16615   3.331   3.295   3.735
 5239SOL    HW116616   3.299   3.203   3.714
 5239SOL    HW216617   3.372   3.296   3.826
 5240SOL     OW16618   3.093   1.192   6.132
 5240SOL    HW116619   3.025   1.161   6.199
 5240SOL    HW216620   3.122   1.115   6.076
 5241SOL     OW16621   1.218   4.949   4.869
 5241SOL    HW116622   1.277   4.885   4.819
 5241SOL    HW216623   1.230   5.041   4.832
 5242SOL     OW16624   0.531   6.288   6.328
 5242SOL    HW116625   0.543   6.194   6.362
 5242SOL    HW216626   0.437   6.318   6.344
 5243SOL     OW16627   1.119   5.461   2.024
 5243SOL    HW116628   1.117   5.397   2.101
 5243SOL    HW216629   1.191   5.529   2.039
 5244SOL     OW16630   3.446   4.920   6.673
 5244SOL    HW116631   3.426   5.016   6.653
 5244SOL    HW216632   3.475   4.912   6.768
 5245SOL     OW16633   4.197   3.964   0.645
 5245SOL    HW116634   4.188   3.953   0.745
 5245SOL    HW216635   4.277   3.913   0.614
 5246SOL     OW16636   5.766   4.086   2.668
 5246SOL    HW116637   5.805   4.079   2.759
 5246SOL    HW216638   5.702   4.010   2.654
 5247SOL     OW16639   0.903   0.378   0.015
 5247SOL    HW116640   0.986   0.329   0.043
 5247SOL    HW216641   0.822   0.327   0.045
 5248SOL     OW16642   5.747   0.595   4.350
 5248SOL    HW116643   5.650   0.573   4.360
 5248SOL    HW216644   5.781   0.636   4.434
 5249SOL     OW16645   6.667   4.628   5.273
 5249SOL    HW116646   6.572   4.635   5.245
 5249SOL    HW216647   6.726   4.663   5.199
 5250SOL     OW16648   1.411   7.020   5.294
 5250SOL    HW116649   1.405   6.950   5.364
 5250SOL    HW216650   1.500   0.044   5.300
 5251SOL     OW16651   0.831   3.181   0.292
 5251SOL    HW116652   0.877   3.123   0.226
 5251SOL    HW216653   0.742   3.210   0.257
 5252SOL     OW16654   2.105   5.801   0.391
 5252SOL    HW116655   2.116   5.770   0.486
 5252SOL    HW216656   2.045   5.737   0.342
 5253SOL     OW16657   5.603   4.094   4.336
 5253SOL    HW116658   5.685   4.041   4.313
 5253SOL    HW216659   5.600   4.109   4.435
 5254SOL     OW16660   4.428   1.208   2.902
 5254SOL    HW116661   4.378   1.165   2.978
 5254SOL    HW216662   4.486   1.140   2.858
 5255SOL     OW16663   4.834   0.946   6.393
 5255SOL    HW116664   4.770   0.938   6.316
 5255SOL    HW216665   4.807   0.884   6.466
 5256SOL     OW16666   4.576   0.922   3.117
 5256SOL    HW116667   4.524   0.952   3.037
 5256SOL    HW216668   4.650   0.988   3.135
 5257SOL     OW16669   4.631   6.022   2.132
 5257SOL    HW116670   4.546   6.063   2.100
 5257SOL    HW216671   4.623   5.923   2.130
 5258SOL     OW16672   5.815   3.853   1.967
 5258SOL    HW116673   5.910   3.885   1.959
 5258SOL    HW216674   5.794   3.837   2.063
 5259SOL     OW16675   5.086   6.505   0.362
 5259SOL    HW116676   5.042   6.525   0.275
 5259SOL    HW216677   5.117   6.591   0.404
 5260SOL     OW16678   5.770   3.770   1.241
 5260SOL    HW116679   5.716   3.700   1.288
 5260SOL    HW216680   5.781   3.744   1.145
 5261SOL     OW16681   1.287   3.446   6.841
 5261SOL    HW116682   1.342   3.457   6.924
 5261SOL    HW216683   1.223   3.522   6.834
 5262SOL     OW16684   2.825   0.533   2.669
 5262SOL    HW116685   2.752   0.512   2.734
 5262SOL    HW216686   2.913   0.523   2.714
 5263SOL     OW16687   2.194   1.515   5.451
 5263SOL    HW116688   2.190   1.455   5.531
 5263SOL    HW216689   2.209   1.461   5.368
 5264SOL     OW16690   5.863   1.614   2.459
 5264SOL    HW116691   5.818   1.590   2.374
 5264SOL    HW216692   5.962   1.619   2.444
 5265SOL     OW16693   5.387   3.798   4.252
 5265SOL    HW116694   5.359   3.892   4.275
 5265SOL    HW216695   5.336   3.767   4.172
 5266SOL     OW16696   2.539   6.150   1.950
 5266SOL    HW116697   2.577   6.227   2.000
 5266SOL    HW216698   2.588   6.066   1.974
 5267SOL     OW16699   4.829   4.137   4.971
 5267SOL    HW116700   4.791   4.089   5.051
 5267SOL    HW216701   4.818   4.236   4.984
 5268SOL     OW16702   6.182   0.820   6.559
 5268SOL    HW116703   6.092   0.809   6.600
 5268SOL    HW216704   6.173   0.840   6.461
 5269SOL     OW16705   1.849   0.209   3.903
 5269SOL    HW116706   1.942   0.190   3.870
 5269SOL    HW216707   1.786   0.142   3.863
 5270SOL     OW16708   5.157   1.678   1.390
 5270SOL    HW116709   5.180   1.753   1.328
 5270SOL    HW216710   5.181   1.591   1.349
 5271SOL     OW16711   5.763   5.845   4.648
 5271SOL    HW116712   5.733   5.759   4.605
 5271SOL    HW216713   5.776   5.914   4.577
 5272SOL     OW16714   2.498   5.522   1.937
 5272SOL    HW116715   2.437   5.444   1.921
 5272SOL    HW216716   2.454   5.605   1.903
 5273SOL     OW16717   6.713   2.952   3.470
 5273SOL    HW116718   6.796   2.990   3.427
 5273SOL    HW216719   6.643   3.023   3.475
 5274SOL     OW16720   6.569   6.377   1.851
 5274SOL    HW116721   6.470   6.366   1.856
 5274SOL    HW216722   6.602   6.414   1.938
 5275SOL     OW16723   3.568   1.666   6.729
 5275SOL    HW116724   3.560   1.568   6.750
 5275SOL    HW216725   3.478   1.709   6.731
 5276SOL     OW16726   0.764   0.128   0.351
 5276SOL    HW116727   0.805   0.217   0.332
 5276SOL    HW216728   0.726   0.089   0.267
 5277SOL     OW16729   2.148   2.084   3.256
 5277SOL    HW116730   2.206   2.071   3.336
 5277SOL    HW216731   2.202   2.128   3.183
 5278SOL     OW16732   4.995   0.402   4.440
 5278SOL    HW116733   5.040   0.358   4.362
 5278SOL    HW216734   5.041   0.488   4.462
 5279SOL     OW16735   1.431   5.217   6.704
 5279SOL    HW116736   1.493   5.265   6.642
 5279SOL    HW216737   1.479   5.138   6.744
 5280SOL     OW16738   3.399   6.746   5.382
 5280SOL    HW116739   3.331   6.814   5.410
 5280SOL    HW216740   3.352   6.663   5.352
 5281SOL     OW16741   0.678   1.855   2.432
 5281SOL    HW116742   0.644   1.778   2.377
 5281SOL    HW216743   0.627   1.859   2.518
 5282SOL     OW16744   2.470   1.601   3.072
 5282SOL    HW116745   2.443   1.630   3.164
 5282SOL    HW216746   2.421   1.655   3.004
 5283SOL     OW16747   4.233   6.612   1.617
 5283SOL    HW116748   4.229   6.641   1.712
 5283SOL    HW216749   4.279   6.682   1.563
 5284SOL     OW16750   5.071   3.739   3.365
 5284SOL    HW116751   5.069   3.639   3.355
 5284SOL    HW216752   4.994   3.779   3.315
 5285SOL     OW16753   2.248   4.164   4.094
 5285SOL    HW116754   2.158   4.205   4.108
 5285SOL    HW216755   2.248   4.069   4.127
 5286SOL     OW16756   0.878   3.777   1.701
 5286SOL    HW116757   0.937   3.801   1.624
 5286SOL    HW216758   0.874   3.853   1.765
 5287SOL     OW16759   1.643   6.163   1.712
 5287SOL    HW116760   1.718   6.166   1.778
 5287SOL    HW216761   1.661   6.092   1.643
 5288SOL     OW16762   4.200   0.396   1.743
 5288SOL    HW116763   4.129   0.327   1.730
 5288SOL    HW216764   4.222   0.403   1.840
 5289SOL     OW16765   1.776   5.635   6.032
 5289SOL    HW116766   1.799   5.544   6.065
 5289SOL    HW216767   1.800   5.643   5.936
 5290SOL     OW16768   1.664   4.618   5.821
 5290SOL    HW116769   1.593   4.553   5.793
 5290SOL    HW216770   1.694   4.670   5.741
 5291SOL     OW16771   2.950   5.011   5.387
 5291SOL    HW116772   3.019   4.941   5.371
 5291SOL    HW216773   2.861   4.968   5.399
 5292SOL     OW16774   6.627   4.275   0.375
 5292SOL    HW116775   6.602   4.180   0.393
 5292SOL    HW216776   6.577   4.309   0.295
 5293SOL     OW16777   0.932   0.706   3.902
 5293SOL    HW116778   0.981   0.734   3.985
 5293SOL    HW216779   0.853   0.649   3.928
 5294SOL     OW16780   4.919   3.378   5.212
 5294SOL    HW116781   4.888   3.427   5.130
 5294SOL    HW216782   4.858   3.399   5.289
 5295SOL     OW16783   4.368   0.330   2.414
 5295SOL    HW116784   4.286   0.389   2.412
 5295SOL    HW216785   4.371   0.276   2.330
 5296SOL     OW16786   2.056   5.395   0.511
 5296SOL    HW116787   2.059   5.416   0.608
 5296SOL    HW216788   2.103   5.467   0.460
 5297SOL     OW16789   2.992   1.872   1.163
 5297SOL    HW116790   3.032   1.858   1.073
 5297SOL    HW216791   2.897   1.903   1.153
 5298SOL     OW16792   1.777   6.123   6.323
 5298SOL    HW116793   1.779   6.183   6.402
 5298SOL    HW216794   1.717   6.161   6.253
 5299SOL     OW16795   2.982   2.444   0.841
 5299SOL    HW116796   3.049   2.455   0.767
 5299SOL    HW216797   3.021   2.384   0.912
 5300SOL     OW16798   0.244   6.185   1.565
 5300SOL    HW116799   0.269   6.280   1.581
 5300SOL    HW216800   0.327   6.131   1.550
 5301SOL     OW16801   4.444   2.501   6.986
 5301SOL    HW116802   4.417   2.484   0.058
 5301SOL    HW216803   4.501   2.425   6.954
 5302SOL     OW16804   6.116   4.739   3.424
 5302SOL    HW116805   6.200   4.788   3.448
 5302SOL    HW216806   6.038   4.783   3.469
 5303SOL     OW16807   6.990   5.937   2.826
 5303SOL    HW116808   0.013   5.867   2.770
 5303SOL    HW216809   7.000   6.026   2.783
 5304SOL     OW16810   5.952   1.412   0.005
 5304SOL    HW116811   5.873   1.405   6.966
 5304SOL    HW216812   5.921   1.411   0.100
 5305SOL     OW16813   1.704   5.433   4.228
 5305SOL    HW116814   1.745   5.389   4.148
 5305SOL    HW216815   1.638   5.502   4.198
 5306SOL     OW16816   0.079   5.139   4.818
 5306SOL    HW116817   0.028   5.221   4.844
 5306SOL    HW216818   0.155   5.164   4.759
 5307SOL     OW16819   3.991   6.951   0.441
 5307SOL    HW116820   3.894   6.967   0.422
 5307SOL    HW216821   4.000   6.881   0.511
 5308SOL     OW16822   1.014   6.235   3.668
 5308SOL    HW116823   0.927   6.254   3.713
 5308SOL    HW216824   1.032   6.137   3.669
 5309SOL     OW16825   3.928   4.381   1.684
 5309SOL    HW116826   3.875   4.452   1.731
 5309SOL    HW216827   4.023   4.410   1.677
 5310SOL     OW16828   6.111   3.356   1.688
 5310SOL    HW116829   6.043   3.401   1.745
 5310SOL    HW216830   6.177   3.308   1.746
 5311SOL     OW16831   0.303   6.252   0.513
 5311SOL    HW116832   0.217   6.282   0.471
 5311SOL    HW216833   0.352   6.331   0.549
 5312SOL     OW16834   0.717   4.476   1.951
 5312SOL    HW116835   0.668   4.484   2.038
 5312SOL    HW216836   0.749   4.382   1.939
 5313SOL     OW16837   1.274   4.406   6.687
 5313SOL    HW116838   1.350   4.346   6.661
 5313SOL    HW216839   1.282   4.493   6.637
 5314SOL     OW16840   3.566   6.605   0.172
 5314SOL    HW116841   3.485   6.664   0.167
 5314SOL    HW216842   3.608   6.613   0.262
 5315SOL     OW16843   4.448   3.663   1.653
 5315SOL    HW116844   4.388   3.654   1.574
 5315SOL    HW216845   4.452   3.759   1.682
 5316SOL     OW16846   6.769   4.718   4.690
 5316SOL    HW116847   6.832   4.665   4.633
 5316SOL    HW216848   6.816   4.801   4.722
 5317SOL     OW16849   6.942   7.007   4.579
 5317SOL    HW116850   6.958   0.080   4.553
 5317SOL    HW216851   6.872   7.003   4.651
 5318SOL     OW16852   0.226   2.090   6.128
 5318SOL    HW116853   0.150   2.031   6.099
 5318SOL    HW216854   0.272   2.049   6.207
 5319SOL     OW16855   4.352   6.649   6.472
 5319SOL    HW116856   4.374   6.580   6.403
 5319SOL    HW216857   4.435   6.674   6.522
 5320SOL     OW16858   5.359   5.150   0.465
 5320SOL    HW116859   5.430   5.144   0.535
 5320SOL    HW216860   5.349   5.245   0.434
 5321SOL     OW16861   1.175   3.949   3.199
 5321SOL    HW116862   1.144   3.898   3.118
 5321SOL    HW216863   1.111   4.023   3.218
 5322SOL     OW16864   3.755   5.786   6.138
 5322SOL    HW116865   3.775   5.864   6.197
 5322SOL    HW216866   3.680   5.809   6.076
 5323SOL     OW16867   3.812   3.167   6.812
 5323SOL    HW116868   3.716   3.149   6.831
 5323SOL    HW216869   3.868   3.096   6.854
 5324SOL     OW16870   4.019   2.841   1.638
 5324SOL    HW116871   3.943   2.777   1.627
 5324SOL    HW216872   4.094   2.795   1.687
 5325SOL     OW16873   5.101   0.342   4.143
 5325SOL    HW116874   5.127   0.361   4.048
 5325SOL    HW216875   5.002   0.349   4.153
 5326SOL     OW16876   0.255   5.284   3.176
 5326SOL    HW116877   0.352   5.304   3.161
 5326SOL    HW216878   0.236   5.281   3.274
 5327SOL     OW16879   5.740   4.445   4.808
 5327SOL    HW116880   5.819   4.497   4.841
 5327SOL    HW216881   5.727   4.365   4.866
 5328SOL     OW16882   4.556   2.887   5.525
 5328SOL    HW116883   4.630   2.827   5.496
 5328SOL    HW216884   4.496   2.837   5.588
 5329SOL     OW16885   0.190   3.784   0.685
 5329SOL    HW116886   0.111   3.724   0.696
 5329SOL    HW216887   0.162   3.869   0.639
 5330SOL     OW16888   3.835   3.694   5.795
 5330SOL    HW116889   3.756   3.637   5.815
 5330SOL    HW216890   3.899   3.692   5.872
 5331SOL     OW16891   5.556   0.498   1.676
 5331SOL    HW116892   5.527   0.592   1.693
 5331SOL    HW216893   5.493   0.435   1.722
 5332SOL     OW16894   0.465   3.451   0.457
 5332SOL    HW116895   0.451   3.372   0.517
 5332SOL    HW216896   0.487   3.531   0.512
 5333SOL     OW16897   0.904   0.608   3.360
 5333SOL    HW116898   0.890   0.641   3.454
 5333SOL    HW216899   1.001   0.611   3.338
 5334SOL     OW16900   3.829   6.296   5.192
 5334SOL    HW116901   3.891   6.243   5.134
 5334SOL    HW216902   3.880   6.334   5.269
 5335SOL     OW16903   0.095   5.359   2.700
 5335SOL    HW116904   0.111   5.432   2.767
 5335SOL    HW216905   0.073   5.274   2.748
 5336SOL     OW16906   2.758   1.605   3.362
 5336SOL    HW116907   2.763   1.574   3.268
 5336SOL    HW216908   2.719   1.698   3.364
 5337SOL     OW16909   5.334   4.973   2.251
 5337SOL    HW116910   5.407   4.989   2.185
 5337SOL    HW216911   5.358   5.016   2.338
 5338SOL     OW16912   5.953   0.731   6.125
 5338SOL    HW116913   5.929   0.813   6.074
 5338SOL    HW216914   5.870   0.688   6.162
 5339SOL     OW16915   5.744   1.764   3.479
 5339SOL    HW116916   5.821   1.736   3.536
 5339SOL    HW216917   5.691   1.835   3.526
 5340SOL     OW16918   5.935   3.459   1.491
 5340SOL    HW116919   6.027   3.443   1.529
 5340SOL    HW216920   5.907   3.553   1.510
 5341SOL     OW16921   3.448   5.673   5.313
 5341SOL    HW116922   3.466   5.771   5.308
 5341SOL    HW216923   3.378   5.655   5.382
 5342SOL     OW16924   4.668   0.096   4.731
 5342SOL    HW116925   4.768   0.107   4.725
 5342SOL    HW216926   4.643   0.009   4.689
 5343SOL     OW16927   4.155   3.402   4.889
 5343SOL    HW116928   4.241   3.382   4.936
 5343SOL    HW216929   4.161   3.493   4.847
 5344SOL     OW16930   1.455   2.359   1.167
 5344SOL    HW116931   1.424   2.355   1.072
 5344SOL    HW216932   1.514   2.439   1.180
 5345SOL     OW16933   4.901   6.678   0.201
 5345SOL    HW116934   4.898   6.591   0.153
 5345SOL    HW216935   4.894   6.753   0.135
 5346SOL     OW16936   2.295   5.338   4.016
 5346SOL    HW116937   2.392   5.355   3.998
 5346SOL    HW216938   2.286   5.284   4.099
 5347SOL     OW16939   0.552   2.943   2.534
 5347SOL    HW116940   0.489   2.902   2.601
 5347SOL    HW216941   0.644   2.944   2.572
 5348SOL     OW16942   6.664   1.426   0.451
 5348SOL    HW116943   6.652   1.329   0.472
 5348SOL    HW216944   6.591   1.457   0.390
 5349SOL     OW16945   2.221   3.394   0.109
 5349SOL    HW116946   2.249   3.319   0.049
 5349SOL    HW216947   2.154   3.451   0.062
 5350SOL     OW16948   1.706   0.012   4.761
 5350SOL    HW116949   1.644   6.970   4.716
 5350SOL    HW216950   1.665   0.104   4.761
 5351SOL     OW16951   6.668   5.062   1.975
 5351SOL    HW116952   6.583   5.114   1.968
 5351SOL    HW216953   6.745   5.125   1.986
 5352SOL     OW16954   2.354   4.954   2.832
 5352SOL    HW116955   2.342   4.988   2.926
 5352SOL    HW216956   2.451   4.958   2.808
 5353SOL     OW16957   3.707   5.381   4.480
 5353SOL    HW116958   3.708   5.326   4.396
 5353SOL    HW216959   3.693   5.322   4.559
 5354SOL     OW16960   2.481   4.273   1.032
 5354SOL    HW116961   2.494   4.357   1.083
 5354SOL    HW216962   2.393   4.233   1.056
 5355SOL     OW16963   5.721   4.907   4.492
 5355SOL    HW116964   5.661   4.984   4.470
 5355SOL    HW216965   5.765   4.923   4.580
 5356SOL     OW16966   6.224   3.641   2.224
 5356SOL    HW116967   6.126   3.631   2.205
 5356SOL    HW216968   6.257   3.560   2.274
 5357SOL     OW16969   2.887   5.803   0.697
 5357SOL    HW116970   2.834   5.776   0.778
 5357SOL    HW216971   2.984   5.791   0.715
 5358SOL     OW16972   4.278   1.690   0.301
 5358SOL    HW116973   4.188   1.731   0.313
 5358SOL    HW216974   4.274   1.620   0.230
 5359SOL     OW16975   2.518   1.226   6.026
 5359SOL    HW116976   2.544   1.146   6.080
 5359SOL    HW216977   2.451   1.280   6.076
 5360SOL     OW16978   3.425   6.260   3.284
 5360SOL    HW116979   3.501   6.314   3.247
 5360SOL    HW216980   3.393   6.301   3.369
 5361SOL     OW16981   2.342   0.250   4.606
 5361SOL    HW116982   2.427   0.205   4.576
 5361SOL    HW216983   2.278   0.182   4.640
 5362SOL     OW16984   6.346   6.452   2.338
 5362SOL    HW116985   6.379   6.515   2.408
 5362SOL    HW216986   6.246   6.445   2.344
 5363SOL     OW16987   6.439   6.401   5.741
 5363SOL    HW116988   6.346   6.437   5.748
 5363SOL    HW216989   6.499   6.454   5.801
 5364SOL     OW16990   6.225   0.085   2.139
 5364SOL    HW116991   6.183   0.132   2.061
 5364SOL    HW216992   6.258   0.153   2.205
 5365SOL     OW16993   3.674   3.356   1.595
 5365SOL    HW116994   3.726   3.313   1.669
 5365SOL    HW216995   3.736   3.408   1.536
 5366SOL     OW16996   5.977   6.252   1.173
 5366SOL    HW116997   6.004   6.348   1.185
 5366SOL    HW216998   5.929   6.221   1.255
 5367SOL     OW16999   0.076   0.078   1.648
 5367SOL    HW117000   0.064   7.002   1.638
 5367SOL    HW217001   0.161   0.096   1.698
 5368SOL     OW17002   5.677   0.235   2.764
 5368SOL    HW117003   5.775   0.232   2.745
 5368SOL    HW217004   5.632   0.156   2.724
 5369SOL     OW17005   2.609   6.497   0.845
 5369SOL    HW117006   2.679   6.550   0.797
 5369SOL    HW217007   2.582   6.418   0.790
 5370SOL     OW17008   5.040   3.375   0.740
 5370SOL    HW117009   5.113   3.310   0.721
 5370SOL    HW217010   4.953   3.326   0.750
 5371SOL     OW17011   0.777   4.370   5.586
 5371SOL    HW117012   0.714   4.361   5.663
 5371SOL    HW217013   0.865   4.327   5.609
 5372SOL     OW17014   1.231   5.884   2.645
 5372SOL    HW117015   1.255   5.966   2.593
 5372SOL    HW217016   1.138   5.856   2.623
 5373SOL     OW17017   4.018   6.507   5.320
 5373SOL    HW117018   4.118   6.502   5.316
 5373SOL    HW217019   3.983   6.537   5.231
 5374SOL     OW17020   2.301   4.194   0.429
 5374SOL    HW117021   2.396   4.182   0.399
 5374SOL    HW217022   2.297   4.192   0.528
 5375SOL     OW17023   0.566   6.205   4.841
 5375SOL    HW117024   0.525   6.290   4.873
 5375SOL    HW217025   0.494   6.139   4.818
 5376SOL     OW17026   1.246   2.288   1.329
 5376SOL    HW117027   1.318   2.323   1.269
 5376SOL    HW217028   1.263   2.191   1.349
 5377SOL     OW17029   0.517   0.165   2.007
 5377SOL    HW117030   0.580   0.095   2.043
 5377SOL    HW217031   0.423   0.130   2.011
 5378SOL     OW17032   6.637   6.868   2.667
 5378SOL    HW117033   6.611   6.786   2.616
 5378SOL    HW217034   6.693   6.927   2.610
 5379SOL     OW17035   0.915   3.801   4.930
 5379SOL    HW117036   0.924   3.900   4.920
 5379SOL    HW217037   0.850   3.766   4.862
 5380SOL     OW17038   3.545   0.044   2.249
 5380SOL    HW117039   3.463   0.046   2.305
 5380SOL    HW217040   3.613   0.108   2.287
 5381SOL     OW17041   6.888   5.506   2.260
 5381SOL    HW117042   6.804   5.491   2.208
 5381SOL    HW217043   6.870   5.573   2.333
 5382SOL     OW17044   2.785   1.644   2.158
 5382SOL    HW117045   2.733   1.579   2.102
 5382SOL    HW217046   2.722   1.711   2.198
 5383SOL     OW17047   1.571   2.637   4.733
 5383SOL    HW117048   1.664   2.661   4.704
 5383SOL    HW217049   1.518   2.610   4.653
 5384SOL     OW17050   5.605   0.635   5.373
 5384SOL    HW117051   5.590   0.723   5.327
 5384SOL    HW217052   5.516   0.595   5.398
 5385SOL     OW17053   3.837   3.666   4.929
 5385SOL    HW117054   3.843   3.601   5.005
 5385SOL    HW217055   3.850   3.618   4.842
 5386SOL     OW17056   4.511   1.332   3.890
 5386SOL    HW117057   4.529   1.325   3.988
 5386SOL    HW217058   4.419   1.368   3.875
 5387SOL     OW17059   2.061   6.924   3.126
 5387SOL    HW117060   2.016   6.883   3.205
 5387SOL    HW217061   2.122   6.998   3.157
 5388SOL     OW17062   0.996   1.022   2.937
 5388SOL    HW117063   1.026   1.091   3.002
 5388SOL    HW217064   0.907   1.048   2.899
 5389SOL     OW17065   3.740   1.337   3.291
 5389SOL    HW117066   3.740   1.370   3.385
 5389SOL    HW217067   3.683   1.397   3.234
 5390SOL     OW17068   4.955   3.955   3.972
 5390SOL    HW117069   4.930   3.876   3.915
 5390SOL    HW217070   5.005   3.923   4.053
 5391SOL     OW17071   2.209   1.566   0.621
 5391SOL    HW117072   2.135   1.632   0.620
 5391SOL    HW217073   2.175   1.477   0.653
 5392SOL     OW17074   6.033   3.547   0.894
 5392SOL    HW117075   6.108   3.505   0.945
 5392SOL    HW217076   6.036   3.516   0.799
 5393SOL     OW17077   5.153   0.698   5.344
 5393SOL    HW117078   5.164   0.610   5.297
 5393SOL    HW217079   5.070   0.743   5.311
 5394SOL     OW17080   0.262   5.589   1.168
 5394SOL    HW117081   0.267   5.537   1.083
 5394SOL    HW217082   0.193   5.661   1.159
 5395SOL     OW17083   4.877   0.800   0.934
 5395SOL    HW117084   4.911   0.893   0.920
 5395SOL    HW217085   4.952   0.735   0.924
 5396SOL     OW17086   5.554   4.749   1.189
 5396SOL    HW117087   5.592   4.657   1.201
 5396SOL    HW217088   5.456   4.743   1.172
 5397SOL     OW17089   0.201   2.580   1.435
 5397SOL    HW117090   0.137   2.639   1.485
 5397SOL    HW217091   0.200   2.605   1.338
 5398SOL     OW17092   2.951   2.177   3.812
 5398SOL    HW117093   2.906   2.187   3.902
 5398SOL    HW217094   2.931   2.086   3.775
 5399SOL     OW17095   2.584   6.419   6.952
 5399SOL    HW117096   2.645   6.438   0.006
 5399SOL    HW217097   2.574   6.320   6.941
 5400SOL     OW17098   3.257   3.505   6.662
 5400SOL    HW117099   3.263   3.585   6.603
 5400SOL    HW217100   3.168   3.461   6.651
 5401SOL     OW17101   6.086   4.591   2.681
 5401SOL    HW117102   6.162   4.585   2.616
 5401SOL    HW217103   6.026   4.512   2.669
 5402SOL     OW17104   2.396   5.750   1.559
 5402SOL    HW117105   2.465   5.735   1.488
 5402SOL    HW217106   2.353   5.839   1.545
 5403SOL     OW17107   5.040   3.642   6.171
 5403SOL    HW117108   5.120   3.695   6.201
 5403SOL    HW217109   5.067   3.580   6.098
 5404SOL     OW17110   0.836   0.652   2.155
 5404SOL    HW117111   0.785   0.735   2.180
 5404SOL    HW217112   0.772   0.577   2.139
 5405SOL     OW17113   5.364   5.623   0.164
 5405SOL    HW117114   5.390   5.717   0.139
 5405SOL    HW217115   5.336   5.573   0.082
 5406SOL     OW17116   1.551   0.420   5.377
 5406SOL    HW117117   1.454   0.436   5.358
 5406SOL    HW217118   1.574   0.455   5.468
 5407SOL     OW17119   3.119   1.766   0.931
 5407SOL    HW117120   3.114   1.825   0.850
 5407SOL    HW217121   3.212   1.771   0.969
 5408SOL     OW17122   4.093   0.264   5.359
 5408SOL    HW117123   4.090   0.187   5.423
 5408SOL    HW217124   4.146   0.237   5.278
 5409SOL     OW17125   6.602   1.502   3.258
 5409SOL    HW117126   6.507   1.506   3.229
 5409SOL    HW217127   6.657   1.564   3.201
 5410SOL     OW17128   1.208   2.435   6.430
 5410SOL    HW117129   1.208   2.532   6.454
 5410SOL    HW217130   1.296   2.394   6.456
 5411SOL     OW17131   5.844   5.686   5.787
 5411SOL    HW117132   5.908   5.695   5.710
 5411SOL    HW217133   5.755   5.723   5.762
 5412SOL     OW17134   3.596   1.416   6.955
 5412SOL    HW117135   3.537   1.399   0.012
 5412SOL    HW217136   3.687   1.376   6.973
 5413SOL     OW17137   6.807   0.800   0.493
 5413SOL    HW117138   6.839   0.816   0.586
 5413SOL    HW217139   6.878   0.826   0.428
 5414SOL     OW17140   6.106   4.333   4.742
 5414SOL    HW117141   6.089   4.251   4.797
 5414SOL    HW217142   6.020   4.366   4.704
 5415SOL     OW17143   1.569   6.466   1.982
 5415SOL    HW117144   1.667   6.464   1.999
 5415SOL    HW217145   1.551   6.507   1.893
 5416SOL     OW17146   3.152   4.977   5.721
 5416SOL    HW117147   3.121   5.051   5.661
 5416SOL    HW217148   3.102   4.982   5.808
 5417SOL     OW17149   4.304   6.415   5.019
 5417SOL    HW117150   4.268   6.322   5.016
 5417SOL    HW217151   4.240   6.477   4.974
 5418SOL     OW17152   5.164   0.164   4.512
 5418SOL    HW117153   5.200   0.077   4.545
 5418SOL    HW217154   5.176   0.170   4.412
 5419SOL     OW17155   3.441   5.269   0.334
 5419SOL    HW117156   3.401   5.333   0.399
 5419SOL    HW217157   3.473   5.187   0.383
 5420SOL     OW17158   2.142   2.286   1.260
 5420SOL    HW117159   2.174   2.378   1.239
 5420SOL    HW217160   2.219   2.223   1.264
 5421SOL     OW17161   2.793   5.205   3.123
 5421SOL    HW117162   2.829   5.152   3.199
 5421SOL    HW217163   2.694   5.214   3.132
 5422SOL     OW17164   0.454   5.370   4.215
 5422SOL    HW117165   0.467   5.290   4.273
 5422SOL    HW217166   0.462   5.343   4.119
 5423SOL     OW17167   5.832   4.449   0.461
 5423SOL    HW117168   5.891   4.525   0.491
 5423SOL    HW217169   5.888   4.381   0.413
 5424SOL     OW17170   5.729   3.730   4.507
 5424SOL    HW117171   5.718   3.694   4.415
 5424SOL    HW217172   5.774   3.819   4.503
 5425SOL     OW17173   5.118   2.346   4.423
 5425SOL    HW117174   5.090   2.297   4.506
 5425SOL    HW217175   5.170   2.284   4.364
 5426SOL     OW17176   6.051   5.855   2.856
 5426SOL    HW117177   6.088   5.939   2.896
 5426SOL    HW217178   6.099   5.776   2.892
 5427SOL     OW17179   5.476   4.002   0.603
 5427SOL    HW117180   5.479   3.905   0.626
 5427SOL    HW217181   5.405   4.018   0.534
 5428SOL     OW17182   5.900   6.747   2.486
 5428SOL    HW117183   5.931   6.676   2.550
 5428SOL    HW217184   5.916   6.716   2.392
 5429SOL     OW17185   2.310   0.874   6.200
 5429SOL    HW117186   2.356   0.790   6.169
 5429SOL    HW217187   2.296   0.870   6.298
 5430SOL     OW17188   2.359   2.388   6.019
 5430SOL    HW117189   2.427   2.316   6.034
 5430SOL    HW217190   2.367   2.457   6.091
 5431SOL     OW17191   3.386   3.999   6.522
 5431SOL    HW117192   3.393   3.899   6.529
 5431SOL    HW217193   3.290   4.026   6.515
 5432SOL     OW17194   3.395   5.165   6.576
 5432SOL    HW117195   3.346   5.224   6.512
 5432SOL    HW217196   3.355   5.175   6.667
 5433SOL     OW17197   0.603   0.641   2.712
 5433SOL    HW117198   0.537   0.714   2.693
 5433SOL    HW217199   0.667   0.634   2.635
 5434SOL     OW17200   3.957   0.924   4.474
 5434SOL    HW117201   4.038   0.909   4.530
 5434SOL    HW217202   3.908   1.005   4.506
 5435SOL     OW17203   5.901   2.588   1.024
 5435SOL    HW117204   5.897   2.659   1.094
 5435SOL    HW217205   5.985   2.535   1.033
 5436SOL     OW17206   5.969   4.407   3.922
 5436SOL    HW117207   6.021   4.477   3.874
 5436SOL    HW217208   6.006   4.395   4.015
 5437SOL     OW17209   2.817   5.638   5.526
 5437SOL    HW117210   2.864   5.694   5.594
 5437SOL    HW217211   2.785   5.696   5.451
 5438SOL     OW17212   6.263   3.184   1.861
 5438SOL    HW117213   6.234   3.108   1.919
 5438SOL    HW217214   6.363   3.189   1.860
 5439SOL     OW17215   0.365   2.250   0.220
 5439SOL    HW117216   0.408   2.333   0.184
 5439SOL    HW217217   0.300   2.214   0.153
 5440SOL     OW17218   6.621   6.834   3.608
 5440SOL    HW117219   6.556   6.876   3.671
 5440SOL    HW217220   6.616   6.879   3.519
 5441SOL     OW17221   4.891   2.678   3.421
 5441SOL    HW117222   4.921   2.689   3.515
 5441SOL    HW217223   4.928   2.593   3.383
 5442SOL     OW17224   3.925   6.893   2.715
 5442SOL    HW117225   3.985   6.940   2.651
 5442SOL    HW217226   3.931   6.938   2.804
 5443SOL     OW17227   3.711   5.578   3.623
 5443SOL    HW117228   3.667   5.556   3.537
 5443SOL    HW217229   3.804   5.611   3.605
 5444SOL     OW17230   0.506   0.433   3.479
 5444SOL    HW117231   0.552   0.473   3.400
 5444SOL    HW217232   0.408   0.452   3.474
 5445SOL     OW17233   6.347   3.735   4.074
 5445SOL    HW117234   6.409   3.721   4.152
 5445SOL    HW217235   6.295   3.819   4.088
 5446SOL     OW17236   5.739   5.328   4.881
 5446SOL    HW117237   5.717   5.365   4.971
 5446SOL    HW217238   5.680   5.250   4.862
 5447SOL     OW17239   1.446   1.774   0.833
 5447SOL    HW117240   1.542   1.801   0.838
 5447SOL    HW217241   1.390   1.838   0.885
 5448SOL     OW17242   5.428   4.916   4.245
 5448SOL    HW117243   5.474   4.968   4.174
 5448SOL    HW217244   5.463   4.943   4.335
 5449SOL     OW17245   1.799   1.459   1.287
 5449SOL    HW117246   1.766   1.390   1.222
 5449SOL    HW217247   1.846   1.532   1.238
 5450SOL     OW17248   2.860   0.069   0.840
 5450SOL    HW117249   2.828   0.156   0.801
 5450SOL    HW217250   2.823   0.059   0.933
 5451SOL     OW17251   2.450   6.475   3.532
 5451SOL    HW117252   2.424   6.404   3.466
 5451SOL    HW217253   2.499   6.548   3.484
 5452SOL     OW17254   2.491   4.124   6.828
 5452SOL    HW117255   2.393   4.139   6.844
 5452SOL    HW217256   2.503   4.041   6.774
 5453SOL     OW17257   5.077   4.223   2.502
 5453SOL    HW117258   4.999   4.284   2.513
 5453SOL    HW217259   5.160   4.276   2.486
 5454SOL     OW17260   4.846   5.967   6.970
 5454SOL    HW117261   4.876   6.048   6.919
 5454SOL    HW217262   4.748   5.953   6.956
 5455SOL     OW17263   0.385   2.783   3.048
 5455SOL    HW117264   0.445   2.848   3.095
 5455SOL    HW217265   0.291   2.816   3.052
 5456SOL     OW17266   3.211   0.109   6.947
 5456SOL    HW117267   3.168   0.183   7.000
 5456SOL    HW217268   3.255   0.045   7.009
 5457SOL     OW17269   6.287   1.976   1.364
 5457SOL    HW117270   6.226   2.053   1.379
 5457SOL    HW217271   6.322   1.979   1.270
 5458SOL     OW17272   0.490   5.091   0.157
 5458SOL    HW117273   0.400   5.069   0.119
 5458SOL    HW217274   0.542   5.144   0.090
 5459SOL     OW17275   3.030   3.983   5.878
 5459SOL    HW117276   2.964   4.058   5.887
 5459SOL    HW217277   2.992   3.900   5.920
 5460SOL     OW17278   3.482   6.693   3.086
 5460SOL    HW117279   3.508   6.632   3.012
 5460SOL    HW217280   3.398   6.659   3.129
 5461SOL     OW17281   0.534   0.687   4.872
 5461SOL    HW117282   0.553   0.667   4.777
 5461SOL    HW217283   0.437   0.670   4.891
 5462SOL     OW17284   5.559   6.363   6.944
 5462SOL    HW117285   5.499   6.314   7.007
 5462SOL    HW217286   5.585   6.302   6.869
 5463SOL     OW17287   0.504   1.522   0.027
 5463SOL    HW117288   0.558   1.472   0.095
 5463SOL    HW217289   0.517   1.620   0.040
 5464SOL     OW17290   6.209   0.200   4.788
 5464SOL    HW117291   6.223   0.278   4.726
 5464SOL    HW217292   6.297   0.165   4.819
 5465SOL     OW17293   5.098   1.074   4.439
 5465SOL    HW117294   5.185   1.085   4.487
 5465SOL    HW217295   5.052   0.991   4.471
 5466SOL     OW17296   5.113   3.132   5.621
 5466SOL    HW117297   5.041   3.201   5.615
 5466SOL    HW217298   5.082   3.048   5.576
 5467SOL     OW17299   5.303   3.668   4.016
 5467SOL    HW117300   5.229   3.603   4.032
 5467SOL    HW217301   5.390   3.619   4.012
 5468SOL     OW17302   6.496   2.063   4.651
 5468SOL    HW117303   6.588   2.096   4.630
 5468SOL    HW217304   6.442   2.060   4.567
 5469SOL     OW17305   3.260   6.393   5.547
 5469SOL    HW117306   3.220   6.439   5.468
 5469SOL    HW217307   3.234   6.440   5.631
 5470SOL     OW17308   3.577   5.573   3.401
 5470SOL    HW117309   3.492   5.522   3.386
 5470SOL    HW217310   3.557   5.660   3.445
 5471SOL     OW17311   6.558   0.587   3.522
 5471SOL    HW117312   6.573   0.643   3.440
 5471SOL    HW217313   6.461   0.563   3.529
 5472SOL     OW17314   2.874   3.635   6.100
 5472SOL    HW117315   2.848   3.723   6.061
 5472SOL    HW217316   2.964   3.609   6.066
 5473SOL     OW17317   1.256   3.462   1.872
 5473SOL    HW117318   1.297   3.530   1.933
 5473SOL    HW217319   1.212   3.507   1.795
 5474SOL     OW17320   1.162   4.337   4.545
 5474SOL    HW117321   1.133   4.265   4.607
 5474SOL    HW217322   1.201   4.296   4.462
 5475SOL     OW17323   1.813   2.362   1.130
 5475SOL    HW117324   1.794   2.399   1.221
 5475SOL    HW217325   1.842   2.437   1.070
 5476SOL     OW17326   2.301   4.668   5.168
 5476SOL    HW117327   2.273   4.573   5.150
 5476SOL    HW217328   2.336   4.676   5.261
 5477SOL     OW17329   2.209   4.169   2.370
 5477SOL    HW117330   2.243   4.110   2.296
 5477SOL    HW217331   2.284   4.224   2.405
 5478SOL     OW17332   3.246   6.766   5.137
 5478SOL    HW117333   3.329   6.789   5.188
 5478SOL    HW217334   3.191   6.849   5.126
 5479SOL     OW17335   5.999   1.897   5.774
 5479SOL    HW117336   5.931   1.851   5.831
 5479SOL    HW217337   5.958   1.923   5.687
 5480SOL     OW17338   5.824   5.981   4.065
 5480SOL    HW117339   5.736   6.026   4.074
 5480SOL    HW217340   5.811   5.882   4.056
 5481SOL     OW17341   4.663   1.038   4.424
 5481SOL    HW117342   4.567   1.010   4.422
 5481SOL    HW217343   4.668   1.135   4.449
 5482SOL     OW17344   3.656   4.207   1.439
 5482SOL    HW117345   3.742   4.253   1.415
 5482SOL    HW217346   3.630   4.145   1.365
 5483SOL     OW17347   6.807   2.622   5.148
 5483SOL    HW117348   6.903   2.599   5.167
 5483SOL    HW217349   6.775   2.691   5.213
 5484SOL     OW17350   4.398   0.770   3.378
 5484SOL    HW117351   4.453   0.826   3.316
 5484SOL    HW217352   4.424   0.674   3.369
 5485SOL     OW17353   4.103   0.127   4.797
 5485SOL    HW117354   4.008   0.154   4.782
 5485SOL    HW217355   4.106   0.035   4.836
 5486SOL     OW17356   1.998   5.761   5.070
 5486SOL    HW117357   1.915   5.781   5.017
 5486SOL    HW217358   2.069   5.725   5.009
 5487SOL     OW17359   5.485   3.283   6.656
 5487SOL    HW117360   5.557   3.215   6.640
 5487SOL    HW217361   5.427   3.289   6.575
 5488SOL     OW17362   6.016   0.581   0.912
 5488SOL    HW117363   5.953   0.516   0.871
 5488SOL    HW217364   5.990   0.598   1.007
 5489SOL     OW17365   0.858   4.024   1.436
 5489SOL    HW117366   0.933   3.960   1.453
 5489SOL    HW217367   0.849   4.086   1.514
 5490SOL     OW17368   2.789   0.026   1.100
 5490SOL    HW117369   2.859   0.069   1.157
 5490SOL    HW217370   2.700   0.067   1.120
 5491SOL     OW17371   1.754   4.202   0.975
 5491SOL    HW117372   1.788   4.242   1.060
 5491SOL    HW217373   1.722   4.275   0.914
 5492SOL     OW17374   0.032   2.902   5.889
 5492SOL    HW117375   0.085   2.922   5.971
 5492SOL    HW217376   6.966   2.948   5.894
 5493SOL     OW17377   3.889   3.804   3.906
 5493SOL    HW117378   3.882   3.902   3.926
 5493SOL    HW217379   3.826   3.781   3.832
 5494SOL     OW17380   6.419   2.982   6.402
 5494SOL    HW117381   6.457   3.006   6.492
 5494SOL    HW217382   6.330   3.027   6.392
 5495SOL     OW17383   3.177   1.777   0.520
 5495SOL    HW117384   3.079   1.758   0.523
 5495SOL    HW217385   3.202   1.835   0.597
 5496SOL     OW17386   3.711   0.516   3.471
 5496SOL    HW117387   3.671   0.435   3.429
 5496SOL    HW217388   3.796   0.492   3.517
 5497SOL     OW17389   0.307   2.239   4.306
 5497SOL    HW117390   0.314   2.156   4.250
 5497SOL    HW217391   0.277   2.215   4.398
 5498SOL     OW17392   6.460   6.131   1.226
 5498SOL    HW117393   6.433   6.217   1.271
 5498SOL    HW217394   6.383   6.068   1.226
 5499SOL     OW17395   0.594   0.357   4.869
 5499SOL    HW117396   0.529   0.389   4.801
 5499SOL    HW217397   0.601   0.424   4.942
 5500SOL     OW17398   0.838   0.383   0.350
 5500SOL    HW117399   0.804   0.451   0.285
 5500SOL    HW217400   0.771   0.369   0.422
 5501SOL     OW17401   3.685   0.274   0.301
 5501SOL    HW117402   3.752   0.345   0.281
 5501SOL    HW217403   3.594   0.314   0.306
 5502SOL     OW17404   5.419   3.328   0.274
 5502SOL    HW117405   5.404   3.386   0.194
 5502SOL    HW217406   5.339   3.269   0.288
 5503SOL     OW17407   0.578   5.260   1.944
 5503SOL    HW117408   0.663   5.236   1.989
 5503SOL    HW217409   0.539   5.179   1.901
 5504SOL     OW17410   3.724   1.393   4.831
 5504SOL    HW117411   3.785   1.361   4.903
 5504SOL    HW217412   3.777   1.418   4.751
 5505SOL     OW17413   1.855   5.076   4.491
 5505SOL    HW117414   1.935   5.070   4.551
 5505SOL    HW217415   1.877   5.038   4.402
 5506SOL     OW17416   1.449   2.339   6.488
 5506SOL    HW117417   1.506   2.268   6.447
 5506SOL    HW217418   1.452   2.330   6.588
 5507SOL     OW17419   3.811   1.141   4.272
 5507SOL    HW117420   3.889   1.197   4.244
 5507SOL    HW217421   3.820   1.049   4.236
 5508SOL     OW17422   1.877   0.819   6.564
 5508SOL    HW117423   1.778   0.824   6.575
 5508SOL    HW217424   1.914   0.754   6.629
 5509SOL     OW17425   6.744   6.548   6.769
 5509SOL    HW117426   6.724   6.582   6.861
 5509SOL    HW217427   6.749   6.625   6.705
 5510SOL     OW17428   4.814   5.220   0.494
 5510SOL    HW117429   4.879   5.287   0.531
 5510SOL    HW217430   4.752   5.265   0.430
 5511SOL     OW17431   2.017   1.489   4.308
 5511SOL    HW117432   2.078   1.437   4.247
 5511SOL    HW217433   2.072   1.544   4.371
 5512SOL     OW17434   5.465   2.493   1.708
 5512SOL    HW117435   5.509   2.428   1.645
 5512SOL    HW217436   5.522   2.503   1.789
 5513SOL     OW17437   4.341   4.789   6.692
 5513SOL    HW117438   4.266   4.772   6.628
 5513SOL    HW217439   4.361   4.887   6.694
 5514SOL     OW17440   4.276   6.635   4.235
 5514SOL    HW117441   4.359   6.687   4.216
 5514SOL    HW217442   4.253   6.578   4.155
 5515SOL     OW17443   0.653   5.845   1.831
 5515SOL    HW117444   0.618   5.812   1.743
 5515SOL    HW217445   0.746   5.812   1.845
 5516SOL     OW17446   1.950   4.383   6.450
 5516SOL    HW117447   1.983   4.352   6.360
 5516SOL    HW217448   2.027   4.413   6.505
 5517SOL     OW17449   2.079   3.264   1.840
 5517SOL    HW117450   2.125   3.345   1.878
 5517SOL    HW217451   1.997   3.245   1.893
 5518SOL     OW17452   5.958   6.337   6.599
 5518SOL    HW117453   6.013   6.264   6.640
 5518SOL    HW217454   5.900   6.379   6.669
 5519SOL     OW17455   5.687   3.762   3.708
 5519SOL    HW117456   5.755   3.836   3.706
 5519SOL    HW217457   5.712   3.696   3.779
 5520SOL     OW17458   6.044   6.126   2.545
 5520SOL    HW117459   6.110   6.099   2.614
 5520SOL    HW217460   6.081   6.107   2.454
 5521SOL     OW17461   5.357   6.028   1.860
 5521SOL    HW117462   5.432   5.996   1.917
 5521SOL    HW217463   5.275   6.042   1.917
 5522SOL     OW17464   0.280   5.271   0.332
 5522SOL    HW117465   0.258   5.183   0.289
 5522SOL    HW217466   0.309   5.336   0.262
 5523SOL     OW17467   3.959   0.783   1.989
 5523SOL    HW117468   3.975   0.750   1.896
 5523SOL    HW217469   4.047   0.803   2.033
 5524SOL     OW17470   5.590   0.193   4.863
 5524SOL    HW117471   5.688   0.203   4.882
 5524SOL    HW217472   5.540   0.191   4.949
 5525SOL     OW17473   0.235   2.047   0.947
 5525SOL    HW117474   0.321   2.006   0.979
 5525SOL    HW217475   0.207   2.002   0.862
 5526SOL     OW17476   4.778   5.283   3.389
 5526SOL    HW117477   4.751   5.331   3.305
 5526SOL    HW217478   4.752   5.187   3.382
 5527SOL     OW17479   5.130   3.491   3.918
 5527SOL    HW117480   5.153   3.508   3.822
 5527SOL    HW217481   5.100   3.396   3.929
 5528SOL     OW17482   1.373   1.138   6.577
 5528SOL    HW117483   1.354   1.041   6.592
 5528SOL    HW217484   1.472   1.151   6.565
 5529SOL     OW17485   3.132   0.309   3.475
 5529SOL    HW117486   3.118   0.332   3.379
 5529SOL    HW217487   3.217   0.350   3.508
 5530SOL     OW17488   5.737   2.237   1.877
 5530SOL    HW117489   5.673   2.161   1.864
 5530SOL    HW217490   5.706   2.316   1.824
 5531SOL     OW17491   3.196   3.516   2.237
 5531SOL    HW117492   3.161   3.424   2.223
 5531SOL    HW217493   3.241   3.522   2.326
 5532SOL     OW17494   1.743   2.914   0.605
 5532SOL    HW117495   1.827   2.913   0.660
 5532SOL    HW217496   1.675   2.853   0.647
 5533SOL     OW17497   3.613   1.532   3.140
 5533SOL    HW117498   3.515   1.523   3.122
 5533SOL    HW217499   3.639   1.628   3.132
 5534SOL     OW17500   0.362   1.155   6.235
 5534SOL    HW117501   0.304   1.170   6.315
 5534SOL    HW217502   0.407   1.240   6.209
 5535SOL     OW17503   6.900   2.782   3.163
 5535SOL    HW117504   6.945   2.712   3.107
 5535SOL    HW217505   6.845   2.738   3.234
 5536SOL     OW17506   3.279   1.184   4.090
 5536SOL    HW117507   3.216   1.261   4.103
 5536SOL    HW217508   3.343   1.180   4.167
 5537SOL     OW17509   3.201   0.413   2.479
 5537SOL    HW117510   3.188   0.512   2.470
 5537SOL    HW217511   3.113   0.369   2.496
 5538SOL     OW17512   2.574   6.203   5.884
 5538SOL    HW117513   2.485   6.193   5.839
 5538SOL    HW217514   2.618   6.287   5.852
 5539SOL     OW17515   1.425   3.092   1.294
 5539SOL    HW117516   1.343   3.056   1.249
 5539SOL    HW217517   1.399   3.155   1.367
 5540SOL     OW17518   5.115   4.395   3.939
 5540SOL    HW117519   5.173   4.400   4.020
 5540SOL    HW217520   5.053   4.317   3.948
 5541SOL     OW17521   6.138   0.083   6.058
 5541SOL    HW117522   6.090   0.170   6.048
 5541SOL    HW217523   6.109   0.039   6.143
 5542SOL     OW17524   5.501   4.151   6.173
 5542SOL    HW117525   5.538   4.094   6.099
 5542SOL    HW217526   5.406   4.124   6.191
 5543SOL     OW17527   3.934   4.919   5.491
 5543SOL    HW117528   3.969   4.976   5.565
 5543SOL    HW217529   3.876   4.974   5.431
 5544SOL     OW17530   4.927   5.909   6.309
 5544SOL    HW117531   4.942   5.980   6.377
 5544SOL    HW217532   4.845   5.930   6.256
 5545SOL     OW17533   3.664   1.174   1.515
 5545SOL    HW117534   3.747   1.220   1.547
 5545SOL    HW217535   3.644   1.096   1.574
 5546SOL     OW17536   0.813   4.977   4.732
 5546SOL    HW117537   0.817   4.917   4.653
 5546SOL    HW217538   0.872   5.057   4.716
 5547SOL     OW17539   2.176   0.020   5.169
 5547SOL    HW117540   2.222   0.109   5.160
 5547SOL    HW217541   2.204   6.999   5.254
 5548SOL     OW17542   5.388   3.033   5.278
 5548SOL    HW117543   5.378   3.129   5.304
 5548SOL    HW217544   5.388   2.976   5.360
 5549SOL     OW17545   4.409   3.972   6.377
 5549SOL    HW117546   4.377   4.035   6.307
 5549SOL    HW217547   4.379   3.879   6.355
 5550SOL     OW17548   2.424   4.803   1.758
 5550SOL    HW117549   2.492   4.763   1.820
 5550SOL    HW217550   2.344   4.831   1.810
 5551SOL     OW17551   2.487   0.662   3.482
 5551SOL    HW117552   2.403   0.633   3.528
 5551SOL    HW217553   2.464   0.712   3.399
 5552SOL     OW17554   6.808   0.595   0.151
 5552SOL    HW117555   6.824   0.543   0.235
 5552SOL    HW217556   6.895   0.607   0.103
 5553SOL     OW17557   4.891   6.764   6.968
 5553SOL    HW117558   4.812   6.825   6.980
 5553SOL    HW217559   4.863   6.684   6.916
 5554SOL     OW17560   3.952   1.544   5.354
 5554SOL    HW117561   3.900   1.520   5.272
 5554SOL    HW217562   3.926   1.636   5.384
 5555SOL     OW17563   1.496   4.533   4.637
 5555SOL    HW117564   1.418   4.547   4.577
 5555SOL    HW217565   1.523   4.437   4.635
 5556SOL     OW17566   7.015   2.176   3.852
 5556SOL    HW117567   6.995   2.151   3.757
 5556SOL    HW217568   6.934   2.162   3.908
 5557SOL     OW17569   3.497   6.503   2.839
 5557SOL    HW117570   3.579   6.554   2.813
 5557SOL    HW217571   3.505   6.409   2.808
 5558SOL     OW17572   5.250   3.323   6.484
 5558SOL    HW117573   5.258   3.422   6.495
 5558SOL    HW217574   5.177   3.289   6.545
 5559SOL     OW17575   3.235   6.877   2.096
 5559SOL    HW117576   3.206   6.943   2.027
 5559SOL    HW217577   3.154   6.836   2.139
 5560SOL     OW17578   0.862   6.745   3.411
 5560SOL    HW117579   0.922   6.789   3.345
 5560SOL    HW217580   0.914   6.682   3.467
 5561SOL     OW17581   2.002   2.854   4.179
 5561SOL    HW117582   1.987   2.829   4.083
 5561SOL    HW217583   2.059   2.785   4.223
 5562SOL     OW17584   2.929   2.556   6.710
 5562SOL    HW117585   2.965   2.473   6.667
 5562SOL    HW217586   2.996   2.591   6.776
 5563SOL     OW17587   4.663   6.036   2.663
 5563SOL    HW117588   4.717   6.028   2.579
 5563SOL    HW217589   4.588   5.970   2.660
 5564SOL     OW17590   4.592   1.417   1.521
 5564SOL    HW117591   4.606   1.466   1.607
 5564SOL    HW217592   4.644   1.461   1.448
 5565SOL     OW17593   5.005   1.580   6.857
 5565SOL    HW117594   4.934   1.530   6.906
 5565SOL    HW217595   4.964   1.659   6.810
 5566SOL     OW17596   1.697   5.612   0.724
 5566SOL    HW117597   1.766   5.671   0.682
 5566SOL    HW217598   1.609   5.625   0.677
 5567SOL     OW17599   0.392   4.658   1.969
 5567SOL    HW117600   0.370   4.755   1.968
 5567SOL    HW217601   0.323   4.607   2.020
 5568SOL     OW17602   4.631   2.222   2.972
 5568SOL    HW117603   4.577   2.302   2.999
 5568SOL    HW217604   4.572   2.157   2.924
 5569SOL     OW17605   2.632   1.061   1.592
 5569SOL    HW117606   2.572   1.126   1.639
 5569SOL    HW217607   2.709   1.109   1.551
 5570SOL     OW17608   5.545   5.156   5.022
 5570SOL    HW117609   5.493   5.234   5.057
 5570SOL    HW217610   5.608   5.123   5.092
 5571SOL     OW17611   0.377   6.566   0.085
 5571SOL    HW117612   0.293   6.513   0.081
 5571SOL    HW217613   0.370   6.634   0.158
 5572SOL     OW17614   1.795   2.803   4.949
 5572SOL    HW117615   1.720   2.869   4.945
 5572SOL    HW217616   1.872   2.838   4.894
 5573SOL     OW17617   1.998   3.324   6.938
 5573SOL    HW117618   1.929   3.321   7.009
 5573SOL    HW217619   2.044   3.413   6.938
 5574SOL     OW17620   6.290   1.559   3.969
 5574SOL    HW117621   6.387   1.567   3.947
 5574SOL    HW217622   6.280   1.532   4.065
 5575SOL     OW17623   0.320   1.393   1.967
 5575SOL    HW117624   0.336   1.358   1.874
 5575SOL    HW217625   0.221   1.400   1.982
 5576SOL     OW17626   0.703   6.369   1.629
 5576SOL    HW117627   0.735   6.288   1.678
 5576SOL    HW217628   0.653   6.429   1.691
 5577SOL     OW17629   2.916   2.381   6.313
 5577SOL    HW117630   2.872   2.399   6.401
 5577SOL    HW217631   2.849   2.387   6.240
 5578SOL     OW17632   4.236   3.768   0.330
 5578SOL    HW117633   4.300   3.808   0.395
 5578SOL    HW217634   4.281   3.757   0.241
 5579SOL     OW17635   6.542   3.772   6.251
 5579SOL    HW117636   6.520   3.825   6.169
 5579SOL    HW217637   6.597   3.828   6.312
 5580SOL     OW17638   4.697   1.830   6.030
 5580SOL    HW117639   4.704   1.893   5.953
 5580SOL    HW217640   4.679   1.881   6.114
 5581SOL     OW17641   2.230   6.606   1.662
 5581SOL    HW117642   2.289   6.603   1.581
 5581SOL    HW217643   2.244   6.692   1.711
 5582SOL     OW17644   3.867   3.418   3.352
 5582SOL    HW117645   3.853   3.492   3.418
 5582SOL    HW217646   3.835   3.447   3.262
 5583SOL     OW17647   4.421   0.127   2.642
 5583SOL    HW117648   4.405   0.152   2.546
 5583SOL    HW217649   4.449   0.208   2.693
 5584SOL     OW17650   5.517   3.764   4.913
 5584SOL    HW117651   5.561   3.810   4.836
 5584SOL    HW217652   5.578   3.764   4.992
 5585SOL     OW17653   4.554   0.047   4.107
 5585SOL    HW117654   4.532   0.108   4.031
 5585SOL    HW217655   4.653   0.039   4.116
 5586SOL     OW17656   1.064   2.223   6.233
 5586SOL    HW117657   1.097   2.140   6.277
 5586SOL    HW217658   1.105   2.303   6.276
 5587SOL     OW17659   4.638   6.323   2.436
 5587SOL    HW117660   4.678   6.306   2.346
 5587SOL    HW217661   4.665   6.415   2.466
 5588SOL     OW17662   1.125   6.624   3.490
 5588SOL    HW117663   1.205   6.629   3.550
 5588SOL    HW217664   1.149   6.657   3.399
 5589SOL     OW17665   6.011   3.008   6.687
 5589SOL    HW117666   5.987   2.972   6.777
 5589SOL    HW217667   6.020   2.932   6.622
 5590SOL     OW17668   0.348   5.699   2.984
 5590SOL    HW117669   0.380   5.669   3.074
 5590SOL    HW217670   0.422   5.745   2.936
 5591SOL     OW17671   6.120   1.294   6.620
 5591SOL    HW117672   6.039   1.295   6.560
 5591SOL    HW217673   6.136   1.386   6.655
 5592SOL     OW17674   2.055   4.470   2.903
 5592SOL    HW117675   2.024   4.377   2.923
 5592SOL    HW217676   2.061   4.523   2.988
 5593SOL     OW17677   6.754   2.158   6.082
 5593SOL    HW117678   6.801   2.095   6.143
 5593SOL    HW217679   6.655   2.145   6.090
 5594SOL     OW17680   2.597   1.460   6.668
 5594SOL    HW117681   2.543   1.398   6.725
 5594SOL    HW217682   2.567   1.554   6.683
 5595SOL     OW17683   6.342   0.887   5.033
 5595SOL    HW117684   6.436   0.868   5.058
 5595SOL    HW217685   6.314   0.976   5.070
 5596SOL     OW17686   5.083   0.574   2.196
 5596SOL    HW117687   5.061   0.660   2.150
 5596SOL    HW217688   5.000   0.535   2.235
 5597SOL     OW17689   5.429   2.194   4.973
 5597SOL    HW117690   5.527   2.191   4.953
 5597SOL    HW217691   5.406   2.122   5.039
 5598SOL     OW17692   5.052   2.262   3.715
 5598SOL    HW117693   5.013   2.285   3.804
 5598SOL    HW217694   4.987   2.286   3.643
 5599SOL     OW17695   6.627   3.305   2.122
 5599SOL    HW117696   6.583   3.369   2.184
 5599SOL    HW217697   6.658   3.225   2.173
 5600SOL     OW17698   1.871   0.175   2.475
 5600SOL    HW117699   1.873   0.179   2.575
 5600SOL    HW217700   1.777   0.180   2.443
 5601SOL     OW17701   4.270   1.956   6.276
 5601SOL    HW117702   4.257   2.055   6.285
 5601SOL    HW217703   4.245   1.911   6.362
 5602SOL     OW17704   0.359   0.781   2.787
 5602SOL    HW117705   0.304   0.710   2.831
 5602SOL    HW217706   0.341   0.781   2.688
 5603SOL     OW17707   5.108   2.403   5.379
 5603SOL    HW117708   5.015   2.439   5.370
 5603SOL    HW217709   5.157   2.414   5.293
 5604SOL     OW17710   0.589   2.124   4.672
 5604SOL    HW117711   0.535   2.056   4.624
 5604SOL    HW217712   0.535   2.207   4.686
 5605SOL     OW17713   1.774   6.522   4.726
 5605SOL    HW117714   1.736   6.438   4.689
 5605SOL    HW217715   1.865   6.504   4.764
 5606SOL     OW17716   4.108   0.565   0.376
 5606SOL    HW117717   4.152   0.528   0.294
 5606SOL    HW217718   4.176   0.576   0.448
 5607SOL     OW17719   5.188   2.084   3.892
 5607SOL    HW117720   5.140   2.142   3.827
 5607SOL    HW217721   5.281   2.119   3.905
 5608SOL     OW17722   5.897   1.342   3.294
 5608SOL    HW117723   5.900   1.300   3.385
 5608SOL    HW217724   5.918   1.273   3.225
 5609SOL     OW17725   4.945   5.602   0.259
 5609SOL    HW117726   4.877   5.529   0.250
 5609SOL    HW217727   4.904   5.688   0.230
 5610SOL     OW17728   6.163   3.821   1.587
 5610SOL    HW117729   6.097   3.858   1.523
 5610SOL    HW217730   6.254   3.854   1.565
 5611SOL     OW17731   0.741   5.557   2.201
 5611SOL    HW117732   0.783   5.541   2.111
 5611SOL    HW217733   0.654   5.507   2.205
 5612SOL     OW17734   3.183   2.796   0.708
 5612SOL    HW117735   3.262   2.765   0.761
 5612SOL    HW217736   3.206   2.797   0.611
 5613SOL     OW17737   6.764   4.851   5.491
 5613SOL    HW117738   6.739   4.864   5.587
 5613SOL    HW217739   6.724   4.765   5.457
 5614SOL     OW17740   5.582   2.955   5.115
 5614SOL    HW117741   5.531   3.004   5.186
 5614SOL    HW217742   5.671   3.000   5.102
 5615SOL     OW17743   7.000   1.242   3.205
 5615SOL    HW117744   7.007   1.340   3.222
 5615SOL    HW217745   0.064   1.209   3.166
 5616SOL     OW17746   2.331   2.722   4.912
 5616SOL    HW117747   2.403   2.663   4.947
 5616SOL    HW217748   2.351   2.817   4.937
 5617SOL     OW17749   1.729   3.579   5.030
 5617SOL    HW117750   1.788   3.509   4.990
 5617SOL    HW217751   1.779   3.666   5.034
 5618SOL     OW17752   6.900   5.051   3.342
 5618SOL    HW117753   6.920   5.056   3.244
 5618SOL    HW217754   6.883   5.144   3.377
 5619SOL     OW17755   3.433   3.495   3.277
 5619SOL    HW117756   3.503   3.500   3.347
 5619SOL    HW217757   3.385   3.407   3.283
 5620SOL     OW17758   5.012   3.642   6.593
 5620SOL    HW117759   4.934   3.617   6.651
 5620SOL    HW217760   4.983   3.710   6.526
 5621SOL     OW17761   1.405   3.333   6.029
 5621SOL    HW117762   1.418   3.372   6.120
 5621SOL    HW217763   1.494   3.313   5.988
 5622SOL     OW17764   4.694   6.610   5.786
 5622SOL    HW117765   4.778   6.644   5.829
 5622SOL    HW217766   4.657   6.681   5.726
 5623SOL     OW17767   4.672   6.075   5.124
 5623SOL    HW117768   4.689   6.018   5.043
 5623SOL    HW217769   4.683   6.171   5.099
 5624SOL     OW17770   0.731   5.441   3.899
 5624SOL    HW117771   0.769   5.384   3.972
 5624SOL    HW217772   0.728   5.537   3.929
 5625SOL     OW17773   6.963   5.162   5.196
 5625SOL    HW117774   7.000   5.073   5.169
 5625SOL    HW217775   6.924   5.155   5.288
 5626SOL     OW17776   2.641   5.782   4.202
 5626SOL    HW117777   2.604   5.853   4.142
 5626SOL    HW217778   2.578   5.704   4.203
 5627SOL     OW17779   6.809   5.435   6.003
 5627SOL    HW117780   6.777   5.529   5.998
 5627SOL    HW217781   6.904   5.430   5.973
 5628SOL     OW17782   2.728   2.404   1.179
 5628SOL    HW117783   2.811   2.396   1.234
 5628SOL    HW217784   2.688   2.494   1.192
 5629SOL     OW17785   4.984   2.614   1.948
 5629SOL    HW117786   4.983   2.701   1.899
 5629SOL    HW217787   5.065   2.562   1.923
 5630SOL     OW17788   1.771   4.179   6.531
 5630SOL    HW117789   1.844   4.247   6.542
 5630SOL    HW217790   1.778   4.137   6.441
 5631SOL     OW17791   5.671   1.499   1.244
 5631SOL    HW117792   5.601   1.571   1.251
 5631SOL    HW217793   5.666   1.456   1.154
 5632SOL     OW17794   4.763   2.022   5.209
 5632SOL    HW117795   4.718   1.998   5.295
 5632SOL    HW217796   4.847   2.073   5.228
 5633SOL     OW17797   6.199   4.891   4.600
 5633SOL    HW117798   6.163   4.933   4.517
 5633SOL    HW217799   6.285   4.844   4.579
 5634SOL     OW17800   2.203   4.697   3.958
 5634SOL    HW117801   2.247   4.643   3.887
 5634SOL    HW217802   2.268   4.767   3.991
 5635SOL     OW17803   2.385   6.225   6.533
 5635SOL    HW117804   2.312   6.159   6.550
 5635SOL    HW217805   2.383   6.295   6.604
 5636SOL     OW17806   5.861   0.736   5.390
 5636SOL    HW117807   5.927   0.661   5.401
 5636SOL    HW217808   5.770   0.704   5.419
 5637SOL     OW17809   4.218   0.275   3.519
 5637SOL    HW117810   4.200   0.219   3.599
 5637SOL    HW217811   4.185   0.229   3.437
 5638SOL     OW17812   6.315   5.048   0.954
 5638SOL    HW117813   6.333   4.953   0.980
 5638SOL    HW217814   6.400   5.099   0.955
 5639SOL     OW17815   2.423   0.601   1.260
 5639SOL    HW117816   2.491   0.652   1.208
 5639SOL    HW217817   2.407   0.512   1.216
 5640SOL     OW17818   2.938   0.020   2.063
 5640SOL    HW117819   2.854   6.987   2.061
 5640SOL    HW217820   3.013   6.986   2.097
 5641SOL     OW17821   0.223   5.007   5.862
 5641SOL    HW117822   0.140   5.059   5.840
 5641SOL    HW217823   0.233   5.001   5.961
 5642SOL     OW17824   0.959   5.153   5.142
 5642SOL    HW117825   0.981   5.113   5.231
 5642SOL    HW217826   0.896   5.093   5.093
 5643SOL     OW17827   3.574   0.772   4.387
 5643SOL    HW117828   3.597   0.765   4.484
 5643SOL    HW217829   3.652   0.745   4.332
 5644SOL     OW17830   3.832   0.419   3.755
 5644SOL    HW117831   3.770   0.491   3.786
 5644SOL    HW217832   3.805   0.332   3.798
 5645SOL     OW17833   6.288   4.030   3.286
 5645SOL    HW117834   6.285   3.941   3.331
 5645SOL    HW217835   6.195   4.064   3.271
 5646SOL     OW17836   1.977   6.024   3.482
 5646SOL    HW117837   1.909   5.958   3.515
 5646SOL    HW217838   2.060   6.016   3.536
 5647SOL     OW17839   6.469   6.621   0.311
 5647SOL    HW117840   6.537   6.580   0.372
 5647SOL    HW217841   6.406   6.677   0.364
 5648SOL     OW17842   2.176   1.141   2.618
 5648SOL    HW117843   2.254   1.142   2.680
 5648SOL    HW217844   2.107   1.206   2.651
 5649SOL     OW17845   0.255   6.786   5.688
 5649SOL    HW117846   0.172   6.739   5.716
 5649SOL    HW217847   0.249   6.808   5.590
 5650SOL     OW17848   0.384   5.691   0.792
 5650SOL    HW117849   0.295   5.735   0.800
 5650SOL    HW217850   0.451   5.758   0.759
 5651SOL     OW17851   0.469   1.324   1.442
 5651SOL    HW117852   0.430   1.413   1.421
 5651SOL    HW217853   0.507   1.283   1.359
 5652SOL     OW17854   5.915   6.359   2.557
 5652SOL    HW117855   5.832   6.327   2.511
 5652SOL    HW217856   5.982   6.285   2.561
 5653SOL     OW17857   0.298   6.096   6.503
 5653SOL    HW117858   0.300   6.046   6.416
 5653SOL    HW217859   0.228   6.167   6.499
 5654SOL     OW17860   6.625   6.843   5.632
 5654SOL    HW117861   6.675   6.925   5.604
 5654SOL    HW217862   6.660   6.810   5.720
 5655SOL     OW17863   1.123   3.264   4.838
 5655SOL    HW117864   1.215   3.296   4.817
 5655SOL    HW217865   1.088   3.209   4.762
 5656SOL     OW17866   0.848   3.148   0.557
 5656SOL    HW117867   0.851   3.153   0.457
 5656SOL    HW217868   0.763   3.188   0.590
 5657SOL     OW17869   5.626   0.206   0.656
 5657SOL    HW117870   5.719   0.170   0.661
 5657SOL    HW217871   5.582   0.193   0.745
 5658SOL     OW17872   3.092   5.441   5.597
 5658SOL    HW117873   3.036   5.452   5.679
 5658SOL    HW217874   3.107   5.343   5.581
 5659SOL     OW17875   3.991   3.869   3.404
 5659SOL    HW117876   4.067   3.910   3.354
 5659SOL    HW217877   3.978   3.918   3.490
 5660SOL     OW17878   5.698   0.228   5.252
 5660SOL    HW117879   5.606   0.251   5.220
 5660SOL    HW217880   5.759   0.305   5.236
 5661SOL     OW17881   0.457   4.154   5.212
 5661SOL    HW117882   0.414   4.139   5.123
 5661SOL    HW217883   0.499   4.245   5.213
 5662SOL     OW17884   2.577   5.481   3.183
 5662SOL    HW117885   2.512   5.539   3.232
 5662SOL    HW217886   2.547   5.385   3.190
 5663SOL     OW17887   2.580   3.063   6.760
 5663SOL    HW117888   2.569   3.058   6.859
 5663SOL    HW217889   2.621   2.978   6.727
 5664SOL     OW17890   6.771   4.244   4.943
 5664SOL    HW117891   6.810   4.262   4.853
 5664SOL    HW217892   6.837   4.271   5.013
 5665SOL     OW17893   1.433   1.855   6.778
 5665SOL    HW117894   1.372   1.893   6.709
 5665SOL    HW217895   1.522   1.899   6.771
 5666SOL     OW17896   6.244   5.980   1.150
 5666SOL    HW117897   6.278   5.925   1.074
 5666SOL    HW217898   6.166   6.035   1.119
 5667SOL     OW17899   1.335   4.503   3.892
 5667SOL    HW117900   1.344   4.599   3.915
 5667SOL    HW217901   1.249   4.467   3.930
 5668SOL     OW17902   5.029   1.919   4.826
 5668SOL    HW117903   4.930   1.905   4.832
 5668SOL    HW217904   5.060   1.901   4.733
 5669SOL     OW17905   0.677   2.807   6.871
 5669SOL    HW117906   0.671   2.868   6.950
 5669SOL    HW217907   0.758   2.830   6.817
 5670SOL     OW17908   6.925   2.774   3.627
 5670SOL    HW117909   6.949   2.732   3.539
 5670SOL    HW217910   6.842   2.828   3.616
 5671SOL     OW17911   0.928   6.040   6.172
 5671SOL    HW117912   1.011   6.016   6.221
 5671SOL    HW217913   0.850   6.035   6.235
 5672SOL     OW17914   4.080   4.293   6.499
 5672SOL    HW117915   4.037   4.371   6.455
 5672SOL    HW217916   4.054   4.290   6.595
 5673SOL     OW17917   0.803   6.362   1.377
 5673SOL    HW117918   0.796   6.264   1.363
 5673SOL    HW217919   0.771   6.386   1.469
 5674SOL     OW17920   6.723   4.570   4.157
 5674SOL    HW117921   6.645   4.627   4.183
 5674SOL    HW217922   6.806   4.603   4.202
 5675SOL     OW17923   4.863   2.468   5.738
 5675SOL    HW117924   4.900   2.451   5.829
 5675SOL    HW217925   4.850   2.381   5.691
 5676SOL     OW17926   2.055   2.468   2.144
 5676SOL    HW117927   2.062   2.449   2.242
 5676SOL    HW217928   2.094   2.559   2.126
 5677SOL     OW17929   0.677   2.250   3.023
 5677SOL    HW117930   0.708   2.170   2.971
 5677SOL    HW217931   0.623   2.220   3.101
 5678SOL     OW17932   3.512   6.250   2.719
 5678SOL    HW117933   3.460   6.172   2.754
 5678SOL    HW217934   3.488   6.265   2.623
 5679SOL     OW17935   1.220   1.074   3.898
 5679SOL    HW117936   1.267   1.028   3.973
 5679SOL    HW217937   1.138   1.023   3.873
 5680SOL     OW17938   1.455   5.654   0.584
 5680SOL    HW117939   1.395   5.633   0.506
 5680SOL    HW217940   1.436   5.747   0.616
 5681SOL     OW17941   0.421   3.778   6.908
 5681SOL    HW117942   0.449   3.776   7.004
 5681SOL    HW217943   0.407   3.685   6.875
 5682SOL     OW17944   2.175   4.408   6.014
 5682SOL    HW117945   2.083   4.442   5.994
 5682SOL    HW217946   2.180   4.311   5.989
 5683SOL     OW17947   3.456   1.084   0.328
 5683SOL    HW117948   3.361   1.060   0.349
 5683SOL    HW217949   3.494   1.017   0.265
 5684SOL     OW17950   3.407   2.852   4.832
 5684SOL    HW117951   3.390   2.756   4.855
 5684SOL    HW217952   3.398   2.908   4.914
 5685SOL     OW17953   1.864   3.212   2.487
 5685SOL    HW117954   1.897   3.119   2.500
 5685SOL    HW217955   1.837   3.225   2.392
 5686SOL     OW17956   2.683   6.761   6.259
 5686SOL    HW117957   2.602   6.811   6.290
 5686SOL    HW217958   2.656   6.668   6.233
 5687SOL     OW17959   1.079   4.695   5.878
 5687SOL    HW117960   1.173   4.720   5.901
 5687SOL    HW217961   1.035   4.773   5.833
 5688SOL     OW17962   6.511   1.506   0.252
 5688SOL    HW117963   6.442   1.578   0.247
 5688SOL    HW217964   6.503   1.445   0.173
 5689SOL     OW17965   4.064   0.309   0.666
 5689SOL    HW117966   4.108   0.399   0.667
 5689SOL    HW217967   4.097   0.256   0.744
 5690SOL     OW17968   2.431   5.889   0.677
 5690SOL    HW117969   2.373   5.967   0.697
 5690SOL    HW217970   2.466   5.896   0.584
 5691SOL     OW17971   2.819   5.979   1.994
 5691SOL    HW117972   2.849   5.917   2.066
 5691SOL    HW217973   2.785   5.927   1.916
 5692SOL     OW17974   6.873   3.364   6.201
 5692SOL    HW117975   6.973   3.365   6.204
 5692SOL    HW217976   6.840   3.270   6.209
 5693SOL     OW17977   5.900   2.562   2.340
 5693SOL    HW117978   5.801   2.558   2.334
 5693SOL    HW217979   5.939   2.564   2.248
 5694SOL     OW17980   1.225   2.369   3.678
 5694SOL    HW117981   1.154   2.384   3.610
 5694SOL    HW217982   1.312   2.404   3.644
 5695SOL     OW17983   1.556   2.713   3.311
 5695SOL    HW117984   1.605   2.786   3.264
 5695SOL    HW217985   1.621   2.641   3.337
 5696SOL     OW17986   1.595   0.627   3.403
 5696SOL    HW117987   1.530   0.604   3.330
 5696SOL    HW217988   1.667   0.686   3.367
 5697SOL     OW17989   6.227   2.688   1.632
 5697SOL    HW117990   6.153   2.747   1.600
 5697SOL    HW217991   6.296   2.679   1.560
 5698SOL     OW17992   0.768   3.209   2.764
 5698SOL    HW117993   0.721   3.285   2.720
 5698SOL    HW217994   0.861   3.237   2.788
 5699SOL     OW17995   6.505   2.526   2.458
 5699SOL    HW117996   6.442   2.593   2.418
 5699SOL    HW217997   6.452   2.451   2.497
 5700SOL     OW17998   6.952   6.784   4.185
 5700SOL    HW117999   6.987   6.782   4.278
 5700SOL    HW218000   0.004   6.801   4.121
 5701SOL     OW18001   1.305   6.646   3.079
 5701SOL    HW118002   1.348   6.730   3.046
 5701SOL    HW218003   1.232   6.668   3.143
 5702SOL     OW18004   2.041   6.817   5.733
 5702SOL    HW118005   2.104   6.792   5.805
 5702SOL    HW218006   2.082   6.797   5.644
 5703SOL     OW18007   5.745   4.688   1.757
 5703SOL    HW118008   5.802   4.695   1.675
 5703SOL    HW218009   5.689   4.770   1.765
 5704SOL     OW18010   4.093   5.615   2.188
 5704SOL    HW118011   4.034   5.689   2.220
 5704SOL    HW218012   4.088   5.538   2.252
 5705SOL     OW18013   4.802   1.109   1.292
 5705SOL    HW118014   4.774   1.127   1.387
 5705SOL    HW218015   4.848   1.020   1.287
 5706SOL     OW18016   0.491   2.470   0.153
 5706SOL    HW118017   0.561   2.452   0.222
 5706SOL    HW218018   0.467   2.567   0.153
 5707SOL     OW18019   6.977   6.891   0.325
 5707SOL    HW118020   0.042   6.844   0.336
 5707SOL    HW218021   6.956   6.942   0.409
 5708SOL     OW18022   5.262   6.171   1.307
 5708SOL    HW118023   5.307   6.119   1.379
 5708SOL    HW218024   5.179   6.212   1.343
 5709SOL     OW18025   1.794   0.440   3.445
 5709SOL    HW118026   1.865   0.492   3.398
 5709SOL    HW218027   1.709   0.494   3.445
 5710SOL     OW18028   2.411   2.906   6.372
 5710SOL    HW118029   2.333   2.942   6.423
 5710SOL    HW218030   2.438   2.818   6.411
 5711SOL     OW18031   5.255   1.240   2.768
 5711SOL    HW118032   5.238   1.155   2.719
 5711SOL    HW218033   5.352   1.248   2.789
 5712SOL     OW18034   1.096   5.883   5.960
 5712SOL    HW118035   1.140   5.872   6.049
 5712SOL    HW218036   1.152   5.839   5.890
 5713SOL     OW18037   2.104   2.528   1.696
 5713SOL    HW118038   2.152   2.615   1.684
 5713SOL    HW218039   2.006   2.541   1.680
 5714SOL     OW18040   0.722   5.612   6.054
 5714SOL    HW118041   0.716   5.709   6.032
 5714SOL    HW218042   0.764   5.600   6.144
 5715SOL     OW18043   1.075   6.446   2.879
 5715SOL    HW118044   1.131   6.511   2.828
 5715SOL    HW218045   1.110   6.437   2.972
 5716SOL     OW18046   1.666   4.554   0.248
 5716SOL    HW118047   1.588   4.613   0.266
 5716SOL    HW218048   1.751   4.605   0.265
 5717SOL     OW18049   1.674   6.086   0.792
 5717SOL    HW118050   1.691   6.038   0.878
 5717SOL    HW218051   1.656   6.183   0.810
 5718SOL     OW18052   1.183   3.729   6.015
 5718SOL    HW118053   1.239   3.705   5.936
 5718SOL    HW218054   1.164   3.647   6.069
 5719SOL     OW18055   2.547   1.350   6.312
 5719SOL    HW118056   2.480   1.312   6.250
 5719SOL    HW218057   2.533   1.449   6.320
 5720SOL     OW18058   1.240   5.333   4.372
 5720SOL    HW118059   1.296   5.414   4.389
 5720SOL    HW218060   1.298   5.259   4.337
 5721SOL     OW18061   0.382   3.761   0.845
 5721SOL    HW118062   0.352   3.701   0.919
 5721SOL    HW218063   0.305   3.777   0.782
 5722SOL     OW18064   6.395   1.565   5.459
 5722SOL    HW118065   6.321   1.567   5.525
 5722SOL    HW218066   6.478   1.529   5.502
 5723SOL     OW18067   4.635   3.322   6.560
 5723SOL    HW118068   4.687   3.377   6.495
 5723SOL    HW218069   4.538   3.330   6.541
 5724SOL     OW18070   4.247   2.729   5.381
 5724SOL    HW118071   4.267   2.693   5.472
 5724SOL    HW218072   4.183   2.667   5.335
 5725SOL     OW18073   6.245   5.811   4.063
 5725SOL    HW118074   6.188   5.889   4.091
 5725SOL    HW218075   6.317   5.797   4.130
 5726SOL     OW18076   6.675   4.192   4.413
 5726SOL    HW118077   6.577   4.171   4.420
 5726SOL    HW218078   6.696   4.221   4.320
 5727SOL     OW18079   1.058   2.678   3.955
 5727SOL    HW118080   1.003   2.622   3.894
 5727SOL    HW218081   1.153   2.677   3.925
 5728SOL     OW18082   4.062   1.794   6.756
 5728SOL    HW118083   3.988   1.728   6.745
 5728SOL    HW218084   4.023   1.886   6.764
 5729SOL     OW18085   0.994   1.451   0.505
 5729SOL    HW118086   1.024   1.529   0.450
 5729SOL    HW218087   1.071   1.416   0.558
 5730SOL     OW18088   4.392   5.286   5.491
 5730SOL    HW118089   4.316   5.342   5.461
 5730SOL    HW218090   4.463   5.344   5.532
 5731SOL     OW18091   1.564   6.793   3.638
 5731SOL    HW118092   1.498   6.867   3.628
 5731SOL    HW218093   1.515   6.707   3.654
 5732SOL     OW18094   6.751   5.358   5.481
 5732SOL    HW118095   6.754   5.265   5.443
 5732SOL    HW218096   6.745   5.424   5.406
 5733SOL     OW18097   3.852   0.386   5.670
 5733SOL    HW118098   3.852   0.408   5.572
 5733SOL    HW218099   3.933   0.426   5.713
 5734SOL     OW18100   1.476   5.891   5.890
 5734SOL    HW118101   1.468   5.836   5.973
 5734SOL    HW218102   1.516   5.980   5.913
 5735SOL     OW18103   3.957   1.616   2.558
 5735SOL    HW118104   4.023   1.618   2.483
 5735SOL    HW218105   3.926   1.709   2.577
 5736SOL     OW18106   6.414   4.399   1.199
 5736SOL    HW118107   6.350   4.409   1.122
 5736SOL    HW218108   6.449   4.488   1.225
 5737SOL     OW18109   4.773   5.427   6.750
 5737SOL    HW118110   4.719   5.403   6.669
 5737SOL    HW218111   4.798   5.344   6.800
 5738SOL     OW18112   3.160   2.280   6.404
 5738SOL    HW118113   3.213   2.361   6.430
 5738SOL    HW218114   3.080   2.309   6.350
 5739SOL     OW18115   0.866   6.916   5.357
 5739SOL    HW118116   0.918   6.948   5.436
 5739SOL    HW218117   0.894   6.968   5.276
 5740SOL     OW18118   3.839   3.736   0.743
 5740SOL    HW118119   3.843   3.762   0.647
 5740SOL    HW218120   3.757   3.680   0.759
 5741SOL     OW18121   6.301   4.020   4.800
 5741SOL    HW118122   6.366   3.975   4.738
 5741SOL    HW218123   6.352   4.074   4.867
 5742SOL     OW18124   4.810   6.704   2.436
 5742SOL    HW118125   4.739   6.692   2.506
 5742SOL    HW218126   4.772   6.756   2.359
 5743SOL     OW18127   2.376   5.372   5.602
 5743SOL    HW118128   2.416   5.326   5.523
 5743SOL    HW218129   2.443   5.434   5.643
 5744SOL     OW18130   4.827   1.317   0.832
 5744SOL    HW118131   4.904   1.257   0.810
 5744SOL    HW218132   4.861   1.403   0.870
 5745SOL     OW18133   2.142   1.327   3.838
 5745SOL    HW118134   2.107   1.234   3.829
 5745SOL    HW218135   2.065   1.389   3.856
 5746SOL     OW18136   5.171   6.821   1.532
 5746SOL    HW118137   5.075   6.794   1.523
 5746SOL    HW218138   5.227   6.739   1.546
 5747SOL     OW18139   0.456   4.959   2.262
 5747SOL    HW118140   0.510   4.981   2.181
 5747SOL    HW218141   0.444   5.042   2.318
 5748SOL     OW18142   1.174   0.202   0.968
 5748SOL    HW118143   1.194   0.109   0.940
 5748SOL    HW218144   1.107   0.242   0.905
 5749SOL     OW18145   1.429   6.235   4.723
 5749SOL    HW118146   1.502   6.186   4.674
 5749SOL    HW218147   1.341   6.215   4.679
 5750SOL     OW18148   6.637   6.170   4.964
 5750SOL    HW118149   6.582   6.166   5.047
 5750SOL    HW218150   6.582   6.208   4.889
 5751SOL     OW18151   2.221   3.000   4.731
 5751SOL    HW118152   2.288   2.990   4.805
 5751SOL    HW218153   2.213   2.914   4.681
 5752SOL     OW18154   6.402   0.210   0.569
 5752SOL    HW118155   6.474   0.223   0.637
 5752SOL    HW218156   6.441   0.220   0.477
 5753SOL     OW18157   3.811   3.294   4.313
 5753SOL    HW118158   3.857   3.205   4.317
 5753SOL    HW218159   3.778   3.310   4.220
 5754SOL     OW18160   0.269   5.183   1.677
 5754SOL    HW118161   0.250   5.220   1.768
 5754SOL    HW218162   0.349   5.229   1.639
 5755SOL     OW18163   2.388   2.441   6.536
 5755SOL    HW118164   2.348   2.366   6.590
 5755SOL    HW218165   2.319   2.476   6.472
 5756SOL     OW18166   6.243   0.413   3.304
 5756SOL    HW118167   6.163   0.366   3.266
 5756SOL    HW218168   6.276   0.363   3.384
 5757SOL     OW18169   0.294   6.081   3.161
 5757SOL    HW118170   0.254   6.016   3.097
 5757SOL    HW218171   0.222   6.128   3.211
 5758SOL     OW18172   2.340   0.851   4.823
 5758SOL    HW118173   2.424   0.898   4.798
 5758SOL    HW218174   2.308   0.796   4.746
 5759SOL     OW18175   4.902   1.120   6.835
 5759SOL    HW118176   4.988   1.075   6.811
 5759SOL    HW218177   4.845   1.129   6.753
 5760SOL     OW18178   6.547   3.378   0.971
 5760SOL    HW118179   6.564   3.442   1.046
 5760SOL    HW218180   6.548   3.284   1.008
 5761SOL     OW18181   5.981   5.569   6.612
 5761SOL    HW118182   5.904   5.621   6.576
 5761SOL    HW218183   5.971   5.472   6.587
 5762SOL     OW18184   5.092   4.165   0.609
 5762SOL    HW118185   5.144   4.250   0.609
 5762SOL    HW218186   5.071   4.137   0.515
 5763SOL     OW18187   6.178   6.391   0.548
 5763SOL    HW118188   6.170   6.430   0.457
 5763SOL    HW218189   6.123   6.444   0.612
 5764SOL     OW18190   5.341   5.081   5.518
 5764SOL    HW118191   5.423   5.033   5.489
 5764SOL    HW218192   5.330   5.073   5.617
 5765SOL     OW18193   6.477   2.600   0.376
 5765SOL    HW118194   6.406   2.559   0.434
 5765SOL    HW218195   6.508   2.686   0.416
 5766SOL     OW18196   1.876   1.636   6.762
 5766SOL    HW118197   1.976   1.624   6.764
 5766SOL    HW218198   1.849   1.670   6.672
 5767SOL     OW18199   1.192   1.125   0.452
 5767SOL    HW118200   1.241   1.039   0.465
 5767SOL    HW218201   1.224   1.193   0.518
 5768SOL     OW18202   1.465   6.199   3.777
 5768SOL    HW118203   1.408   6.276   3.803
 5768SOL    HW218204   1.557   6.231   3.755
 5769SOL     OW18205   2.773   6.256   4.824
 5769SOL    HW118206   2.768   6.228   4.920
 5769SOL    HW218207   2.815   6.183   4.771
 5770SOL     OW18208   6.345   6.140   0.283
 5770SOL    HW118209   6.258   6.136   0.233
 5770SOL    HW218210   6.387   6.230   0.270
 5771SOL     OW18211   1.491   0.178   4.100
 5771SOL    HW118212   1.416   0.113   4.101
 5771SOL    HW218213   1.578   0.130   4.114
 5772SOL     OW18214   5.405   1.894   1.517
 5772SOL    HW118215   5.474   1.821   1.525
 5772SOL    HW218216   5.346   1.877   1.439
 5773SOL     OW18217   4.159   0.515   2.903
 5773SOL    HW118218   4.085   0.450   2.921
 5773SOL    HW218219   4.139   0.603   2.947
 5774SOL     OW18220   2.390   6.093   3.408
 5774SOL    HW118221   2.318   6.044   3.359
 5774SOL    HW218222   2.394   6.188   3.375
 5775SOL     OW18223   1.713   0.702   2.327
 5775SOL    HW118224   1.759   0.682   2.413
 5775SOL    HW218225   1.615   0.716   2.343
 5776SOL     OW18226   0.103   0.665   4.387
 5776SOL    HW118227   0.021   0.655   4.444
 5776SOL    HW218228   0.093   0.745   4.328
 5777SOL     OW18229   6.683   0.227   5.041
 5777SOL    HW118230   6.769   0.180   5.021
 5777SOL    HW218231   6.648   0.195   5.129
 5778SOL     OW18232   1.855   1.100   1.525
 5778SOL    HW118233   1.801   1.183   1.506
 5778SOL    HW218234   1.920   1.119   1.599
 5779SOL     OW18235   4.534   3.251   0.834
 5779SOL    HW118236   4.457   3.313   0.821
 5779SOL    HW218237   4.562   3.252   0.930
 5780SOL     OW18238   6.152   5.930   3.712
 5780SOL    HW118239   6.056   5.904   3.711
 5780SOL    HW218240   6.186   5.927   3.806
 5781SOL     OW18241   6.808   4.493   4.467
 5781SOL    HW118242   6.766   4.446   4.389
 5781SOL    HW218243   6.908   4.489   4.458
 5782SOL     OW18244   1.051   1.638   0.327
 5782SOL    HW118245   0.956   1.626   0.301
 5782SOL    HW218246   1.080   1.732   0.307
 5783SOL     OW18247   2.230   0.487   1.548
 5783SOL    HW118248   2.183   0.550   1.609
 5783SOL    HW218249   2.279   0.539   1.478
 5784SOL     OW18250   6.725   5.706   0.145
 5784SOL    HW118251   6.717   5.688   0.046
 5784SOL    HW218252   6.667   5.783   0.170
 5785SOL     OW18253   1.810   1.940   0.724
 5785SOL    HW118254   1.889   1.995   0.696
 5785SOL    HW218255   1.732   1.961   0.665
 5786SOL     OW18256   0.732   3.807   0.723
 5786SOL    HW118257   0.800   3.875   0.698
 5786SOL    HW218258   0.755   3.767   0.812
 5787SOL     OW18259   3.913   1.325   5.018
 5787SOL    HW118260   3.883   1.373   5.100
 5787SOL    HW218261   3.966   1.387   4.960
 5788SOL     OW18262   2.996   1.804   1.596
 5788SOL    HW118263   3.032   1.758   1.515
 5788SOL    HW218264   2.991   1.902   1.579
 5789SOL     OW18265   2.838   4.169   0.212
 5789SOL    HW118266   2.904   4.102   0.246
 5789SOL    HW218267   2.796   4.135   0.127
 5790SOL     OW18268   0.248   4.365   4.957
 5790SOL    HW118269   0.303   4.445   4.982
 5790SOL    HW218270   0.158   4.396   4.925
 5791SOL     OW18271   3.143   1.520   2.514
 5791SOL    HW118272   3.237   1.555   2.516
 5791SOL    HW218273   3.113   1.499   2.607
 5792SOL     OW18274   5.916   3.005   2.416
 5792SOL    HW118275   5.907   3.101   2.390
 5792SOL    HW218276   6.002   2.969   2.381
 5793SOL     OW18277   5.065   0.873   3.780
 5793SOL    HW118278   4.982   0.850   3.831
 5793SOL    HW218279   5.069   0.973   3.767
 5794SOL     OW18280   2.040   0.867   0.432
 5794SOL    HW118281   2.049   0.827   0.523
 5794SOL    HW218282   1.961   0.828   0.385
 5795SOL     OW18283   6.518   0.129   6.548
 5795SOL    HW118284   6.447   0.115   6.479
 5795SOL    HW218285   6.482   0.109   6.639
 5796SOL     OW18286   4.952   1.246   6.046
 5796SOL    HW118287   4.982   1.168   6.101
 5796SOL    HW218288   4.857   1.231   6.017
 5797SOL     OW18289   4.806   2.360   0.117
 5797SOL    HW118290   4.760   2.413   0.188
 5797SOL    HW218291   4.739   2.306   0.066
 5798SOL     OW18292   0.617   5.572   4.345
 5798SOL    HW118293   0.649   5.592   4.438
 5798SOL    HW218294   0.534   5.516   4.349
 5799SOL     OW18295   0.458   0.970   3.271
 5799SOL    HW118296   0.546   1.011   3.292
 5799SOL    HW218297   0.398   0.978   3.351
 5800SOL     OW18298   6.299   6.360   1.820
 5800SOL    HW118299   6.243   6.369   1.738
 5800SOL    HW218300   6.244   6.322   1.894
 5801SOL     OW18301   1.720   2.947   3.332
 5801SOL    HW118302   1.761   2.894   3.406
 5801SOL    HW218303   1.780   3.022   3.307
 5802SOL     OW18304   0.287   3.527   2.672
 5802SOL    HW118305   0.247   3.572   2.752
 5802SOL    HW218306   0.330   3.595   2.613
 5803SOL     OW18307   2.000   5.349   1.775
 5803SOL    HW118308   2.096   5.345   1.745
 5803SOL    HW218309   1.953   5.423   1.726
 5804SOL     OW18310   0.133   4.986   3.391
 5804SOL    HW118311   0.131   4.901   3.337
 5804SOL    HW218312   0.041   5.024   3.395
 5805SOL     OW18313   2.151   3.435   0.613
 5805SOL    HW118314   2.105   3.523   0.615
 5805SOL    HW218315   2.177   3.412   0.520
 5806SOL     OW18316   6.657   5.253   4.843
 5806SOL    HW118317   6.698   5.290   4.926
 5806SOL    HW218318   6.727   5.249   4.771
 5807SOL     OW18319   0.913   3.995   0.639
 5807SOL    HW118320   0.893   4.068   0.574
 5807SOL    HW218321   0.932   4.036   0.729
 5808SOL     OW18322   6.218   5.049   4.048
 5808SOL    HW118323   6.137   5.018   4.098
 5808SOL    HW218324   6.227   5.148   4.058
 5809SOL     OW18325   6.775   2.260   4.960
 5809SOL    HW118326   6.758   2.163   4.974
 5809SOL    HW218327   6.743   2.311   5.040
 5810SOL     OW18328   4.460   1.570   5.315
 5810SOL    HW118329   4.453   1.558   5.414
 5810SOL    HW218330   4.509   1.493   5.275
 5811SOL     OW18331   3.268   0.526   5.038
 5811SOL    HW118332   3.363   0.495   5.046
 5811SOL    HW218333   3.265   0.626   5.045
 5812SOL     OW18334   5.883   2.964   5.035
 5812SOL    HW118335   5.902   3.050   4.988
 5812SOL    HW218336   5.970   2.922   5.064
 5813SOL     OW18337   1.577   1.737   1.778
 5813SOL    HW118338   1.653   1.785   1.824
 5813SOL    HW218339   1.592   1.738   1.679
 5814SOL     OW18340   6.070   3.913   2.260
 5814SOL    HW118341   6.170   3.912   2.248
 5814SOL    HW218342   6.037   4.007   2.261
 5815SOL     OW18343   4.010   1.545   4.420
 5815SOL    HW118344   3.962   1.579   4.501
 5815SOL    HW218345   3.984   1.600   4.341
 5816SOL     OW18346   4.975   4.554   0.604
 5816SOL    HW118347   4.901   4.538   0.539
 5816SOL    HW218348   4.953   4.511   0.692
 5817SOL     OW18349   6.018   4.374   5.669
 5817SOL    HW118350   6.005   4.468   5.701
 5817SOL    HW218351   5.994   4.310   5.741
 5818SOL     OW18352   6.586   5.491   5.187
 5818SOL    HW118353   6.519   5.447   5.127
 5818SOL    HW218354   6.595   5.588   5.162
 5819SOL     OW18355   3.692   0.201   6.830
 5819SOL    HW118356   3.625   0.268   6.799
 5819SOL    HW218357   3.746   0.239   6.904
 5820SOL     OW18358   4.815   4.615   3.371
 5820SOL    HW118359   4.758   4.577   3.445
 5820SOL    HW218360   4.891   4.665   3.411
 5821SOL     OW18361   0.041   0.230   2.046
 5821SOL    HW118362   0.054   0.270   1.955
 5821SOL    HW218363   0.082   0.289   2.115
 5822SOL     OW18364   1.239   2.548   1.443
 5822SOL    HW118365   1.216   2.457   1.408
 5822SOL    HW218366   1.170   2.577   1.509
 5823SOL     OW18367   2.637   0.348   4.679
 5823SOL    HW118368   2.636   0.426   4.741
 5823SOL    HW218369   2.543   0.327   4.650
 5824SOL     OW18370   6.885   5.681   2.464
 5824SOL    HW118371   6.970   5.631   2.451
 5824SOL    HW218372   6.863   5.687   2.561
 5825SOL     OW18373   6.927   0.827   5.280
 5825SOL    HW118374   6.997   0.880   5.329
 5825SOL    HW218375   6.846   0.820   5.337
 5826SOL     OW18376   0.465   5.085   5.717
 5826SOL    HW118377   0.472   5.164   5.657
 5826SOL    HW218378   0.368   5.066   5.735
 5827SOL     OW18379   1.843   4.251   4.995
 5827SOL    HW118380   1.832   4.166   4.945
 5827SOL    HW218381   1.830   4.328   4.933
 5828SOL     OW18382   6.005   1.851   1.663
 5828SOL    HW118383   6.079   1.798   1.622
 5828SOL    HW218384   6.003   1.942   1.620
 5829SOL     OW18385   1.268   0.673   3.698
 5829SOL    HW118386   1.171   0.649   3.697
 5829SOL    HW218387   1.280   0.765   3.661
 5830SOL     OW18388   5.143   6.528   5.970
 5830SOL    HW118389   5.074   6.456   5.962
 5830SOL    HW218390   5.189   6.519   6.058
 5831SOL     OW18391   1.272   1.281   5.390
 5831SOL    HW118392   1.333   1.278   5.469
 5831SOL    HW218393   1.225   1.193   5.380
 5832SOL     OW18394   3.039   4.650   6.789
 5832SOL    HW118395   2.940   4.658   6.805
 5832SOL    HW218396   3.073   4.736   6.750
 5833SOL     OW18397   3.646   4.192   4.937
 5833SOL    HW118398   3.665   4.098   4.967
 5833SOL    HW218399   3.661   4.254   5.014
 5834SOL     OW18400   0.139   2.449   0.196
 5834SOL    HW118401   0.186   2.469   0.110
 5834SOL    HW218402   0.171   2.361   0.231
 5835SOL     OW18403   5.435   2.994   3.307
 5835SOL    HW118404   5.344   3.027   3.283
 5835SOL    HW218405   5.488   3.070   3.345
 5836SOL     OW18406   2.758   6.975   1.750
 5836SOL    HW118407   2.766   6.880   1.718
 5836SOL    HW218408   2.696   6.979   1.827
 5837SOL     OW18409   3.390   3.968   6.970
 5837SOL    HW118410   3.346   4.002   0.031
 5837SOL    HW218411   3.468   4.026   6.947
 5838SOL     OW18412   2.535   1.916   0.734
 5838SOL    HW118413   2.563   1.886   0.825
 5838SOL    HW218414   2.613   1.954   0.685
 5839SOL     OW18415   0.945   1.875   2.342
 5839SOL    HW118416   0.846   1.877   2.352
 5839SOL    HW218417   0.977   1.962   2.303
 5840SOL     OW18418   1.089   4.861   6.543
 5840SOL    HW118419   1.104   4.833   6.448
 5840SOL    HW218420   1.087   4.780   6.602
 5841SOL     OW18421   5.126   1.915   2.167
 5841SOL    HW118422   5.144   1.955   2.257
 5841SOL    HW218423   5.170   1.969   2.096
 5842SOL     OW18424   5.102   3.481   1.370
 5842SOL    HW118425   5.073   3.408   1.433
 5842SOL    HW218426   5.043   3.480   1.289
 5843SOL     OW18427   1.298   3.857   2.636
 5843SOL    HW118428   1.375   3.876   2.576
 5843SOL    HW218429   1.316   3.774   2.689
 5844SOL     OW18430   1.965   6.026   5.768
 5844SOL    HW118431   1.917   6.048   5.683
 5844SOL    HW218432   1.936   6.089   5.840
 5845SOL     OW18433   0.353   0.182   2.483
 5845SOL    HW118434   0.363   0.083   2.470
 5845SOL    HW218435   0.414   0.213   2.556
 5846SOL     OW18436   5.735   3.257   5.512
 5846SOL    HW118437   5.702   3.164   5.528
 5846SOL    HW218438   5.711   3.285   5.419
 5847SOL     OW18439   3.054   2.146   1.910
 5847SOL    HW118440   3.132   2.175   1.855
 5847SOL    HW218441   2.993   2.224   1.926
 5848SOL     OW18442   1.243   5.360   2.706
 5848SOL    HW118443   1.339   5.337   2.722
 5848SOL    HW218444   1.237   5.446   2.655
 5849SOL     OW18445   1.038   0.713   5.595
 5849SOL    HW118446   0.956   0.660   5.619
 5849SOL    HW218447   1.026   0.807   5.624
 5850SOL     OW18448   6.610   3.756   1.924
 5850SOL    HW118449   6.708   3.769   1.907
 5850SOL    HW218450   6.581   3.668   1.884
 5851SOL     OW18451   5.137   3.323   3.025
 5851SOL    HW118452   5.233   3.340   3.049
 5851SOL    HW218453   5.133   3.270   2.941
 5852SOL     OW18454   5.526   6.566   3.464
 5852SOL    HW118455   5.584   6.533   3.389
 5852SOL    HW218456   5.550   6.660   3.486
 5853SOL     OW18457   3.480   5.824   4.648
 5853SOL    HW118458   3.533   5.782   4.575
 5853SOL    HW218459   3.390   5.780   4.654
 5854SOL     OW18460   4.221   4.142   6.203
 5854SOL    HW118461   4.139   4.112   6.251
 5854SOL    HW218462   4.207   4.233   6.165
 5855SOL     OW18463   0.552   1.391   4.707
 5855SOL    HW118464   0.633   1.340   4.735
 5855SOL    HW218465   0.570   1.489   4.712
 5856SOL     OW18466   1.801   5.852   3.888
 5856SOL    HW118467   1.760   5.856   3.797
 5856SOL    HW218468   1.735   5.814   3.953
 5857SOL     OW18469   5.860   2.558   6.119
 5857SOL    HW118470   5.872   2.478   6.060
 5857SOL    HW218471   5.763   2.573   6.135
 5858SOL     OW18472   2.702   2.152   3.215
 5858SOL    HW118473   2.630   2.217   3.192
 5858SOL    HW218474   2.668   2.058   3.204
 5859SOL     OW18475   6.012   6.341   2.126
 5859SOL    HW118476   6.019   6.387   2.214
 5859SOL    HW218477   5.975   6.404   2.057
 5860SOL     OW18478   0.309   3.557   2.089
 5860SOL    HW118479   0.294   3.538   2.186
 5860SOL    HW218480   0.238   3.512   2.035
 5861SOL     OW18481   4.490   1.451   4.290
 5861SOL    HW118482   4.411   1.453   4.229
 5861SOL    HW218483   4.571   1.483   4.241
 5862SOL     OW18484   6.227   5.572   1.071
 5862SOL    HW118485   6.327   5.582   1.074
 5862SOL    HW218486   6.187   5.624   1.146
 5863SOL     OW18487   3.222   2.089   5.268
 5863SOL    HW118488   3.295   2.112   5.333
 5863SOL    HW218489   3.200   2.169   5.213
 5864SOL     OW18490   3.990   3.893   2.196
 5864SOL    HW118491   3.918   3.956   2.225
 5864SOL    HW218492   4.015   3.833   2.273
 5865SOL     OW18493   5.953   6.975   4.982
 5865SOL    HW118494   5.875   6.982   5.044
 5865SOL    HW218495   5.996   0.043   4.970
 5866SOL     OW18496   4.135   4.407   0.407
 5866SOL    HW118497   4.153   4.344   0.483
 5866SOL    HW218498   4.036   4.413   0.392
 5867SOL     OW18499   2.195   3.272   1.236
 5867SOL    HW118500   2.145   3.350   1.274
 5867SOL    HW218501   2.172   3.261   1.139
 5868SOL     OW18502   0.770   1.388   5.414
 5868SOL    HW118503   0.848   1.388   5.351
 5868SOL    HW218504   0.778   1.465   5.478
 5869SOL     OW18505   1.820   6.480   3.452
 5869SOL    HW118506   1.800   6.573   3.482
 5869SOL    HW218507   1.800   6.471   3.354
 5870SOL     OW18508   4.480   6.498   4.806
 5870SOL    HW118509   4.435   6.418   4.767
 5870SOL    HW218510   4.438   6.520   4.895
 5871SOL     OW18511   3.202   3.305   1.251
 5871SOL    HW118512   3.159   3.219   1.224
 5871SOL    HW218513   3.287   3.286   1.301
 5872SOL     OW18514   4.662   6.031   1.150
 5872SOL    HW118515   4.663   6.018   1.050
 5872SOL    HW218516   4.569   6.021   1.183
 5873SOL     OW18517   3.631   1.712   1.956
 5873SOL    HW118518   3.689   1.756   2.025
 5873SOL    HW218519   3.632   1.766   1.872
 5874SOL     OW18520   3.266   4.413   6.301
 5874SOL    HW118521   3.174   4.447   6.283
 5874SOL    HW218522   3.320   4.416   6.217
 5875SOL     OW18523   4.575   1.248   6.914
 5875SOL    HW118524   4.578   1.148   6.921
 5875SOL    HW218525   4.506   1.275   6.847
 5876SOL     OW18526   3.779   2.993   0.446
 5876SOL    HW118527   3.812   3.077   0.403
 5876SOL    HW218528   3.734   2.936   0.378
 5877SOL     OW18529   0.632   0.472   1.392
 5877SOL    HW118530   0.641   0.556   1.339
 5877SOL    HW218531   0.545   0.428   1.372
 5878SOL     OW18532   5.970   5.463   3.878
 5878SOL    HW118533   5.931   5.532   3.938
 5878SOL    HW218534   6.065   5.487   3.857
 5879SOL     OW18535   1.622   4.395   6.916
 5879SOL    HW118536   1.547   4.359   6.860
 5879SOL    HW218537   1.654   4.481   6.878
 5880SOL     OW18538   4.610   4.605   6.042
 5880SOL    HW118539   4.624   4.516   6.085
 5880SOL    HW218540   4.572   4.593   5.950
 5881SOL     OW18541   0.771   0.075   2.398
 5881SOL    HW118542   0.752   0.003   2.465
 5881SOL    HW218543   0.713   0.062   2.318
 5882SOL     OW18544   0.437   5.871   0.462
 5882SOL    HW118545   0.469   5.809   0.391
 5882SOL    HW218546   0.393   5.950   0.419
 5883SOL     OW18547   0.753   1.573   6.441
 5883SOL    HW118548   0.839   1.528   6.419
 5883SOL    HW218549   0.680   1.504   6.449
 5884SOL     OW18550   4.236   1.382   4.486
 5884SOL    HW118551   4.326   1.360   4.449
 5884SOL    HW218552   4.193   1.452   4.429
 5885SOL     OW18553   0.561   6.521   2.201
 5885SOL    HW118554   0.637   6.523   2.136
 5885SOL    HW218555   0.581   6.454   2.273
 5886SOL     OW18556   0.173   2.332   4.008
 5886SOL    HW118557   0.101   2.298   3.948
 5886SOL    HW218558   0.204   2.259   4.069
 5887SOL     OW18559   2.804   2.033   2.000
 5887SOL    HW118560   2.781   2.130   1.995
 5887SOL    HW218561   2.898   2.019   1.967
 5888SOL     OW18562   2.419   1.011   1.023
 5888SOL    HW118563   2.515   1.035   1.036
 5888SOL    HW218564   2.398   0.929   1.077
 5889SOL     OW18565   0.435   0.378   0.327
 5889SOL    HW118566   0.416   0.280   0.325
 5889SOL    HW218567   0.354   0.427   0.359
 5890SOL     OW18568   2.444   1.123   3.182
 5890SOL    HW118569   2.376   1.102   3.252
 5890SOL    HW218570   2.494   1.206   3.206
 5891SOL     OW18571   3.025   3.401   6.763
 5891SOL    HW118572   3.060   3.370   6.851
 5891SOL    HW218573   2.968   3.329   6.722
 5892SOL     OW18574   1.127   5.047   2.567
 5892SOL    HW118575   1.096   4.969   2.621
 5892SOL    HW218576   1.204   5.020   2.510
 5893SOL     OW18577   2.234   4.099   3.763
 5893SOL    HW118578   2.232   4.115   3.862
 5893SOL    HW218579   2.224   4.001   3.745
 5894SOL     OW18580   0.127   5.918   4.302
 5894SOL    HW118581   0.069   5.862   4.243
 5894SOL    HW218582   0.178   5.859   4.365
 5895SOL     OW18583   5.092   2.987   3.789
 5895SOL    HW118584   5.065   2.925   3.863
 5895SOL    HW218585   5.191   3.002   3.791
 5896SOL     OW18586   3.286   0.701   1.186
 5896SOL    HW118587   3.325   0.622   1.139
 5896SOL    HW218588   3.281   0.683   1.284
 5897SOL     OW18589   4.305   6.854   1.495
 5897SOL    HW118590   4.401   6.880   1.485
 5897SOL    HW218591   4.268   6.829   1.406
 5898SOL     OW18592   2.780   0.291   3.988
 5898SOL    HW118593   2.733   0.363   3.936
 5898SOL    HW218594   2.850   0.248   3.931
 5899SOL     OW18595   6.438   5.275   0.009
 5899SOL    HW118596   6.537   5.270   0.024
 5899SOL    HW218597   6.391   5.257   0.095
 5900SOL     OW18598   6.239   5.241   3.651
 5900SOL    HW118599   6.300   5.292   3.590
 5900SOL    HW218600   6.289   5.213   3.732
 5901SOL     OW18601   2.210   1.326   0.434
 5901SOL    HW118602   2.244   1.322   0.528
 5901SOL    HW218603   2.256   1.401   0.386
 5902SOL     OW18604   5.696   2.204   4.889
 5902SOL    HW118605   5.774   2.143   4.899
 5902SOL    HW218606   5.728   2.297   4.868
 5903SOL     OW18607   4.806   3.538   6.791
 5903SOL    HW118608   4.775   3.469   6.726
 5903SOL    HW218609   4.826   3.494   6.879
 5904SOL     OW18610   1.331   4.401   1.163
 5904SOL    HW118611   1.245   4.351   1.153
 5904SOL    HW218612   1.314   4.487   1.210
 5905SOL     OW18613   6.221   0.095   3.999
 5905SOL    HW118614   6.190   0.008   3.961
 5905SOL    HW218615   6.251   0.082   4.094
 5906SOL     OW18616   3.731   1.839   3.602
 5906SOL    HW118617   3.829   1.820   3.613
 5906SOL    HW218618   3.688   1.848   3.691
 5907SOL     OW18619   1.033   5.568   6.972
 5907SOL    HW118620   1.027   5.648   6.913
 5907SOL    HW218621   1.116   5.575   0.006
 5908SOL     OW18622   0.182   3.010   0.148
 5908SOL    HW118623   0.149   3.104   0.155
 5908SOL    HW218624   0.261   2.997   0.208
 5909SOL     OW18625   6.807   4.969   0.372
 5909SOL    HW118626   6.804   5.068   0.389
 5909SOL    HW218627   6.845   4.923   0.453
 5910SOL     OW18628   0.830   4.160   3.488
 5910SOL    HW118629   0.852   4.129   3.580
 5910SOL    HW218630   0.778   4.245   3.493
 5911SOL     OW18631   6.881   5.195   6.275
 5911SOL    HW118632   6.836   5.117   6.318
 5911SOL    HW218633   6.878   5.185   6.176
 5912SOL     OW18634   5.969   2.341   6.820
 5912SOL    HW118635   5.950   2.417   6.758
 5912SOL    HW218636   5.993   2.377   6.911
 5913SOL     OW18637   4.996   3.104   6.201
 5913SOL    HW118638   4.970   3.132   6.108
 5913SOL    HW218639   5.089   3.134   6.220
 5914SOL     OW18640   1.811   5.143   6.564
 5914SOL    HW118641   1.737   5.210   6.568
 5914SOL    HW218642   1.802   5.089   6.480
 5915SOL     OW18643   5.086   5.361   1.305
 5915SOL    HW118644   5.124   5.438   1.253
 5915SOL    HW218645   4.994   5.340   1.272
 5916SOL     OW18646   4.286   5.726   4.485
 5916SOL    HW118647   4.316   5.807   4.433
 5916SOL    HW218648   4.202   5.747   4.535
 5917SOL     OW18649   3.060   3.524   4.190
 5917SOL    HW118650   3.124   3.546   4.263
 5917SOL    HW218651   3.020   3.434   4.206
 5918SOL     OW18652   1.862   3.650   6.070
 5918SOL    HW118653   1.779   3.637   6.123
 5918SOL    HW218654   1.841   3.696   5.984
 5919SOL     OW18655   3.798   3.241   1.814
 5919SOL    HW118656   3.809   3.145   1.839
 5919SOL    HW218657   3.727   3.282   1.871
 5920SOL     OW18658   4.341   0.669   6.933
 5920SOL    HW118659   4.268   0.672   6.865
 5920SOL    HW218660   4.327   0.741   7.001
 5921SOL     OW18661   3.569   5.344   6.132
 5921SOL    HW118662   3.577   5.439   6.100
 5921SOL    HW218663   3.659   5.312   6.163
 5922SOL     OW18664   6.510   5.262   2.655
 5922SOL    HW118665   6.490   5.358   2.678
 5922SOL    HW218666   6.544   5.256   2.562
 5923SOL     OW18667   5.532   1.108   1.661
 5923SOL    HW118668   5.476   1.071   1.735
 5923SOL    HW218669   5.480   1.176   1.610
 5924SOL     OW18670   7.007   1.045   3.539
 5924SOL    HW118671   6.937   1.055   3.468
 5924SOL    HW218672   0.066   1.097   3.512
 5925SOL     OW18673   3.870   5.432   1.717
 5925SOL    HW118674   3.813   5.511   1.695
 5925SOL    HW218675   3.813   5.357   1.750
 5926SOL     OW18676   4.268   5.625   1.336
 5926SOL    HW118677   4.170   5.632   1.317
 5926SOL    HW218678   4.317   5.612   1.250
 5927SOL     OW18679   1.394   4.103   2.783
 5927SOL    HW118680   1.350   4.033   2.728
 5927SOL    HW218681   1.325   4.157   2.832
 5928SOL     OW18682   3.171   0.296   0.797
 5928SOL    HW118683   3.119   0.231   0.741
 5928SOL    HW218684   3.228   0.354   0.738
 5929SOL     OW18685   0.597   6.920   6.684
 5929SOL    HW118686   0.686   6.920   6.730
 5929SOL    HW218687   0.527   6.951   6.748
 5930SOL     OW18688   6.499   3.139   3.454
 5930SOL    HW118689   6.422   3.161   3.394
 5930SOL    HW218690   6.478   3.170   3.547
 5931SOL     OW18691   6.922   5.840   3.113
 5931SOL    HW118692   6.823   5.832   3.126
 5931SOL    HW218693   6.941   5.890   3.028
 5932SOL     OW18694   2.506   0.253   0.661
 5932SOL    HW118695   2.497   0.346   0.626
 5932SOL    HW218696   2.600   0.238   0.692
 5933SOL     OW18697   0.135   5.975   3.616
 5933SOL    HW118698   0.096   6.003   3.528
 5933SOL    HW218699   0.067   5.991   3.688
 5934SOL     OW18700   3.445   2.901   4.170
 5934SOL    HW118701   3.498   2.985   4.173
 5934SOL    HW218702   3.496   2.827   4.215
 5935SOL     OW18703   4.762   4.510   6.338
 5935SOL    HW118704   4.848   4.551   6.308
 5935SOL    HW218705   4.751   4.524   6.437
 5936SOL     OW18706   3.510   2.950   0.982
 5936SOL    HW118707   3.457   3.021   1.028
 5936SOL    HW218708   3.512   2.969   0.883
 5937SOL     OW18709   0.960   4.343   2.865
 5937SOL    HW118710   0.882   4.308   2.813
 5937SOL    HW218711   0.927   4.380   2.952
 5938SOL     OW18712   0.750   5.030   3.584
 5938SOL    HW118713   0.669   5.071   3.543
 5938SOL    HW218714   0.794   4.969   3.518
 5939SOL     OW18715   2.518   6.747   3.143
 5939SOL    HW118716   2.561   6.710   3.061
 5939SOL    HW218717   2.487   6.840   3.125
 5940SOL     OW18718   4.586   5.395   0.756
 5940SOL    HW118719   4.536   5.458   0.816
 5940SOL    HW218720   4.525   5.358   0.687
 5941SOL     OW18721   5.983   3.302   2.119
 5941SOL    HW118722   5.885   3.315   2.103
 5941SOL    HW218723   6.035   3.365   2.062
 5942SOL     OW18724   4.951   3.329   0.421
 5942SOL    HW118725   5.036   3.344   0.472
 5942SOL    HW218726   4.945   3.233   0.395
 5943SOL     OW18727   3.812   4.956   0.421
 5943SOL    HW118728   3.730   4.949   0.479
 5943SOL    HW218729   3.892   4.973   0.479
 5944SOL     OW18730   6.279   3.054   1.307
 5944SOL    HW118731   6.373   3.053   1.342
 5944SOL    HW218732   6.231   3.134   1.345
 5945SOL     OW18733   6.115   5.446   5.342
 5945SOL    HW118734   6.160   5.394   5.414
 5945SOL    HW218735   6.106   5.390   5.260
 5946SOL     OW18736   3.753   3.271   6.306
 5946SOL    HW118737   3.776   3.212   6.229
 5946SOL    HW218738   3.777   3.225   6.392
 5947SOL     OW18739   3.943   3.527   1.875
 5947SOL    HW118740   3.911   3.432   1.884
 5947SOL    HW218741   4.017   3.530   1.808
 5948SOL     OW18742   4.485   5.205   3.575
 5948SOL    HW118743   4.460   5.244   3.486
 5948SOL    HW218744   4.504   5.279   3.639
 5949SOL     OW18745   4.773   3.984   1.733
 5949SOL    HW118746   4.824   3.966   1.817
 5949SOL    HW218747   4.684   4.023   1.755
 5950SOL     OW18748   4.465   1.908   5.766
 5950SOL    HW118749   4.537   1.954   5.818
 5950SOL    HW218750   4.405   1.976   5.725
 5951SOL     OW18751   1.013   5.983   3.779
 5951SOL    HW118752   1.019   5.888   3.749
 5951SOL    HW218753   1.056   5.993   3.869
 5952SOL     OW18754   5.603   4.786   3.786
 5952SOL    HW118755   5.579   4.689   3.782
 5952SOL    HW218756   5.702   4.796   3.781
 5953SOL     OW18757   6.286   3.066   5.592
 5953SOL    HW118758   6.187   3.081   5.591
 5953SOL    HW218759   6.332   3.147   5.629
 5954SOL     OW18760   0.061   4.353   6.234
 5954SOL    HW118761   0.085   4.354   6.331
 5954SOL    HW218762   0.064   4.260   6.200
 5955SOL     OW18763   5.262   6.086   2.798
 5955SOL    HW118764   5.252   5.987   2.811
 5955SOL    HW218765   5.173   6.130   2.802
 5956SOL     OW18766   4.656   1.162   5.948
 5956SOL    HW118767   4.690   1.246   5.906
 5956SOL    HW218768   4.604   1.109   5.880
 5957SOL     OW18769   4.122   0.752   5.041
 5957SOL    HW118770   4.112   0.662   5.082
 5957SOL    HW218771   4.200   0.752   4.978
 5958SOL     OW18772   5.856   6.895   3.199
 5958SOL    HW118773   5.867   6.986   3.161
 5958SOL    HW218774   5.859   6.899   3.299
 5959SOL     OW18775   3.976   2.539   5.456
 5959SOL    HW118776   3.893   2.485   5.438
 5959SOL    HW218777   4.023   2.556   5.369
 5960SOL     OW18778   3.576   5.249   4.685
 5960SOL    HW118779   3.612   5.160   4.712
 5960SOL    HW218780   3.530   5.292   4.763
 5961SOL     OW18781   5.361   1.514   3.010
 5961SOL    HW118782   5.267   1.492   2.984
 5961SOL    HW218783   5.365   1.535   3.108
 5962SOL     OW18784   5.494   6.596   0.588
 5962SOL    HW118785   5.435   6.634   0.660
 5962SOL    HW218786   5.579   6.564   0.628
 5963SOL     OW18787   3.657   3.403   5.442
 5963SOL    HW118788   3.589   3.333   5.421
 5963SOL    HW218789   3.729   3.401   5.373
 5964SOL     OW18790   0.568   5.230   5.022
 5964SOL    HW118791   0.486   5.190   5.063
 5964SOL    HW218792   0.544   5.315   4.976
 5965SOL     OW18793   1.463   2.248   6.746
 5965SOL    HW118794   1.532   2.320   6.744
 5965SOL    HW218795   1.399   2.264   6.821
 5966SOL     OW18796   3.150   5.985   5.381
 5966SOL    HW118797   3.246   5.975   5.410
 5966SOL    HW218798   3.113   5.895   5.359
 5967SOL     OW18799   4.157   6.806   6.548
 5967SOL    HW118800   4.222   6.735   6.519
 5967SOL    HW218801   4.074   6.800   6.492
 5968SOL     OW18802   4.581   1.569   0.825
 5968SOL    HW118803   4.652   1.564   0.755
 5968SOL    HW218804   4.593   1.495   0.891
 5969SOL     OW18805   0.493   6.729   6.404
 5969SOL    HW118806   0.430   6.714   6.328
 5969SOL    HW218807   0.486   6.823   6.436
 5970SOL     OW18808   0.267   4.516   2.328
 5970SOL    HW118809   0.246   4.579   2.254
 5970SOL    HW218810   0.272   4.566   2.415
 5971SOL     OW18811   1.531   0.964   2.369
 5971SOL    HW118812   1.510   0.953   2.466
 5971SOL    HW218813   1.463   0.915   2.314
 5972SOL     OW18814   5.548   5.116   6.992
 5972SOL    HW118815   5.504   5.057   0.037
 5972SOL    HW218816   5.486   5.132   6.916
 5973SOL     OW18817   1.825   3.624   2.611
 5973SOL    HW118818   1.905   3.660   2.562
 5973SOL    HW218819   1.742   3.660   2.568
 5974SOL     OW18820   5.497   5.003   6.582
 5974SOL    HW118821   5.561   4.970   6.513
 5974SOL    HW218822   5.458   4.926   6.631
 5975SOL     OW18823   3.655   1.076   0.507
 5975SOL    HW118824   3.691   1.169   0.517
 5975SOL    HW218825   3.573   1.078   0.449
 5976SOL     OW18826   3.367   3.359   5.891
 5976SOL    HW118827   3.440   3.315   5.944
 5976SOL    HW218828   3.279   3.343   5.936
 5977SOL     OW18829   2.648   5.592   6.777
 5977SOL    HW118830   2.678   5.529   6.849
 5977SOL    HW218831   2.722   5.605   6.710
 5978SOL     OW18832   5.099   5.499   3.075
 5978SOL    HW118833   5.132   5.492   3.170
 5978SOL    HW218834   5.128   5.586   3.036
 5979SOL     OW18835   5.811   0.602   3.108
 5979SOL    HW118836   5.875   0.618   3.183
 5979SOL    HW218837   5.767   0.687   3.083
 5980SOL     OW18838   3.661   4.067   1.037
 5980SOL    HW118839   3.615   4.044   1.122
 5980SOL    HW218840   3.677   3.984   0.983
 5981SOL     OW18841   5.569   2.242   1.558
 5981SOL    HW118842   5.481   2.249   1.510
 5981SOL    HW218843   5.639   2.211   1.494
 5982SOL     OW18844   6.809   3.464   2.355
 5982SOL    HW118845   6.851   3.425   2.437
 5982SOL    HW218846   6.711   3.448   2.357
 5983SOL     OW18847   0.945   1.853   3.848
 5983SOL    HW118848   0.967   1.906   3.767
 5983SOL    HW218849   1.012   1.872   3.920
 5984SOL     OW18850   6.598   5.730   3.969
 5984SOL    HW118851   6.637   5.726   4.061
 5984SOL    HW218852   6.655   5.676   3.907
 5985SOL     OW18853   6.940   2.870   4.310
 5985SOL    HW118854   0.014   2.895   4.306
 5985SOL    HW218855   6.928   2.776   4.279
 5986SOL     OW18856   3.202   3.710   4.587
 5986SOL    HW118857   3.287   3.658   4.591
 5986SOL    HW218858   3.151   3.697   4.672
 5987SOL     OW18859   4.760   0.210   4.410
 5987SOL    HW118860   4.800   0.145   4.474
 5987SOL    HW218861   4.820   0.290   4.402
 5988SOL     OW18862   4.825   6.848   5.526
 5988SOL    HW118863   4.888   6.890   5.591
 5988SOL    HW218864   4.755   6.915   5.499
 5989SOL     OW18865   2.382   6.700   6.669
 5989SOL    HW118866   2.473   6.664   6.692
 5989SOL    HW218867   2.312   6.644   6.713
 5990SOL     OW18868   3.692   4.387   0.104
 5990SOL    HW118869   3.616   4.326   0.122
 5990SOL    HW218870   3.657   4.478   0.078
 5991SOL     OW18871   3.250   4.885   6.988
 5991SOL    HW118872   3.266   4.837   0.052
 5991SOL    HW218873   3.223   4.819   6.918
 5992SOL     OW18874   3.779   6.902   2.353
 5992SOL    HW118875   3.771   6.989   2.306
 5992SOL    HW218876   3.709   6.896   2.425
 5993SOL     OW18877   3.035   5.932   6.834
 5993SOL    HW118878   3.032   5.994   6.913
 5993SOL    HW218879   3.045   5.986   6.750
 5994SOL     OW18880   5.647   2.572   2.285
 5994SOL    HW118881   5.627   2.494   2.225
 5994SOL    HW218882   5.564   2.599   2.334
 5995SOL     OW18883   5.079   4.328   3.061
 5995SOL    HW118884   5.060   4.381   3.144
 5995SOL    HW218885   5.108   4.389   2.988
 5996SOL     OW18886   1.165   6.589   0.802
 5996SOL    HW118887   1.091   6.522   0.795
 5996SOL    HW218888   1.237   6.553   0.862
 5997SOL     OW18889   0.731   5.470   2.557
 5997SOL    HW118890   0.690   5.379   2.558
 5997SOL    HW218891   0.821   5.467   2.600
 5998SOL     OW18892   5.687   1.515   3.312
 5998SOL    HW118893   5.770   1.460   3.315
 5998SOL    HW218894   5.702   1.601   3.361
 5999SOL     OW18895   1.721   1.579   2.793
 5999SOL    HW118896   1.811   1.554   2.757
 5999SOL    HW218897   1.656   1.586   2.718
 6000SOL     OW18898   4.534   6.744   0.973
 6000SOL    HW118899   4.619   6.692   0.972
 6000SOL    HW218900   4.467   6.700   0.913
 6001SOL     OW18901   1.077   3.649   6.818
 6001SOL    HW118902   1.096   3.700   6.734
 6001SOL    HW218903   1.008   3.698   6.872
 6002SOL     OW18904   6.082   7.011   0.920
 6002SOL    HW118905   6.038   6.998   1.009
 6002SOL    HW218906   6.107   0.085   0.909
 6003SOL     OW18907   6.311   2.391   4.408
 6003SOL    HW118908   6.324   2.294   4.430
 6003SOL    HW218909   6.258   2.435   4.480
 6004SOL     OW18910   0.480   3.391   2.829
 6004SOL    HW118911   0.407   3.380   2.896
 6004SOL    HW218912   0.442   3.385   2.736
 6005SOL     OW18913   5.146   5.404   4.561
 6005SOL    HW118914   5.108   5.429   4.472
 6005SOL    HW218915   5.080   5.425   4.632
 6006SOL     OW18916   2.725   0.818   6.022
 6006SOL    HW118917   2.644   0.771   6.058
 6006SOL    HW218918   2.803   0.798   6.081
 6007SOL     OW18919   5.023   3.539   5.475
 6007SOL    HW118920   4.936   3.581   5.450
 6007SOL    HW218921   5.090   3.610   5.495
 6008SOL     OW18922   1.927   4.472   5.880
 6008SOL    HW118923   1.857   4.513   5.939
 6008SOL    HW218924   1.884   4.434   5.798
 6009SOL     OW18925   3.390   0.433   3.517
 6009SOL    HW118926   3.431   0.391   3.598
 6009SOL    HW218927   3.461   0.451   3.449
 6010SOL     OW18928   1.658   4.350   4.240
 6010SOL    HW118929   1.682   4.271   4.185
 6010SOL    HW218930   1.693   4.433   4.196
 6011SOL     OW18931   4.922   3.415   2.295
 6011SOL    HW118932   4.903   3.320   2.274
 6011SOL    HW218933   4.849   3.473   2.260
 6012SOL     OW18934   5.012   1.418   0.157
 6012SOL    HW118935   4.958   1.398   0.075
 6012SOL    HW218936   4.956   1.403   0.239
 6013SOL     OW18937   4.469   2.017   2.891
 6013SOL    HW118938   4.504   1.925   2.873
 6013SOL    HW218939   4.430   2.021   2.983
 6014SOL     OW18940   3.926   3.725   1.248
 6014SOL    HW118941   3.867   3.695   1.173
 6014SOL    HW218942   3.968   3.646   1.291
 6015SOL     OW18943   5.376   2.949   4.353
 6015SOL    HW118944   5.291   2.988   4.317
 6015SOL    HW218945   5.417   3.013   4.418
 6016SOL     OW18946   6.512   2.106   6.139
 6016SOL    HW118947   6.436   2.094   6.202
 6016SOL    HW218948   6.507   2.037   6.067
 6017SOL     OW18949   6.665   4.162   3.028
 6017SOL    HW118950   6.582   4.209   3.059
 6017SOL    HW218951   6.745   4.208   3.066
 6018SOL     OW18952   3.212   0.685   6.640
 6018SOL    HW118953   3.252   0.597   6.666
 6018SOL    HW218954   3.168   0.677   6.551
 6019SOL     OW18955   6.947   1.797   4.199
 6019SOL    HW118956   7.019   1.818   4.265
 6019SOL    HW218957   6.969   1.838   4.111
 6020SOL     OW18958   1.012   4.846   0.704
 6020SOL    HW118959   0.959   4.929   0.687
 6020SOL    HW218960   1.099   4.852   0.656
 6021SOL     OW18961   4.842   0.450   2.337
 6021SOL    HW118962   4.745   0.472   2.344
 6021SOL    HW218963   4.865   0.378   2.402
 6022SOL     OW18964   4.238   2.228   4.182
 6022SOL    HW118965   4.296   2.243   4.262
 6022SOL    HW218966   4.252   2.302   4.116
 6023SOL     OW18967   6.270   0.301   2.369
 6023SOL    HW118968   6.268   0.377   2.434
 6023SOL    HW218969   6.183   0.251   2.374
 6024SOL     OW18970   1.235   5.121   3.520
 6024SOL    HW118971   1.311   5.095   3.579
 6024SOL    HW218972   1.210   5.044   3.462
 6025SOL     OW18973   3.533   1.529   2.835
 6025SOL    HW118974   3.483   1.574   2.909
 6025SOL    HW218975   3.577   1.598   2.777
 6026SOL     OW18976   0.005   4.414   5.348
 6026SOL    HW118977   6.956   4.361   5.301
 6026SOL    HW218978   0.093   4.368   5.336
 6027SOL     OW18979   1.343   4.291   6.932
 6027SOL    HW118980   1.302   4.328   6.849
 6027SOL    HW218981   1.364   4.194   6.919
 6028SOL     OW18982   0.350   4.678   6.496
 6028SOL    HW118983   0.355   4.598   6.437
 6028SOL    HW218984   0.302   4.752   6.448
 6029SOL     OW18985   2.423   6.198   5.255
 6029SOL    HW118986   2.460   6.202   5.348
 6029SOL    HW218987   2.360   6.121   5.247
 6030SOL     OW18988   3.677   5.946   3.070
 6030SOL    HW118989   3.632   5.896   3.144
 6030SOL    HW218990   3.774   5.923   3.069
 6031SOL     OW18991   3.037   5.531   3.394
 6031SOL    HW118992   3.066   5.592   3.468
 6031SOL    HW218993   2.965   5.575   3.341
 6032SOL     OW18994   2.490   4.595   2.930
 6032SOL    HW118995   2.503   4.498   2.951
 6032SOL    HW218996   2.465   4.645   3.013
 6033SOL     OW18997   3.079   1.882   3.029
 6033SOL    HW118998   3.070   1.980   3.043
 6033SOL    HW218999   3.150   1.846   3.089
 6034SOL     OW19000   0.978   4.813   4.899
 6034SOL    HW119001   0.908   4.874   4.861
 6034SOL    HW219002   1.060   4.865   4.922
 6035SOL     OW19003   6.827   0.886   2.555
 6035SOL    HW119004   6.870   0.813   2.608
 6035SOL    HW219005   6.733   0.898   2.586
 6036SOL     OW19006   5.768   5.661   3.636
 6036SOL    HW119007   5.717   5.614   3.708
 6036SOL    HW219008   5.850   5.608   3.613
 6037SOL     OW19009   4.344   5.067   6.597
 6037SOL    HW119010   4.316   5.033   6.507
 6037SOL    HW219011   4.268   5.116   6.640
 6038SOL     OW19012   1.591   2.368   5.830
 6038SOL    HW119013   1.665   2.308   5.860
 6038SOL    HW219014   1.577   2.357   5.732
 6039SOL     OW19015   3.087   3.694   2.499
 6039SOL    HW119016   3.033   3.712   2.582
 6039SOL    HW219017   3.149   3.617   2.516
 6040SOL     OW19018   0.880   1.947   6.744
 6040SOL    HW119019   0.838   1.856   6.741
 6040SOL    HW219020   0.810   2.017   6.731
 6041SOL     OW19021   2.293   0.291   5.078
 6041SOL    HW119022   2.350   0.348   5.137
 6041SOL    HW219023   2.245   0.348   5.012
 6042SOL     OW19024   5.310   5.449   1.824
 6042SOL    HW119025   5.252   5.367   1.835
 6042SOL    HW219026   5.284   5.496   1.740
 6043SOL     OW19027   0.637   4.719   5.559
 6043SOL    HW119028   0.617   4.631   5.516
 6043SOL    HW219029   0.570   4.786   5.529
 6044SOL     OW19030   1.059   1.754   2.022
 6044SOL    HW119031   1.051   1.698   2.104
 6044SOL    HW219032   1.148   1.801   2.022
 6045SOL     OW19033   6.151   4.894   2.350
 6045SOL    HW119034   6.239   4.863   2.313
 6045SOL    HW219035   6.080   4.828   2.329
 6046SOL     OW19036   3.883   2.349   0.776
 6046SOL    HW119037   3.865   2.295   0.694
 6046SOL    HW219038   3.937   2.294   0.841
 6047SOL     OW19039   5.181   2.322   1.610
 6047SOL    HW119040   5.211   2.349   1.518
 6047SOL    HW219041   5.238   2.366   1.678
 6048SOL     OW19042   4.618   5.457   4.897
 6048SOL    HW119043   4.710   5.479   4.931
 6048SOL    HW219044   4.565   5.415   4.971
 6049SOL     OW19045   6.005   4.118   6.474
 6049SOL    HW119046   6.028   4.191   6.409
 6049SOL    HW219047   6.085   4.095   6.529
 6050SOL     OW19048   3.510   6.269   4.311
 6050SOL    HW119049   3.511   6.266   4.211
 6050SOL    HW219050   3.502   6.176   4.347
 6051SOL     OW19051   2.596   0.850   4.413
 6051SOL    HW119052   2.619   0.783   4.483
 6051SOL    HW219053   2.650   0.832   4.330
 6052SOL     OW19054   6.388   0.533   0.824
 6052SOL    HW119055   6.378   0.466   0.897
 6052SOL    HW219056   6.329   0.612   0.843
 6053SOL     OW19057   4.502   1.465   6.494
 6053SOL    HW119058   4.509   1.564   6.489
 6053SOL    HW219059   4.521   1.435   6.588
 6054SOL     OW19060   2.776   3.259   0.737
 6054SOL    HW119061   2.707   3.200   0.696
 6054SOL    HW219062   2.735   3.347   0.760
 6055SOL     OW19063   4.915   0.778   5.223
 6055SOL    HW119064   4.818   0.757   5.233
 6055SOL    HW219065   4.946   0.755   5.131
 6056SOL     OW19066   4.641   2.634   4.723
 6056SOL    HW119067   4.665   2.672   4.634
 6056SOL    HW219068   4.721   2.638   4.784
 6057SOL     OW19069   5.221   2.717   3.629
 6057SOL    HW119070   5.270   2.772   3.697
 6057SOL    HW219071   5.138   2.678   3.671
 6058SOL     OW19072   4.805   3.271   0.804
 6058SOL    HW119073   4.823   3.181   0.844
 6058SOL    HW219074   4.709   3.296   0.821
 6059SOL     OW19075   5.220   4.991   5.292
 6059SOL    HW119076   5.193   5.070   5.236
 6059SOL    HW219077   5.279   5.023   5.366
 6060SOL     OW19078   2.527   4.510   6.698
 6060SOL    HW119079   2.527   4.479   6.603
 6060SOL    HW219080   2.442   4.483   6.743
 6061SOL     OW19081   3.502   2.139   1.219
 6061SOL    HW119082   3.576   2.200   1.191
 6061SOL    HW219083   3.419   2.192   1.236
 6062SOL     OW19084   2.270   1.807   5.185
 6062SOL    HW119085   2.336   1.773   5.252
 6062SOL    HW219086   2.227   1.730   5.139
 6063SOL     OW19087   3.198   1.838   6.358
 6063SOL    HW119088   3.129   1.905   6.386
 6063SOL    HW219089   3.216   1.775   6.434
 6064SOL     OW19090   1.728   5.967   1.025
 6064SOL    HW119091   1.808   5.995   1.076
 6064SOL    HW219092   1.735   5.869   1.003
 6065SOL     OW19093   6.698   0.074   2.061
 6065SOL    HW119094   6.786   0.043   2.023
 6065SOL    HW219095   6.627   0.064   1.992
 6066SOL     OW19096   5.037   1.790   5.967
 6066SOL    HW119097   5.055   1.701   6.008
 6066SOL    HW219098   5.111   1.814   5.903
 6067SOL     OW19099   5.616   1.666   5.671
 6067SOL    HW119100   5.561   1.604   5.727
 6067SOL    HW219101   5.623   1.755   5.718
 6068SOL     OW19102   5.660   2.911   4.614
 6068SOL    HW119103   5.648   2.996   4.564
 6068SOL    HW219104   5.625   2.920   4.706
 6069SOL     OW19105   6.835   3.117   4.458
 6069SOL    HW119106   6.930   3.100   4.482
 6069SOL    HW219107   6.810   3.062   4.378
 6070SOL     OW19108   2.275   3.035   0.508
 6070SOL    HW119109   2.282   3.054   0.410
 6070SOL    HW219110   2.308   3.114   0.560
 6071SOL     OW19111   6.084   5.337   4.456
 6071SOL    HW119112   5.992   5.316   4.424
 6071SOL    HW219113   6.080   5.399   4.534
 6072SOL     OW19114   0.596   0.333   1.808
 6072SOL    HW119115   0.522   0.339   1.741
 6072SOL    HW219116   0.566   0.278   1.886
 6073SOL     OW19117   6.060   3.713   0.423
 6073SOL    HW119118   5.965   3.741   0.420
 6073SOL    HW219119   6.081   3.657   0.343
 6074SOL     OW19120   1.364   6.451   4.415
 6074SOL    HW119121   1.282   6.395   4.430
 6074SOL    HW219122   1.443   6.392   4.400
 6075SOL     OW19123   6.772   1.388   6.543
 6075SOL    HW119124   6.710   1.309   6.543
 6075SOL    HW219125   6.718   1.472   6.539
 6076SOL     OW19126   2.306   5.674   4.487
 6076SOL    HW119127   2.262   5.646   4.402
 6076SOL    HW219128   2.342   5.767   4.477
 6077SOL     OW19129   5.862   5.831   1.499
 6077SOL    HW119130   5.858   5.864   1.404
 6077SOL    HW219131   5.900   5.738   1.500
 6078SOL     OW19132   3.996   4.982   0.661
 6078SOL    HW119133   3.988   4.909   0.729
 6078SOL    HW219134   4.060   4.955   0.590
 6079SOL     OW19135   4.048   2.920   6.427
 6079SOL    HW119136   3.984   2.852   6.463
 6079SOL    HW219137   4.049   2.915   6.327
 6080SOL     OW19138   6.716   1.174   1.679
 6080SOL    HW119139   6.746   1.269   1.667
 6080SOL    HW219140   6.744   1.141   1.769
 6081SOL     OW19141   6.120   3.463   5.713
 6081SOL    HW119142   6.173   3.442   5.631
 6081SOL    HW219143   6.063   3.385   5.737
 6082SOL     OW19144   2.205   1.885   3.603
 6082SOL    HW119145   2.286   1.826   3.603
 6082SOL    HW219146   2.123   1.830   3.589
 6083SOL     OW19147   0.279   4.951   0.010
 6083SOL    HW119148   0.231   4.974   0.095
 6083SOL    HW219149   0.272   4.853   7.016
 6084SOL     OW19150   0.431   6.543   3.561
 6084SOL    HW119151   0.493   6.541   3.483
 6084SOL    HW219152   0.385   6.455   3.570
 6085SOL     OW19153   0.984   4.470   0.368
 6085SOL    HW119154   1.073   4.479   0.323
 6085SOL    HW219155   0.991   4.504   0.462
 6086SOL     OW19156   3.729   1.341   6.074
 6086SOL    HW119157   3.690   1.363   6.164
 6086SOL    HW219158   3.776   1.421   6.038
 6087SOL     OW19159   4.199   5.460   0.713
 6087SOL    HW119160   4.256   5.539   0.734
 6087SOL    HW219161   4.217   5.387   0.779
 6088SOL     OW19162   6.096   5.578   4.124
 6088SOL    HW119163   6.137   5.560   4.213
 6088SOL    HW219164   6.139   5.658   4.082
 6089SOL     OW19165   6.500   3.401   0.542
 6089SOL    HW119166   6.548   3.343   0.608
 6089SOL    HW219167   6.452   3.343   0.476
 6090SOL     OW19168   2.227   6.136   5.857
 6090SOL    HW119169   2.232   6.207   5.786
 6090SOL    HW219170   2.171   6.061   5.824
 6091SOL     OW19171   1.417   1.689   1.450
 6091SOL    HW119172   1.517   1.692   1.443
 6091SOL    HW219173   1.379   1.776   1.417
 6092SOL     OW19174   3.896   6.773   3.009
 6092SOL    HW119175   3.995   6.762   3.008
 6092SOL    HW219176   3.872   6.870   3.012
 6093SOL     OW19177   1.821   3.385   2.752
 6093SOL    HW119178   1.728   3.361   2.778
 6093SOL    HW219179   1.822   3.476   2.711
 6094SOL     OW19180   3.728   0.714   1.657
 6094SOL    HW119181   3.631   0.697   1.673
 6094SOL    HW219182   3.781   0.680   1.735
 6095SOL     OW19183   4.722   3.408   0.548
 6095SOL    HW119184   4.764   3.403   0.639
 6095SOL    HW219185   4.791   3.389   0.478
 6096SOL     OW19186   6.826   0.508   3.599
 6096SOL    HW119187   6.908   0.515   3.542
 6096SOL    HW219188   6.747   0.539   3.547
 6097SOL     OW19189   2.343   6.859   1.833
 6097SOL    HW119190   2.386   6.814   1.910
 6097SOL    HW219191   2.264   6.912   1.865
 6098SOL     OW19192   1.416   2.385   6.045
 6098SOL    HW119193   1.436   2.320   6.118
 6098SOL    HW219194   1.456   2.353   5.960
 6099SOL     OW19195   6.701   6.558   0.755
 6099SOL    HW119196   6.612   6.565   0.800
 6099SOL    HW219197   6.689   6.564   0.656
 6100SOL     OW19198   4.336   3.754   0.063
 6100SOL    HW119199   4.271   3.701   0.009
 6100SOL    HW219200   4.352   3.843   0.020
 6101SOL     OW19201   6.363   2.268   4.790
 6101SOL    HW119202   6.418   2.352   4.790
 6101SOL    HW219203   6.411   2.198   4.736
 6102SOL     OW19204   3.249   6.681   3.434
 6102SOL    HW119205   3.304   6.613   3.482
 6102SOL    HW219206   3.158   6.687   3.476
 6103SOL     OW19207   6.637   2.969   2.509
 6103SOL    HW119208   6.669   3.010   2.594
 6103SOL    HW219209   6.643   2.870   2.514
 6104SOL     OW19210   5.906   1.240   5.424
 6104SOL    HW119211   5.845   1.167   5.393
 6104SOL    HW219212   5.887   1.260   5.520
 6105SOL     OW19213   2.117   0.144   5.545
 6105SOL    HW119214   2.110   0.072   5.475
 6105SOL    HW219215   2.025   0.172   5.573
 6106SOL     OW19216   2.485   4.222   5.937
 6106SOL    HW119217   2.583   4.208   5.953
 6106SOL    HW219218   2.463   4.191   5.844
 6107SOL     OW19219   2.521   4.671   4.995
 6107SOL    HW119220   2.614   4.635   4.995
 6107SOL    HW219221   2.482   4.664   5.087
 6108SOL     OW19222   0.356   2.401   2.211
 6108SOL    HW119223   0.344   2.309   2.247
 6108SOL    HW219224   0.285   2.420   2.142
 6109SOL     OW19225   5.224   2.708   5.808
 6109SOL    HW119226   5.215   2.771   5.885
 6109SOL    HW219227   5.135   2.695   5.764
 6110SOL     OW19228   4.190   3.393   0.431
 6110SOL    HW119229   4.264   3.448   0.468
 6110SOL    HW219230   4.178   3.414   0.334
 6111SOL     OW19231   2.301   4.361   2.087
 6111SOL    HW119232   2.310   4.261   2.085
 6111SOL    HW219233   2.314   4.398   1.995
 6112SOL     OW19234   4.092   0.015   2.554
 6112SOL    HW119235   4.078   0.029   2.456
 6112SOL    HW219236   4.186   0.039   2.578
 6113SOL     OW19237   1.883   1.223   6.581
 6113SOL    HW119238   1.859   1.243   6.676
 6113SOL    HW219239   1.967   1.168   6.578
 6114SOL     OW19240   5.224   5.581   1.171
 6114SOL    HW119241   5.265   5.579   1.080
 6114SOL    HW219242   5.180   5.670   1.186
 6115SOL     OW19243   4.572   0.416   3.874
 6115SOL    HW119244   4.556   0.451   3.966
 6115SOL    HW219245   4.515   0.335   3.859
 6116SOL     OW19246   3.069   0.053   0.222
 6116SOL    HW119247   3.009   0.091   0.152
 6116SOL    HW219248   3.043   6.980   0.240
 6117SOL     OW19249   0.575   0.951   5.400
 6117SOL    HW119250   0.480   0.979   5.415
 6117SOL    HW219251   0.578   0.853   5.381
 6118SOL     OW19252   6.768   0.438   2.435
 6118SOL    HW119253   6.788   0.433   2.337
 6118SOL    HW219254   6.693   0.375   2.456
 6119SOL     OW19255   1.681   3.276   5.906
 6119SOL    HW119256   1.664   3.287   5.808
 6119SOL    HW219257   1.776   3.246   5.920
 6120SOL     OW19258   3.688   6.884   4.743
 6120SOL    HW119259   3.743   6.839   4.672
 6120SOL    HW219260   3.716   6.850   4.833
 6121SOL     OW19261   0.774   2.905   5.605
 6121SOL    HW119262   0.820   2.958   5.534
 6121SOL    HW219263   0.755   2.813   5.572
 6122SOL     OW19264   4.076   6.572   0.893
 6122SOL    HW119265   4.017   6.505   0.937
 6122SOL    HW219266   4.028   6.614   0.816
 6123SOL     OW19267   6.060   0.521   6.783
 6123SOL    HW119268   6.104   0.608   6.803
 6123SOL    HW219269   6.058   0.506   6.685
 6124SOL     OW19270   2.057   0.771   6.251
 6124SOL    HW119271   2.156   0.767   6.242
 6124SOL    HW219272   2.023   0.856   6.211
 6125SOL     OW19273   1.018   5.746   0.287
 6125SOL    HW119274   1.073   5.785   0.360
 6125SOL    HW219275   1.025   5.803   0.205
 6126SOL     OW19276   0.662   0.313   3.668
 6126SOL    HW119277   0.621   0.373   3.599
 6126SOL    HW219278   0.604   0.233   3.682
 6127SOL     OW19279   3.840   0.415   1.693
 6127SOL    HW119280   3.935   0.428   1.724
 6127SOL    HW219281   3.840   0.362   1.608
 6128SOL     OW19282   6.920   3.058   6.785
 6128SOL    HW119283   6.917   3.143   6.837
 6128SOL    HW219284   6.983   2.993   6.828
 6129SOL     OW19285   6.237   3.777   3.371
 6129SOL    HW119286   6.156   3.757   3.315
 6129SOL    HW219287   6.293   3.695   3.380
 6130SOL     OW19288   5.931   2.002   3.704
 6130SOL    HW119289   5.935   2.070   3.630
 6130SOL    HW219290   6.024   1.974   3.728
 6131SOL     OW19291   6.689   0.877   5.135
 6131SOL    HW119292   6.652   0.788   5.163
 6131SOL    HW219293   6.784   0.884   5.166
 6132SOL     OW19294   4.615   1.500   0.432
 6132SOL    HW119295   4.617   1.543   0.342
 6132SOL    HW219296   4.543   1.542   0.487
 6133SOL     OW19297   1.237   2.455   2.953
 6133SOL    HW119298   1.318   2.504   2.985
 6133SOL    HW219299   1.155   2.510   2.973
 6134SOL     OW19300   3.809   4.538   6.149
 6134SOL    HW119301   3.801   4.509   6.053
 6134SOL    HW219302   3.718   4.540   6.191
 6135SOL     OW19303   0.923   0.373   2.098
 6135SOL    HW119304   0.984   0.374   2.177
 6135SOL    HW219305   0.831   0.403   2.126
 6136SOL     OW19306   0.893   2.562   2.714
 6136SOL    HW119307   0.810   2.602   2.674
 6136SOL    HW219308   0.902   2.467   2.683
 6137SOL     OW19309   6.000   2.546   3.893
 6137SOL    HW119310   5.944   2.544   3.976
 6137SOL    HW219311   5.953   2.496   3.820
 6138SOL     OW19312   4.510   6.419   3.181
 6138SOL    HW119313   4.494   6.509   3.221
 6138SOL    HW219314   4.585   6.374   3.230
 6139SOL     OW19315   1.289   1.611   5.809
 6139SOL    HW119316   1.195   1.642   5.821
 6139SOL    HW219317   1.351   1.689   5.819
 6140SOL     OW19318   0.354   6.431   1.504
 6140SOL    HW119319   0.422   6.471   1.564
 6140SOL    HW219320   0.397   6.400   1.419
 6141SOL     OW19321   6.222   5.679   5.763
 6141SOL    HW119322   6.154   5.710   5.697
 6141SOL    HW219323   6.314   5.693   5.726
 6142SOL     OW19324   0.900   5.677   1.011
 6142SOL    HW119325   0.854   5.632   0.934
 6142SOL    HW219326   0.894   5.620   1.092
 6143SOL     OW19327   6.635   4.003   0.794
 6143SOL    HW119328   6.670   4.094   0.814
 6143SOL    HW219329   6.619   3.993   0.696
 6144SOL     OW19330   6.057   4.295   2.994
 6144SOL    HW119331   6.022   4.370   3.049
 6144SOL    HW219332   6.071   4.214   3.052
 6145SOL     OW19333   4.440   5.391   3.305
 6145SOL    HW119334   4.347   5.369   3.336
 6145SOL    HW219335   4.449   5.490   3.294
 6146SOL     OW19336   2.883   6.502   4.041
 6146SOL    HW119337   2.923   6.412   4.023
 6146SOL    HW219338   2.783   6.495   4.036
 6147SOL     OW19339   1.454   3.522   4.514
 6147SOL    HW119340   1.412   3.588   4.452
 6147SOL    HW219341   1.507   3.571   4.584
 6148SOL     OW19342   6.822   0.520   4.100
 6148SOL    HW119343   6.863   0.505   4.010
 6148SOL    HW219344   6.771   0.606   4.099
 6149SOL     OW19345   3.436   5.384   1.343
 6149SOL    HW119346   3.436   5.484   1.349
 6149SOL    HW219347   3.421   5.357   1.247
 6150SOL     OW19348   4.639   4.818   6.930
 6150SOL    HW119349   4.670   4.849   6.840
 6150SOL    HW219350   4.638   4.895   6.993
 6151SOL     OW19351   5.752   4.774   5.529
 6151SOL    HW119352   5.776   4.724   5.446
 6151SOL    HW219353   5.828   4.833   5.556
 6152SOL     OW19354   6.954   5.672   5.071
 6152SOL    HW119355   0.023   5.679   5.030
 6152SOL    HW219356   6.956   5.706   5.165
 6153SOL     OW19357   5.712   3.680   1.500
 6153SOL    HW119358   5.613   3.696   1.490
 6153SOL    HW219359   5.753   3.760   1.544
 6154SOL     OW19360   5.984   2.116   2.471
 6154SOL    HW119361   5.970   2.022   2.500
 6154SOL    HW219362   5.908   2.173   2.503
 6155SOL     OW19363   2.085   2.127   4.500
 6155SOL    HW119364   2.179   2.116   4.467
 6155SOL    HW219365   2.049   2.038   4.529
 6156SOL     OW19366   4.180   4.507   1.701
 6156SOL    HW119367   4.275   4.479   1.720
 6156SOL    HW219368   4.174   4.547   1.610
 6157SOL     OW19369   1.324   0.867   4.050
 6157SOL    HW119370   1.241   0.813   4.064
 6157SOL    HW219371   1.404   0.813   4.073
 6158SOL     OW19372   4.494   1.295   6.132
 6158SOL    HW119373   4.567   1.236   6.097
 6158SOL    HW219374   4.410   1.242   6.141
 6159SOL     OW19375   4.847   2.432   1.310
 6159SOL    HW119376   4.840   2.393   1.402
 6159SOL    HW219377   4.910   2.509   1.312
 6160SOL     OW19378   5.142   0.534   6.332
 6160SOL    HW119379   5.214   0.475   6.296
 6160SOL    HW219380   5.123   0.509   6.427
 6161SOL     OW19381   5.103   1.455   4.561
 6161SOL    HW119382   5.028   1.493   4.616
 6161SOL    HW219383   5.073   1.444   4.467
 6162SOL     OW19384   1.624   6.746   3.233
 6162SOL    HW119385   1.668   6.660   3.206
 6162SOL    HW219386   1.559   6.729   3.307
 6163SOL     OW19387   6.585   6.258   1.006
 6163SOL    HW119388   6.542   6.228   1.091
 6163SOL    HW219389   6.618   6.178   0.955
 6164SOL     OW19390   3.395   2.805   1.625
 6164SOL    HW119391   3.321   2.854   1.580
 6164SOL    HW219392   3.393   2.824   1.724
 6165SOL     OW19393   4.457   0.793   6.492
 6165SOL    HW119394   4.409   0.880   6.487
 6165SOL    HW219395   4.499   0.773   6.404
 6166SOL     OW19396   4.435   1.118   6.529
 6166SOL    HW119397   4.388   1.074   6.605
 6166SOL    HW219398   4.369   1.168   6.473
 6167SOL     OW19399   1.089   4.393   3.922
 6167SOL    HW119400   1.022   4.460   3.952
 6167SOL    HW219401   1.112   4.409   3.826
 6168SOL     OW19402   0.610   3.708   1.095
 6168SOL    HW119403   0.708   3.726   1.103
 6168SOL    HW219404   0.577   3.742   1.007
 6169SOL     OW19405   1.630   2.923   1.315
 6169SOL    HW119406   1.542   2.967   1.297
 6169SOL    HW219407   1.620   2.856   1.388
 6170SOL     OW19408   1.130   3.837   5.313
 6170SOL    HW119409   1.048   3.835   5.255
 6170SOL    HW219410   1.126   3.917   5.374
 6171SOL     OW19411   0.874   3.056   0.861
 6171SOL    HW119412   0.907   3.098   0.776
 6171SOL    HW219413   0.929   2.975   0.882
 6172SOL     OW19414   2.154   2.726   2.169
 6172SOL    HW119415   2.137   2.817   2.130
 6172SOL    HW219416   2.241   2.691   2.133
 6173SOL     OW19417   0.041   5.613   2.033
 6173SOL    HW119418   7.016   5.578   2.115
 6173SOL    HW219419   7.006   5.681   1.988
 6174SOL     OW19420   4.493   5.751   3.880
 6174SOL    HW119421   4.484   5.842   3.839
 6174SOL    HW219422   4.559   5.698   3.829
 6175SOL     OW19423   4.103   0.117   2.996
 6175SOL    HW119424   4.054   0.204   3.003
 6175SOL    HW219425   4.152   0.098   3.081
 6176SOL     OW19426   5.000   4.599   5.564
 6176SOL    HW119427   5.036   4.669   5.502
 6176SOL    HW219428   4.927   4.549   5.519
 6177SOL     OW19429   5.360   1.288   1.515
 6177SOL    HW119430   5.400   1.379   1.509
 6177SOL    HW219431   5.296   1.285   1.592
 6178SOL     OW19432   4.975   4.542   2.330
 6178SOL    HW119433   4.970   4.493   2.243
 6178SOL    HW219434   4.928   4.489   2.400
 6179SOL     OW19435   6.634   4.470   3.913
 6179SOL    HW119436   6.701   4.419   3.859
 6179SOL    HW219437   6.681   4.515   3.990
 6180SOL     OW19438   2.580   4.159   0.382
 6180SOL    HW119439   2.613   4.099   0.455
 6180SOL    HW219440   2.643   4.155   0.305
 6181SOL     OW19441   4.619   6.494   6.046
 6181SOL    HW119442   4.675   6.561   6.095
 6181SOL    HW219443   4.624   6.512   5.948
 6182SOL     OW19444   4.951   2.992   4.874
 6182SOL    HW119445   4.938   3.030   4.966
 6182SOL    HW219446   5.025   2.925   4.875
 6183SOL     OW19447   1.441   2.473   3.578
 6183SOL    HW119448   1.441   2.420   3.493
 6183SOL    HW219449   1.505   2.432   3.643
 6184SOL     OW19450   2.744   6.182   0.047
 6184SOL    HW119451   2.650   6.163   0.018
 6184SOL    HW219452   2.774   6.112   0.111
 6185SOL     OW19453   0.078   4.027   6.447
 6185SOL    HW119454   0.059   4.125   6.438
 6185SOL    HW219455   0.126   3.994   6.366
 6186SOL     OW19456   6.711   1.154   0.502
 6186SOL    HW119457   6.650   1.109   0.568
 6186SOL    HW219458   6.728   1.092   0.426
 6187SOL     OW19459   5.321   4.415   4.107
 6187SOL    HW119460   5.356   4.322   4.122
 6187SOL    HW219461   5.391   4.471   4.063
 6188SOL     OW19462   1.817   1.842   6.978
 6188SOL    HW119463   1.833   1.784   0.036
 6188SOL    HW219464   1.846   1.793   6.896
 6189SOL     OW19465   4.388   4.545   2.537
 6189SOL    HW119466   4.308   4.522   2.482
 6189SOL    HW219467   4.471   4.531   2.482
 6190SOL     OW19468   0.606   3.824   5.526
 6190SOL    HW119469   0.585   3.815   5.428
 6190SOL    HW219470   0.590   3.919   5.555
 6191SOL     OW19471   3.006   2.768   6.506
 6191SOL    HW119472   2.968   2.840   6.564
 6191SOL    HW219473   3.011   2.683   6.557
 6192SOL     OW19474   2.966   2.238   5.795
 6192SOL    HW119475   3.052   2.198   5.766
 6192SOL    HW219476   2.920   2.280   5.717
 6193SOL     OW19477   4.605   6.131   1.780
 6193SOL    HW119478   4.605   6.050   1.720
 6193SOL    HW219479   4.532   6.121   1.848
 6194SOL     OW19480   0.180   0.867   6.820
 6194SOL    HW119481   0.263   0.850   6.873
 6194SOL    HW219482   0.197   0.939   6.753
 6195SOL     OW19483   4.221   6.059   4.491
 6195SOL    HW119484   4.300   6.008   4.457
 6195SOL    HW219485   4.241   6.157   4.487
 6196SOL     OW19486   5.774   3.902   1.685
 6196SOL    HW119487   5.785   3.884   1.783
 6196SOL    HW219488   5.753   3.999   1.671
 6197SOL     OW19489   3.823   5.440   0.795
 6197SOL    HW119490   3.859   5.366   0.739
 6197SOL    HW219491   3.761   5.402   0.864
 6198SOL     OW19492   3.943   6.857   1.021
 6198SOL    HW119493   3.922   6.798   1.100
 6198SOL    HW219494   4.041   6.852   1.001
 6199SOL     OW19495   0.801   0.760   0.423
 6199SOL    HW119496   0.834   0.754   0.517
 6199SOL    HW219497   0.705   0.787   0.423
 6200SOL     OW19498   1.053   1.306   5.677
 6200SOL    HW119499   0.976   1.271   5.626
 6200SOL    HW219500   1.066   1.403   5.656
 6201SOL     OW19501   0.999   4.182   5.956
 6201SOL    HW119502   0.988   4.273   5.997
 6201SOL    HW219503   1.092   4.150   5.972
 6202SOL     OW19504   4.827   1.340   1.145
 6202SOL    HW119505   4.808   1.256   1.195
 6202SOL    HW219506   4.848   1.317   1.050
 6203SOL     OW19507   6.485   5.568   2.438
 6203SOL    HW119508   6.507   5.655   2.394
 6203SOL    HW219509   6.561   5.504   2.425
 6204SOL     OW19510   0.279   5.753   4.499
 6204SOL    HW119511   0.273   5.661   4.460
 6204SOL    HW219512   0.220   5.758   4.580
 6205SOL     OW19513   6.661   5.297   1.739
 6205SOL    HW119514   6.737   5.284   1.675
 6205SOL    HW219515   6.666   5.388   1.779
 6206SOL     OW19516   5.948   2.090   2.793
 6206SOL    HW119517   6.001   2.012   2.762
 6206SOL    HW219518   5.995   2.134   2.870
 6207SOL     OW19519   1.797   5.503   5.130
 6207SOL    HW119520   1.769   5.423   5.184
 6207SOL    HW219521   1.820   5.578   5.191
 6208SOL     OW19522   3.914   2.639   5.687
 6208SOL    HW119523   3.914   2.590   5.600
 6208SOL    HW219524   3.900   2.736   5.670
 6209SOL     OW19525   3.494   5.927   6.985
 6209SOL    HW119526   3.455   6.014   7.016
 6209SOL    HW219527   3.461   5.853   0.021
 6210SOL     OW19528   4.853   3.891   3.249
 6210SOL    HW119529   4.869   3.855   3.157
 6210SOL    HW219530   4.827   3.987   3.244
 6211SOL     OW19531   2.659   6.559   6.063
 6211SOL    HW119532   2.637   6.463   6.079
 6211SOL    HW219533   2.595   6.597   5.995
 6212SOL     OW19534   2.526   4.827   4.708
 6212SOL    HW119535   2.463   4.752   4.728
 6212SOL    HW219536   2.604   4.822   4.770
 6213SOL     OW19537   5.549   0.639   0.293
 6213SOL    HW119538   5.509   0.562   0.344
 6213SOL    HW219539   5.643   0.653   0.321
 6214SOL     OW19540   5.549   5.842   5.129
 6214SOL    HW119541   5.455   5.853   5.162
 6214SOL    HW219542   5.550   5.775   5.054
 6215SOL     OW19543   3.530   2.306   6.759
 6215SOL    HW119544   3.603   2.243   6.786
 6215SOL    HW219545   3.476   2.331   6.839
 6216SOL     OW19546   6.209   2.354   3.018
 6216SOL    HW119547   6.164   2.355   2.929
 6216SOL    HW219548   6.166   2.421   3.079
 6217SOL     OW19549   0.922   3.511   2.070
 6217SOL    HW119550   1.017   3.526   2.098
 6217SOL    HW219551   0.916   3.508   1.970
 6218SOL     OW19552   3.419   6.662   6.598
 6218SOL    HW119553   3.416   6.760   6.615
 6218SOL    HW219554   3.496   6.622   6.647
 6219SOL     OW19555   0.445   1.682   4.899
 6219SOL    HW119556   0.442   1.761   4.960
 6219SOL    HW219557   0.537   1.642   4.903
 6220SOL     OW19558   2.654   1.484   5.512
 6220SOL    HW119559   2.746   1.505   5.546
 6220SOL    HW219560   2.645   1.518   5.418
 6221SOL     OW19561   5.540   6.842   0.028
 6221SOL    HW119562   5.549   6.906   6.974
 6221SOL    HW219563   5.630   6.819   0.063
 6222SOL     OW19564   1.400   6.884   1.680
 6222SOL    HW119565   1.301   6.868   1.687
 6222SOL    HW219566   1.434   6.917   1.768
 6223SOL     OW19567   1.748   5.319   3.304
 6223SOL    HW119568   1.735   5.414   3.333
 6223SOL    HW219569   1.729   5.312   3.206
 6224SOL     OW19570   3.878   1.567   6.006
 6224SOL    HW119571   3.939   1.546   6.082
 6224SOL    HW219572   3.932   1.578   5.922
 6225SOL     OW19573   3.825   2.527   6.148
 6225SOL    HW119574   3.736   2.531   6.102
 6225SOL    HW219575   3.825   2.590   6.226
 6226SOL     OW19576   0.859   1.320   4.448
 6226SOL    HW119577   0.805   1.285   4.525
 6226SOL    HW219578   0.929   1.383   4.482
 6227SOL     OW19579   3.497   4.893   5.548
 6227SOL    HW119580   3.582   4.868   5.503
 6227SOL    HW219581   3.420   4.849   5.501
 6228SOL     OW19582   0.503   2.897   2.267
 6228SOL    HW119583   0.564   2.820   2.253
 6228SOL    HW219584   0.529   2.945   2.350
 6229SOL     OW19585   0.502   2.450   5.022
 6229SOL    HW119586   0.553   2.400   5.092
 6229SOL    HW219587   0.522   2.411   4.932
 6230SOL     OW19588   0.728   2.120   4.185
 6230SOL    HW119589   0.822   2.114   4.151
 6230SOL    HW219590   0.666   2.140   4.109
 6231SOL     OW19591   6.426   5.674   0.335
 6231SOL    HW119592   6.435   5.627   0.247
 6231SOL    HW219593   6.371   5.757   0.323
 6232SOL     OW19594   6.676   1.221   0.865
 6232SOL    HW119595   6.659   1.206   0.962
 6232SOL    HW219596   6.712   1.314   0.851
 6233SOL     OW19597   6.555   3.071   1.296
 6233SOL    HW119598   6.569   3.099   1.201
 6233SOL    HW219599   6.636   3.025   1.330
 6234SOL     OW19600   6.999   6.742   5.714
 6234SOL    HW119601   6.935   6.702   5.650
 6234SOL    HW219602   6.949   6.792   5.785
 6235SOL     OW19603   0.061   0.240   1.427
 6235SOL    HW119604   6.997   0.289   1.442
 6235SOL    HW219605   0.081   0.184   1.507
 6236SOL     OW19606   0.601   4.209   0.751
 6236SOL    HW119607   0.520   4.251   0.793
 6236SOL    HW219608   0.683   4.257   0.782
 6237SOL     OW19609   3.392   6.932   6.652
 6237SOL    HW119610   3.470   6.951   6.593
 6237SOL    HW219611   3.355   7.018   6.687
 6238SOL     OW19612   5.259   5.842   2.871
 6238SOL    HW119613   5.201   5.761   2.862
 6238SOL    HW219614   5.354   5.816   2.855
 6239SOL     OW19615   3.711   1.633   1.370
 6239SOL    HW119616   3.624   1.665   1.407
 6239SOL    HW219617   3.697   1.548   1.320
 6240SOL     OW19618   2.883   3.419   5.108
 6240SOL    HW119619   2.880   3.389   5.012
 6240SOL    HW219620   2.807   3.380   5.158
 6241SOL     OW19621   3.821   0.643   2.417
 6241SOL    HW119622   3.827   0.724   2.476
 6241SOL    HW219623   3.893   0.647   2.348
 6242SOL     OW19624   4.160   6.721   2.908
 6242SOL    HW119625   4.211   6.786   2.853
 6242SOL    HW219626   4.159   6.632   2.862
 6243SOL     OW19627   0.164   6.650   5.395
 6243SOL    HW119628   0.075   6.607   5.411
 6243SOL    HW219629   0.187   6.644   5.298
 6244SOL     OW19630   5.336   3.201   3.649
 6244SOL    HW119631   5.419   3.160   3.687
 6244SOL    HW219632   5.334   3.299   3.670
 6245SOL     OW19633   1.493   3.882   1.991
 6245SOL    HW119634   1.593   3.891   2.000
 6245SOL    HW219635   1.465   3.919   1.903
 6246SOL     OW19636   0.825   1.602   4.883
 6246SOL    HW119637   0.765   1.593   4.803
 6246SOL    HW219638   0.811   1.692   4.925
 6247SOL     OW19639   1.154   5.931   3.450
 6247SOL    HW119640   1.235   5.924   3.392
 6247SOL    HW219641   1.151   6.021   3.493
 6248SOL     OW19642   3.502   3.505   0.080
 6248SOL    HW119643   3.593   3.480   0.047
 6248SOL    HW219644   3.499   3.603   0.099
 6249SOL     OW19645   0.025   3.305   0.449
 6249SOL    HW119646   6.973   3.361   0.487
 6249SOL    HW219647   0.076   3.262   0.523
 6250SOL     OW19648   6.273   6.390   1.248
 6250SOL    HW119649   6.341   6.463   1.260
 6250SOL    HW219650   6.197   6.424   1.193
 6251SOL     OW19651   4.291   5.785   5.444
 6251SOL    HW119652   4.230   5.742   5.511
 6251SOL    HW219653   4.247   5.786   5.354
 6252SOL     OW19654   2.758   5.351   6.423
 6252SOL    HW119655   2.807   5.426   6.468
 6252SOL    HW219656   2.817   5.308   6.355
 6253SOL     OW19657   2.653   5.225   4.230
 6253SOL    HW119658   2.685   5.134   4.207
 6253SOL    HW219659   2.724   5.274   4.280
 6254SOL     OW19660   5.782   0.810   1.148
 6254SOL    HW119661   5.758   0.889   1.093
 6254SOL    HW219662   5.843   0.838   1.222
 6255SOL     OW19663   2.345   1.790   1.236
 6255SOL    HW119664   2.280   1.837   1.295
 6255SOL    HW219665   2.438   1.816   1.260
 6256SOL     OW19666   3.884   5.317   2.104
 6256SOL    HW119667   3.855   5.369   2.184
 6256SOL    HW219668   3.977   5.342   2.079
 6257SOL     OW19669   4.537   3.199   0.269
 6257SOL    HW119670   4.572   3.119   0.220
 6257SOL    HW219671   4.560   3.193   0.366
 6258SOL     OW19672   3.178   6.999   4.061
 6258SOL    HW119673   3.113   0.017   3.997
 6258SOL    HW219674   3.137   6.918   4.103
 6259SOL     OW19675   2.377   0.446   6.700
 6259SOL    HW119676   2.343   0.376   6.636
 6259SOL    HW219677   2.475   0.430   6.717
 6260SOL     OW19678   3.673   6.293   7.002
 6260SOL    HW119679   3.662   6.237   0.062
 6260SOL    HW219680   3.748   6.358   7.015
 6261SOL     OW19681   5.363   0.508   6.887
 6261SOL    HW119682   5.336   0.556   6.971
 6261SOL    HW219683   5.461   0.494   6.887
 6262SOL     OW19684   1.906   5.845   1.926
 6262SOL    HW119685   1.915   5.778   2.000
 6262SOL    HW219686   1.994   5.857   1.880
 6263SOL     OW19687   0.805   6.485   5.037
 6263SOL    HW119688   0.862   6.411   5.000
 6263SOL    HW219689   0.783   6.549   4.964
 6264SOL     OW19690   2.058   0.096   2.157
 6264SOL    HW119691   2.083   0.185   2.195
 6264SOL    HW219692   1.958   0.085   2.161
 6265SOL     OW19693   3.914   3.260   0.426
 6265SOL    HW119694   3.875   3.313   0.501
 6265SOL    HW219695   4.011   3.285   0.415
 6266SOL     OW19696   4.883   0.202   3.471
 6266SOL    HW119697   4.812   0.134   3.489
 6266SOL    HW219698   4.892   0.215   3.373
 6267SOL     OW19699   2.148   6.868   4.952
 6267SOL    HW119700   2.174   6.926   5.030
 6267SOL    HW219701   2.229   6.851   4.896
 6268SOL     OW19702   2.592   0.895   2.015
 6268SOL    HW119703   2.600   0.955   2.094
 6268SOL    HW219704   2.683   0.875   1.978
 6269SOL     OW19705   6.799   7.016   2.498
 6269SOL    HW119706   6.858   0.069   2.469
 6269SOL    HW219707   6.779   6.958   2.418
 6270SOL     OW19708   0.415   0.067   6.824
 6270SOL    HW119709   0.376   0.135   6.886
 6270SOL    HW219710   0.372   0.075   6.734
 6271SOL     OW19711   5.638   2.689   5.682
 6271SOL    HW119712   5.623   2.706   5.779
 6271SOL    HW219713   5.736   2.691   5.663
 6272SOL     OW19714   0.592   2.319   0.841
 6272SOL    HW119715   0.529   2.273   0.904
 6272SOL    HW219716   0.640   2.251   0.785
 6273SOL     OW19717   0.607   6.322   2.406
 6273SOL    HW119718   0.558   6.329   2.492
 6273SOL    HW219719   0.700   6.356   2.417
 6274SOL     OW19720   3.775   0.052   4.331
 6274SOL    HW119721   3.766   0.087   4.425
 6274SOL    HW219722   3.849   7.007   4.327
 6275SOL     OW19723   2.054   6.322   0.330
 6275SOL    HW119724   1.992   6.325   0.252
 6275SOL    HW219725   2.052   6.231   0.371
 6276SOL     OW19726   2.076   5.652   3.201
 6276SOL    HW119727   2.124   5.646   3.114
 6276SOL    HW219728   2.017   5.732   3.201
 6277SOL     OW19729   4.377   3.476   0.824
 6277SOL    HW119730   4.423   3.503   0.909
 6277SOL    HW219731   4.292   3.529   0.814
 6278SOL     OW19732   4.414   6.982   4.865
 6278SOL    HW119733   4.443   7.008   4.773
 6278SOL    HW219734   4.326   6.935   4.860
 6279SOL     OW19735   3.296   6.332   0.357
 6279SOL    HW119736   3.371   6.347   0.422
 6279SOL    HW219737   3.219   6.289   0.404
 6280SOL     OW19738   0.557   0.918   6.622
 6280SOL    HW119739   0.524   0.900   6.715
 6280SOL    HW219740   0.651   0.888   6.613
 6281SOL     OW19741   6.797   4.851   4.272
 6281SOL    HW119742   6.726   4.822   4.336
 6281SOL    HW219743   6.882   4.803   4.293
 6282SOL     OW19744   6.445   4.667   5.539
 6282SOL    HW119745   6.371   4.657   5.605
 6282SOL    HW219746   6.522   4.610   5.566
 6283SOL     OW19747   0.135   3.967   3.914
 6283SOL    HW119748   0.207   3.913   3.871
 6283SOL    HW219749   0.064   3.907   3.949
 6284SOL     OW19750   2.037   4.654   5.725
 6284SOL    HW119751   1.978   4.589   5.774
 6284SOL    HW219752   2.101   4.604   5.667
 6285SOL     OW19753   1.200   3.382   3.338
 6285SOL    HW119754   1.261   3.326   3.394
 6285SOL    HW219755   1.158   3.326   3.267
 6286SOL     OW19756   7.021   2.368   4.364
 6286SOL    HW119757   6.967   2.310   4.426
 6286SOL    HW219758   0.022   2.316   4.282
 6287SOL     OW19759   3.264   4.921   5.149
 6287SOL    HW119760   3.185   4.862   5.168
 6287SOL    HW219761   3.255   4.960   5.057
 6288SOL     OW19762   5.400   4.674   1.916
 6288SOL    HW119763   5.353   4.613   1.980
 6288SOL    HW219764   5.380   4.646   1.822
 6289SOL     OW19765   2.294   5.075   6.930
 6289SOL    HW119766   2.207   5.082   6.979
 6289SOL    HW219767   2.291   5.134   6.849
 6290SOL     OW19768   6.105   5.310   5.827
 6290SOL    HW119769   6.146   5.281   5.740
 6290SOL    HW219770   6.150   5.263   5.903
 6291SOL     OW19771   3.901   3.958   3.662
 6291SOL    HW119772   3.922   4.014   3.742
 6291SOL    HW219773   3.803   3.964   3.643
 6292SOL     OW19774   2.421   2.549   5.533
 6292SOL    HW119775   2.343   2.524   5.477
 6292SOL    HW219776   2.419   2.647   5.552
 6293SOL     OW19777   4.439   1.608   0.597
 6293SOL    HW119778   4.344   1.587   0.573
 6293SOL    HW219779   4.452   1.597   0.695
 6294SOL     OW19780   3.988   0.529   3.239
 6294SOL    HW119781   3.975   0.628   3.235
 6294SOL    HW219782   4.004   0.502   3.334
 6295SOL     OW19783   5.650   4.400   4.561
 6295SOL    HW119784   5.645   4.487   4.512
 6295SOL    HW219785   5.696   4.413   4.648
 6296SOL     OW19786   6.648   4.927   5.718
 6296SOL    HW119787   6.637   4.853   5.784
 6296SOL    HW219788   6.565   4.982   5.715
 6297SOL     OW19789   6.088   0.383   5.231
 6297SOL    HW119790   6.072   0.284   5.231
 6297SOL    HW219791   6.002   0.430   5.211
 6298SOL     OW19792   0.870   3.582   6.436
 6298SOL    HW119793   0.950   3.586   6.375
 6298SOL    HW219794   0.842   3.486   6.446
 6299SOL     OW19795   5.935   2.553   1.920
 6299SOL    HW119796   5.934   2.653   1.916
 6299SOL    HW219797   5.971   2.517   1.834
 6300SOL     OW19798   6.033   0.672   0.138
 6300SOL    HW119799   6.021   0.730   0.057
 6300SOL    HW219800   6.037   0.730   0.220
 6301SOL     OW19801   2.955   6.775   0.209
 6301SOL    HW119802   3.015   6.697   0.187
 6301SOL    HW219803   2.861   6.742   0.219
 6302SOL     OW19804   1.492   2.358   4.764
 6302SOL    HW119805   1.576   2.392   4.722
 6302SOL    HW219806   1.469   2.414   4.843
 6303SOL     OW19807   0.397   0.686   5.764
 6303SOL    HW119808   0.446   0.616   5.816
 6303SOL    HW219809   0.334   0.642   5.700
 6304SOL     OW19810   3.798   1.161   1.900
 6304SOL    HW119811   3.738   1.123   1.830
 6304SOL    HW219812   3.773   1.257   1.916
 6305SOL     OW19813   5.822   6.512   0.405
 6305SOL    HW119814   5.797   6.588   0.466
 6305SOL    HW219815   5.832   6.428   0.458
 6306SOL     OW19816   0.026   3.661   4.220
 6306SOL    HW119817   6.992   3.639   4.140
 6306SOL    HW219818   0.123   3.661   4.194
 6307SOL     OW19819   3.331   3.689   3.540
 6307SOL    HW119820   3.420   3.644   3.538
 6307SOL    HW219821   3.259   3.620   3.541
 6308SOL     OW19822   1.678   2.444   4.488
 6308SOL    HW119823   1.630   2.531   4.498
 6308SOL    HW219824   1.708   2.412   4.578
 6309SOL     OW19825   0.004   6.308   4.591
 6309SOL    HW119826   6.943   6.347   4.552
 6309SOL    HW219827   0.031   6.361   4.672
 6310SOL     OW19828   1.297   6.682   2.750
 6310SOL    HW119829   1.358   6.614   2.791
 6310SOL    HW219830   1.270   6.748   2.820
 6311SOL     OW19831   4.671   1.929   5.444
 6311SOL    HW119832   4.653   1.831   5.440
 6311SOL    HW219833   4.754   1.946   5.497
 6312SOL     OW19834   0.691   0.213   5.298
 6312SOL    HW119835   0.713   0.129   5.249
 6312SOL    HW219836   0.591   0.224   5.302
 6313SOL     OW19837   6.503   6.040   4.173
 6313SOL    HW119838   6.565   6.102   4.221
 6313SOL    HW219839   6.520   5.946   4.203
 6314SOL     OW19840   3.624   6.514   1.648
 6314SOL    HW119841   3.703   6.453   1.647
 6314SOL    HW219842   3.618   6.561   1.736
 6315SOL     OW19843   3.245   1.693   6.117
 6315SOL    HW119844   3.246   1.705   6.216
 6315SOL    HW219845   3.324   1.740   6.078
 6316SOL     OW19846   5.295   2.388   5.590
 6316SOL    HW119847   5.351   2.471   5.586
 6316SOL    HW219848   5.227   2.390   5.516
 6317SOL     OW19849   4.829   4.637   1.781
 6317SOL    HW119850   4.915   4.672   1.744
 6317SOL    HW219851   4.778   4.590   1.709
 6318SOL     OW19852   4.221   0.557   6.227
 6318SOL    HW119853   4.247   0.636   6.171
 6318SOL    HW219854   4.245   0.472   6.179
 6319SOL     OW19855   6.006   2.344   5.488
 6319SOL    HW119856   6.002   2.441   5.464
 6319SOL    HW219857   6.100   2.320   5.513
 6320SOL     OW19858   0.113   6.860   4.760
 6320SOL    HW119859   0.208   6.838   4.736
 6320SOL    HW219860   0.074   6.921   4.691
 6321SOL     OW19861   4.131   3.205   0.718
 6321SOL    HW119862   4.182   3.248   0.644
 6321SOL    HW219863   4.053   3.262   0.743
 6322SOL     OW19864   2.396   2.484   0.586
 6322SOL    HW119865   2.348   2.505   0.501
 6322SOL    HW219866   2.421   2.569   0.632
 6323SOL     OW19867   1.223   2.347   2.335
 6323SOL    HW119868   1.263   2.432   2.300
 6323SOL    HW219869   1.187   2.293   2.259
 6324SOL     OW19870   4.066   0.604   0.689
 6324SOL    HW119871   4.052   0.656   0.774
 6324SOL    HW219872   4.151   0.634   0.645
 6325SOL     OW19873   2.145   3.291   2.602
 6325SOL    HW119874   2.062   3.297   2.547
 6325SOL    HW219875   2.130   3.339   2.689
 6326SOL     OW19876   5.211   5.424   0.428
 6326SOL    HW119877   5.275   5.438   0.353
 6326SOL    HW219878   5.178   5.513   0.460
 6327SOL     OW19879   0.102   1.924   4.402
 6327SOL    HW119880   0.095   1.856   4.475
 6327SOL    HW219881   0.105   2.016   4.443
 6328SOL     OW19882   4.362   3.368   0.095
 6328SOL    HW119883   4.265   3.388   0.105
 6328SOL    HW219884   4.397   3.323   0.177
 6329SOL     OW19885   1.487   2.891   4.497
 6329SOL    HW119886   1.494   2.947   4.579
 6329SOL    HW219887   1.435   2.808   4.518
 6330SOL     OW19888   5.986   6.690   2.222
 6330SOL    HW119889   6.016   6.738   2.140
 6330SOL    HW219890   5.906   6.633   2.200
 6331SOL     OW19891   6.987   3.617   4.699
 6331SOL    HW119892   6.942   3.569   4.623
 6331SOL    HW219893   0.024   3.553   4.749
 6332SOL     OW19894   0.479   2.856   1.594
 6332SOL    HW119895   0.381   2.843   1.607
 6332SOL    HW219896   0.513   2.787   1.530
 6333SOL     OW19897   4.853   0.041   5.723
 6333SOL    HW119898   4.787   0.103   5.765
 6333SOL    HW219899   4.867   0.067   5.628
 6334SOL     OW19900   3.324   1.024   2.014
 6334SOL    HW119901   3.323   1.017   2.114
 6334SOL    HW219902   3.396   0.965   1.977
 6335SOL     OW19903   3.617   0.597   0.332
 6335SOL    HW119904   3.711   0.563   0.339
 6335SOL    HW219905   3.578   0.606   0.423
 6336SOL     OW19906   0.427   2.203   6.284
 6336SOL    HW119907   0.482   2.120   6.273
 6336SOL    HW219908   0.461   2.274   6.223
 6337SOL     OW19909   3.832   4.937   4.860
 6337SOL    HW119910   3.841   4.840   4.881
 6337SOL    HW219911   3.776   4.949   4.778
 6338SOL     OW19912   2.689   2.268   4.308
 6338SOL    HW119913   2.658   2.348   4.257
 6338SOL    HW219914   2.778   2.288   4.350
 6339SOL     OW19915   0.517   3.453   4.107
 6339SOL    HW119916   0.423   3.430   4.128
 6339SOL    HW219917   0.524   3.483   4.011
 6340SOL     OW19918   2.317   4.581   1.126
 6340SOL    HW119919   2.414   4.584   1.150
 6340SOL    HW219920   2.307   4.590   1.027
 6341SOL     OW19921   6.613   3.234   4.373
 6341SOL    HW119922   6.562   3.297   4.431
 6341SOL    HW219923   6.697   3.206   4.418
 6342SOL     OW19924   2.539   1.565   1.091
 6342SOL    HW119925   2.534   1.517   1.003
 6342SOL    HW219926   2.447   1.572   1.130
 6343SOL     OW19927   3.857   0.598   6.405
 6343SOL    HW119928   3.855   0.615   6.504
 6343SOL    HW219929   3.852   0.685   6.356
 6344SOL     OW19930   4.936   2.307   3.957
 6344SOL    HW119931   4.956   2.231   4.019
 6344SOL    HW219932   4.842   2.337   3.969
 6345SOL     OW19933   5.090   2.792   1.722
 6345SOL    HW119934   5.115   2.734   1.645
 6345SOL    HW219935   5.153   2.775   1.798
 6346SOL     OW19936   6.823   5.337   4.646
 6346SOL    HW119937   6.755   5.411   4.643
 6346SOL    HW219938   6.876   5.337   4.562
 6347SOL     OW19939   1.694   1.456   0.484
 6347SOL    HW119940   1.684   1.379   0.548
 6347SOL    HW219941   1.641   1.534   0.518
 6348SOL     OW19942   1.580   2.696   6.749
 6348SOL    HW119943   1.493   2.721   6.790
 6348SOL    HW219944   1.653   2.706   6.817
 6349SOL     OW19945   1.443   1.160   0.713
 6349SOL    HW119946   1.527   1.181   0.663
 6349SOL    HW219947   1.465   1.142   0.809
 6350SOL     OW19948   0.380   5.160   4.397
 6350SOL    HW119949   0.450   5.111   4.449
 6350SOL    HW219950   0.325   5.095   4.345
 6351SOL     OW19951   5.910   3.364   3.720
 6351SOL    HW119952   5.956   3.278   3.695
 6351SOL    HW219953   5.946   3.438   3.663
 6352SOL     OW19954   3.195   0.224   4.988
 6352SOL    HW119955   3.195   0.190   4.894
 6352SOL    HW219956   3.226   0.319   4.989
 6353SOL     OW19957   0.925   5.927   5.584
 6353SOL    HW119958   0.918   6.020   5.548
 6353SOL    HW219959   1.004   5.882   5.543
 6354SOL     OW19960   3.675   5.907   2.786
 6354SOL    HW119961   3.632   5.828   2.743
 6354SOL    HW219962   3.642   5.916   2.880
 6355SOL     OW19963   2.556   5.842   6.819
 6355SOL    HW119964   2.456   5.852   6.824
 6355SOL    HW219965   2.579   5.748   6.797
 6356SOL     OW19966   5.347   4.937   0.653
 6356SOL    HW119967   5.381   4.989   0.731
 6356SOL    HW219968   5.294   4.997   0.593
 6357SOL     OW19969   5.927   3.567   2.713
 6357SOL    HW119970   5.837   3.528   2.694
 6357SOL    HW219971   5.950   3.553   2.809
 6358SOL     OW19972   0.473   1.763   6.114
 6358SOL    HW119973   0.563   1.770   6.158
 6358SOL    HW219974   0.404   1.746   6.183
 6359SOL     OW19975   6.232   6.880   6.907
 6359SOL    HW119976   6.329   6.901   6.918
 6359SOL    HW219977   6.214   6.786   6.935
 6360SOL     OW19978   1.319   3.746   5.143
 6360SOL    HW119979   1.253   3.785   5.206
 6360SOL    HW219980   1.312   3.792   5.054
 6361SOL     OW19981   1.000   0.469   1.066
 6361SOL    HW119982   0.940   0.390   1.062
 6361SOL    HW219983   1.077   0.450   1.127
 6362SOL     OW19984   0.306   5.645   5.771
 6362SOL    HW119985   0.329   5.742   5.776
 6362SOL    HW219986   0.295   5.618   5.675
 6363SOL     OW19987   2.491   5.653   3.418
 6363SOL    HW119988   2.570   5.657   3.479
 6363SOL    HW219989   2.436   5.572   3.440
 6364SOL     OW19990   2.900   2.154   5.335
 6364SOL    HW119991   2.863   2.068   5.369
 6364SOL    HW219992   2.982   2.179   5.386
 6365SOL     OW19993   4.775   6.291   4.058
 6365SOL    HW119994   4.873   6.307   4.053
 6365SOL    HW219995   4.745   6.240   3.977
 6366SOL     OW19996   1.175   5.669   5.279
 6366SOL    HW119997   1.274   5.659   5.269
 6366SOL    HW219998   1.133   5.578   5.286
 6367SOL     OW19999   3.516   1.724   3.388
 6367SOL    HW120000   3.609   1.698   3.361
 6367SOL    HW220001   3.520   1.786   3.466
 6368SOL     OW20002   3.698   4.930   4.209
 6368SOL    HW120003   3.780   4.893   4.165
 6368SOL    HW220004   3.708   4.922   4.308
 6369SOL     OW20005   1.496   0.682   5.085
 6369SOL    HW120006   1.564   0.624   5.129
 6369SOL    HW220007   1.447   0.629   5.015
 6370SOL     OW20008   5.070   3.644   3.625
 6370SOL    HW120009   5.021   3.560   3.602
 6370SOL    HW220010   5.106   3.686   3.542
 6371SOL     OW20011   5.589   4.696   3.155
 6371SOL    HW120012   5.632   4.770   3.207
 6371SOL    HW220013   5.494   4.687   3.182
 6372SOL     OW20014   1.397   1.233   2.056
 6372SOL    HW120015   1.375   1.142   2.090
 6372SOL    HW220016   1.391   1.234   1.956
 6373SOL     OW20017   4.912   4.332   2.798
 6373SOL    HW120018   4.898   4.423   2.837
 6373SOL    HW220019   4.997   4.293   2.833
 6374SOL     OW20020   4.199   3.084   1.352
 6374SOL    HW120021   4.292   3.067   1.385
 6374SOL    HW220022   4.154   3.152   1.410
 6375SOL     OW20023   0.036   2.146   2.540
 6375SOL    HW120024   6.978   2.160   2.598
 6375SOL    HW220025   0.019   2.184   2.449
 6376SOL     OW20026   4.877   1.862   6.737
 6376SOL    HW120027   4.866   1.961   6.735
 6376SOL    HW220028   4.837   1.822   6.655
 6377SOL     OW20029   6.593   1.119   5.040
 6377SOL    HW120030   6.620   1.035   5.087
 6377SOL    HW220031   6.672   1.180   5.032
 6378SOL     OW20032   5.320   4.994   3.500
 6378SOL    HW120033   5.241   5.051   3.478
 6378SOL    HW220034   5.292   4.920   3.561
 6379SOL     OW20035   0.177   4.125   4.684
 6379SOL    HW120036   0.178   4.025   4.696
 6379SOL    HW220037   0.118   4.148   4.607
 6380SOL     OW20038   6.953   1.667   5.087
 6380SOL    HW120039   6.890   1.609   5.036
 6380SOL    HW220040   0.011   1.687   5.031
 6381SOL     OW20041   4.160   3.003   1.022
 6381SOL    HW120042   4.195   2.924   0.971
 6381SOL    HW220043   4.235   3.044   1.074
 6382SOL     OW20044   3.511   1.502   0.366
 6382SOL    HW120045   3.485   1.599   0.355
 6382SOL    HW220046   3.484   1.452   0.284
 6383SOL     OW20047   2.376   2.365   2.622
 6383SOL    HW120048   2.280   2.352   2.648
 6383SOL    HW220049   2.382   2.436   2.552
 6384SOL     OW20050   5.689   3.929   3.140
 6384SOL    HW120051   5.696   3.883   3.229
 6384SOL    HW220052   5.608   3.897   3.092
 6385SOL     OW20053   6.603   3.468   3.542
 6385SOL    HW120054   6.645   3.377   3.533
 6385SOL    HW220055   6.568   3.479   3.635
 6386SOL     OW20056   3.148   3.221   6.554
 6386SOL    HW120057   3.095   3.306   6.554
 6386SOL    HW220058   3.090   3.145   6.524
 6387SOL     OW20059   6.565   1.866   6.812
 6387SOL    HW120060   6.646   1.903   6.767
 6387SOL    HW220061   6.568   1.888   6.910
 6388SOL     OW20062   4.955   6.068   1.085
 6388SOL    HW120063   4.981   6.163   1.071
 6388SOL    HW220064   4.865   6.063   1.127
 6389SOL     OW20065   0.762   6.617   0.579
 6389SOL    HW120066   0.813   6.692   0.538
 6389SOL    HW220067   0.685   6.653   0.631
 6390SOL     OW20068   6.592   0.196   5.305
 6390SOL    HW120069   6.674   0.217   5.360
 6390SOL    HW220070   6.538   0.279   5.293
 6391SOL     OW20071   1.966   0.333   6.520
 6391SOL    HW120072   1.942   0.412   6.463
 6391SOL    HW220073   1.945   0.353   6.615
 6392SOL     OW20074   2.981   5.077   2.879
 6392SOL    HW120075   2.964   5.052   2.975
 6392SOL    HW220076   2.909   5.039   2.822
 6393SOL     OW20077   0.425   6.390   1.992
 6393SOL    HW120078   0.456   6.308   1.945
 6393SOL    HW220079   0.446   6.382   2.090
 6394SOL     OW20080   1.728   5.625   0.986
 6394SOL    HW120081   1.647   5.619   1.046
 6394SOL    HW220082   1.699   5.618   0.891
 6395SOL     OW20083   0.092   3.176   1.597
 6395SOL    HW120084   7.019   3.193   1.572
 6395SOL    HW220085   0.095   3.131   1.687
 6396SOL     OW20086   6.624   3.333   6.456
 6396SOL    HW120087   6.545   3.291   6.500
 6396SOL    HW220088   6.598   3.420   6.416
 6397SOL     OW20089   5.782   1.038   1.728
 6397SOL    HW120090   5.809   1.102   1.800
 6397SOL    HW220091   5.689   1.058   1.699
 6398SOL     OW20092   2.845   6.599   1.874
 6398SOL    HW120093   2.806   6.546   1.799
 6398SOL    HW220094   2.917   6.659   1.839
 6399SOL     OW20095   1.476   0.637   6.932
 6399SOL    HW120096   1.544   0.572   6.898
 6399SOL    HW220097   1.419   0.593   7.001
 6400SOL     OW20098   1.666   5.071   2.497
 6400SOL    HW120099   1.646   5.117   2.583
 6400SOL    HW220100   1.611   4.987   2.490
 6401SOL     OW20101   5.436   5.479   2.978
 6401SOL    HW120102   5.430   5.534   3.061
 6401SOL    HW220103   5.530   5.448   2.966
 6402SOL     OW20104   2.150   3.367   3.883
 6402SOL    HW120105   2.125   3.280   3.927
 6402SOL    HW220106   2.170   3.434   3.954
 6403SOL     OW20107   5.637   6.064   5.640
 6403SOL    HW120108   5.643   6.068   5.540
 6403SOL    HW220109   5.557   6.115   5.670
 6404SOL     OW20110   4.204   1.124   2.700
 6404SOL    HW120111   4.117   1.119   2.650
 6404SOL    HW220112   4.249   1.210   2.678
 6405SOL     OW20113   4.105   0.839   4.033
 6405SOL    HW120114   4.116   0.891   3.949
 6405SOL    HW220115   4.009   0.837   4.059
 6406SOL     OW20116   0.545   2.861   2.824
 6406SOL    HW120117   0.483   2.825   2.894
 6406SOL    HW220118   0.625   2.901   2.869
 6407SOL     OW20119   2.748   0.170   4.223
 6407SOL    HW120120   2.832   0.116   4.233
 6407SOL    HW220121   2.747   0.212   4.133
 6408SOL     OW20122   5.103   1.345   0.997
 6408SOL    HW120123   5.139   1.278   0.933
 6408SOL    HW220124   5.088   1.432   0.951
 6409SOL     OW20125   6.531   4.167   3.711
 6409SOL    HW120126   6.585   4.243   3.675
 6409SOL    HW220127   6.434   4.193   3.710
 6410SOL     OW20128   1.857   1.370   6.088
 6410SOL    HW120129   1.769   1.371   6.041
 6410SOL    HW220130   1.891   1.276   6.093
 6411SOL     OW20131   0.292   2.568   2.794
 6411SOL    HW120132   0.343   2.650   2.772
 6411SOL    HW220133   0.353   2.502   2.840
 6412SOL     OW20134   1.976   0.994   5.679
 6412SOL    HW120135   2.021   1.050   5.749
 6412SOL    HW220136   2.021   1.008   5.591
 6413SOL     OW20137   3.888   4.840   4.009
 6413SOL    HW120138   3.816   4.847   3.939
 6413SOL    HW220139   3.977   4.853   3.966
 6414SOL     OW20140   5.170   1.027   6.857
 6414SOL    HW120141   5.225   1.077   6.924
 6414SOL    HW220142   5.166   0.930   6.883
 6415SOL     OW20143   1.542   3.177   3.921
 6415SOL    HW120144   1.601   3.245   3.877
 6415SOL    HW220145   1.592   3.131   3.994
 6416SOL     OW20146   2.173   6.874   6.514
 6416SOL    HW120147   2.169   6.861   6.613
 6416SOL    HW220148   2.137   6.965   6.491
 6417SOL     OW20149   5.795   4.032   0.472
 6417SOL    HW120150   5.802   4.008   0.375
 6417SOL    HW220151   5.849   4.114   0.490
 6418SOL     OW20152   4.744   4.130   3.249
 6418SOL    HW120153   4.699   4.184   3.178
 6418SOL    HW220154   4.708   4.157   3.339
 6419SOL     OW20155   1.259   5.355   3.114
 6419SOL    HW120156   1.216   5.290   3.052
 6419SOL    HW220157   1.206   5.360   3.199
 6420SOL     OW20158   2.437   0.523   4.509
 6420SOL    HW120159   2.505   0.455   4.481
 6420SOL    HW220160   2.354   0.510   4.455
 6421SOL     OW20161   4.934   0.396   1.743
 6421SOL    HW120162   4.855   0.401   1.681
 6421SOL    HW220163   4.973   0.487   1.754
 6422SOL     OW20164   6.598   0.825   4.737
 6422SOL    HW120165   6.591   0.923   4.753
 6422SOL    HW220166   6.692   0.795   4.750
 6423SOL     OW20167   4.991   5.101   3.960
 6423SOL    HW120168   5.053   5.102   4.038
 6423SOL    HW220169   5.042   5.077   3.877
 6424SOL     OW20170   0.432   3.977   4.485
 6424SOL    HW120171   0.454   4.057   4.541
 6424SOL    HW220172   0.379   4.006   4.405
 6425SOL     OW20173   6.914   6.214   3.249
 6425SOL    HW120174   6.824   6.255   3.230
 6425SOL    HW220175   6.966   6.209   3.164
 6426SOL     OW20176   0.125   5.562   2.915
 6426SOL    HW120177   0.080   5.512   2.989
 6426SOL    HW220178   0.198   5.619   2.953
 6427SOL     OW20179   3.672   4.084   3.552
 6427SOL    HW120180   3.739   4.123   3.488
 6427SOL    HW220181   3.582   4.123   3.534
 6428SOL     OW20182   5.775   3.381   7.005
 6428SOL    HW120183   5.738   3.300   0.027
 6428SOL    HW220184   5.770   3.370   6.906
 6429SOL     OW20185   0.089   0.940   6.102
 6429SOL    HW120186   0.047   0.883   6.173
 6429SOL    HW220187   0.153   0.884   6.049
 6430SOL     OW20188   6.177   1.264   3.773
 6430SOL    HW120189   6.254   1.326   3.760
 6430SOL    HW220190   6.183   1.223   3.865
 6431SOL     OW20191   3.987   6.081   3.754
 6431SOL    HW120192   3.891   6.101   3.774
 6431SOL    HW220193   3.998   6.066   3.656
 6432SOL     OW20194   4.608   4.850   5.903
 6432SOL    HW120195   4.628   4.807   5.991
 6432SOL    HW220196   4.667   4.929   5.891
 6433SOL     OW20197   2.526   5.248   6.494
 6433SOL    HW120198   2.472   5.309   6.553
 6433SOL    HW220199   2.612   5.292   6.469
 6434SOL     OW20200   2.851   6.868   6.502
 6434SOL    HW120201   2.804   6.830   6.423
 6434SOL    HW220202   2.805   6.952   6.532
 6435SOL     OW20203   5.535   0.085   0.312
 6435SOL    HW120204   5.520   0.127   0.222
 6435SOL    HW220205   5.633   0.074   0.327
 6436SOL     OW20206   1.222   3.269   2.513
 6436SOL    HW120207   1.206   3.236   2.606
 6436SOL    HW220208   1.145   3.325   2.483
 6437SOL     OW20209   1.321   2.203   0.375
 6437SOL    HW120210   1.342   2.291   0.417
 6437SOL    HW220211   1.385   2.185   0.301
 6438SOL     OW20212   0.614   4.493   5.398
 6438SOL    HW120213   0.648   4.422   5.459
 6438SOL    HW220214   0.598   4.454   5.307
 6439SOL     OW20215   5.304   1.063   2.096
 6439SOL    HW120216   5.343   1.155   2.101
 6439SOL    HW220217   5.338   1.009   2.174
 6440SOL     OW20218   2.713   1.389   5.911
 6440SOL    HW120219   2.812   1.394   5.928
 6440SOL    HW220220   2.676   1.309   5.958
 6441SOL     OW20221   0.366   0.383   1.289
 6441SOL    HW120222   0.316   0.462   1.324
 6441SOL    HW220223   0.302   0.311   1.263
 6442SOL     OW20224   2.770   1.748   5.315
 6442SOL    HW120225   2.716   1.832   5.324
 6442SOL    HW220226   2.756   1.710   5.223
 6443SOL     OW20227   3.374   2.764   5.728
 6443SOL    HW120228   3.394   2.817   5.646
 6443SOL    HW220229   3.287   2.795   5.767
 6444SOL     OW20230   5.522   2.970   4.839
 6444SOL    HW120231   5.549   2.985   4.934
 6444SOL    HW220232   5.477   3.052   4.804
 6445SOL     OW20233   4.080   3.648   3.736
 6445SOL    HW120234   4.093   3.609   3.827
 6445SOL    HW220235   4.072   3.748   3.743
 6446SOL     OW20236   0.660   1.683   0.308
 6446SOL    HW120237   0.658   1.583   0.301
 6446SOL    HW220238   0.568   1.719   0.294
 6447SOL     OW20239   6.807   4.461   2.874
 6447SOL    HW120240   6.826   4.382   2.816
 6447SOL    HW220241   6.867   4.537   2.847
 6448SOL     OW20242   5.139   5.106   1.238
 6448SOL    HW120243   5.144   5.202   1.266
 6448SOL    HW220244   5.122   5.048   1.318
 6449SOL     OW20245   3.515   5.657   1.405
 6449SOL    HW120246   3.547   5.704   1.322
 6449SOL    HW220247   3.437   5.707   1.443
 6450SOL     OW20248   1.620   2.691   0.829
 6450SOL    HW120249   1.564   2.748   0.889
 6450SOL    HW220250   1.639   2.603   0.874
 6451SOL     OW20251   2.489   0.702   6.086
 6451SOL    HW120252   2.481   0.617   6.138
 6451SOL    HW220253   2.432   0.697   6.004
 6452SOL     OW20254   4.711   4.398   3.143
 6452SOL    HW120255   4.739   4.468   3.209
 6452SOL    HW220256   4.727   4.432   3.050
 6453SOL     OW20257   2.080   0.073   1.625
 6453SOL    HW120258   2.029   0.090   1.709
 6453SOL    HW220259   2.174   0.048   1.648
 6454SOL     OW20260   1.000   1.577   2.972
 6454SOL    HW120261   0.913   1.620   2.950
 6454SOL    HW220262   1.033   1.610   3.061
 6455SOL     OW20263   6.782   3.008   4.027
 6455SOL    HW120264   6.745   2.985   3.936
 6455SOL    HW220265   6.779   2.927   4.085
 6456SOL     OW20266   1.507   1.629   3.509
 6456SOL    HW120267   1.577   1.659   3.444
 6456SOL    HW220268   1.515   1.531   3.525
 6457SOL     OW20269   5.025   0.662   1.834
 6457SOL    HW120270   4.978   0.694   1.916
 6457SOL    HW220271   5.032   0.736   1.768
 6458SOL     OW20272   1.085   5.604   4.274
 6458SOL    HW120273   1.150   5.532   4.299
 6458SOL    HW220274   0.992   5.573   4.291
 6459SOL     OW20275   6.526   3.153   1.911
 6459SOL    HW120276   6.563   3.210   1.985
 6459SOL    HW220277   6.510   3.061   1.945
 6460SOL     OW20278   5.922   6.001   6.429
 6460SOL    HW120279   5.942   5.945   6.349
 6460SOL    HW220280   5.997   5.994   6.494
 6461SOL     OW20281   2.642   4.323   6.954
 6461SOL    HW120282   2.630   4.418   6.924
 6461SOL    HW220283   2.573   4.266   6.909
 6462SOL     OW20284   1.509   3.040   4.716
 6462SOL    HW120285   1.593   3.092   4.698
 6462SOL    HW220286   1.430   3.101   4.711
 6463SOL     OW20287   5.722   1.042   0.751
 6463SOL    HW120288   5.647   1.013   0.691
 6463SOL    HW220289   5.777   0.962   0.775
 6464SOL     OW20290   1.702   5.251   5.215
 6464SOL    HW120291   1.682   5.236   5.118
 6464SOL    HW220292   1.693   5.165   5.265
 6465SOL     OW20293   6.693   3.083   2.736
 6465SOL    HW120294   6.633   3.156   2.771
 6465SOL    HW220295   6.767   3.068   2.802
 6466SOL     OW20296   6.102   1.679   6.388
 6466SOL    HW120297   6.095   1.625   6.472
 6466SOL    HW220298   6.192   1.666   6.348
 6467SOL     OW20299   3.563   0.424   0.594
 6467SOL    HW120300   3.661   0.442   0.588
 6467SOL    HW220301   3.549   0.332   0.631
 6468SOL     OW20302   2.982   5.914   1.316
 6468SOL    HW120303   3.055   5.981   1.327
 6468SOL    HW220304   2.962   5.904   1.218
 6469SOL     OW20305   4.028   2.154   3.491
 6469SOL    HW120306   3.958   2.136   3.422
 6469SOL    HW220307   4.118   2.147   3.449
 6470SOL     OW20308   5.447   2.912   0.861
 6470SOL    HW120309   5.529   2.856   0.862
 6470SOL    HW220310   5.472   3.008   0.846
 6471SOL     OW20311   0.269   6.160   5.466
 6471SOL    HW120312   0.319   6.082   5.504
 6471SOL    HW220313   0.334   6.230   5.436
 6472SOL     OW20314   6.927   5.980   1.890
 6472SOL    HW120315   6.874   6.064   1.889
 6472SOL    HW220316   6.960   5.960   1.798
 6473SOL     OW20317   2.841   1.992   4.920
 6473SOL    HW120318   2.864   2.086   4.943
 6473SOL    HW220319   2.911   1.955   4.858
 6474SOL     OW20320   4.280   5.702   5.981
 6474SOL    HW120321   4.224   5.707   6.063
 6474SOL    HW220322   4.258   5.780   5.921
 6475SOL     OW20323   6.138   4.449   3.511
 6475SOL    HW120324   6.158   4.497   3.596
 6475SOL    HW220325   6.102   4.514   3.443
 6476SOL     OW20326   5.336   2.958   0.506
 6476SOL    HW120327   5.422   2.908   0.522
 6476SOL    HW220328   5.291   2.920   0.425
 6477SOL     OW20329   6.504   5.410   0.416
 6477SOL    HW120330   6.537   5.497   0.453
 6477SOL    HW220331   6.405   5.411   0.411
 6478SOL     OW20332   3.780   6.555   2.444
 6478SOL    HW120333   3.704   6.594   2.392
 6478SOL    HW220334   3.851   6.625   2.456
 6479SOL     OW20335   4.143   5.487   3.947
 6479SOL    HW120336   4.115   5.410   3.889
 6479SOL    HW220337   4.231   5.466   3.989
 6480SOL     OW20338   2.280   1.112   0.236
 6480SOL    HW120339   2.219   1.166   0.294
 6480SOL    HW220340   2.356   1.170   0.205
 6481SOL     OW20341   3.333   1.919   2.090
 6481SOL    HW120342   3.326   1.829   2.133
 6481SOL    HW220343   3.339   1.989   2.161
 6482SOL     OW20344   6.443   1.969   6.431
 6482SOL    HW120345   6.363   2.003   6.381
 6482SOL    HW220346   6.480   1.890   6.383
 6483SOL     OW20347   0.241   0.165   3.369
 6483SOL    HW120348   0.234   0.080   3.317
 6483SOL    HW220349   0.150   0.195   3.396
 6484SOL     OW20350   3.506   0.415   2.051
 6484SOL    HW120351   3.523   0.429   2.148
 6484SOL    HW220352   3.412   0.382   2.038
 6485SOL     OW20353   1.856   5.333   3.583
 6485SOL    HW120354   1.792   5.256   3.577
 6485SOL    HW220355   1.943   5.302   3.619
 6486SOL     OW20356   0.712   4.874   2.414
 6486SOL    HW120357   0.703   4.972   2.433
 6486SOL    HW220358   0.624   4.837   2.384
 6487SOL     OW20359   0.852   6.635   5.363
 6487SOL    HW120360   0.873   6.732   5.357
 6487SOL    HW220361   0.780   6.621   5.430
 6488SOL     OW20362   3.827   6.351   4.451
 6488SOL    HW120363   3.754   6.390   4.395
 6488SOL    HW220364   3.811   6.252   4.462
 6489SOL     OW20365   3.137   3.539   6.070
 6489SOL    HW120366   3.197   3.558   5.993
 6489SOL    HW220367   3.180   3.470   6.129
 6490SOL     OW20368   3.970   1.941   6.369
 6490SOL    HW120369   4.044   2.006   6.384
 6490SOL    HW220370   3.891   1.988   6.329
 6491SOL     OW20371   2.831   0.482   1.088
 6491SOL    HW120372   2.914   0.459   1.037
 6491SOL    HW220373   2.751   0.469   1.029
 6492SOL     OW20374   3.823   4.094   5.700
 6492SOL    HW120375   3.783   4.033   5.768
 6492SOL    HW220376   3.917   4.065   5.680
 6493SOL     OW20377   1.652   4.479   6.478
 6493SOL    HW120378   1.751   4.469   6.482
 6493SOL    HW220379   1.617   4.500   6.570
 6494SOL     OW20380   6.855   0.314   2.994
 6494SOL    HW120381   6.876   0.226   2.950
 6494SOL    HW220382   6.785   0.361   2.940
 6495SOL     OW20383   6.916   0.608   4.553
 6495SOL    HW120384   6.863   0.679   4.506
 6495SOL    HW220385   6.921   0.526   4.496
 6496SOL     OW20386   6.022   0.795   2.910
 6496SOL    HW120387   6.052   0.724   2.846
 6496SOL    HW220388   6.097   0.857   2.929
 6497SOL     OW20389   1.065   0.709   1.569
 6497SOL    HW120390   0.966   0.721   1.569
 6497SOL    HW220391   1.089   0.624   1.522
 6498SOL     OW20392   1.482   2.850   4.942
 6498SOL    HW120393   1.495   2.762   4.895
 6498SOL    HW220394   1.476   2.923   4.874
 6499SOL     OW20395   5.464   4.329   5.553
 6499SOL    HW120396   5.556   4.291   5.563
 6499SOL    HW220397   5.399   4.272   5.605
 6500SOL     OW20398   6.776   3.667   4.042
 6500SOL    HW120399   6.776   3.576   4.002
 6500SOL    HW220400   6.732   3.665   4.132
 6501SOL     OW20401   6.326   0.881   0.103
 6501SOL    HW120402   6.410   0.837   0.133
 6501SOL    HW220403   6.292   0.837   0.020
 6502SOL     OW20404   6.747   3.766   2.367
 6502SOL    HW120405   6.778   3.671   2.372
 6502SOL    HW220406   6.826   3.827   2.377
 6503SOL     OW20407   5.317   1.144   3.589
 6503SOL    HW120408   5.327   1.234   3.547
 6503SOL    HW220409   5.369   1.142   3.675
 6504SOL     OW20410   3.921   6.598   6.068
 6504SOL    HW120411   3.872   6.643   6.143
 6504SOL    HW220412   3.863   6.597   5.986
 6505SOL     OW20413   5.327   5.939   6.110
 6505SOL    HW120414   5.244   5.887   6.130
 6505SOL    HW220415   5.378   5.954   6.195
 6506SOL     OW20416   0.180   2.942   3.113
 6506SOL    HW120417   0.083   2.920   3.115
 6506SOL    HW220418   0.194   3.030   3.069
 6507SOL     OW20419   2.431   5.464   6.662
 6507SOL    HW120420   2.407   5.538   6.599
 6507SOL    HW220421   2.488   5.501   6.736
 6508SOL     OW20422   1.733   0.474   2.849
 6508SOL    HW120423   1.696   0.468   2.942
 6508SOL    HW220424   1.680   0.540   2.796
 6509SOL     OW20425   4.345   1.970   4.779
 6509SOL    HW120426   4.297   2.052   4.747
 6509SOL    HW220427   4.432   1.996   4.819
 6510SOL     OW20428   6.261   5.211   0.245
 6510SOL    HW120429   6.219   5.121   0.254
 6510SOL    HW220430   6.259   5.258   0.333
 6511SOL     OW20431   3.872   0.725   4.308
 6511SOL    HW120432   3.936   0.648   4.313
 6511SOL    HW220433   3.909   0.804   4.355
 6512SOL     OW20434   3.694   6.077   2.113
 6512SOL    HW120435   3.728   6.127   2.193
 6512SOL    HW220436   3.722   6.125   2.030
 6513SOL     OW20437   2.292   5.259   3.012
 6513SOL    HW120438   2.250   5.296   3.095
 6513SOL    HW220439   2.337   5.333   2.962
 6514SOL     OW20440   5.838   1.567   4.234
 6514SOL    HW120441   5.874   1.618   4.312
 6514SOL    HW220442   5.756   1.612   4.200
 6515SOL     OW20443   1.185   3.970   3.488
 6515SOL    HW120444   1.162   3.897   3.552
 6515SOL    HW220445   1.186   3.934   3.395
 6516SOL     OW20446   0.771   3.274   1.843
 6516SOL    HW120447   0.847   3.211   1.824
 6516SOL    HW220448   0.806   3.367   1.854
 6517SOL     OW20449   0.053   1.337   1.984
 6517SOL    HW120450   0.014   1.247   1.963
 6517SOL    HW220451   7.022   1.380   2.058
 6518SOL     OW20452   0.067   6.872   0.776
 6518SOL    HW120453   0.092   6.965   0.751
 6518SOL    HW220454   0.051   6.867   0.875
 6519SOL     OW20455   0.982   1.853   2.637
 6519SOL    HW120456   1.071   1.830   2.675
 6519SOL    HW220457   0.987   1.851   2.537
 6520SOL     OW20458   6.998   5.217   7.003
 6520SOL    HW120459   7.021   5.142   0.044
 6520SOL    HW220460   7.014   5.187   6.909
 6521SOL     OW20461   2.031   2.820   3.906
 6521SOL    HW120462   2.116   2.811   3.853
 6521SOL    HW220463   1.960   2.763   3.865
 6522SOL     OW20464   3.077   4.750   5.576
 6522SOL    HW120465   3.166   4.745   5.530
 6522SOL    HW220466   3.076   4.829   5.637
 6523SOL     OW20467   3.481   1.056   6.900
 6523SOL    HW120468   3.406   0.990   6.889
 6523SOL    HW220469   3.507   1.061   6.996
 6524SOL     OW20470   2.418   3.601   1.272
 6524SOL    HW120471   2.329   3.566   1.301
 6524SOL    HW220472   2.482   3.598   1.349
 6525SOL     OW20473   1.978   5.043   3.085
 6525SOL    HW120474   2.074   5.063   3.108
 6525SOL    HW220475   1.942   5.115   3.026
 6526SOL     OW20476   1.839   0.731   1.666
 6526SOL    HW120477   1.741   0.754   1.663
 6526SOL    HW220478   1.891   0.803   1.620
 6527SOL     OW20479   6.809   1.506   5.894
 6527SOL    HW120480   6.835   1.526   5.800
 6527SOL    HW220481   6.829   1.410   5.915
 6528SOL     OW20482   5.389   1.477   5.191
 6528SOL    HW120483   5.373   1.420   5.111
 6528SOL    HW220484   5.308   1.477   5.249
 6529SOL     OW20485   2.047   0.399   2.529
 6529SOL    HW120486   2.135   0.384   2.574
 6529SOL    HW220487   1.992   0.316   2.534
 6530SOL     OW20488   6.322   2.000   0.956
 6530SOL    HW120489   6.357   1.969   1.044
 6530SOL    HW220490   6.281   1.922   0.907
 6531SOL     OW20491   4.944   3.436   4.816
 6531SOL    HW120492   5.033   3.434   4.863
 6531SOL    HW220493   4.882   3.496   4.866
 6532SOL     OW20494   0.251   0.974   1.578
 6532SOL    HW120495   0.279   1.056   1.530
 6532SOL    HW220496   0.321   0.903   1.566
 6533SOL     OW20497   4.410   6.840   0.222
 6533SOL    HW120498   4.316   6.864   0.247
 6533SOL    HW220499   4.411   6.796   0.132
 6534SOL     OW20500   5.079   4.698   1.735
 6534SOL    HW120501   5.100   4.698   1.833
 6534SOL    HW220502   5.156   4.659   1.685
 6535SOL     OW20503   6.776   4.351   3.711
 6535SOL    HW120504   6.856   4.291   3.713
 6535SOL    HW220505   6.801   4.438   3.670
 6536SOL     OW20506   0.400   1.832   5.649
 6536SOL    HW120507   0.408   1.751   5.591
 6536SOL    HW220508   0.447   1.816   5.735
 6537SOL     OW20509   6.616   4.746   0.328
 6537SOL    HW120510   6.669   4.830   0.315
 6537SOL    HW220511   6.598   4.704   0.239
 6538SOL     OW20512   2.150   3.541   6.119
 6538SOL    HW120513   2.196   3.573   6.202
 6538SOL    HW220514   2.051   3.553   6.129
 6539SOL     OW20515   5.142   0.742   6.914
 6539SOL    HW120516   5.185   0.659   6.880
 6539SOL    HW220517   5.052   0.752   6.870
 6540SOL     OW20518   4.111   2.345   0.009
 6540SOL    HW120519   4.077   2.382   0.095
 6540SOL    HW220520   4.159   2.259   0.026
 6541SOL     OW20521   5.119   1.530   5.327
 6541SOL    HW120522   5.081   1.438   5.335
 6541SOL    HW220523   5.052   1.590   5.283
 6542SOL     OW20524   6.932   2.616   3.837
 6542SOL    HW120525   6.958   2.687   3.772
 6542SOL    HW220526   6.840   2.634   3.872
 6543SOL     OW20527   4.202   3.020   5.414
 6543SOL    HW120528   4.235   2.929   5.393
 6543SOL    HW220529   4.106   3.015   5.444
 6544SOL     OW20530   1.141   6.385   3.177
 6544SOL    HW120531   1.080   6.395   3.256
 6544SOL    HW220532   1.229   6.429   3.197
 6545SOL     OW20533   4.438   0.126   1.034
 6545SOL    HW120534   4.519   0.074   1.008
 6545SOL    HW220535   4.433   0.210   0.980
 6546SOL     OW20536   2.684   4.816   6.301
 6546SOL    HW120537   2.660   4.881   6.373
 6546SOL    HW220538   2.778   4.784   6.314
 6547SOL     OW20539   4.726   0.856   6.636
 6547SOL    HW120540   4.639   0.819   6.604
 6547SOL    HW220541   4.722   0.955   6.637
 6548SOL     OW20542   0.995   3.951   0.949
 6548SOL    HW120543   0.982   3.852   0.950
 6548SOL    HW220544   1.081   3.974   0.995
 6549SOL     OW20545   4.498   1.090   1.856
 6549SOL    HW120546   4.506   0.997   1.891
 6549SOL    HW220547   4.448   1.090   1.769
 6550SOL     OW20548   6.944   7.000   3.897
 6550SOL    HW120549   6.957   7.017   3.799
 6550SOL    HW220550   7.015   6.937   3.929
 6551SOL     OW20551   1.696   4.059   1.611
 6551SOL    HW120552   1.708   4.134   1.677
 6551SOL    HW220553   1.768   3.991   1.624
 6552SOL     OW20554   1.287   0.421   0.503
 6552SOL    HW120555   1.225   0.477   0.558
 6552SOL    HW220556   1.295   0.330   0.542
 6553SOL     OW20557   7.003   2.085   3.593
 6553SOL    HW120558   6.941   2.159   3.568
 6553SOL    HW220559   0.074   2.107   3.563
 6554SOL     OW20560   1.031   0.146   4.434
 6554SOL    HW120561   1.113   0.120   4.485
 6554SOL    HW220562   1.051   0.143   4.336
 6555SOL     OW20563   5.088   2.043   3.130
 6555SOL    HW120564   5.037   2.129   3.136
 6555SOL    HW220565   5.153   2.048   3.055
 6556SOL     OW20566   5.538   4.512   3.731
 6556SOL    HW120567   5.535   4.560   3.643
 6556SOL    HW220568   5.545   4.413   3.714
 6557SOL     OW20569   3.355   0.183   2.552
 6557SOL    HW120570   3.319   0.118   2.484
 6557SOL    HW220571   3.315   0.273   2.536
 6558SOL     OW20572   0.220   5.018   0.282
 6558SOL    HW120573   0.266   4.964   0.352
 6558SOL    HW220574   0.129   4.981   0.265
 6559SOL     OW20575   1.220   4.538   0.239
 6559SOL    HW120576   1.272   4.615   0.276
 6559SOL    HW220577   1.284   4.469   0.204
 6560SOL     OW20578   4.460   4.862   1.427
 6560SOL    HW120579   4.519   4.830   1.502
 6560SOL    HW220580   4.427   4.783   1.375
 6561SOL     OW20581   3.347   4.293   1.512
 6561SOL    HW120582   3.307   4.209   1.475
 6561SOL    HW220583   3.276   4.349   1.554
 6562SOL     OW20584   6.671   2.724   0.868
 6562SOL    HW120585   6.707   2.643   0.913
 6562SOL    HW220586   6.713   2.733   0.778
 6563SOL     OW20587   5.124   5.333   6.386
 6563SOL    HW120588   5.218   5.307   6.404
 6563SOL    HW220589   5.105   5.324   6.288
 6564SOL     OW20590   7.021   3.463   2.907
 6564SOL    HW120591   7.020   3.399   2.831
 6564SOL    HW220592   0.070   3.531   2.893
 6565SOL     OW20593   5.308   1.776   2.492
 6565SOL    HW120594   5.348   1.764   2.583
 6565SOL    HW220595   5.376   1.751   2.422
 6566SOL     OW20596   3.654   6.233   1.841
 6566SOL    HW120597   3.753   6.236   1.824
 6566SOL    HW220598   3.619   6.142   1.818
 6567SOL     OW20599   4.702   0.941   2.417
 6567SOL    HW120600   4.634   1.012   2.430
 6567SOL    HW220601   4.761   0.965   2.340
 6568SOL     OW20602   3.359   1.533   4.257
 6568SOL    HW120603   3.318   1.535   4.166
 6568SOL    HW220604   3.297   1.576   4.322
 6569SOL     OW20605   2.491   3.234   0.324
 6569SOL    HW120606   2.397   3.215   0.298
 6569SOL    HW220607   2.549   3.157   0.299
 6570SOL     OW20608   3.407   0.614   2.220
 6570SOL    HW120609   3.320   0.572   2.246
 6570SOL    HW220610   3.400   0.649   2.126
 6571SOL     OW20611   3.242   4.915   1.666
 6571SOL    HW120612   3.334   4.882   1.647
 6571SOL    HW220613   3.242   5.015   1.662
 6572SOL     OW20614   6.498   4.615   4.650
 6572SOL    HW120615   6.564   4.677   4.692
 6572SOL    HW220616   6.541   4.568   4.573
 6573SOL     OW20617   0.847   1.616   2.282
 6573SOL    HW120618   0.901   1.696   2.303
 6573SOL    HW220619   0.900   1.552   2.226
 6574SOL     OW20620   2.499   5.922   2.204
 6574SOL    HW120621   2.533   5.853   2.268
 6574SOL    HW220622   2.518   5.892   2.110
 6575SOL     OW20623   0.486   6.951   3.465
 6575SOL    HW120624   0.437   6.889   3.526
 6575SOL    HW220625   0.584   6.946   3.483
 6576SOL     OW20626   2.001   5.969   6.799
 6576SOL    HW120627   1.930   5.929   6.741
 6576SOL    HW220628   1.959   6.001   6.884
 6577SOL     OW20629   0.650   1.932   3.571
 6577SOL    HW120630   0.640   1.902   3.666
 6577SOL    HW220631   0.720   2.003   3.565
 6578SOL     OW20632   0.979   6.108   2.803
 6578SOL    HW120633   1.071   6.146   2.817
 6578SOL    HW220634   0.962   6.100   2.705
 6579SOL     OW20635   0.465   3.208   3.771
 6579SOL    HW120636   0.368   3.185   3.779
 6579SOL    HW220637   0.475   3.306   3.755
 6580SOL     OW20638   0.735   1.764   0.783
 6580SOL    HW120639   0.639   1.785   0.802
 6580SOL    HW220640   0.791   1.789   0.863
 6581SOL     OW20641   2.638   0.531   0.302
 6581SOL    HW120642   2.594   0.441   0.304
 6581SOL    HW220643   2.576   0.597   0.260
 6582SOL     OW20644   0.082   1.354   2.831
 6582SOL    HW120645   0.082   1.265   2.786
 6582SOL    HW220646   0.138   1.418   2.778
 6583SOL     OW20647   4.648   0.794   5.884
 6583SOL    HW120648   4.663   0.891   5.903
 6583SOL    HW220649   4.729   0.756   5.841
 6584SOL     OW20650   4.280   2.782   0.955
 6584SOL    HW120651   4.377   2.764   0.939
 6584SOL    HW220652   4.226   2.709   0.912
 6585SOL     OW20653   6.061   6.233   0.238
 6585SOL    HW120654   6.082   6.246   0.141
 6585SOL    HW220655   6.066   6.321   0.286
 6586SOL     OW20656   5.603   1.064   5.830
 6586SOL    HW120657   5.606   1.155   5.787
 6586SOL    HW220658   5.532   1.009   5.786
 6587SOL     OW20659   1.972   5.101   5.501
 6587SOL    HW120660   2.021   5.188   5.506
 6587SOL    HW220661   2.029   5.034   5.454
 6588SOL     OW20662   0.376   2.889   2.001
 6588SOL    HW120663   0.390   2.897   2.100
 6588SOL    HW220664   0.317   2.810   1.983
 6589SOL     OW20665   4.557   0.508   1.056
 6589SOL    HW120666   4.550   0.608   1.047
 6589SOL    HW220667   4.470   0.471   1.086
 6590SOL     OW20668   0.327   1.094   6.598
 6590SOL    HW120669   0.389   1.016   6.591
 6590SOL    HW220670   0.334   1.134   6.689
 6591SOL     OW20671   6.312   5.656   2.935
 6591SOL    HW120672   6.313   5.582   2.867
 6591SOL    HW220673   6.404   5.695   2.944
 6592SOL     OW20674   5.212   0.405   3.096
 6592SOL    HW120675   5.232   0.315   3.134
 6592SOL    HW220676   5.131   0.400   3.037
 6593SOL     OW20677   1.978   2.265   2.713
 6593SOL    HW120678   2.066   2.262   2.760
 6593SOL    HW220679   1.970   2.184   2.654
 6594SOL     OW20680   3.936   1.653   6.303
 6594SOL    HW120681   3.838   1.644   6.325
 6594SOL    HW220682   3.961   1.750   6.304
 6595SOL     OW20683   1.333   4.600   6.980
 6595SOL    HW120684   1.274   4.566   0.031
 6595SOL    HW220685   1.382   4.523   6.939
 6596SOL     OW20686   3.364   0.077   4.268
 6596SOL    HW120687   3.289   0.054   4.205
 6596SOL    HW220688   3.417   7.017   4.288
 6597SOL     OW20689   1.197   5.261   1.372
 6597SOL    HW120690   1.170   5.179   1.321
 6597SOL    HW220691   1.280   5.241   1.424
 6598SOL     OW20692   1.721   5.307   4.489
 6598SOL    HW120693   1.684   5.341   4.403
 6598SOL    HW220694   1.763   5.217   4.475
 6599SOL     OW20695   4.318   6.221   6.287
 6599SOL    HW120696   4.299   6.185   6.378
 6599SOL    HW220697   4.314   6.146   6.220
 6600SOL     OW20698   4.109   5.651   5.605
 6600SOL    HW120699   4.108   5.565   5.656
 6600SOL    HW220700   4.047   5.644   5.527
 6601SOL     OW20701   1.442   2.036   4.629
 6601SOL    HW120702   1.463   1.985   4.712
 6601SOL    HW220703   1.521   2.093   4.605
 6602SOL     OW20704   1.957   1.375   2.170
 6602SOL    HW120705   1.991   1.281   2.174
 6602SOL    HW220706   1.863   1.375   2.135
 6603SOL     OW20707   0.028   2.780   3.391
 6603SOL    HW120708   0.106   2.719   3.379
 6603SOL    HW220709   6.996   2.781   3.307
 6604SOL     OW20710   1.234   0.368   1.223
 6604SOL    HW120711   1.272   0.389   1.133
 6604SOL    HW220712   1.284   0.291   1.263
 6605SOL     OW20713   5.879   5.374   1.602
 6605SOL    HW120714   5.827   5.460   1.608
 6605SOL    HW220715   5.874   5.340   1.508
 6606SOL     OW20716   0.849   5.497   1.944
 6606SOL    HW120717   0.923   5.441   1.982
 6606SOL    HW220718   0.808   5.448   1.867
 6607SOL     OW20719   1.714   4.000   2.282
 6607SOL    HW120720   1.792   4.021   2.340
 6607SOL    HW220721   1.746   3.956   2.198
 6608SOL     OW20722   6.687   6.491   0.430
 6608SOL    HW120723   6.775   6.538   0.429
 6608SOL    HW220724   6.701   6.395   0.452
 6609SOL     OW20725   5.263   0.910   0.469
 6609SOL    HW120726   5.302   0.952   0.387
 6609SOL    HW220727   5.213   0.828   0.444
 6610SOL     OW20728   2.434   6.283   0.380
 6610SOL    HW120729   2.406   6.376   0.406
 6610SOL    HW220730   2.374   6.248   0.309
 6611SOL     OW20731   4.874   3.256   3.072
 6611SOL    HW120732   4.961   3.305   3.066
 6611SOL    HW220733   4.874   3.179   3.010
 6612SOL     OW20734   6.222   1.827   7.007
 6612SOL    HW120735   6.178   1.915   0.000
 6612SOL    HW220736   6.232   1.811   6.909
 6613SOL     OW20737   6.994   6.218   5.225
 6613SOL    HW120738   6.943   6.207   5.139
 6613SOL    HW220739   0.070   6.211   5.206
 6614SOL     OW20740   4.549   5.470   0.058
 6614SOL    HW120741   4.625   5.527   0.028
 6614SOL    HW220742   4.543   5.389   0.001
 6615SOL     OW20743   1.522   5.615   1.163
 6615SOL    HW120744   1.435   5.567   1.153
 6615SOL    HW220745   1.507   5.703   1.206
 6616SOL     OW20746   4.724   0.417   6.257
 6616SOL    HW120747   4.678   0.365   6.328
 6616SOL    HW220748   4.664   0.425   6.177
 6617SOL     OW20749   4.505   5.201   3.123
 6617SOL    HW120750   4.605   5.202   3.112
 6617SOL    HW220751   4.480   5.258   3.201
 6618SOL     OW20752   1.670   2.017   2.646
 6618SOL    HW120753   1.650   2.005   2.743
 6618SOL    HW220754   1.598   2.072   2.603
 6619SOL     OW20755   5.213   0.348   3.882
 6619SOL    HW120756   5.239   0.252   3.896
 6619SOL    HW220757   5.216   0.369   3.784
 6620SOL     OW20758   1.409   2.980   5.348
 6620SOL    HW120759   1.482   2.941   5.292
 6620SOL    HW220760   1.392   3.075   5.320
 6621SOL     OW20761   3.522   3.216   6.143
 6621SOL    HW120762   3.561   3.156   6.214
 6621SOL    HW220763   3.566   3.196   6.056
 6622SOL     OW20764   5.763   6.521   2.213
 6622SOL    HW120765   5.732   6.456   2.283
 6622SOL    HW220766   5.713   6.504   2.128
 6623SOL     OW20767   3.439   3.236   5.366
 6623SOL    HW120768   3.380   3.285   5.302
 6623SOL    HW220769   3.426   3.272   5.458
 6624SOL     OW20770   0.174   4.265   5.739
 6624SOL    HW120771   0.237   4.320   5.683
 6624SOL    HW220772   0.169   4.303   5.831
 6625SOL     OW20773   5.361   2.008   5.188
 6625SOL    HW120774   5.351   1.910   5.174
 6625SOL    HW220775   5.362   2.029   5.285
 6626SOL     OW20776   3.912   5.686   5.399
 6626SOL    HW120777   3.838   5.681   5.467
 6626SOL    HW220778   3.906   5.773   5.349
 6627SOL     OW20779   2.175   6.735   5.985
 6627SOL    HW120780   2.161   6.807   6.054
 6627SOL    HW220781   2.180   6.646   6.031
 6628SOL     OW20782   5.849   5.378   4.331
 6628SOL    HW120783   5.860   5.477   4.331
 6628SOL    HW220784   5.861   5.344   4.238
 6629SOL     OW20785   4.579   6.712   6.627
 6629SOL    HW120786   4.560   6.801   6.668
 6629SOL    HW220787   4.653   6.667   6.677
 6630SOL     OW20788   3.642   1.389   0.901
 6630SOL    HW120789   3.637   1.432   0.991
 6630SOL    HW220790   3.591   1.303   0.902
 6631SOL     OW20791   2.168   5.591   3.989
 6631SOL    HW120792   2.218   5.505   3.981
 6631SOL    HW220793   2.166   5.619   4.085
 6632SOL     OW20794   0.887   7.013   1.043
 6632SOL    HW120795   0.924   0.070   1.090
 6632SOL    HW220796   0.788   7.010   1.056
 6633SOL     OW20797   1.668   4.660   6.756
 6633SOL    HW120798   1.732   4.701   6.692
 6633SOL    HW220799   1.589   4.720   6.767
 6634SOL     OW20800   4.792   1.813   4.819
 6634SOL    HW120801   4.738   1.892   4.790
 6634SOL    HW220802   4.828   1.766   4.738
 6635SOL     OW20803   4.508   4.388   3.337
 6635SOL    HW120804   4.572   4.382   3.414
 6635SOL    HW220805   4.559   4.405   3.253
 6636SOL     OW20806   4.741   1.752   6.978
 6636SOL    HW120807   4.784   1.810   6.909
 6636SOL    HW220808   4.648   1.729   6.949
 6637SOL     OW20809   0.107   6.776   6.738
 6637SOL    HW120810   0.062   6.862   6.762
 6637SOL    HW220811   0.199   6.774   6.777
 6638SOL     OW20812   3.106   3.802   2.969
 6638SOL    HW120813   3.185   3.791   3.029
 6638SOL    HW220814   3.109   3.733   2.897
 6639SOL     OW20815   4.864   4.668   6.730
 6639SOL    HW120816   4.911   4.646   6.816
 6639SOL    HW220817   4.811   4.752   6.742
 6640SOL     OW20818   0.073   1.869   4.867
 6640SOL    HW120819   0.088   1.770   4.865
 6640SOL    HW220820   0.137   1.914   4.804
 6641SOL     OW20821   2.406   0.926   6.486
 6641SOL    HW120822   2.397   1.024   6.503
 6641SOL    HW220823   2.351   0.875   6.552
 6642SOL     OW20824   1.841   5.919   6.599
 6642SOL    HW120825   1.864   5.847   6.534
 6642SOL    HW220826   1.742   5.931   6.602
 6643SOL     OW20827   5.822   6.050   0.159
 6643SOL    HW120828   5.806   5.974   0.222
 6643SOL    HW220829   5.872   6.123   0.206
 6644SOL     OW20830   2.264   4.742   1.348
 6644SOL    HW120831   2.280   4.688   1.266
 6644SOL    HW220832   2.332   4.814   1.354
 6645SOL     OW20833   6.088   4.028   0.505
 6645SOL    HW120834   6.008   3.975   0.534
 6645SOL    HW220835   6.156   3.967   0.465
 6646SOL     OW20836   4.163   0.508   5.178
 6646SOL    HW120837   4.156   0.432   5.243
 6646SOL    HW220838   4.252   0.505   5.133
 6647SOL     OW20839   5.158   0.839   1.098
 6647SOL    HW120840   5.216   0.770   1.141
 6647SOL    HW220841   5.214   0.901   1.043
 6648SOL     OW20842   3.159   6.438   3.759
 6648SOL    HW120843   3.147   6.536   3.773
 6648SOL    HW220844   3.080   6.401   3.711
 6649SOL     OW20845   5.513   1.661   6.788
 6649SOL    HW120846   5.434   1.616   6.831
 6649SOL    HW220847   5.488   1.693   6.697
 6650SOL     OW20848   3.985   1.548   5.741
 6650SOL    HW120849   4.037   1.465   5.721
 6650SOL    HW220850   4.003   1.617   5.671
 6651SOL     OW20851   2.954   0.536   6.150
 6651SOL    HW120852   2.943   0.632   6.175
 6651SOL    HW220853   2.876   0.507   6.095
 6652SOL     OW20854   0.332   4.349   6.616
 6652SOL    HW120855   0.346   4.252   6.636
 6652SOL    HW220856   0.339   4.402   6.700
 6653SOL     OW20857   4.034   4.025   1.270
 6653SOL    HW120858   3.984   3.943   1.244
 6653SOL    HW220859   4.073   4.014   1.361
 6654SOL     OW20860   1.652   5.260   0.551
 6654SOL    HW120861   1.560   5.226   0.531
 6654SOL    HW220862   1.651   5.308   0.639
 6655SOL     OW20863   0.889   6.608   3.861
 6655SOL    HW120864   0.920   6.539   3.926
 6655SOL    HW220865   0.825   6.568   3.797
 6656SOL     OW20866   4.903   1.894   3.647
 6656SOL    HW120867   4.977   1.904   3.581
 6656SOL    HW220868   4.836   1.967   3.633
 6657SOL     OW20869   5.971   4.515   6.023
 6657SOL    HW120870   5.912   4.492   5.945
 6657SOL    HW220871   5.916   4.558   6.095
 6658SOL     OW20872   6.020   1.012   4.599
 6658SOL    HW120873   6.063   1.098   4.574
 6658SOL    HW220874   6.017   1.005   4.699
 6659SOL     OW20875   1.978   3.173   0.284
 6659SOL    HW120876   1.988   3.187   0.382
 6659SOL    HW220877   1.956   3.260   0.240
 6660SOL     OW20878   1.305   4.664   1.301
 6660SOL    HW120879   1.379   4.677   1.367
 6660SOL    HW220880   1.271   4.753   1.272
 6661SOL     OW20881   1.644   0.115   5.365
 6661SOL    HW120882   1.707   0.181   5.408
 6661SOL    HW220883   1.676   0.093   5.273
 6662SOL     OW20884   1.066   0.029   0.292
 6662SOL    HW120885   0.991   0.074   0.341
 6662SOL    HW220886   1.062   0.054   0.195
 6663SOL     OW20887   6.400   5.855   4.557
 6663SOL    HW120888   6.394   5.852   4.657
 6663SOL    HW220889   6.452   5.776   4.524
 6664SOL     OW20890   2.365   6.744   0.527
 6664SOL    HW120891   2.377   6.674   0.597
 6664SOL    HW220892   2.317   6.705   0.449
 6665SOL     OW20893   1.608   6.300   4.380
 6665SOL    HW120894   1.624   6.244   4.460
 6665SOL    HW220895   1.696   6.328   4.341
 6666SOL     OW20896   5.874   6.246   6.151
 6666SOL    HW120897   5.831   6.263   6.062
 6666SOL    HW220898   5.821   6.177   6.201
 6667SOL     OW20899   5.963   6.622   6.336
 6667SOL    HW120900   6.031   6.648   6.404
 6667SOL    HW220901   5.987   6.533   6.297
 6668SOL     OW20902   6.853   5.473   0.602
 6668SOL    HW120903   6.898   5.448   0.517
 6668SOL    HW220904   6.918   5.468   0.678
 6669SOL     OW20905   2.231   2.034   2.542
 6669SOL    HW120906   2.166   2.094   2.495
 6669SOL    HW220907   2.324   2.061   2.521
 6670SOL     OW20908   3.251   1.860   5.110
 6670SOL    HW120909   3.223   1.929   5.176
 6670SOL    HW220910   3.316   1.798   5.152
 6671SOL     OW20911   4.841   6.701   0.459
 6671SOL    HW120912   4.876   6.698   0.365
 6671SOL    HW220913   4.745   6.730   0.458
 6672SOL     OW20914   6.825   2.819   6.674
 6672SOL    HW120915   6.897   2.768   6.627
 6672SOL    HW220916   6.844   2.917   6.670
 6673SOL     OW20917   4.537   4.527   4.335
 6673SOL    HW120918   4.611   4.461   4.340
 6673SOL    HW220919   4.482   4.523   4.418
 6674SOL     OW20920   0.731   4.045   6.773
 6674SOL    HW120921   0.712   3.951   6.745
 6674SOL    HW220922   0.817   4.046   6.826
 6675SOL     OW20923   5.845   3.653   7.007
 6675SOL    HW120924   5.822   3.555   7.007
 6675SOL    HW220925   5.910   3.671   6.933
 6676SOL     OW20926   1.028   4.238   5.622
 6676SOL    HW120927   1.099   4.308   5.614
 6676SOL    HW220928   1.040   4.188   5.708
 6677SOL     OW20929   1.162   1.766   6.212
 6677SOL    HW120930   1.096   1.808   6.274
 6677SOL    HW220931   1.115   1.698   6.154
 6678SOL     OW20932   3.036   3.315   0.026
 6678SOL    HW120933   2.961   3.277   0.081
 6678SOL    HW220934   3.057   3.407   0.057
 6679SOL     OW20935   3.290   0.995   3.886
 6679SOL    HW120936   3.277   1.028   3.792
 6679SOL    HW220937   3.301   1.073   3.948
 6680SOL     OW20938   5.025   6.740   6.673
 6680SOL    HW120939   4.975   6.801   6.734
 6680SOL    HW220940   5.065   6.665   6.726
 6681SOL     OW20941   4.060   5.095   1.450
 6681SOL    HW120942   4.152   5.057   1.443
 6681SOL    HW220943   4.065   5.190   1.481
 6682SOL     OW20944   1.499   4.382   1.458
 6682SOL    HW120945   1.558   4.343   1.528
 6682SOL    HW220946   1.536   4.360   1.367
 6683SOL     OW20947   5.885   3.629   5.031
 6683SOL    HW120948   5.796   3.665   5.059
 6683SOL    HW220949   5.911   3.552   5.090
 6684SOL     OW20950   2.989   6.390   1.687
 6684SOL    HW120951   3.033   6.411   1.599
 6684SOL    HW220952   2.891   6.380   1.673
 6685SOL     OW20953   5.894   2.700   5.619
 6685SOL    HW120954   5.981   2.670   5.580
 6685SOL    HW220955   5.906   2.789   5.664
 6686SOL     OW20956   4.729   5.648   3.779
 6686SOL    HW120957   4.733   5.659   3.680
 6686SOL    HW220958   4.721   5.551   3.802
 6687SOL     OW20959   1.041   3.322   1.225
 6687SOL    HW120960   1.133   3.300   1.193
 6687SOL    HW220961   0.979   3.328   1.147
 6688SOL     OW20962   6.088   4.550   2.132
 6688SOL    HW120963   6.170   4.501   2.163
 6688SOL    HW220964   6.052   4.507   2.050
 6689SOL     OW20965   3.607   3.436   6.464
 6689SOL    HW120966   3.564   3.380   6.535
 6689SOL    HW220967   3.650   3.377   6.396
 6690SOL     OW20968   0.551   1.158   0.879
 6690SOL    HW120969   0.538   1.061   0.859
 6690SOL    HW220970   0.468   1.194   0.922
 6691SOL     OW20971   2.749   6.429   2.357
 6691SOL    HW120972   2.827   6.378   2.392
 6691SOL    HW220973   2.781   6.499   2.292
 6692SOL     OW20974   3.369   3.254   3.995
 6692SOL    HW120975   3.270   3.240   4.003
 6692SOL    HW220976   3.416   3.168   4.008
 6693SOL     OW20977   3.600   2.569   5.317
 6693SOL    HW120978   3.653   2.651   5.293
 6693SOL    HW220979   3.503   2.591   5.313
 6694SOL     OW20980   4.592   5.456   1.219
 6694SOL    HW120981   4.561   5.512   1.296
 6694SOL    HW220982   4.513   5.414   1.174
 6695SOL     OW20983   2.999   2.196   0.114
 6695SOL    HW120984   3.025   2.219   0.020
 6695SOL    HW220985   2.986   2.281   0.166
 6696SOL     OW20986   3.187   3.275   4.895
 6696SOL    HW120987   3.268   3.327   4.922
 6696SOL    HW220988   3.200   3.179   4.921
 6697SOL     OW20989   4.894   1.933   2.888
 6697SOL    HW120990   4.818   1.965   2.832
 6697SOL    HW220991   4.954   2.010   2.909
 6698SOL     OW20992   2.795   1.962   0.597
 6698SOL    HW120993   2.761   2.050   0.565
 6698SOL    HW220994   2.872   1.977   0.659
 6699SOL     OW20995   2.532   5.633   5.680
 6699SOL    HW120996   2.597   5.668   5.747
 6699SOL    HW220997   2.566   5.653   5.588
 6700SOL     OW20998   0.792   0.713   1.584
 6700SOL    HW120999   0.713   0.683   1.637
 6700SOL    HW221000   0.783   0.810   1.562
 6701SOL     OW21001   5.642   4.765   2.569
 6701SOL    HW121002   5.699   4.847   2.561
 6701SOL    HW221003   5.625   4.727   2.478
 6702SOL     OW21004   2.981   2.083   1.582
 6702SOL    HW121005   3.048   2.141   1.628
 6702SOL    HW221006   2.889   2.110   1.610
 6703SOL     OW21007   6.105   1.179   6.976
 6703SOL    HW121008   6.051   1.263   6.970
 6703SOL    HW221009   6.144   1.172   0.046
 6704SOL     OW21010   4.002   1.722   3.610
 6704SOL    HW121011   4.080   1.662   3.630
 6704SOL    HW221012   4.026   1.816   3.634
 6705SOL     OW21013   6.425   3.863   1.561
 6705SOL    HW121014   6.495   3.908   1.617
 6705SOL    HW221015   6.454   3.863   1.466
 6706SOL     OW21016   1.220   4.338   1.439
 6706SOL    HW121017   1.251   4.245   1.460
 6706SOL    HW221018   1.298   4.401   1.447
 6707SOL     OW21019   6.424   6.795   3.821
 6707SOL    HW121020   6.434   6.881   3.871
 6707SOL    HW221021   6.447   6.718   3.881
 6708SOL     OW21022   0.306   4.879   0.488
 6708SOL    HW121023   0.253   4.842   0.564
 6708SOL    HW221024   0.399   4.898   0.518
 6709SOL     OW21025   2.264   6.021   2.677
 6709SOL    HW121026   2.227   6.113   2.685
 6709SOL    HW221027   2.257   5.974   2.764
 6710SOL     OW21028   3.763   1.838   5.991
 6710SOL    HW121029   3.860   1.853   5.971
 6710SOL    HW221030   3.750   1.743   6.022
 6711SOL     OW21031   4.780   5.831   5.582
 6711SOL    HW121032   4.748   5.758   5.642
 6711SOL    HW221033   4.727   5.830   5.497
 6712SOL     OW21034   5.482   4.200   0.802
 6712SOL    HW121035   5.492   4.113   0.754
 6712SOL    HW221036   5.403   4.249   0.765
 6713SOL     OW21037   2.300   0.343   2.617
 6713SOL    HW121038   2.300   0.341   2.517
 6713SOL    HW221039   2.384   0.302   2.651
 6714SOL     OW21040   6.879   0.766   5.711
 6714SOL    HW121041   6.976   0.749   5.697
 6714SOL    HW221042   6.867   0.836   5.781
 6715SOL     OW21043   0.391   0.121   0.176
 6715SOL    HW121044   0.469   0.059   0.165
 6715SOL    HW221045   0.349   0.137   0.086
 6716SOL     OW21046   0.287   5.696   1.910
 6716SOL    HW121047   0.202   5.674   1.957
 6716SOL    HW221048   0.289   5.793   1.888
 6717SOL     OW21049   3.863   2.323   6.912
 6717SOL    HW121050   3.801   2.390   6.953
 6717SOL    HW221051   3.955   2.337   6.947
 6718SOL     OW21052   5.553   0.901   1.345
 6718SOL    HW121053   5.456   0.927   1.336
 6718SOL    HW221054   5.595   0.900   1.254
 6719SOL     OW21055   2.403   6.627   6.320
 6719SOL    HW121056   2.458   6.617   6.404
 6719SOL    HW221057   2.410   6.721   6.287
 6720SOL     OW21058   1.689   0.729   4.477
 6720SOL    HW121059   1.759   0.800   4.465
 6720SOL    HW221060   1.609   0.752   4.421
 6721SOL     OW21061   6.594   6.983   0.483
 6721SOL    HW121062   6.541   0.005   0.410
 6721SOL    HW221063   6.692   7.003   0.469
 6722SOL     OW21064   0.144   2.996   1.844
 6722SOL    HW121065   0.075   2.938   1.888
 6722SOL    HW221066   0.210   3.028   1.913
 6723SOL     OW21067   1.722   6.610   3.827
 6723SOL    HW121068   1.668   6.682   3.783
 6723SOL    HW221069   1.808   6.649   3.859
 6724SOL     OW21070   1.832   3.370   6.187
 6724SOL    HW121071   1.810   3.450   6.131
 6724SOL    HW221072   1.880   3.399   6.270
 6725SOL     OW21073   0.345   3.760   1.647
 6725SOL    HW121074   0.427   3.704   1.635
 6725SOL    HW221075   0.339   3.790   1.742
 6726SOL     OW21076   0.887   2.532   5.231
 6726SOL    HW121077   0.927   2.485   5.310
 6726SOL    HW221078   0.854   2.622   5.259
 6727SOL     OW21079   0.465   4.735   5.229
 6727SOL    HW121080   0.549   4.686   5.252
 6727SOL    HW221081   0.395   4.717   5.298
 6728SOL     OW21082   3.371   2.088   2.311
 6728SOL    HW121083   3.326   2.083   2.400
 6728SOL    HW221084   3.414   2.177   2.300
 6729SOL     OW21085   6.469   0.825   2.849
 6729SOL    HW121086   6.496   0.873   2.765
 6729SOL    HW221087   6.376   0.852   2.875
 6730SOL     OW21088   2.012   6.997   1.220
 6730SOL    HW121089   2.051   6.918   1.267
 6730SOL    HW221090   2.083   0.023   1.169
 6731SOL     OW21091   0.862   6.279   0.984
 6731SOL    HW121092   0.942   6.222   0.965
 6731SOL    HW221093   0.869   6.363   0.931
 6732SOL     OW21094   5.506   5.036   4.771
 6732SOL    HW121095   5.563   4.954   4.763
 6732SOL    HW221096   5.520   5.077   4.861
 6733SOL     OW21097   3.825   5.327   6.265
 6733SOL    HW121098   3.833   5.425   6.283
 6733SOL    HW221099   3.915   5.284   6.269
 6734SOL     OW21100   5.848   2.773   4.185
 6734SOL    HW121101   5.836   2.791   4.283
 6734SOL    HW221102   5.944   2.784   4.161
 6735SOL     OW21103   6.567   4.065   4.924
 6735SOL    HW121104   6.619   4.151   4.929
 6735SOL    HW221105   6.603   4.001   4.992
 6736SOL     OW21106   3.548   3.792   0.123
 6736SOL    HW121107   3.497   3.829   0.045
 6736SOL    HW221108   3.644   3.819   0.116
 6737SOL     OW21109   1.299   2.472   0.794
 6737SOL    HW121110   1.324   2.464   0.697
 6737SOL    HW221111   1.341   2.398   0.845
 6738SOL     OW21112   1.561   5.909   3.115
 6738SOL    HW121113   1.481   5.918   3.056
 6738SOL    HW221114   1.632   5.856   3.068
 6739SOL     OW21115   4.112   6.106   4.743
 6739SOL    HW121116   4.022   6.065   4.733
 6739SOL    HW221117   4.177   6.061   4.681
 6740SOL     OW21118   1.076   0.771   4.864
 6740SOL    HW121119   1.085   0.752   4.767
 6740SOL    HW221120   1.164   0.803   4.900
 6741SOL     OW21121   4.196   1.755   5.304
 6741SOL    HW121122   4.166   1.742   5.398
 6741SOL    HW221123   4.269   1.690   5.283
 6742SOL     OW21124   5.467   6.265   2.605
 6742SOL    HW121125   5.533   6.214   2.660
 6742SOL    HW221126   5.374   6.242   2.635
 6743SOL     OW21127   4.120   5.183   6.716
 6743SOL    HW121128   4.083   5.130   6.792
 6743SOL    HW221129   4.072   5.271   6.710
 6744SOL     OW21130   5.720   4.317   6.221
 6744SOL    HW121131   5.689   4.404   6.185
 6744SOL    HW221132   5.650   4.247   6.206
 6745SOL     OW21133   0.112   6.520   3.485
 6745SOL    HW121134   0.162   6.564   3.560
 6745SOL    HW221135   0.017   6.503   3.513
 6746SOL     OW21136   0.861   1.366   3.541
 6746SOL    HW121137   0.875   1.415   3.626
 6746SOL    HW221138   0.772   1.319   3.543
 6747SOL     OW21139   5.577   1.300   4.901
 6747SOL    HW121140   5.505   1.324   4.966
 6747SOL    HW221141   5.540   1.296   4.808
 6748SOL     OW21142   3.018   1.498   4.411
 6748SOL    HW121143   2.937   1.441   4.422
 6748SOL    HW221144   3.015   1.544   4.322
 6749SOL     OW21145   3.457   4.993   0.448
 6749SOL    HW121146   3.525   5.008   0.520
 6749SOL    HW221147   3.455   4.896   0.423
 6750SOL     OW21148   4.056   1.849   5.072
 6750SOL    HW121149   4.030   1.946   5.077
 6750SOL    HW221150   4.087   1.818   5.162
 6751SOL     OW21151   4.591   6.765   3.539
 6751SOL    HW121152   4.497   6.777   3.571
 6751SOL    HW221153   4.625   6.851   3.501
 6752SOL     OW21154   1.105   1.434   3.399
 6752SOL    HW121155   1.085   1.500   3.327
 6752SOL    HW221156   1.021   1.411   3.448
 6753SOL     OW21157   2.918   0.420   6.613
 6753SOL    HW121158   2.877   0.502   6.655
 6753SOL    HW221159   2.938   0.353   6.685
 6754SOL     OW21160   0.009   1.613   0.744
 6754SOL    HW121161   7.022   1.605   0.645
 6754SOL    HW221162   0.046   1.527   0.780
 6755SOL     OW21163   4.486   0.704   2.657
 6755SOL    HW121164   4.459   0.730   2.750
 6755SOL    HW221165   4.443   0.617   2.632
 6756SOL     OW21166   3.873   5.436   5.061
 6756SOL    HW121167   3.890   5.422   5.159
 6756SOL    HW221168   3.805   5.508   5.049
 6757SOL     OW21169   4.307   2.196   0.870
 6757SOL    HW121170   4.376   2.125   0.855
 6757SOL    HW221171   4.327   2.275   0.811
 6758SOL     OW21172   6.179   1.657   1.905
 6758SOL    HW121173   6.138   1.746   1.927
 6758SOL    HW221174   6.229   1.665   1.819
 6759SOL     OW21175   0.885   3.942   4.562
 6759SOL    HW121176   0.951   3.985   4.624
 6759SOL    HW221177   0.854   3.856   4.601
 6760SOL     OW21178   6.657   4.094   2.482
 6760SOL    HW121179   6.605   4.178   2.494
 6760SOL    HW221180   6.595   4.021   2.453
 6761SOL     OW21181   6.355   2.685   5.473
 6761SOL    HW121182   6.332   2.737   5.556
 6761SOL    HW221183   6.445   2.644   5.484
 6762SOL     OW21184   0.991   5.196   4.747
 6762SOL    HW121185   1.088   5.195   4.771
 6762SOL    HW221186   0.942   5.256   4.812
 6763SOL     OW21187   0.936   5.233   3.273
 6763SOL    HW121188   0.995   5.313   3.286
 6763SOL    HW221189   0.841   5.258   3.290
 6764SOL     OW21190   1.277   5.414   1.134
 6764SOL    HW121191   1.299   5.348   1.062
 6764SOL    HW221192   1.258   5.365   1.219
 6765SOL     OW21193   5.954   4.176   3.807
 6765SOL    HW121194   5.969   4.259   3.861
 6765SOL    HW221195   5.993   4.188   3.716
 6766SOL     OW21196   4.949   6.747   5.938
 6766SOL    HW121197   4.985   6.828   5.891
 6766SOL    HW221198   5.019   6.675   5.939
 6767SOL     OW21199   1.539   2.059   1.160
 6767SOL    HW121200   1.512   2.154   1.176
 6767SOL    HW221201   1.600   2.030   1.234
 6768SOL     OW21202   1.520   6.857   4.050
 6768SOL    HW121203   1.561   6.854   4.141
 6768SOL    HW221204   1.458   6.780   4.039
 6769SOL     OW21205   3.022   0.791   5.581
 6769SOL    HW121206   3.099   0.732   5.607
 6769SOL    HW221207   3.057   0.879   5.548
 6770SOL     OW21208   5.316   2.135   3.318
 6770SOL    HW121209   5.260   2.074   3.262
 6770SOL    HW221210   5.330   2.221   3.269
 6771SOL     OW21211   3.775   1.521   2.324
 6771SOL    HW121212   3.820   1.543   2.411
 6771SOL    HW221213   3.831   1.554   2.248
 6772SOL     OW21214   4.691   2.703   2.064
 6772SOL    HW121215   4.668   2.652   1.981
 6772SOL    HW221216   4.685   2.801   2.045
 6773SOL     OW21217   0.475   6.025   1.564
 6773SOL    HW121218   0.544   5.956   1.588
 6773SOL    HW221219   0.448   6.013   1.468
 6774SOL     OW21220   1.612   4.282   5.438
 6774SOL    HW121221   1.660   4.195   5.430
 6774SOL    HW221222   1.514   4.267   5.422
 6775SOL     OW21223   2.168   2.327   2.902
 6775SOL    HW121224   2.091   2.335   2.965
 6775SOL    HW221225   2.206   2.417   2.885
 6776SOL     OW21226   4.727   3.099   0.523
 6776SOL    HW121227   4.723   3.188   0.567
 6776SOL    HW221228   4.671   3.034   0.574
 6777SOL     OW21229   5.073   4.769   0.720
 6777SOL    HW121230   5.133   4.823   0.660
 6777SOL    HW221231   5.023   4.701   0.665
 6778SOL     OW21232   0.250   5.577   1.461
 6778SOL    HW121233   0.261   5.677   1.453
 6778SOL    HW221234   0.273   5.534   1.374
 6779SOL     OW21235   5.321   5.321   6.124
 6779SOL    HW121236   5.270   5.401   6.093
 6779SOL    HW221237   5.367   5.341   6.211
 6780SOL     OW21238   1.449   2.994   2.533
 6780SOL    HW121239   1.430   3.050   2.452
 6780SOL    HW221240   1.363   2.966   2.575
 6781SOL     OW21241   6.226   2.058   4.943
 6781SOL    HW121242   6.232   2.144   4.892
 6781SOL    HW221243   6.317   2.030   4.972
 6782SOL     OW21244   0.755   1.213   3.176
 6782SOL    HW121245   0.854   1.226   3.166
 6782SOL    HW221246   0.721   1.155   3.102
 6783SOL     OW21247   0.045   1.536   6.094
 6783SOL    HW121248   0.007   1.453   6.136
 6783SOL    HW221249   0.003   1.549   6.004
 6784SOL     OW21250   1.803   3.624   0.712
 6784SOL    HW121251   1.762   3.600   0.624
 6784SOL    HW221252   1.784   3.721   0.732
 6785SOL     OW21253   6.120   6.071   5.157
 6785SOL    HW121254   6.146   6.072   5.254
 6785SOL    HW221255   6.109   5.976   5.127
 6786SOL     OW21256   1.453   2.231   0.649
 6786SOL    HW121257   1.441   2.319   0.603
 6786SOL    HW221258   1.373   2.211   0.706
 6787SOL     OW21259   2.821   2.693   0.169
 6787SOL    HW121260   2.842   2.755   0.093
 6787SOL    HW221261   2.767   2.742   0.238
 6788SOL     OW21262   0.948   4.376   1.406
 6788SOL    HW121263   0.904   4.418   1.486
 6788SOL    HW221264   1.041   4.350   1.429
 6789SOL     OW21265   0.935   4.837   3.884
 6789SOL    HW121266   0.958   4.932   3.906
 6789SOL    HW221267   0.986   4.809   3.802
 6790SOL     OW21268   1.161   3.918   0.016
 6790SOL    HW121269   1.093   3.848   7.017
 6790SOL    HW221270   1.142   3.957   0.106
 6791SOL     OW21271   3.631   2.049   2.209
 6791SOL    HW121272   3.633   2.113   2.132
 6791SOL    HW221273   3.536   2.022   2.227
 6792SOL     OW21274   5.215   6.924   5.181
 6792SOL    HW121275   5.274   6.939   5.260
 6792SOL    HW221276   5.193   7.011   5.138
 6793SOL     OW21277   1.644   1.521   0.197
 6793SOL    HW121278   1.654   1.618   0.175
 6793SOL    HW221279   1.673   1.506   0.292
 6794SOL     OW21280   5.353   1.551   5.469
 6794SOL    HW121281   5.375   1.454   5.471
 6794SOL    HW221282   5.257   1.564   5.445
 6795SOL     OW21283   1.629   6.703   1.267
 6795SOL    HW121284   1.556   6.708   1.200
 6795SOL    HW221285   1.621   6.618   1.320
 6796SOL     OW21286   5.842   0.904   3.343
 6796SOL    HW121287   5.814   0.870   3.253
 6796SOL    HW221288   5.937   0.934   3.339
 6797SOL     OW21289   6.984   2.216   1.791
 6797SOL    HW121290   6.906   2.272   1.761
 6797SOL    HW221291   0.047   2.268   1.777
 6798SOL     OW21292   5.970   6.138   1.918
 6798SOL    HW121293   5.962   6.218   1.977
 6798SOL    HW221294   5.880   6.114   1.881
 6799SOL     OW21295   6.654   0.799   2.317
 6799SOL    HW121296   6.708   0.847   2.386
 6799SOL    HW221297   6.713   0.765   2.244
 6800SOL     OW21298   2.357   2.570   2.046
 6800SOL    HW121299   2.365   2.473   2.022
 6800SOL    HW221300   2.367   2.626   1.964
 6801SOL     OW21301   1.352   0.622   3.159
 6801SOL    HW121302   1.340   0.624   3.060
 6801SOL    HW221303   1.378   0.714   3.191
 6802SOL     OW21304   4.008   5.710   1.331
 6802SOL    HW121305   4.011   5.703   1.231
 6802SOL    HW221306   3.972   5.799   1.358
 6803SOL     OW21307   4.579   3.765   6.004
 6803SOL    HW121308   4.498   3.819   6.030
 6803SOL    HW221309   4.601   3.782   5.908
 6804SOL     OW21310   3.885   4.918   3.638
 6804SOL    HW121311   3.914   5.013   3.653
 6804SOL    HW221312   3.966   4.862   3.617
 6805SOL     OW21313   7.015   4.870   6.249
 6805SOL    HW121314   6.989   4.786   6.202
 6805SOL    HW221315   0.091   4.868   6.270
 6806SOL     OW21316   6.343   1.281   3.301
 6806SOL    HW121317   6.356   1.307   3.205
 6806SOL    HW221318   6.431   1.259   3.342
 6807SOL     OW21319   3.109   3.041   1.212
 6807SOL    HW121320   3.177   2.967   1.216
 6807SOL    HW221321   3.034   3.020   1.274
 6808SOL     OW21322   6.839   1.890   6.239
 6808SOL    HW121323   6.799   1.809   6.197
 6808SOL    HW221324   6.877   1.867   6.328
 6809SOL     OW21325   0.410   3.251   1.246
 6809SOL    HW121326   0.343   3.325   1.254
 6809SOL    HW221327   0.502   3.289   1.252
 6810SOL     OW21328   2.833   0.832   2.255
 6810SOL    HW121329   2.866   0.922   2.285
 6810SOL    HW221330   2.815   0.834   2.156
 6811SOL     OW21331   5.733   4.175   1.695
 6811SOL    HW121332   5.726   4.213   1.603
 6811SOL    HW221333   5.829   4.178   1.725
 6812SOL     OW21334   3.510   3.880   4.484
 6812SOL    HW121335   3.578   3.946   4.453
 6812SOL    HW221336   3.513   3.798   4.427
 6813SOL     OW21337   5.345   3.651   3.301
 6813SOL    HW121338   5.354   3.680   3.396
 6813SOL    HW221339   5.267   3.588   3.293
 6814SOL     OW21340   4.091   2.178   6.021
 6814SOL    HW121341   4.034   2.104   5.985
 6814SOL    HW221342   4.182   2.173   5.980
 6815SOL     OW21343   2.832   5.743   0.029
 6815SOL    HW121344   2.850   5.644   0.024
 6815SOL    HW221345   2.825   5.779   6.958
 6816SOL     OW21346   6.483   0.690   6.166
 6816SOL    HW121347   6.573   0.697   6.122
 6816SOL    HW221348   6.412   0.721   6.102
 6817SOL     OW21349   2.436   2.655   3.072
 6817SOL    HW121350   2.500   2.724   3.040
 6817SOL    HW221351   2.360   2.699   3.120
 6818SOL     OW21352   2.251   6.422   0.946
 6818SOL    HW121353   2.316   6.476   1.001
 6818SOL    HW221354   2.157   6.449   0.971
 6819SOL     OW21355   4.066   1.324   3.115
 6819SOL    HW121356   3.995   1.370   3.062
 6819SOL    HW221357   4.065   1.359   3.209
 6820SOL     OW21358   2.076   6.253   1.255
 6820SOL    HW121359   2.017   6.210   1.187
 6820SOL    HW221360   2.167   6.212   1.251
 6821SOL     OW21361   4.058   2.306   5.270
 6821SOL    HW121362   4.114   2.380   5.232
 6821SOL    HW221363   3.974   2.345   5.308
 6822SOL     OW21364   5.497   1.934   5.742
 6822SOL    HW121365   5.405   1.900   5.757
 6822SOL    HW221366   5.494   2.011   5.678
 6823SOL     OW21367   5.619   3.978   6.008
 6823SOL    HW121368   5.695   4.010   5.951
 6823SOL    HW221369   5.645   3.891   6.050
 6824SOL     OW21370   1.181   1.897   0.373
 6824SOL    HW121371   1.150   1.955   0.448
 6824SOL    HW221372   1.155   1.939   0.286
 6825SOL     OW21373   6.164   0.020   0.493
 6825SOL    HW121374   6.236   0.053   0.554
 6825SOL    HW221375   6.151   0.084   0.418
 6826SOL     OW21376   1.912   3.622   3.748
 6826SOL    HW121377   1.956   3.541   3.708
 6826SOL    HW221378   1.857   3.668   3.679
 6827SOL     OW21379   4.736   5.092   6.150
 6827SOL    HW121380   4.720   5.106   6.052
 6827SOL    HW221381   4.747   4.995   6.169
 6828SOL     OW21382   3.343   1.486   1.270
 6828SOL    HW121383   3.350   1.508   1.367
 6828SOL    HW221384   3.279   1.549   1.226
 6829SOL     OW21385   5.062   5.702   5.568
 6829SOL    HW121386   5.148   5.734   5.607
 6829SOL    HW221387   4.986   5.760   5.599
 6830SOL     OW21388   5.390   0.724   2.996
 6830SOL    HW121389   5.325   0.650   2.973
 6830SOL    HW221390   5.453   0.737   2.920
 6831SOL     OW21391   1.244   0.885   6.598
 6831SOL    HW121392   1.174   0.955   6.586
 6831SOL    HW221393   1.246   0.825   6.518
 6832SOL     OW21394   2.331   4.157   0.731
 6832SOL    HW121395   2.419   4.114   0.750
 6832SOL    HW221396   2.266   4.131   0.802
 6833SOL     OW21397   3.470   4.654   6.712
 6833SOL    HW121398   3.463   4.579   6.646
 6833SOL    HW221399   3.452   4.740   6.665
 6834SOL     OW21400   6.200   0.559   0.468
 6834SOL    HW121401   6.202   0.524   0.561
 6834SOL    HW221402   6.148   0.644   0.465
 6835SOL     OW21403   4.331   0.820   4.852
 6835SOL    HW121404   4.405   0.875   4.891
 6835SOL    HW221405   4.368   0.759   4.782
 6836SOL     OW21406   3.525   4.204   0.210
 6836SOL    HW121407   3.489   4.242   0.295
 6836SOL    HW221408   3.449   4.178   0.150
 6837SOL     OW21409   1.197   2.169   2.922
 6837SOL    HW121410   1.262   2.107   2.877
 6837SOL    HW221411   1.234   2.261   2.923
 6838SOL     OW21412   3.299   6.303   6.488
 6838SOL    HW121413   3.398   6.297   6.479
 6838SOL    HW221414   3.267   6.233   6.552
 6839SOL     OW21415   5.546   1.294   5.692
 6839SOL    HW121416   5.515   1.374   5.744
 6839SOL    HW221417   5.495   1.287   5.607
 6840SOL     OW21418   3.513   0.341   4.245
 6840SOL    HW121419   3.478   0.250   4.265
 6840SOL    HW221420   3.471   0.374   4.160
 6841SOL     OW21421   3.867   4.334   0.367
 6841SOL    HW121422   3.829   4.392   0.295
 6841SOL    HW221423   3.847   4.238   0.347
 6842SOL     OW21424   2.592   3.480   0.756
 6842SOL    HW121425   2.544   3.489   0.669
 6842SOL    HW221426   2.638   3.566   0.778
 6843SOL     OW21427   6.059   6.833   2.010
 6843SOL    HW121428   6.009   6.802   1.930
 6843SOL    HW221429   6.089   6.927   1.996
 6844SOL     OW21430   4.844   0.427   3.835
 6844SOL    HW121431   4.892   0.470   3.758
 6844SOL    HW221432   4.748   0.456   3.834
 6845SOL     OW21433   6.346   5.119   3.050
 6845SOL    HW121434   6.266   5.059   3.048
 6845SOL    HW221435   6.331   5.193   3.116
 6846SOL     OW21436   4.266   2.985   0.356
 6846SOL    HW121437   4.259   3.002   0.454
 6846SOL    HW221438   4.358   3.009   0.325
 6847SOL     OW21439   6.888   4.684   3.288
 6847SOL    HW121440   6.810   4.635   3.250
 6847SOL    HW221441   6.858   4.745   3.361
 6848SOL     OW21442   3.795   6.940   3.684
 6848SOL    HW121443   3.810   6.857   3.631
 6848SOL    HW221444   3.840   6.931   3.773
 6849SOL     OW21445   3.850   5.070   5.279
 6849SOL    HW121446   3.796   5.082   5.196
 6849SOL    HW221447   3.936   5.121   5.269
 6850SOL     OW21448   5.944   3.727   2.401
 6850SOL    HW121449   5.995   3.683   2.475
 6850SOL    HW221450   5.991   3.811   2.374
 6851SOL     OW21451   0.955   2.832   3.504
 6851SOL    HW121452   0.895   2.802   3.430
 6851SOL    HW221453   0.957   2.932   3.509
 6852SOL     OW21454   2.603   5.191   0.567
 6852SOL    HW121455   2.604   5.099   0.529
 6852SOL    HW221456   2.509   5.226   0.567
 6853SOL     OW21457   6.864   4.037   0.375
 6853SOL    HW121458   6.866   3.948   0.421
 6853SOL    HW221459   6.930   4.098   0.417
 6854SOL     OW21460   4.860   1.802   6.296
 6854SOL    HW121461   4.912   1.887   6.292
 6854SOL    HW221462   4.836   1.773   6.204
 6855SOL     OW21463   3.311   5.475   3.363
 6855SOL    HW121464   3.330   5.496   3.267
 6855SOL    HW221465   3.214   5.487   3.381
 6856SOL     OW21466   5.259   3.854   5.190
 6856SOL    HW121467   5.232   3.762   5.219
 6856SOL    HW221468   5.246   3.863   5.092
 6857SOL     OW21469   2.687   2.459   6.872
 6857SOL    HW121470   2.686   2.394   6.948
 6857SOL    HW221471   2.780   2.490   6.855
 6858SOL     OW21472   3.633   3.785   3.762
 6858SOL    HW121473   3.606   3.757   3.670
 6858SOL    HW221474   3.554   3.822   3.810
 6859SOL     OW21475   0.952   0.815   1.036
 6859SOL    HW121476   1.014   0.847   0.964
 6859SOL    HW221477   0.885   0.751   0.996
 6860SOL     OW21478   6.555   5.167   0.928
 6860SOL    HW121479   6.619   5.099   0.893
 6860SOL    HW221480   6.600   5.224   0.997
 6861SOL     OW21481   4.527   4.754   0.324
 6861SOL    HW121482   4.530   4.819   0.400
 6861SOL    HW221483   4.454   4.687   0.339
 6862SOL     OW21484   1.817   4.321   5.670
 6862SOL    HW121485   1.744   4.303   5.605
 6862SOL    HW221486   1.902   4.278   5.639
 6863SOL     OW21487   5.347   6.824   5.846
 6863SOL    HW121488   5.379   6.817   5.941
 6863SOL    HW221489   5.306   6.915   5.832
 6864SOL     OW21490   3.102   6.091   3.829
 6864SOL    HW121491   3.192   6.129   3.850
 6864SOL    HW221492   3.094   6.000   3.868
 6865SOL     OW21493   1.147   5.890   3.055
 6865SOL    HW121494   1.169   5.983   3.085
 6865SOL    HW221495   1.223   5.854   3.000
 6866SOL     OW21496   6.142   4.947   3.005
 6866SOL    HW121497   6.176   4.868   2.954
 6866SOL    HW221498   6.047   4.932   3.030
 6867SOL     OW21499   2.230   4.161   1.502
 6867SOL    HW121500   2.316   4.123   1.538
 6867SOL    HW221501   2.196   4.232   1.564
 6868SOL     OW21502   1.204   5.665   6.231
 6868SOL    HW121503   1.274   5.637   6.165
 6868SOL    HW221504   1.139   5.591   6.244
 6869SOL     OW21505   5.835   1.346   5.675
 6869SOL    HW121506   5.825   1.419   5.607
 6869SOL    HW221507   5.751   1.292   5.678
 6870SOL     OW21508   0.291   4.920   2.014
 6870SOL    HW121509   0.199   4.893   2.041
 6870SOL    HW221510   0.299   5.020   2.020
 6871SOL     OW21511   6.193   4.597   3.206
 6871SOL    HW121512   6.150   4.642   3.284
 6871SOL    HW221513   6.123   4.550   3.152
 6872SOL     OW21514   0.162   2.944   0.923
 6872SOL    HW121515   0.108   2.981   0.848
 6872SOL    HW221516   0.250   2.911   0.888
 6873SOL     OW21517   0.086   3.574   5.334
 6873SOL    HW121518   0.096   3.647   5.402
 6873SOL    HW221519   0.176   3.539   5.309
 6874SOL     OW21520   0.544   6.129   1.886
 6874SOL    HW121521   0.561   6.117   1.984
 6874SOL    HW221522   0.514   6.043   1.847
 6875SOL     OW21523   2.572   2.443   3.468
 6875SOL    HW121524   2.671   2.434   3.459
 6875SOL    HW221525   2.527   2.408   3.386
 6876SOL     OW21526   3.538   6.693   3.622
 6876SOL    HW121527   3.555   6.780   3.576
 6876SOL    HW221528   3.548   6.704   3.721
 6877SOL     OW21529   2.605   3.901   1.428
 6877SOL    HW121530   2.599   3.921   1.526
 6877SOL    HW221531   2.613   3.987   1.377
 6878SOL     OW21532   3.209   0.981   5.230
 6878SOL    HW121533   3.176   1.049   5.165
 6878SOL    HW221534   3.272   0.918   5.184
 6879SOL     OW21535   0.742   2.180   0.616
 6879SOL    HW121536   0.749   2.257   0.552
 6879SOL    HW221537   0.713   2.098   0.565
 6880SOL     OW21538   1.491   4.442   4.992
 6880SOL    HW121539   1.519   4.524   4.943
 6880SOL    HW221540   1.502   4.457   5.091
 6881SOL     OW21541   1.468   4.181   1.207
 6881SOL    HW121542   1.482   4.140   1.117
 6881SOL    HW221543   1.411   4.263   1.199
 6882SOL     OW21544   3.035   0.512   6.869
 6882SOL    HW121545   2.969   0.586   6.862
 6882SOL    HW221546   3.049   0.488   6.965
 6883SOL     OW21547   4.290   0.916   0.459
 6883SOL    HW121548   4.388   0.899   0.465
 6883SOL    HW221549   4.257   0.951   0.546
 6884SOL     OW21550   2.648   4.701   4.368
 6884SOL    HW121551   2.573   4.764   4.387
 6884SOL    HW221552   2.636   4.618   4.423
 6885SOL     OW21553   3.865   5.217   3.726
 6885SOL    HW121554   3.913   5.286   3.672
 6885SOL    HW221555   3.774   5.202   3.687
 6886SOL     OW21556   6.779   0.761   4.354
 6886SOL    HW121557   6.685   0.735   4.333
 6886SOL    HW221558   6.801   0.848   4.310
 6887SOL     OW21559   5.274   5.626   6.576
 6887SOL    HW121560   5.323   5.552   6.529
 6887SOL    HW221561   5.179   5.600   6.589
 6888SOL     OW21562   5.348   6.168   0.040
 6888SOL    HW121563   5.350   6.128   0.131
 6888SOL    HW221564   5.379   6.100   6.995
 6889SOL     OW21565   1.696   2.175   5.319
 6889SOL    HW121566   1.630   2.237   5.275
 6889SOL    HW221567   1.789   2.202   5.294
 6890SOL     OW21568   4.355   6.395   1.485
 6890SOL    HW121569   4.321   6.456   1.556
 6890SOL    HW221570   4.278   6.358   1.433
 6891SOL     OW21571   2.301   4.492   3.537
 6891SOL    HW121572   2.285   4.394   3.529
 6891SOL    HW221573   2.383   4.517   3.486
 6892SOL     OW21574   3.201   2.104   3.705
 6892SOL    HW121575   3.206   2.046   3.786
 6892SOL    HW221576   3.122   2.165   3.714
 6893SOL     OW21577   4.064   4.118   6.994
 6893SOL    HW121578   4.132   4.084   6.929
 6893SOL    HW221579   4.082   4.079   0.062
 6894SOL     OW21580   6.072   5.076   0.818
 6894SOL    HW121581   6.146   5.060   0.883
 6894SOL    HW221582   5.989   5.031   0.851
 6895SOL     OW21583   2.796   5.357   0.225
 6895SOL    HW121584   2.708   5.311   0.212
 6895SOL    HW221585   2.862   5.293   0.263
 6896SOL     OW21586   2.152   6.964   3.818
 6896SOL    HW121587   2.181   6.940   3.726
 6896SOL    HW221588   2.161   0.041   3.831
 6897SOL     OW21589   4.306   3.953   5.978
 6897SOL    HW121590   4.207   3.945   5.966
 6897SOL    HW221591   4.326   4.030   6.039
 6898SOL     OW21592   3.800   1.598   1.664
 6898SOL    HW121593   3.853   1.617   1.582
 6898SOL    HW221594   3.737   1.674   1.682
 6899SOL     OW21595   5.534   6.399   1.495
 6899SOL    HW121596   5.556   6.303   1.511
 6899SOL    HW221597   5.612   6.444   1.451
 6900SOL     OW21598   6.442   6.708   5.801
 6900SOL    HW121599   6.471   6.789   5.750
 6900SOL    HW221600   6.507   6.634   5.785
 6901SOL     OW21601   6.910   5.847   6.093
 6901SOL    HW121602   6.916   5.806   6.185
 6901SOL    HW221603   6.858   5.786   6.033
 6902SOL     OW21604   5.501   5.968   6.899
 6902SOL    HW121605   5.413   5.927   6.875
 6902SOL    HW221606   5.537   6.019   6.821
 6903SOL     OW21607   3.022   5.609   4.378
 6903SOL    HW121608   3.044   5.609   4.475
 6903SOL    HW221609   3.087   5.550   4.329
 6904SOL     OW21610   5.835   0.483   4.663
 6904SOL    HW121611   5.917   0.498   4.608
 6904SOL    HW221612   5.796   0.571   4.690
 6905SOL     OW21613   5.493   6.536   6.228
 6905SOL    HW121614   5.523   6.464   6.166
 6905SOL    HW221615   5.539   6.527   6.316
 6906SOL     OW21616   4.701   1.254   3.557
 6906SOL    HW121617   4.657   1.341   3.537
 6906SOL    HW221618   4.794   1.272   3.590
 6907SOL     OW21619   5.450   2.810   1.429
 6907SOL    HW121620   5.390   2.746   1.476
 6907SOL    HW221621   5.513   2.759   1.371
 6908SOL     OW21622   0.500   5.447   6.064
 6908SOL    HW121623   0.570   5.518   6.070
 6908SOL    HW221624   0.487   5.422   5.968
 6909SOL     OW21625   5.855   4.407   1.251
 6909SOL    HW121626   5.855   4.491   1.197
 6909SOL    HW221627   5.859   4.328   1.189
 6910SOL     OW21628   6.655   1.988   3.420
 6910SOL    HW121629   6.557   2.006   3.413
 6910SOL    HW221630   6.703   2.074   3.439
 6911SOL     OW21631   4.220   5.989   3.831
 6911SOL    HW121632   4.131   6.027   3.806
 6911SOL    HW221633   4.210   5.891   3.850
 6912SOL     OW21634   3.614   4.620   0.028
 6912SOL    HW121635   3.551   4.683   7.004
 6912SOL    HW221636   3.663   4.669   0.100
 6913SOL     OW21637   4.793   5.153   4.694
 6913SOL    HW121638   4.886   5.124   4.719
 6913SOL    HW221639   4.796   5.245   4.655
 6914SOL     OW21640   6.064   3.821   5.406
 6914SOL    HW121641   6.092   3.728   5.426
 6914SOL    HW221642   6.115   3.855   5.326
 6915SOL     OW21643   5.994   3.130   1.530
 6915SOL    HW121644   5.906   3.131   1.483
 6915SOL    HW221645   6.016   3.222   1.562
 6916SOL     OW21646   6.852   2.599   6.846
 6916SOL    HW121647   6.853   2.692   6.808
 6916SOL    HW221648   6.885   2.534   6.778
 6917SOL     OW21649   2.707   5.452   1.441
 6917SOL    HW121650   2.697   5.430   1.344
 6917SOL    HW221651   2.747   5.543   1.451
 6918SOL     OW21652   0.177   2.857   4.144
 6918SOL    HW121653   0.259   2.895   4.101
 6918SOL    HW221654   0.159   2.766   4.107
 6919SOL     OW21655   0.203   6.169   2.593
 6919SOL    HW121656   0.147   6.160   2.510
 6919SOL    HW221657   0.231   6.079   2.624
 6920SOL     OW21658   4.469   5.371   5.144
 6920SOL    HW121659   4.428   5.435   5.209
 6920SOL    HW221660   4.491   5.286   5.192
 6921SOL     OW21661   5.213   5.441   3.667
 6921SOL    HW121662   5.205   5.517   3.731
 6921SOL    HW221663   5.129   5.434   3.613
 6922SOL     OW21664   2.266   5.747   5.704
 6922SOL    HW121665   2.364   5.740   5.722
 6922SOL    HW221666   2.215   5.718   5.785
 6923SOL     OW21667   4.665   5.642   3.444
 6923SOL    HW121668   4.579   5.668   3.401
 6923SOL    HW221669   4.740   5.653   3.378
 6924SOL     OW21670   2.760   4.143   6.702
 6924SOL    HW121671   2.674   4.127   6.751
 6924SOL    HW221672   2.823   4.194   6.760
 6925SOL     OW21673   4.651   6.091   4.778
 6925SOL    HW121674   4.697   6.015   4.824
 6925SOL    HW221675   4.718   6.163   4.758
 6926SOL     OW21676   3.427   2.504   1.043
 6926SOL    HW121677   3.486   2.504   1.123
 6926SOL    HW221678   3.426   2.413   1.003
 6927SOL     OW21679   4.545   2.832   6.365
 6927SOL    HW121680   4.615   2.891   6.326
 6927SOL    HW221681   4.455   2.873   6.351
 6928SOL     OW21682   6.200   6.045   0.766
 6928SOL    HW121683   6.170   6.125   0.818
 6928SOL    HW221684   6.254   6.076   0.687
 6929SOL     OW21685   5.869   5.422   0.883
 6929SOL    HW121686   5.850   5.344   0.823
 6929SOL    HW221687   5.859   5.506   0.831
 6930SOL     OW21688   0.127   6.506   2.665
 6930SOL    HW121689   0.148   6.543   2.756
 6930SOL    HW221690   0.084   6.416   2.675
 6931SOL     OW21691   2.304   0.549   2.275
 6931SOL    HW121692   2.320   0.623   2.210
 6931SOL    HW221693   2.299   0.586   2.368
 6932SOL     OW21694   4.519   6.570   0.337
 6932SOL    HW121695   4.556   6.662   0.321
 6932SOL    HW221696   4.573   6.525   0.408
 6933SOL     OW21697   3.135   6.451   4.601
 6933SOL    HW121698   3.068   6.416   4.536
 6933SOL    HW221699   3.222   6.402   4.590
 6934SOL     OW21700   5.082   3.400   5.883
 6934SOL    HW121701   5.075   3.357   5.793
 6934SOL    HW221702   5.012   3.471   5.891
 6935SOL     OW21703   4.460   4.758   3.444
 6935SOL    HW121704   4.516   4.826   3.397
 6935SOL    HW221705   4.392   4.721   3.380
 6936SOL     OW21706   6.371   1.969   3.697
 6936SOL    HW121707   6.381   2.055   3.747
 6936SOL    HW221708   6.458   1.919   3.700
 6937SOL     OW21709   7.010   6.103   6.965
 6937SOL    HW121710   0.003   6.178   6.899
 6937SOL    HW221711   6.930   6.124   7.020
 6938SOL     OW21712   5.180   3.587   5.235
 6938SOL    HW121713   5.111   3.563   5.303
 6938SOL    HW221714   5.165   3.534   5.151
 6939SOL     OW21715   0.982   4.802   2.369
 6939SOL    HW121716   0.883   4.814   2.358
 6939SOL    HW221717   1.028   4.888   2.349
 6940SOL     OW21718   4.135   1.118   6.826
 6940SOL    HW121719   4.232   1.095   6.835
 6940SOL    HW221720   4.125   1.216   6.811
 6941SOL     OW21721   3.758   3.722   1.744
 6941SOL    HW121722   3.815   3.649   1.783
 6941SOL    HW221723   3.669   3.684   1.718
 6942SOL     OW21724   5.382   0.285   1.759
 6942SOL    HW121725   5.316   0.355   1.787
 6942SOL    HW221726   5.369   0.266   1.661
 6943SOL     OW21727   4.264   6.166   0.097
 6943SOL    HW121728   4.330   6.223   0.146
 6943SOL    HW221729   4.304   6.077   0.078
 6944SOL     OW21730   0.362   4.461   6.350
 6944SOL    HW121731   0.382   4.392   6.280
 6944SOL    HW221732   0.336   4.415   6.435
 6945SOL     OW21733   6.354   1.214   6.426
 6945SOL    HW121734   6.354   1.138   6.361
 6945SOL    HW221735   6.265   1.222   6.469
 6946SOL     OW21736   5.785   6.140   1.372
 6946SOL    HW121737   5.778   6.155   1.471
 6946SOL    HW221738   5.698   6.105   1.337
 6947SOL     OW21739   3.551   6.531   6.292
 6947SOL    HW121740   3.533   6.442   6.334
 6947SOL    HW221741   3.464   6.578   6.275
 6948SOL     OW21742   6.971   0.346   0.709
 6948SOL    HW121743   6.933   0.389   0.627
 6948SOL    HW221744   6.909   0.358   0.786
 6949SOL     OW21745   4.815   0.022   2.601
 6949SOL    HW121746   4.817   0.046   2.699
 6949SOL    HW221747   4.901   7.000   2.576
 6950SOL     OW21748   2.178   1.379   4.673
 6950SOL    HW121749   2.102   1.429   4.713
 6950SOL    HW221750   2.226   1.327   4.745
 6951SOL     OW21751   6.707   5.870   5.705
 6951SOL    HW121752   6.799   5.873   5.746
 6951SOL    HW221753   6.662   5.958   5.718
 6952SOL     OW21754   0.678   6.504   3.396
 6952SOL    HW121755   0.721   6.588   3.363
 6952SOL    HW221756   0.741   6.427   3.386
 6953SOL     OW21757   4.846   6.356   0.387
 6953SOL    HW121758   4.935   6.323   0.420
 6953SOL    HW221759   4.860   6.414   0.307
 6954SOL     OW21760   0.043   3.531   3.231
 6954SOL    HW121761   6.982   3.479   3.214
 6954SOL    HW221762   0.097   3.486   3.302
 6955SOL     OW21763   6.022   0.167   2.432
 6955SOL    HW121764   6.036   0.213   2.520
 6955SOL    HW221765   5.982   0.077   2.447
 6956SOL     OW21766   5.476   5.324   3.607
 6956SOL    HW121767   5.535   5.328   3.526
 6956SOL    HW221768   5.391   5.373   3.589
 6957SOL     OW21769   6.710   4.938   0.836
 6957SOL    HW121770   6.779   4.989   0.784
 6957SOL    HW221771   6.755   4.877   0.901
 6958SOL     OW21772   3.107   3.064   4.141
 6958SOL    HW121773   3.141   3.015   4.061
 6958SOL    HW221774   3.145   3.023   4.224
 6959SOL     OW21775   1.980   1.786   3.947
 6959SOL    HW121776   1.917   1.727   3.997
 6959SOL    HW221777   2.055   1.730   3.910
 6960SOL     OW21778   2.530   4.473   1.473
 6960SOL    HW121779   2.450   4.491   1.529
 6960SOL    HW221780   2.611   4.466   1.531
 6961SOL     OW21781   5.557   1.900   3.661
 6961SOL    HW121782   5.459   1.890   3.679
 6961SOL    HW221783   5.592   1.982   3.706
 6962SOL     OW21784   4.964   5.955   1.887
 6962SOL    HW121785   4.970   5.861   1.922
 6962SOL    HW221786   4.933   5.953   1.792
 6963SOL     OW21787   5.605   6.008   1.013
 6963SOL    HW121788   5.606   6.089   0.954
 6963SOL    HW221789   5.570   5.930   0.961
 6964SOL     OW21790   3.480   0.646   5.229
 6964SOL    HW121791   3.509   0.555   5.200
 6964SOL    HW221792   3.458   0.701   5.148
 6965SOL     OW21793   0.940   2.499   1.404
 6965SOL    HW121794   0.848   2.539   1.406
 6965SOL    HW221795   0.938   2.409   1.446
 6966SOL     OW21796   0.175   1.988   3.103
 6966SOL    HW121797   0.222   1.934   3.173
 6966SOL    HW221798   0.221   1.976   3.015
 6967SOL     OW21799   2.603   6.963   5.037
 6967SOL    HW121800   2.539   0.000   4.988
 6967SOL    HW221801   2.684   7.016   5.063
 6968SOL     OW21802   4.626   6.626   2.607
 6968SOL    HW121803   4.570   6.550   2.638
 6968SOL    HW221804   4.579   6.713   2.628
 6969SOL     OW21805   3.056   2.265   1.035
 6969SOL    HW121806   3.038   2.223   1.124
 6969SOL    HW221807   3.152   2.254   1.011
 6970SOL     OW21808   3.728   3.826   6.351
 6970SOL    HW121809   3.668   3.803   6.275
 6970SOL    HW221810   3.690   3.904   6.402
 6971SOL     OW21811   6.618   4.297   2.164
 6971SOL    HW121812   6.535   4.334   2.206
 6971SOL    HW221813   6.695   4.310   2.225
 6972SOL     OW21814   4.722   4.172   3.538
 6972SOL    HW121815   4.757   4.078   3.544
 6972SOL    HW221816   4.737   4.219   3.625
 6973SOL     OW21817   0.803   3.242   4.508
 6973SOL    HW121818   0.787   3.307   4.433
 6973SOL    HW221819   0.716   3.223   4.554
 6974SOL     OW21820   3.190   3.983   2.653
 6974SOL    HW121821   3.158   3.902   2.603
 6974SOL    HW221822   3.276   4.015   2.614
 6975SOL     OW21823   2.258   6.440   6.036
 6975SOL    HW121824   2.326   6.428   6.108
 6975SOL    HW221825   2.198   6.361   6.034
 6976SOL     OW21826   5.429   5.290   4.381
 6976SOL    HW121827   5.436   5.330   4.473
 6976SOL    HW221828   5.385   5.201   4.387
 6977SOL     OW21829   3.871   2.971   1.811
 6977SOL    HW121830   3.894   2.945   1.717
 6977SOL    HW221831   3.833   2.892   1.859
 6978SOL     OW21832   5.286   1.353   1.974
 6978SOL    HW121833   5.221   1.419   2.010
 6978SOL    HW221834   5.371   1.399   1.951
 6979SOL     OW21835   0.643   4.329   1.444
 6979SOL    HW121836   0.728   4.298   1.402
 6979SOL    HW221837   0.633   4.427   1.431
 6980SOL     OW21838   1.844   0.784   4.180
 6980SOL    HW121839   1.870   0.861   4.122
 6980SOL    HW221840   1.906   0.778   4.258
 6981SOL     OW21841   3.597   2.279   5.567
 6981SOL    HW121842   3.517   2.337   5.549
 6981SOL    HW221843   3.666   2.332   5.617
 6982SOL     OW21844   1.356   0.491   4.938
 6982SOL    HW121845   1.316   0.462   4.851
 6982SOL    HW221846   1.350   0.417   5.005
 6983SOL     OW21847   3.797   2.156   3.732
 6983SOL    HW121848   3.872   2.174   3.795
 6983SOL    HW221849   3.831   2.162   3.638
 6984SOL     OW21850   2.639   1.848   3.335
 6984SOL    HW121851   2.671   1.851   3.241
 6984SOL    HW221852   2.547   1.808   3.338
 6985SOL     OW21853   5.379   5.010   1.834
 6985SOL    HW121854   5.466   4.972   1.804
 6985SOL    HW221855   5.318   4.937   1.864
 6986SOL     OW21856   1.828   0.043   5.591
 6986SOL    HW121857   1.891   6.996   5.556
 6986SOL    HW221858   1.763   0.000   5.653
 6987SOL     OW21859   5.829   1.450   5.932
 6987SOL    HW121860   5.809   1.413   5.841
 6987SOL    HW221861   5.926   1.440   5.952
 6988SOL     OW21862   0.319   0.743   5.270
 6988SOL    HW121863   0.263   0.682   5.325
 6988SOL    HW221864   0.415   0.715   5.276
 6989SOL     OW21865   0.745   3.845   3.020
 6989SOL    HW121866   0.682   3.834   3.096
 6989SOL    HW221867   0.767   3.941   3.007
 6990SOL     OW21868   4.655   2.505   1.127
 6990SOL    HW121869   4.732   2.480   1.186
 6990SOL    HW221870   4.612   2.422   1.092
 6991SOL     OW21871   3.983   4.862   3.118
 6991SOL    HW121872   3.883   4.865   3.119
 6991SOL    HW221873   4.015   4.847   3.024
 6992SOL     OW21874   5.111   6.341   6.463
 6992SOL    HW121875   5.024   6.336   6.414
 6992SOL    HW221876   5.181   6.380   6.403
 6993SOL     OW21877   5.707   1.128   2.843
 6993SOL    HW121878   5.802   1.159   2.844
 6993SOL    HW221879   5.674   1.114   2.936
 6994SOL     OW21880   0.607   2.263   4.394
 6994SOL    HW121881   0.643   2.218   4.312
 6994SOL    HW221882   0.525   2.315   4.369
 6995SOL     OW21883   6.556   4.513   6.213
 6995SOL    HW121884   6.588   4.422   6.186
 6995SOL    HW221885   6.631   4.561   6.258
 6996SOL     OW21886   1.742   6.961   0.038
 6996SOL    HW121887   1.671   6.919   0.094
 6996SOL    HW221888   1.740   6.921   6.969
 6997SOL     OW21889   0.224   6.095   4.840
 6997SOL    HW121890   0.298   6.064   4.780
 6997SOL    HW221891   0.137   6.062   4.805
 6998SOL     OW21892   2.078   0.641   1.726
 6998SOL    HW121893   1.984   0.676   1.722
 6998SOL    HW221894   2.096   0.606   1.818
 6999SOL     OW21895   2.572   2.338   6.360
 6999SOL    HW121896   2.531   2.382   6.440
 6999SOL    HW221897   2.634   2.401   6.315
 7000SOL     OW21898   5.031   6.579   1.086
 7000SOL    HW121899   5.055   6.534   1.172
 7000SOL    HW221900   5.106   6.637   1.056
 7001SOL     OW21901   1.719   2.815   5.754
 7001SOL    HW121902   1.724   2.887   5.685
 7001SOL    HW221903   1.788   2.831   5.824
 7002SOL     OW21904   1.909   5.542   4.379
 7002SOL    HW121905   1.908   5.512   4.474
 7002SOL    HW221906   1.818   5.531   4.339
 7003SOL     OW21907   4.291   5.161   0.384
 7003SOL    HW121908   4.259   5.255   0.391
 7003SOL    HW221909   4.371   5.157   0.325
 7004SOL     OW21910   1.081   4.797   2.794
 7004SOL    HW121911   1.172   4.775   2.759
 7004SOL    HW221912   1.014   4.735   2.753
 7005SOL     OW21913   1.516   0.466   0.641
 7005SOL    HW121914   1.495   0.429   0.732
 7005SOL    HW221915   1.431   0.469   0.587
 7006SOL     OW21916   4.846   5.098   3.671
 7006SOL    HW121917   4.775   5.079   3.739
 7006SOL    HW221918   4.864   5.196   3.668
 7007SOL     OW21919   4.827   0.475   3.416
 7007SOL    HW121920   4.838   0.376   3.429
 7007SOL    HW221921   4.906   0.522   3.456
 7008SOL     OW21922   0.723   3.707   4.747
 7008SOL    HW121923   0.642   3.725   4.691
 7008SOL    HW221924   0.745   3.610   4.745
 7009SOL     OW21925   5.686   6.162   1.941
 7009SOL    HW121926   5.640   6.095   1.999
 7009SOL    HW221927   5.621   6.199   1.875
 7010SOL     OW21928   5.430   4.022   3.941
 7010SOL    HW121929   5.424   4.095   4.009
 7010SOL    HW221930   5.526   4.000   3.924
 7011SOL     OW21931   3.166   6.852   6.231
 7011SOL    HW121932   3.176   6.824   6.327
 7011SOL    HW221933   3.069   6.863   6.209
 7012SOL     OW21934   0.667   1.856   1.753
 7012SOL    HW121935   0.752   1.827   1.797
 7012SOL    HW221936   0.678   1.947   1.714
 7013SOL     OW21937   0.323   0.543   6.996
 7013SOL    HW121938   0.382   0.534   6.916
 7013SOL    HW221939   0.376   0.583   0.049
 7014SOL     OW21940   4.138   3.640   0.747
 7014SOL    HW121941   4.180   3.677   0.664
 7014SOL    HW221942   4.045   3.609   0.726
 7015SOL     OW21943   6.141   4.911   2.626
 7015SOL    HW121944   6.199   4.868   2.695
 7015SOL    HW221945   6.180   4.896   2.535
 7016SOL     OW21946   3.513   4.878   1.677
 7016SOL    HW121947   3.506   4.794   1.731
 7016SOL    HW221948   3.546   4.953   1.733
 7017SOL     OW21949   2.047   4.949   2.521
 7017SOL    HW121950   1.958   4.929   2.481
 7017SOL    HW221951   2.060   4.894   2.604
 7018SOL     OW21952   5.422   3.496   4.994
 7018SOL    HW121953   5.447   3.593   4.982
 7018SOL    HW221954   5.323   3.488   5.000
 7019SOL     OW21955   3.788   4.094   0.282
 7019SOL    HW121956   3.822   4.045   0.201
 7019SOL    HW221957   3.705   4.144   0.258
 7020SOL     OW21958   6.642   5.132   6.483
 7020SOL    HW121959   6.622   5.161   6.577
 7020SOL    HW221960   6.713   5.062   6.484
 7021SOL     OW21961   1.134   1.841   5.534
 7021SOL    HW121962   1.207   1.778   5.560
 7021SOL    HW221963   1.174   1.919   5.485
 7022SOL     OW21964   4.773   6.949   5.998
 7022SOL    HW121965   4.827   0.008   6.020
 7022SOL    HW221966   4.833   6.879   5.958
 7023SOL     OW21967   7.019   2.185   4.166
 7023SOL    HW121968   0.031   2.091   4.175
 7023SOL    HW221969   6.939   2.186   4.107
 7024SOL     OW21970   2.601   3.993   5.338
 7024SOL    HW121971   2.522   4.015   5.281
 7024SOL    HW221972   2.685   4.023   5.292
 7025SOL     OW21973   2.846   1.077   0.594
 7025SOL    HW121974   2.943   1.100   0.594
 7025SOL    HW221975   2.819   1.044   0.504
 7026SOL     OW21976   3.287   1.734   2.283
 7026SOL    HW121977   3.330   1.717   2.372
 7026SOL    HW221978   3.274   1.647   2.235
 7027SOL     OW21979   2.851   5.380   4.352
 7027SOL    HW121980   2.804   5.375   4.440
 7027SOL    HW221981   2.892   5.470   4.341
 7028SOL     OW21982   3.072   2.096   4.359
 7028SOL    HW121983   3.167   2.087   4.389
 7028SOL    HW221984   3.016   2.027   4.404
 7029SOL     OW21985   5.036   4.938   5.566
 7029SOL    HW121986   5.073   5.029   5.547
 7029SOL    HW221987   4.938   4.937   5.545
 7030SOL     OW21988   1.074   0.871   5.265
 7030SOL    HW121989   1.060   0.935   5.341
 7030SOL    HW221990   1.001   0.883   5.198
 7031SOL     OW21991   3.049   5.744   5.238
 7031SOL    HW121992   3.088   5.653   5.254
 7031SOL    HW221993   3.032   5.756   5.140
 7032SOL     OW21994   3.784   0.729   3.293
 7032SOL    HW121995   3.754   0.793   3.364
 7032SOL    HW221996   3.803   0.640   3.333
 7033SOL     OW21997   1.575   2.409   3.790
 7033SOL    HW121998   1.658   2.375   3.833
 7033SOL    HW221999   1.581   2.508   3.779
 7034SOL     OW22000   6.605   0.572   3.807
 7034SOL    HW122001   6.554   0.512   3.869
 7034SOL    HW222002   6.582   0.550   3.712
 7035SOL     OW22003   1.682   6.370   0.932
 7035SOL    HW122004   1.694   6.337   1.026
 7035SOL    HW222005   1.734   6.454   0.919
 7036SOL     OW22006   0.522   0.521   2.984
 7036SOL    HW122007   0.544   0.538   2.888
 7036SOL    HW222008   0.493   0.606   3.027
 7037SOL     OW22009   1.520   1.425   6.984
 7037SOL    HW122010   1.533   1.331   6.953
 7037SOL    HW222011   1.501   1.425   0.060
 7038SOL     OW22012   2.454   3.213   5.362
 7038SOL    HW122013   2.376   3.274   5.376
 7038SOL    HW222014   2.436   3.153   5.285
 7039SOL     OW22015   2.268   5.363   1.931
 7039SOL    HW122016   2.222   5.447   1.961
 7039SOL    HW222017   2.291   5.308   2.011
 7040SOL     OW22018   6.225   1.687   6.054
 7040SOL    HW122019   6.252   1.715   5.961
 7040SOL    HW222020   6.180   1.764   6.100
 7041SOL     OW22021   6.591   1.806   1.916
 7041SOL    HW122022   6.658   1.875   1.941
 7041SOL    HW222023   6.518   1.804   1.984
 7042SOL     OW22024   4.423   4.961   4.995
 7042SOL    HW122025   4.489   4.925   5.063
 7042SOL    HW222026   4.355   4.890   4.976
 7043SOL     OW22027   2.191   4.162   2.851
 7043SOL    HW122028   2.193   4.114   2.763
 7043SOL    HW222029   2.096   4.175   2.880
 7044SOL     OW22030   5.068   4.816   3.961
 7044SOL    HW122031   5.070   4.912   3.992
 7044SOL    HW222032   5.160   4.777   3.966
 7045SOL     OW22033   5.212   5.505   3.316
 7045SOL    HW122034   5.296   5.527   3.267
 7045SOL    HW222035   5.203   5.565   3.395
 7046SOL     OW22036   3.109   1.070   3.189
 7046SOL    HW122037   3.044   1.008   3.233
 7046SOL    HW222038   3.119   1.152   3.245
 7047SOL     OW22039   6.217   1.482   2.131
 7047SOL    HW122040   6.252   1.516   2.044
 7047SOL    HW222041   6.293   1.447   2.186
 7048SOL     OW22042   5.179   6.734   3.402
 7048SOL    HW122043   5.104   6.702   3.345
 7048SOL    HW222044   5.234   6.656   3.431
 7049SOL     OW22045   3.330   1.283   0.538
 7049SOL    HW122046   3.407   1.234   0.496
 7049SOL    HW222047   3.350   1.381   0.539
 7050SOL     OW22048   4.371   3.556   1.348
 7050SOL    HW122049   4.348   3.653   1.341
 7050SOL    HW222050   4.421   3.527   1.267
 7051SOL     OW22051   6.180   6.762   1.275
 7051SOL    HW122052   6.163   6.847   1.326
 7051SOL    HW222053   6.251   6.710   1.321
 7052SOL     OW22054   5.786   2.096   3.025
 7052SOL    HW122055   5.829   2.088   2.935
 7052SOL    HW222056   5.724   2.174   3.025
 7053SOL     OW22057   0.995   3.483   5.532
 7053SOL    HW122058   0.939   3.565   5.521
 7053SOL    HW222059   1.037   3.460   5.444
 7054SOL     OW22060   0.135   6.399   0.049
 7054SOL    HW122061   0.149   6.359   6.981
 7054SOL    HW222062   0.037   6.401   0.070
 7055SOL     OW22063   2.774   0.055   5.998
 7055SOL    HW122064   2.736   0.099   6.080
 7055SOL    HW222065   2.700   0.007   5.950
 7056SOL     OW22066   6.867   4.415   2.194
 7056SOL    HW122067   6.871   4.371   2.105
 7056SOL    HW222068   6.882   4.514   2.183
 7057SOL     OW22069   2.500   5.355   4.470
 7057SOL    HW122070   2.415   5.303   4.461
 7057SOL    HW222071   2.494   5.416   4.549
 7058SOL     OW22072   5.610   4.587   5.261
 7058SOL    HW122073   5.707   4.606   5.275
 7058SOL    HW222074   5.558   4.618   5.340
 7059SOL     OW22075   0.118   1.620   3.713
 7059SOL    HW122076   0.131   1.535   3.764
 7059SOL    HW222077   0.170   1.693   3.758
 7060SOL     OW22078   3.396   0.234   1.247
 7060SOL    HW122079   3.343   0.254   1.330
 7060SOL    HW222080   3.413   0.136   1.241
 7061SOL     OW22081   0.427   3.473   3.691
 7061SOL    HW122082   0.329   3.491   3.684
 7061SOL    HW222083   0.474   3.557   3.718
 7062SOL     OW22084   4.437   0.768   5.361
 7062SOL    HW122085   4.346   0.794   5.328
 7062SOL    HW222086   4.436   0.766   5.461
 7063SOL     OW22087   1.522   0.186   1.922
 7063SOL    HW122088   1.593   0.241   1.878
 7063SOL    HW222089   1.546   0.089   1.916
 7064SOL     OW22090   3.446   2.060   0.384
 7064SOL    HW122091   3.472   2.096   0.294
 7064SOL    HW222092   3.466   1.962   0.387
 7065SOL     OW22093   5.205   3.747   5.570
 7065SOL    HW122094   5.188   3.805   5.649
 7065SOL    HW222095   5.295   3.706   5.577
 7066SOL     OW22096   4.800   0.254   6.782
 7066SOL    HW122097   4.860   0.239   6.861
 7066SOL    HW222098   4.758   0.345   6.788
 7067SOL     OW22099   1.428   2.894   5.593
 7067SOL    HW122100   1.447   2.938   5.505
 7067SOL    HW222101   1.500   2.828   5.613
 7068SOL     OW22102   6.540   4.389   5.006
 7068SOL    HW122103   6.532   4.478   4.961
 7068SOL    HW222104   6.626   4.345   4.979
 7069SOL     OW22105   5.266   2.042   4.479
 7069SOL    HW122106   5.226   1.956   4.448
 7069SOL    HW222107   5.290   2.035   4.576
 7070SOL     OW22108   0.331   0.292   5.045
 7070SOL    HW122109   0.321   0.204   4.997
 7070SOL    HW222110   0.404   0.284   5.113
 7071SOL     OW22111   3.071   6.208   5.535
 7071SOL    HW122112   3.100   6.121   5.493
 7071SOL    HW222113   3.149   6.271   5.537
 7072SOL     OW22114   1.391   6.420   0.145
 7072SOL    HW122115   1.439   6.470   0.073
 7072SOL    HW222116   1.306   6.468   0.168
 7073SOL     OW22117   5.427   7.003   4.134
 7073SOL    HW122118   5.504   6.979   4.193
 7073SOL    HW222119   5.450   0.062   4.081
 7074SOL     OW22120   5.615   2.754   1.769
 7074SOL    HW122121   5.640   2.664   1.806
 7074SOL    HW222122   5.538   2.791   1.822
 7075SOL     OW22123   2.060   4.249   5.272
 7075SOL    HW122124   2.032   4.179   5.206
 7075SOL    HW222125   2.158   4.241   5.290
 7076SOL     OW22126   5.614   2.582   6.197
 7076SOL    HW122127   5.606   2.641   6.278
 7076SOL    HW222128   5.523   2.565   6.159
 7077SOL     OW22129   2.554   4.894   3.909
 7077SOL    HW122130   2.532   4.796   3.918
 7077SOL    HW222131   2.624   4.906   3.838
 7078SOL     OW22132   6.623   6.712   1.624
 7078SOL    HW122133   6.611   6.613   1.626
 7078SOL    HW222134   6.670   6.741   1.708
 7079SOL     OW22135   0.101   5.769   4.720
 7079SOL    HW122136   0.136   5.726   4.803
 7079SOL    HW222137   0.046   5.849   4.743
 7080SOL     OW22138   3.517   1.190   4.839
 7080SOL    HW122139   3.573   1.273   4.840
 7080SOL    HW222140   3.431   1.208   4.886
 7081SOL     OW22141   2.298   6.364   6.780
 7081SOL    HW122142   2.338   6.438   6.835
 7081SOL    HW222143   2.206   6.344   6.813
 7082SOL     OW22144   6.767   4.344   0.137
 7082SOL    HW122145   6.751   4.328   0.235
 7082SOL    HW222146   6.852   4.300   0.110
 7083SOL     OW22147   1.813   6.861   1.028
 7083SOL    HW122148   1.739   6.820   1.082
 7083SOL    HW222149   1.873   6.913   1.089
 7084SOL     OW22150   0.239   5.238   5.117
 7084SOL    HW122151   0.267   5.146   5.091
 7084SOL    HW222152   0.148   5.235   5.158
 7085SOL     OW22153   0.969   1.139   2.073
 7085SOL    HW122154   1.042   1.158   2.139
 7085SOL    HW222155   0.881   1.139   2.121
 7086SOL     OW22156   5.832   6.821   6.068
 7086SOL    HW122157   5.930   6.825   6.089
 7086SOL    HW222158   5.781   6.862   6.143
 7087SOL     OW22159   6.115   3.977   4.325
 7087SOL    HW122160   6.147   4.046   4.390
 7087SOL    HW222161   6.191   3.950   4.266
 7088SOL     OW22162   5.020   2.849   4.002
 7088SOL    HW122163   5.030   2.880   4.097
 7088SOL    HW222164   5.037   2.751   3.997
 7089SOL     OW22165   2.540   2.049   4.469
 7089SOL    HW122166   2.607   1.980   4.496
 7089SOL    HW222167   2.572   2.098   4.388
 7090SOL     OW22168   1.721   0.433   6.972
 7090SOL    HW122169   1.668   0.349   6.960
 7090SOL    HW222170   1.720   0.460   0.046
 7091SOL     OW22171   0.238   2.452   0.651
 7091SOL    HW122172   0.231   2.550   0.633
 7091SOL    HW222173   0.332   2.422   0.636
 7092SOL     OW22174   3.842   3.110   6.111
 7092SOL    HW122175   3.910   3.038   6.109
 7092SOL    HW222176   3.798   3.118   6.021
 7093SOL     OW22177   3.242   4.083   2.103
 7093SOL    HW122178   3.185   4.011   2.064
 7093SOL    HW222179   3.248   4.159   2.038
 7094SOL     OW22180   0.321   5.618   5.495
 7094SOL    HW122181   0.352   5.712   5.485
 7094SOL    HW222182   0.235   5.606   5.446
 7095SOL     OW22183   3.659   4.489   5.646
 7095SOL    HW122184   3.735   4.496   5.581
 7095SOL    HW222185   3.577   4.460   5.597
 7096SOL     OW22186   6.830   1.083   3.327
 7096SOL    HW122187   6.832   0.997   3.276
 7096SOL    HW222188   6.887   1.150   3.280
 7097SOL     OW22189   4.888   1.718   1.430
 7097SOL    HW122190   4.861   1.715   1.526
 7097SOL    HW222191   4.978   1.676   1.420
 7098SOL     OW22192   1.804   5.276   5.866
 7098SOL    HW122193   1.792   5.341   5.791
 7098SOL    HW222194   1.887   5.222   5.850
 7099SOL     OW22195   3.738   1.520   5.187
 7099SOL    HW122196   3.711   1.541   5.094
 7099SOL    HW222197   3.662   1.538   5.249
 7100SOL     OW22198   6.796   3.981   0.085
 7100SOL    HW122199   6.807   4.011   0.180
 7100SOL    HW222200   6.860   4.032   0.027
 7101SOL     OW22201   2.023   1.784   5.426
 7101SOL    HW122202   2.087   1.715   5.392
 7101SOL    HW222203   2.073   1.869   5.447
 7102SOL     OW22204   5.066   6.942   1.273
 7102SOL    HW122205   5.133   6.870   1.255
 7102SOL    HW222206   5.105   7.009   1.335
 7103SOL     OW22207   5.107   5.101   2.770
 7103SOL    HW122208   5.112   5.161   2.690
 7103SOL    HW222209   5.149   5.146   2.848
 7104SOL     OW22210   6.804   3.243   3.542
 7104SOL    HW122211   6.788   3.218   3.447
 7104SOL    HW222212   6.854   3.170   3.588
 7105SOL     OW22213   3.156   3.370   5.223
 7105SOL    HW122214   3.230   3.400   5.163
 7105SOL    HW222215   3.068   3.386   5.178
 7106SOL     OW22216   3.499   3.642   2.094
 7106SOL    HW122217   3.426   3.710   2.102
 7106SOL    HW222218   3.540   3.626   2.183
 7107SOL     OW22219   4.554   0.926   0.561
 7107SOL    HW122220   4.591   0.856   0.622
 7107SOL    HW222221   4.597   1.014   0.580
 7108SOL     OW22222   2.778   6.409   2.965
 7108SOL    HW122223   2.847   6.337   2.971
 7108SOL    HW222224   2.718   6.392   2.887
 7109SOL     OW22225   2.472   0.143   6.032
 7109SOL    HW122226   2.547   0.131   6.098
 7109SOL    HW222227   2.475   0.069   5.965
 7110SOL     OW22228   3.092   5.872   3.990
 7110SOL    HW122229   2.994   5.854   3.990
 7110SOL    HW222230   3.143   5.786   4.002
 7111SOL     OW22231   1.142   2.590   5.145
 7111SOL    HW122232   1.142   2.631   5.054
 7111SOL    HW222233   1.049   2.565   5.170
 7112SOL     OW22234   2.085   5.058   4.665
 7112SOL    HW122235   2.021   5.113   4.720
 7112SOL    HW222236   2.080   4.963   4.693
 7113SOL     OW22237   3.871   3.931   4.297
 7113SOL    HW122238   3.836   3.988   4.371
 7113SOL    HW222239   3.812   3.940   4.217
 7114SOL     OW22240   5.793   5.872   0.853
 7114SOL    HW122241   5.822   5.947   0.913
 7114SOL    HW222242   5.724   5.817   0.899
 7115SOL     OW22243   5.548   2.713   0.340
 7115SOL    HW122244   5.583   2.766   0.418
 7115SOL    HW222245   5.450   2.696   0.353
 7116SOL     OW22246   5.729   4.524   2.640
 7116SOL    HW122247   5.702   4.609   2.595
 7116SOL    HW222248   5.721   4.536   2.739
 7117SOL     OW22249   0.539   0.073   4.839
 7117SOL    HW122250   0.618   0.011   4.838
 7117SOL    HW222251   0.570   0.165   4.867
 7118SOL     OW22252   3.217   4.799   0.672
 7118SOL    HW122253   3.286   4.848   0.725
 7118SOL    HW222254   3.153   4.755   0.734
 7119SOL     OW22255   4.892   1.574   3.679
 7119SOL    HW122256   4.948   1.609   3.754
 7119SOL    HW222257   4.872   1.648   3.614
 7120SOL     OW22258   3.062   2.114   2.288
 7120SOL    HW122259   3.076   2.166   2.204
 7120SOL    HW222260   3.025   2.024   2.266
 7121SOL     OW22261   0.794   6.990   3.180
 7121SOL    HW122262   0.881   7.009   3.225
 7121SOL    HW222263   0.811   6.965   3.085
 7122SOL     OW22264   1.527   0.876   5.914
 7122SOL    HW122265   1.600   0.870   5.983
 7122SOL    HW222266   1.445   0.828   5.948
 7123SOL     OW22267   1.467   4.570   3.444
 7123SOL    HW122268   1.520   4.496   3.485
 7123SOL    HW222269   1.451   4.550   3.348
 7124SOL     OW22270   6.488   2.107   1.517
 7124SOL    HW122271   6.421   2.047   1.472
 7124SOL    HW222272   6.540   2.157   1.447
 7125SOL     OW22273   0.438   6.786   0.717
 7125SOL    HW122274   0.468   6.763   0.809
 7125SOL    HW222275   0.489   6.865   0.683
 7126SOL     OW22276   3.779   5.136   0.214
 7126SOL    HW122277   3.799   5.060   0.277
 7126SOL    HW222278   3.699   5.113   0.159
 7127SOL     OW22279   1.862   5.392   6.119
 7127SOL    HW122280   1.839   5.339   6.037
 7127SOL    HW222281   1.945   5.355   6.160
 7128SOL     OW22282   3.043   4.454   6.626
 7128SOL    HW122283   3.035   4.537   6.681
 7128SOL    HW222284   3.134   4.448   6.586
 7129SOL     OW22285   1.976   1.505   0.362
 7129SOL    HW122286   1.981   1.433   0.293
 7129SOL    HW222287   1.962   1.465   0.452
 7130SOL     OW22288   4.010   5.968   4.317
 7130SOL    HW122289   4.083   5.977   4.384
 7130SOL    HW222290   4.033   5.896   4.251
 7131SOL     OW22291   2.342   1.073   1.350
 7131SOL    HW122292   2.338   1.160   1.301
 7131SOL    HW222293   2.340   1.089   1.448
 7132SOL     OW22294   3.894   3.467   0.595
 7132SOL    HW122295   3.825   3.526   0.638
 7132SOL    HW222296   3.948   3.521   0.530
 7133SOL     OW22297   4.999   5.258   5.775
 7133SOL    HW122298   4.919   5.200   5.789
 7133SOL    HW222299   5.074   5.226   5.833
 7134SOL     OW22300   4.911   6.777   1.421
 7134SOL    HW122301   4.823   6.773   1.374
 7134SOL    HW222302   4.966   6.851   1.383
 7135SOL     OW22303   2.025   2.600   3.474
 7135SOL    HW122304   1.949   2.567   3.418
 7135SOL    HW222305   2.077   2.523   3.509
 7136SOL     OW22306   2.132   1.752   0.408
 7136SOL    HW122307   2.124   1.813   0.329
 7136SOL    HW222308   2.107   1.659   0.381
 7137SOL     OW22309   3.083   0.524   6.447
 7137SOL    HW122310   3.091   0.480   6.357
 7137SOL    HW222311   3.033   0.465   6.509
 7138SOL     OW22312   2.668   2.302   0.067
 7138SOL    HW122313   2.627   2.271   7.003
 7138SOL    HW222314   2.605   2.283   0.142
 7139SOL     OW22315   6.181   4.198   1.902
 7139SOL    HW122316   6.128   4.282   1.913
 7139SOL    HW222317   6.215   4.192   1.808
 7140SOL     OW22318   6.358   3.909   2.277
 7140SOL    HW122319   6.348   3.811   2.260
 7140SOL    HW222320   6.454   3.935   2.266
 7141SOL     OW22321   3.775   6.278   0.481
 7141SOL    HW122322   3.844   6.283   0.409
 7141SOL    HW222323   3.710   6.353   0.470
 7142SOL     OW22324   3.861   0.007   2.989
 7142SOL    HW122325   3.948   0.056   2.998
 7142SOL    HW222326   3.794   0.067   2.945
 7143SOL     OW22327   1.997   2.496   6.238
 7143SOL    HW122328   1.902   2.467   6.248
 7143SOL    HW222329   2.012   2.529   6.144
 7144SOL     OW22330   1.931   1.964   2.680
 7144SOL    HW122331   1.833   1.966   2.660
 7144SOL    HW222332   1.967   1.872   2.665
 7145SOL     OW22333   4.102   0.273   6.565
 7145SOL    HW122334   4.055   0.233   6.487
 7145SOL    HW222335   4.151   0.356   6.536
 7146SOL     OW22336   1.986   6.528   6.962
 7146SOL    HW122337   1.987   6.556   6.866
 7146SOL    HW222338   2.036   6.596   7.017
 7147SOL     OW22339   6.869   6.721   3.311
 7147SOL    HW122340   6.861   6.644   3.374
 7147SOL    HW222341   6.868   6.688   3.217
 7148SOL     OW22342   0.084   6.813   1.541
 7148SOL    HW122343   0.079   6.864   1.455
 7148SOL    HW222344   0.028   6.731   1.535
 7149SOL     OW22345   6.875   6.761   3.676
 7149SOL    HW122346   6.786   6.772   3.632
 7149SOL    HW222347   6.935   6.837   3.650
 7150SOL     OW22348   3.719   2.658   1.125
 7150SOL    HW122349   3.717   2.620   1.032
 7150SOL    HW222350   3.672   2.596   1.187
 7151SOL     OW22351   3.057   6.746   0.753
 7151SOL    HW122352   3.147   6.734   0.795
 7151SOL    HW222353   2.994   6.785   0.820
 7152SOL     OW22354   6.772   0.419   5.393
 7152SOL    HW122355   6.800   0.385   5.303
 7152SOL    HW222356   6.839   0.391   5.461
 7153SOL     OW22357   4.093   5.357   1.562
 7153SOL    HW122358   4.010   5.371   1.616
 7153SOL    HW222359   4.114   5.440   1.510
 7154SOL     OW22360   5.037   0.051   3.054
 7154SOL    HW122361   5.015   6.978   3.075
 7154SOL    HW222362   5.112   0.082   3.112
 7155SOL     OW22363   2.161   3.103   0.983
 7155SOL    HW122364   2.183   3.102   0.885
 7155SOL    HW222365   2.189   3.016   1.024
 7156SOL     OW22366   6.690   3.062   3.760
 7156SOL    HW122367   6.659   3.153   3.733
 7156SOL    HW222368   6.787   3.052   3.737
 7157SOL     OW22369   0.475   3.951   1.405
 7157SOL    HW122370   0.508   3.857   1.402
 7157SOL    HW222371   0.453   3.982   1.313
 7158SOL     OW22372   0.819   0.416   4.056
 7158SOL    HW122373   0.767   0.355   4.114
 7158SOL    HW222374   0.757   0.477   4.007
 7159SOL     OW22375   0.789   4.652   3.359
 7159SOL    HW122376   0.814   4.749   3.353
 7159SOL    HW222377   0.791   4.623   3.455
 7160SOL     OW22378   5.639   0.461   2.905
 7160SOL    HW122379   5.722   0.482   2.958
 7160SOL    HW222380   5.649   0.372   2.862
 7161SOL     OW22381   3.414   4.174   3.054
 7161SOL    HW122382   3.328   4.142   3.014
 7161SOL    HW222383   3.396   4.256   3.109
 7162SOL     OW22384   1.274   5.129   6.353
 7162SOL    HW122385   1.233   5.115   6.263
 7162SOL    HW222386   1.203   5.150   6.420
 7163SOL     OW22387   2.812   6.963   2.338
 7163SOL    HW122388   2.850   0.026   2.304
 7163SOL    HW222389   2.712   6.968   2.336
 7164SOL     OW22390   3.028   0.344   4.235
 7164SOL    HW122391   2.977   0.403   4.172
 7164SOL    HW222392   2.965   0.287   4.286
 7165SOL     OW22393   6.387   7.004   2.698
 7165SOL    HW122394   6.466   6.985   2.640
 7165SOL    HW222395   6.375   6.930   2.764
 7166SOL     OW22396   5.000   1.582   0.873
 7166SOL    HW122397   5.004   1.664   0.930
 7166SOL    HW222398   5.052   1.596   0.789
 7167SOL     OW22399   5.155   3.177   4.571
 7167SOL    HW122400   5.176   3.216   4.481
 7167SOL    HW222401   5.056   3.165   4.579
 7168SOL     OW22402   1.905   2.793   2.713
 7168SOL    HW122403   1.901   2.695   2.696
 7168SOL    HW222404   1.827   2.821   2.769
 7169SOL     OW22405   0.057   3.620   5.813
 7169SOL    HW122406   0.067   3.688   5.740
 7169SOL    HW222407   0.144   3.573   5.826
 7170SOL     OW22408   5.265   0.151   3.203
 7170SOL    HW122409   5.210   0.084   3.253
 7170SOL    HW222410   5.362   0.126   3.209
 7171SOL     OW22411   6.236   4.023   6.919
 7171SOL    HW122412   6.248   3.926   6.900
 7171SOL    HW222413   6.188   4.067   6.843
 7172SOL     OW22414   1.631   0.138   5.030
 7172SOL    HW122415   1.594   0.045   5.042
 7172SOL    HW222416   1.718   0.133   4.982
 7173SOL     OW22417   6.620   4.512   6.996
 7173SOL    HW122418   6.673   4.446   0.028
 7173SOL    HW222419   6.556   4.560   0.033
 7174SOL     OW22420   1.346   3.503   0.554
 7174SOL    HW122421   1.379   3.409   0.547
 7174SOL    HW222422   1.313   3.533   0.464
 7175SOL     OW22423   5.866   3.360   6.110
 7175SOL    HW122424   5.838   3.393   6.019
 7175SOL    HW222425   5.890   3.263   6.105
 7176SOL     OW22426   6.661   1.232   3.646
 7176SOL    HW122427   6.641   1.245   3.549
 7176SOL    HW222428   6.747   1.278   3.669
 7177SOL     OW22429   0.993   4.583   5.038
 7177SOL    HW122430   0.998   4.670   4.989
 7177SOL    HW222431   0.966   4.599   5.133
 7178SOL     OW22432   6.880   1.229   5.922
 7178SOL    HW122433   6.965   1.254   5.968
 7178SOL    HW222434   6.872   1.129   5.919
 7179SOL     OW22435   2.191   3.309   4.263
 7179SOL    HW122436   2.191   3.234   4.197
 7179SOL    HW222437   2.225   3.276   4.351
 7180SOL     OW22438   1.807   5.420   6.808
 7180SOL    HW122439   1.859   5.443   6.727
 7180SOL    HW222440   1.819   5.323   6.828
 7181SOL     OW22441   1.995   0.407   0.343
 7181SOL    HW122442   1.943   0.412   0.429
 7181SOL    HW222443   1.962   0.331   0.288
 7182SOL     OW22444   0.279   3.181   4.417
 7182SOL    HW122445   0.288   3.266   4.366
 7182SOL    HW222446   0.325   3.107   4.368
 7183SOL     OW22447   1.542   5.396   1.398
 7183SOL    HW122448   1.565   5.432   1.308
 7183SOL    HW222449   1.481   5.459   1.446
 7184SOL     OW22450   6.610   0.960   3.622
 7184SOL    HW122451   6.524   0.924   3.658
 7184SOL    HW222452   6.609   1.060   3.628
 7185SOL     OW22453   5.898   0.628   4.977
 7185SOL    HW122454   5.980   0.583   4.943
 7185SOL    HW222455   5.912   0.727   4.979
 7186SOL     OW22456   6.476   2.120   1.776
 7186SOL    HW122457   6.499   2.035   1.823
 7186SOL    HW222458   6.472   2.104   1.678
 7187SOL     OW22459   3.064   4.350   5.556
 7187SOL    HW122460   3.092   4.259   5.523
 7187SOL    HW222461   3.083   4.357   5.653
 7188SOL     OW22462   5.607   7.014   6.835
 7188SOL    HW122463   5.562   7.008   6.746
 7188SOL    HW222464   5.692   6.961   6.833
 7189SOL     OW22465   6.006   1.398   5.205
 7189SOL    HW122466   5.978   1.337   5.279
 7189SOL    HW222467   5.935   1.400   5.135
 7190SOL     OW22468   6.757   4.438   1.741
 7190SOL    HW122469   6.834   4.377   1.724
 7190SOL    HW222470   6.736   4.438   1.839
 7191SOL     OW22471   1.704   5.234   2.277
 7191SOL    HW122472   1.680   5.328   2.300
 7191SOL    HW222473   1.725   5.183   2.361
 7192SOL     OW22474   2.359   4.126   6.162
 7192SOL    HW122475   2.388   4.032   6.183
 7192SOL    HW222476   2.408   4.159   6.081
 7193SOL     OW22477   1.133   3.030   2.675
 7193SOL    HW122478   1.156   2.936   2.700
 7193SOL    HW222479   1.051   3.030   2.619
 7194SOL     OW22480   2.099   2.558   0.808
 7194SOL    HW122481   2.150   2.628   0.757
 7194SOL    HW222482   2.090   2.476   0.752
 7195SOL     OW22483   1.067   4.248   7.019
 7195SOL    HW122484   1.167   4.245   0.001
 7195SOL    HW222485   1.038   4.266   6.925
 7196SOL     OW22486   2.369   3.660   1.691
 7196SOL    HW122487   2.275   3.632   1.672
 7196SOL    HW222488   2.412   3.593   1.751
 7197SOL     OW22489   0.597   2.578   5.845
 7197SOL    HW122490   0.662   2.641   5.888
 7197SOL    HW222491   0.525   2.630   5.800
 7198SOL     OW22492   0.398   0.640   0.674
 7198SOL    HW122493   0.414   0.641   0.575
 7198SOL    HW222494   0.372   0.548   0.703
 7199SOL     OW22495   2.075   0.520   1.978
 7199SOL    HW122496   2.142   0.451   1.952
 7199SOL    HW222497   1.988   0.475   1.999
 7200SOL     OW22498   2.271   2.849   6.728
 7200SOL    HW122499   2.190   2.845   6.670
 7200SOL    HW222500   2.242   2.854   6.824
 7201SOL     OW22501   0.731   6.447   4.256
 7201SOL    HW122502   0.727   6.347   4.255
 7201SOL    HW222503   0.638   6.484   4.259
 7202SOL     OW22504   5.417   6.851   0.295
 7202SOL    HW122505   5.467   6.829   0.212
 7202SOL    HW222506   5.426   6.949   0.314
 7203SOL     OW22507   0.151   1.118   0.533
 7203SOL    HW122508   0.107   1.139   0.446
 7203SOL    HW222509   0.107   1.170   0.606
 7204SOL     OW22510   0.463   0.289   5.748
 7204SOL    HW122511   0.531   0.316   5.680
 7204SOL    HW222512   0.499   0.213   5.802
 7205SOL     OW22513   1.399   3.944   4.608
 7205SOL    HW122514   1.476   3.947   4.672
 7205SOL    HW222515   1.398   3.856   4.561
 7206SOL     OW22516   1.418   0.630   2.001
 7206SOL    HW122517   1.385   0.552   1.947
 7206SOL    HW222518   1.515   0.644   1.982
 7207SOL     OW22519   3.670   0.228   2.469
 7207SOL    HW122520   3.611   0.207   2.547
 7207SOL    HW222521   3.647   0.320   2.435
 7208SOL     OW22522   4.138   0.089   3.274
 7208SOL    HW122523   4.224   0.039   3.274
 7208SOL    HW222524   4.068   0.035   3.323
 7209SOL     OW22525   2.383   3.183   1.708
 7209SOL    HW122526   2.404   3.271   1.750
 7209SOL    HW222527   2.308   3.193   1.644
 7210SOL     OW22528   4.486   0.979   2.700
 7210SOL    HW122529   4.441   0.906   2.648
 7210SOL    HW222530   4.420   1.052   2.718
 7211SOL     OW22531   2.210   6.784   4.589
 7211SOL    HW122532   2.259   6.769   4.503
 7211SOL    HW222533   2.275   6.816   4.658
 7212SOL     OW22534   0.226   6.614   5.136
 7212SOL    HW122535   0.295   6.686   5.128
 7212SOL    HW222536   0.149   6.634   5.077
 7213SOL     OW22537   4.475   5.988   6.707
 7213SOL    HW122538   4.572   5.964   6.701
 7213SOL    HW222539   4.419   5.905   6.700
 7214SOL     OW22540   6.661   0.475   4.827
 7214SOL    HW122541   6.718   0.557   4.825
 7214SOL    HW222542   6.692   0.415   4.900
 7215SOL     OW22543   0.154   3.234   3.811
 7215SOL    HW122544   0.135   3.172   3.888
 7215SOL    HW222545   0.070   3.284   3.788
 7216SOL     OW22546   2.988   0.497   0.120
 7216SOL    HW122547   2.995   0.597   0.132
 7216SOL    HW222548   2.958   0.456   0.206
 7217SOL     OW22549   2.174   3.848   3.720
 7217SOL    HW122550   2.096   3.902   3.689
 7217SOL    HW222551   2.180   3.764   3.666
 7218SOL     OW22552   5.560   2.697   5.091
 7218SOL    HW122553   5.588   2.791   5.111
 7218SOL    HW222554   5.514   2.694   5.003
 7219SOL     OW22555   4.503   0.468   2.919
 7219SOL    HW122556   4.453   0.449   2.834
 7219SOL    HW222557   4.521   0.567   2.926
 7220SOL     OW22558   0.508   4.441   4.806
 7220SOL    HW122559   0.498   4.526   4.754
 7220SOL    HW222560   0.419   4.415   4.844
 7221SOL     OW22561   3.310   5.928   4.150
 7221SOL    HW122562   3.213   5.936   4.129
 7221SOL    HW222563   3.327   5.958   4.244
 7222SOL     OW22564   5.812   0.030   3.461
 7222SOL    HW122565   5.820   0.125   3.491
 7222SOL    HW222566   5.903   7.014   3.446
 7223SOL     OW22567   2.756   1.516   0.670
 7223SOL    HW122568   2.709   1.457   0.604
 7223SOL    HW222569   2.808   1.459   0.734
 7224SOL     OW22570   5.106   1.450   4.010
 7224SOL    HW122571   5.154   1.399   3.939
 7224SOL    HW222572   5.072   1.536   3.972
 7225SOL     OW22573   1.055   5.478   0.585
 7225SOL    HW122574   1.010   5.450   0.500
 7225SOL    HW222575   1.014   5.563   0.618
 7226SOL     OW22576   5.963   1.345   2.129
 7226SOL    HW122577   5.920   1.341   2.038
 7226SOL    HW222578   6.030   1.419   2.130
 7227SOL     OW22579   2.775   2.175   0.947
 7227SOL    HW122580   2.714   2.231   0.890
 7227SOL    HW222581   2.841   2.234   0.992
 7228SOL     OW22582   1.186   2.321   3.373
 7228SOL    HW122583   1.100   2.309   3.324
 7228SOL    HW222584   1.217   2.416   3.364
 7229SOL     OW22585   1.210   6.246   5.128
 7229SOL    HW122586   1.221   6.343   5.151
 7229SOL    HW222587   1.297   6.209   5.096
 7230SOL     OW22588   3.414   5.406   4.296
 7230SOL    HW122589   3.489   5.344   4.276
 7230SOL    HW222590   3.436   5.460   4.377
 7231SOL     OW22591   3.901   1.139   6.446
 7231SOL    HW122592   3.833   1.149   6.520
 7231SOL    HW222593   3.949   1.226   6.434
 7232SOL     OW22594   4.808   6.427   3.180
 7232SOL    HW122595   4.850   6.338   3.165
 7232SOL    HW222596   4.800   6.475   3.093
 7233SOL     OW22597   1.007   1.658   3.245
 7233SOL    HW122598   1.060   1.738   3.218
 7233SOL    HW222599   0.962   1.675   3.333
 7234SOL     OW22600   5.059   2.542   4.041
 7234SOL    HW122601   5.018   2.458   4.005
 7234SOL    HW222602   5.146   2.520   4.085
 7235SOL     OW22603   6.882   5.250   2.542
 7235SOL    HW122604   6.946   5.289   2.608
 7235SOL    HW222605   6.916   5.162   2.511
 7236SOL     OW22606   2.605   1.905   1.849
 7236SOL    HW122607   2.553   1.846   1.911
 7236SOL    HW222608   2.694   1.926   1.891
 7237SOL     OW22609   4.125   6.972   5.037
 7237SOL    HW122610   4.155   0.025   5.095
 7237SOL    HW222611   4.164   6.887   5.071
 7238SOL     OW22612   3.893   1.563   0.125
 7238SOL    HW122613   3.828   1.631   0.090
 7238SOL    HW222614   3.885   1.479   0.072
 7239SOL     OW22615   1.479   2.174   2.478
 7239SOL    HW122616   1.384   2.196   2.499
 7239SOL    HW222617   1.495   2.188   2.380
 7240SOL     OW22618   1.357   0.591   6.076
 7240SOL    HW122619   1.279   0.529   6.074
 7240SOL    HW222620   1.328   0.682   6.046
 7241SOL     OW22621   1.235   0.756   1.107
 7241SOL    HW122622   1.140   0.741   1.080
 7241SOL    HW222623   1.238   0.783   1.204
 7242SOL     OW22624   6.543   5.943   0.258
 7242SOL    HW122625   6.625   5.989   0.290
 7242SOL    HW222626   6.463   6.001   0.273
 7243SOL     OW22627   6.213   4.372   6.057
 7243SOL    HW122628   6.193   4.341   6.150
 7243SOL    HW222629   6.151   4.447   6.032
 7244SOL     OW22630   6.185   1.122   1.769
 7244SOL    HW122631   6.117   1.091   1.702
 7244SOL    HW222632   6.179   1.221   1.780
 7245SOL     OW22633   1.064   2.682   5.842
 7245SOL    HW122634   1.129   2.721   5.776
 7245SOL    HW222635   0.979   2.735   5.840
 7246SOL     OW22636   0.434   6.961   4.354
 7246SOL    HW122637   0.421   0.001   4.276
 7246SOL    HW222638   0.498   7.001   4.418
 7247SOL     OW22639   2.629   1.140   4.422
 7247SOL    HW122640   2.646   1.042   4.419
 7247SOL    HW222641   2.610   1.174   4.330
 7248SOL     OW22642   2.701   1.475   3.083
 7248SOL    HW122643   2.610   1.512   3.062
 7248SOL    HW222644   2.759   1.484   3.003
 7249SOL     OW22645   6.655   4.707   2.506
 7249SOL    HW122646   6.648   4.790   2.561
 7249SOL    HW222647   6.745   4.705   2.461
 7250SOL     OW22648   4.807   6.654   6.198
 7250SOL    HW122649   4.761   6.706   6.270
 7250SOL    HW222650   4.823   6.714   6.119
 7251SOL     OW22651   0.263   6.481   5.617
 7251SOL    HW122652   0.225   6.553   5.559
 7251SOL    HW222653   0.357   6.463   5.590
 7252SOL     OW22654   3.847   3.366   2.470
 7252SOL    HW122655   3.840   3.465   2.484
 7252SOL    HW222656   3.755   3.326   2.471
 7253SOL     OW22657   1.341   6.174   6.421
 7253SOL    HW122658   1.295   6.153   6.507
 7253SOL    HW222659   1.363   6.272   6.418
 7254SOL     OW22660   4.453   5.089   4.076
 7254SOL    HW122661   4.550   5.112   4.086
 7254SOL    HW222662   4.412   5.081   4.167
 7255SOL     OW22663   2.784   4.196   1.374
 7255SOL    HW122664   2.684   4.186   1.371
 7255SOL    HW222665   2.826   4.108   1.353
 7256SOL     OW22666   3.180   5.380   4.150
 7256SOL    HW122667   3.268   5.372   4.198
 7256SOL    HW222668   3.133   5.292   4.153
 7257SOL     OW22669   5.926   2.389   3.480
 7257SOL    HW122670   5.935   2.486   3.457
 7257SOL    HW222671   5.901   2.337   3.399
 7258SOL     OW22672   4.535   1.548   3.522
 7258SOL    HW122673   4.571   1.614   3.456
 7258SOL    HW222674   4.456   1.588   3.569
 7259SOL     OW22675   2.173   3.708   0.890
 7259SOL    HW122676   2.252   3.751   0.934
 7259SOL    HW222677   2.154   3.620   0.933
 7260SOL     OW22678   4.003   2.169   1.584
 7260SOL    HW122679   4.096   2.146   1.612
 7260SOL    HW222680   3.969   2.098   1.522
 7261SOL     OW22681   1.007   2.239   1.500
 7261SOL    HW122682   1.084   2.247   1.436
 7261SOL    HW222683   1.038   2.264   1.592
 7262SOL     OW22684   5.115   1.991   5.495
 7262SOL    HW122685   5.209   1.971   5.468
 7262SOL    HW222686   5.090   2.082   5.463
 7263SOL     OW22687   0.490   0.703   0.414
 7263SOL    HW122688   0.482   0.669   0.321
 7263SOL    HW222689   0.430   0.782   0.426
 7264SOL     OW22690   5.639   2.273   6.530
 7264SOL    HW122691   5.610   2.206   6.462
 7264SOL    HW222692   5.736   2.294   6.516
 7265SOL     OW22693   5.653   5.663   5.431
 7265SOL    HW122694   5.572   5.694   5.382
 7265SOL    HW222695   5.625   5.612   5.512
 7266SOL     OW22696   5.596   6.535   1.751
 7266SOL    HW122697   5.561   6.515   1.842
 7266SOL    HW222698   5.565   6.464   1.687
 7267SOL     OW22699   6.457   6.199   5.143
 7267SOL    HW122700   6.511   6.183   5.225
 7267SOL    HW222701   6.378   6.137   5.142
 7268SOL     OW22702   5.629   5.301   3.382
 7268SOL    HW122703   5.596   5.218   3.338
 7268SOL    HW222704   5.728   5.310   3.367
 7269SOL     OW22705   6.845   6.767   6.544
 7269SOL    HW122706   6.908   6.843   6.527
 7269SOL    HW222707   6.833   6.714   6.461
 7270SOL     OW22708   1.297   3.673   5.494
 7270SOL    HW122709   1.236   3.704   5.422
 7270SOL    HW222710   1.318   3.750   5.555
 7271SOL     OW22711   0.718   6.057   2.970
 7271SOL    HW122712   0.749   6.023   2.881
 7271SOL    HW222713   0.794   6.053   3.035
 7272SOL     OW22714   5.556   5.770   1.914
 7272SOL    HW122715   5.595   5.823   1.838
 7272SOL    HW222716   5.628   5.713   1.954
 7273SOL     OW22717   6.135   4.438   2.419
 7273SOL    HW122718   6.040   4.442   2.388
 7273SOL    HW222719   6.152   4.350   2.463
 7274SOL     OW22720   0.799   5.607   6.367
 7274SOL    HW122721   0.773   5.511   6.360
 7274SOL    HW222722   0.898   5.614   6.381
 7275SOL     OW22723   6.899   6.583   3.071
 7275SOL    HW122724   6.972   6.515   3.065
 7275SOL    HW222725   6.866   6.605   2.980
 7276SOL     OW22726   3.885   1.405   2.732
 7276SOL    HW122727   3.955   1.335   2.716
 7276SOL    HW222728   3.897   1.479   2.666
 7277SOL     OW22729   4.403   0.739   2.934
 7277SOL    HW122730   4.303   0.737   2.931
 7277SOL    HW222731   4.432   0.799   3.009
 7278SOL     OW22732   3.209   2.625   1.219
 7278SOL    HW122733   3.134   2.646   1.156
 7278SOL    HW222734   3.283   2.580   1.168
 7279SOL     OW22735   4.099   4.025   5.639
 7279SOL    HW122736   4.085   3.927   5.625
 7279SOL    HW222737   4.193   4.041   5.668
 7280SOL     OW22738   0.373   1.924   3.582
 7280SOL    HW122739   0.357   2.016   3.545
 7280SOL    HW222740   0.472   1.912   3.596
 7281SOL     OW22741   1.380   0.917   0.563
 7281SOL    HW122742   1.400   1.001   0.615
 7281SOL    HW222743   1.466   0.874   0.535
 7282SOL     OW22744   6.225   6.064   1.608
 7282SOL    HW122745   6.320   6.035   1.616
 7282SOL    HW222746   6.221   6.164   1.613
 7283SOL     OW22747   4.706   0.649   1.982
 7283SOL    HW122748   4.716   0.616   1.889
 7283SOL    HW222749   4.769   0.725   1.998
 7284SOL     OW22750   6.772   2.232   5.816
 7284SOL    HW122751   6.780   2.199   5.910
 7284SOL    HW222752   6.680   2.216   5.782
 7285SOL     OW22753   5.579   3.069   2.133
 7285SOL    HW122754   5.645   3.003   2.169
 7285SOL    HW222755   5.610   3.102   2.044
 7286SOL     OW22756   1.372   1.218   1.255
 7286SOL    HW122757   1.466   1.196   1.281
 7286SOL    HW222758   1.315   1.136   1.260
 7287SOL     OW22759   6.810   2.672   5.666
 7287SOL    HW122760   6.814   2.573   5.681
 7287SOL    HW222761   6.901   2.705   5.641
 7288SOL     OW22762   1.610   2.105   1.645
 7288SOL    HW122763   1.540   2.038   1.669
 7288SOL    HW222764   1.567   2.195   1.633
 7289SOL     OW22765   5.369   2.626   3.866
 7289SOL    HW122766   5.288   2.608   3.809
 7289SOL    HW222767   5.347   2.608   3.961
 7290SOL     OW22768   2.758   1.345   5.081
 7290SOL    HW122769   2.729   1.250   5.090
 7290SOL    HW222770   2.830   1.352   5.012
 7291SOL     OW22771   1.326   6.980   0.317
 7291SOL    HW122772   1.229   6.969   0.334
 7291SOL    HW222773   1.343   0.048   0.277
 7292SOL     OW22774   3.336   6.912   3.045
 7292SOL    HW122775   3.409   6.844   3.052
 7292SOL    HW222776   3.279   6.891   2.965
 7293SOL     OW22777   1.062   1.472   4.843
 7293SOL    HW122778   0.997   1.512   4.907
 7293SOL    HW222779   1.056   1.372   4.846
 7294SOL     OW22780   2.922   4.309   6.847
 7294SOL    HW122781   2.938   4.365   6.765
 7294SOL    HW222782   2.867   4.361   6.912
 7295SOL     OW22783   6.077   4.474   0.914
 7295SOL    HW122784   5.982   4.446   0.901
 7295SOL    HW222785   6.123   4.410   0.975
 7296SOL     OW22786   3.666   6.049   1.250
 7296SOL    HW122787   3.679   5.951   1.239
 7296SOL    HW222788   3.650   6.070   1.347
 7297SOL     OW22789   3.552   6.339   1.377
 7297SOL    HW122790   3.570   6.433   1.349
 7297SOL    HW222791   3.471   6.305   1.329
 7298SOL     OW22792   4.944   5.641   6.337
 7298SOL    HW122793   4.948   5.741   6.334
 7298SOL    HW222794   4.967   5.609   6.429
 7299SOL     OW22795   0.811   2.127   1.172
 7299SOL    HW122796   0.841   2.045   1.220
 7299SOL    HW222797   0.737   2.104   1.109
 7300SOL     OW22798   0.562   6.781   2.026
 7300SOL    HW122799   0.481   6.799   2.082
 7300SOL    HW222800   0.621   6.716   2.073
 7301SOL     OW22801   5.919   2.054   4.968
 7301SOL    HW122802   6.016   2.069   4.951
 7301SOL    HW222803   5.902   2.057   5.066
 7302SOL     OW22804   0.013   2.397   5.944
 7302SOL    HW122805   6.964   2.455   5.983
 7302SOL    HW222806   7.011   2.373   5.850
 7303SOL     OW22807   3.896   1.010   7.006
 7303SOL    HW122808   3.888   0.950   0.064
 7303SOL    HW222809   3.988   1.004   6.969
 7304SOL     OW22810   2.895   5.225   1.404
 7304SOL    HW122811   2.811   5.271   1.433
 7304SOL    HW222812   2.910   5.144   1.461
 7305SOL     OW22813   4.923   1.817   1.009
 7305SOL    HW122814   4.966   1.890   1.062
 7305SOL    HW222815   4.824   1.818   1.023
 7306SOL     OW22816   3.918   1.809   1.454
 7306SOL    HW122817   3.835   1.762   1.424
 7306SOL    HW222818   3.998   1.754   1.430
 7307SOL     OW22819   3.512   6.354   2.424
 7307SOL    HW122820   3.516   6.406   2.339
 7307SOL    HW222821   3.436   6.388   2.480
 7308SOL     OW22822   6.796   2.006   4.671
 7308SOL    HW122823   6.818   1.913   4.641
 7308SOL    HW222824   6.815   2.014   4.769
 7309SOL     OW22825   3.602   5.920   0.780
 7309SOL    HW122826   3.660   5.999   0.762
 7309SOL    HW222827   3.660   5.839   0.794
 7310SOL     OW22828   1.958   4.021   6.671
 7310SOL    HW122829   2.007   4.102   6.702
 7310SOL    HW222830   1.863   4.045   6.652
 7311SOL     OW22831   1.696   1.754   1.506
 7311SOL    HW122832   1.768   1.689   1.483
 7311SOL    HW222833   1.717   1.843   1.464
 7312SOL     OW22834   0.864   2.854   4.757
 7312SOL    HW122835   0.786   2.799   4.784
 7312SOL    HW222836   0.942   2.795   4.738
 7313SOL     OW22837   1.842   1.075   0.945
 7313SOL    HW122838   1.902   1.097   1.022
 7313SOL    HW222839   1.802   0.985   0.959
 7314SOL     OW22840   7.000   4.163   6.079
 7314SOL    HW122841   6.931   4.092   6.092
 7314SOL    HW222842   6.954   4.251   6.066
 7315SOL     OW22843   5.109   5.270   1.877
 7315SOL    HW122844   5.025   5.307   1.837
 7315SOL    HW222845   5.102   5.272   1.977
 7316SOL     OW22846   3.467   3.309   6.658
 7316SOL    HW122847   3.390   3.353   6.704
 7316SOL    HW222848   3.506   3.240   6.719
 7317SOL     OW22849   4.190   1.699   1.403
 7317SOL    HW122850   4.247   1.779   1.419
 7317SOL    HW222851   4.223   1.650   1.321
 7318SOL     OW22852   3.212   0.514   1.998
 7318SOL    HW122853   3.126   0.552   1.965
 7318SOL    HW222854   3.267   0.483   1.920
 7319SOL     OW22855   6.332   3.777   6.865
 7319SOL    HW122856   6.421   3.817   6.885
 7319SOL    HW222857   6.344   3.683   6.832
 7320SOL     OW22858   0.800   4.031   2.179
 7320SOL    HW122859   0.730   4.008   2.111
 7320SOL    HW222860   0.777   4.118   2.223
 7321SOL     OW22861   1.954   6.501   5.923
 7321SOL    HW122862   1.951   6.533   6.017
 7321SOL    HW222863   2.006   6.566   5.867
 7322SOL     OW22864   6.446   2.909   2.988
 7322SOL    HW122865   6.502   2.907   2.905
 7322SOL    HW222866   6.428   2.816   3.019
 7323SOL     OW22867   2.144   2.868   1.601
 7323SOL    HW122868   2.214   2.798   1.582
 7323SOL    HW222869   2.168   2.915   1.686
 7324SOL     OW22870   5.403   5.446   1.455
 7324SOL    HW122871   5.477   5.391   1.493
 7324SOL    HW222872   5.351   5.391   1.389
 7325SOL     OW22873   2.281   0.198   6.273
 7325SOL    HW122874   2.242   0.285   6.243
 7325SOL    HW222875   2.291   0.137   6.195
 7326SOL     OW22876   3.350   6.000   6.515
 7326SOL    HW122877   3.409   6.047   6.450
 7326SOL    HW222878   3.254   6.016   6.492
 7327SOL     OW22879   6.168   2.271   6.066
 7327SOL    HW122880   6.193   2.363   6.097
 7327SOL    HW222881   6.228   2.243   5.991
 7328SOL     OW22882   4.523   7.005   6.685
 7328SOL    HW122883   4.508   0.054   6.616
 7328SOL    HW222884   4.441   6.993   6.740
 7329SOL     OW22885   0.935   4.205   0.413
 7329SOL    HW122886   0.933   4.281   0.348
 7329SOL    HW222887   0.956   4.120   0.364
 7330SOL     OW22888   1.649   3.144   0.187
 7330SOL    HW122889   1.654   3.122   0.284
 7330SOL    HW222890   1.615   3.065   0.136
 7331SOL     OW22891   5.581   6.536   1.219
 7331SOL    HW122892   5.537   6.621   1.248
 7331SOL    HW222893   5.518   6.460   1.229
 7332SOL     OW22894   3.300   5.399   6.967
 7332SOL    HW122895   3.271   5.489   6.935
 7332SOL    HW222896   3.253   5.377   0.030
 7333SOL     OW22897   6.117   3.144   3.663
 7333SOL    HW122898   6.205   3.189   3.646
 7333SOL    HW222899   6.105   3.131   3.761
 7334SOL     OW22900   2.074   6.265   6.178
 7334SOL    HW122901   2.128   6.334   6.226
 7334SOL    HW222902   2.110   6.174   6.199
 7335SOL     OW22903   0.449   2.365   3.271
 7335SOL    HW122904   0.352   2.347   3.257
 7335SOL    HW222905   0.481   2.432   3.205
 7336SOL     OW22906   2.437   6.786   2.509
 7336SOL    HW122907   2.442   6.691   2.479
 7336SOL    HW222908   2.362   6.832   2.462
 7337SOL     OW22909   1.180   2.595   2.178
 7337SOL    HW122910   1.159   2.684   2.217
 7337SOL    HW222911   1.097   2.555   2.139
 7338SOL     OW22912   4.920   1.594   1.839
 7338SOL    HW122913   4.820   1.586   1.847
 7338SOL    HW222914   4.948   1.561   1.749
 7339SOL     OW22915   6.156   0.569   4.909
 7339SOL    HW122916   6.168   0.486   4.853
 7339SOL    HW222917   6.244   0.597   4.946
 7340SOL     OW22918   2.987   1.415   0.063
 7340SOL    HW122919   2.904   1.466   0.038
 7340SOL    HW222920   2.984   1.392   0.160
 7341SOL     OW22921   0.589   4.385   5.158
 7341SOL    HW122922   0.684   4.353   5.159
 7341SOL    HW222923   0.558   4.394   5.063
 7342SOL     OW22924   0.589   0.125   6.219
 7342SOL    HW122925   0.540   0.068   6.285
 7342SOL    HW222926   0.687   0.122   6.239
 7343SOL     OW22927   5.964   4.360   1.920
 7343SOL    HW122928   5.947   4.311   1.834
 7343SOL    HW222929   5.879   4.370   1.970
 7344SOL     OW22930   0.901   0.877   5.948
 7344SOL    HW122931   0.921   0.932   6.029
 7344SOL    HW222932   0.804   0.882   5.926
 7345SOL     OW22933   4.949   5.795   5.321
 7345SOL    HW122934   4.880   5.722   5.316
 7345SOL    HW222935   5.000   5.786   5.407
 7346SOL     OW22936   4.986   4.553   1.225
 7346SOL    HW122937   5.023   4.608   1.300
 7346SOL    HW222938   4.947   4.469   1.262
 7347SOL     OW22939   0.515   3.124   1.022
 7347SOL    HW122940   0.589   3.088   1.079
 7347SOL    HW222941   0.438   3.149   1.080
 7348SOL     OW22942   1.416   4.027   3.641
 7348SOL    HW122943   1.413   4.125   3.659
 7348SOL    HW222944   1.325   3.994   3.617
 7349SOL     OW22945   5.043   1.951   0.773
 7349SOL    HW122946   4.974   1.914   0.711
 7349SOL    HW222947   5.033   1.910   0.863
 7350SOL     OW22948   1.518   3.364   5.687
 7350SOL    HW122949   1.543   3.422   5.609
 7350SOL    HW222950   1.420   3.342   5.682
 7351SOL     OW22951   4.960   6.554   5.118
 7351SOL    HW122952   4.861   6.566   5.108
 7351SOL    HW222953   4.979   6.473   5.173
 7352SOL     OW22954   2.182   2.399   3.570
 7352SOL    HW122955   2.199   2.384   3.667
 7352SOL    HW222956   2.239   2.336   3.516
 7353SOL     OW22957   1.141   0.374   6.043
 7353SOL    HW122958   1.070   0.436   6.009
 7353SOL    HW222959   1.162   0.306   5.973
 7354SOL     OW22960   0.207   1.714   6.250
 7354SOL    HW122961   0.188   1.663   6.334
 7354SOL    HW222962   0.138   1.692   6.182
 7355SOL     OW22963   1.768   1.236   0.732
 7355SOL    HW122964   1.753   1.196   0.641
 7355SOL    HW222965   1.789   1.163   0.797
 7356SOL     OW22966   3.905   3.547   6.050
 7356SOL    HW122967   3.956   3.573   6.132
 7356SOL    HW222968   3.819   3.503   6.076
 7357SOL     OW22969   4.784   6.277   1.645
 7357SOL    HW122970   4.783   6.223   1.561
 7357SOL    HW222971   4.706   6.252   1.702
 7358SOL     OW22972   6.203   3.499   2.909
 7358SOL    HW122973   6.160   3.410   2.894
 7358SOL    HW222974   6.244   3.502   3.000
 7359SOL     OW22975   2.442   2.021   6.250
 7359SOL    HW122976   2.521   2.057   6.200
 7359SOL    HW222977   2.371   2.091   6.255
 7360SOL     OW22978   3.567   4.179   5.500
 7360SOL    HW122979   3.602   4.203   5.590
 7360SOL    HW222980   3.597   4.246   5.433
 7361SOL     OW22981   4.497   0.242   1.575
 7361SOL    HW122982   4.513   0.234   1.673
 7361SOL    HW222983   4.524   0.156   1.530
 7362SOL     OW22984   1.384   4.793   4.694
 7362SOL    HW122985   1.298   4.774   4.645
 7362SOL    HW222986   1.445   4.715   4.684
 7363SOL     OW22987   4.340   1.731   1.124
 7363SOL    HW122988   4.253   1.702   1.084
 7363SOL    HW222989   4.346   1.831   1.124
 7364SOL     OW22990   4.628   1.144   1.549
 7364SOL    HW122991   4.538   1.105   1.568
 7364SOL    HW222992   4.617   1.240   1.523
 7365SOL     OW22993   1.338   6.303   1.940
 7365SOL    HW122994   1.326   6.242   2.018
 7365SOL    HW222995   1.412   6.368   1.958
 7366SOL     OW22996   1.974   5.699   6.940
 7366SOL    HW122997   2.007   5.607   6.918
 7366SOL    HW222998   2.011   5.764   6.875
 7367SOL     OW22999   4.851   3.134   1.057
 7367SOL    HW123000   4.866   3.073   1.135
 7367SOL    HW223001   4.813   3.220   1.090
 7368SOL     OW23002   3.792   2.945   3.075
 7368SOL    HW123003   3.870   3.003   3.053
 7368SOL    HW223004   3.774   2.949   3.174
 7369SOL     OW23005   3.836   3.164   6.548
 7369SOL    HW123006   3.842   3.195   6.642
 7369SOL    HW223007   3.919   3.114   6.523
 7370SOL     OW23008   2.333   0.929   4.395
 7370SOL    HW123009   2.311   0.892   4.305
 7370SOL    HW223010   2.431   0.914   4.413
 7371SOL     OW23011   2.110   6.256   3.742
 7371SOL    HW123012   2.047   6.251   3.819
 7371SOL    HW223013   2.160   6.169   3.733
 7372SOL     OW23014   4.200   1.222   5.076
 7372SOL    HW123015   4.261   1.292   5.038
 7372SOL    HW223016   4.110   1.229   5.033
 7373SOL     OW23017   6.128   1.842   4.563
 7373SOL    HW123018   6.133   1.771   4.633
 7373SOL    HW223019   6.102   1.929   4.605
 7374SOL     OW23020   2.612   1.488   5.241
 7374SOL    HW123021   2.684   1.445   5.186
 7374SOL    HW223022   2.548   1.536   5.181
 7375SOL     OW23023   2.164   3.608   3.469
 7375SOL    HW123024   2.220   3.567   3.398
 7375SOL    HW223025   2.134   3.538   3.534
 7376SOL     OW23026   2.920   1.353   0.346
 7376SOL    HW123027   2.838   1.373   0.400
 7376SOL    HW223028   2.990   1.314   0.405
 7377SOL     OW23029   5.835   4.402   0.783
 7377SOL    HW123030   5.807   4.441   0.695
 7377SOL    HW223031   5.883   4.315   0.768
 7378SOL     OW23032   0.082   1.223   6.078
 7378SOL    HW123033   0.088   1.124   6.094
 7378SOL    HW223034   0.171   1.257   6.049
 7379SOL     OW23035   3.543   1.202   3.116
 7379SOL    HW123036   3.489   1.119   3.125
 7379SOL    HW223037   3.622   1.197   3.177
 7380SOL     OW23038   6.930   3.943   4.888
 7380SOL    HW123039   6.847   3.910   4.842
 7380SOL    HW223040   7.004   3.951   4.821
 7381SOL     OW23041   4.443   3.933   1.698
 7381SOL    HW123042   4.461   3.953   1.602
 7381SOL    HW223043   4.430   4.019   1.748
 7382SOL     OW23044   6.934   5.715   6.324
 7382SOL    HW123045   6.864   5.743   6.390
 7382SOL    HW223046   6.929   5.616   6.311
 7383SOL     OW23047   1.141   0.078   1.385
 7383SOL    HW123048   1.239   0.089   1.365
 7383SOL    HW223049   1.122   0.111   1.477
 7384SOL     OW23050   5.563   0.625   3.540
 7384SOL    HW123051   5.538   0.580   3.455
 7384SOL    HW223052   5.512   0.711   3.549
 7385SOL     OW23053   4.110   5.830   1.761
 7385SOL    HW123054   4.176   5.858   1.830
 7385SOL    HW223055   4.158   5.812   1.675
 7386SOL     OW23056   0.497   2.232   5.779
 7386SOL    HW123057   0.485   2.157   5.845
 7386SOL    HW223058   0.421   2.297   5.789
 7387SOL     OW23059   4.977   6.138   4.441
 7387SOL    HW123060   4.963   6.065   4.508
 7387SOL    HW223061   5.014   6.219   4.487
 7388SOL     OW23062   0.281   5.148   2.567
 7388SOL    HW123063   0.359   5.176   2.512
 7388SOL    HW223064   0.213   5.221   2.569
 7389SOL     OW23065   0.168   3.678   6.695
 7389SOL    HW123066   0.233   3.662   6.621
 7389SOL    HW223067   0.189   3.616   6.771
 7390SOL     OW23068   1.298   1.733   0.014
 7390SOL    HW123069   1.323   1.764   6.945
 7390SOL    HW223070   1.228   1.794   0.052
 7391SOL     OW23071   3.990   3.138   4.781
 7391SOL    HW123072   3.974   3.183   4.693
 7391SOL    HW223073   4.065   3.184   4.829
 7392SOL     OW23074   2.839   5.966   0.191
 7392SOL    HW123075   2.854   5.877   0.148
 7392SOL    HW223076   2.801   5.953   0.283
 7393SOL     OW23077   5.822   4.998   2.586
 7393SOL    HW123078   5.781   5.008   2.676
 7393SOL    HW223079   5.922   5.007   2.593
 7394SOL     OW23080   2.615   2.472   5.745
 7394SOL    HW123081   2.671   2.390   5.733
 7394SOL    HW223082   2.561   2.487   5.663
 7395SOL     OW23083   1.238   2.376   6.904
 7395SOL    HW123084   1.140   2.397   6.908
 7395SOL    HW223085   1.260   2.308   6.974
 7396SOL     OW23086   0.932   0.078   0.624
 7396SOL    HW123087   0.842   0.097   0.584
 7396SOL    HW223088   0.925   0.003   0.690
 7397SOL     OW23089   4.472   5.372   4.676
 7397SOL    HW123090   4.422   5.314   4.741
 7397SOL    HW223091   4.553   5.409   4.720
 7398SOL     OW23092   2.422   5.069   4.272
 7398SOL    HW123093   2.452   4.994   4.331
 7398SOL    HW223094   2.496   5.136   4.264
 7399SOL     OW23095   0.980   2.136   5.312
 7399SOL    HW123096   0.949   2.140   5.217
 7399SOL    HW223097   0.947   2.217   5.361
 7400SOL     OW23098   4.162   2.528   5.754
 7400SOL    HW123099   4.129   2.443   5.712
 7400SOL    HW223100   4.093   2.599   5.743
 7401SOL     OW23101   1.338   1.412   4.805
 7401SOL    HW123102   1.408   1.370   4.862
 7401SOL    HW223103   1.259   1.437   4.862
 7402SOL     OW23104   2.868   5.940   6.184
 7402SOL    HW123105   2.867   5.843   6.208
 7402SOL    HW223106   2.775   5.970   6.162
 7403SOL     OW23107   2.304   4.081   2.128
 7403SOL    HW123108   2.385   4.024   2.137
 7403SOL    HW223109   2.271   4.078   2.034
 7404SOL     OW23110   2.506   5.295   1.578
 7404SOL    HW123111   2.571   5.332   1.512
 7404SOL    HW223112   2.447   5.369   1.612
 7405SOL     OW23113   3.417   4.891   4.224
 7405SOL    HW123114   3.438   4.904   4.321
 7405SOL    HW223115   3.493   4.843   4.180
 7406SOL     OW23116   0.263   2.521   3.124
 7406SOL    HW123117   0.297   2.595   3.067
 7406SOL    HW223118   0.163   2.526   3.131
 7407SOL     OW23119   1.029   6.827   4.334
 7407SOL    HW123120   1.055   6.731   4.321
 7407SOL    HW223121   1.112   6.882   4.344
 7408SOL     OW23122   3.167   4.184   6.770
 7408SOL    HW123123   3.221   4.265   6.750
 7408SOL    HW223124   3.075   4.211   6.798
 7409SOL     OW23125   6.651   2.122   6.504
 7409SOL    HW123126   6.564   2.097   6.461
 7409SOL    HW223127   6.720   2.053   6.481
 7410SOL     OW23128   0.412   6.765   0.290
 7410SOL    HW123129   0.496   6.792   0.338
 7410SOL    HW223130   0.336   6.763   0.355
 7411SOL     OW23131   2.511   0.391   5.517
 7411SOL    HW123132   2.478   0.426   5.430
 7411SOL    HW223133   2.433   0.369   5.576
 7412SOL     OW23134   4.771   6.763   2.039
 7412SOL    HW123135   4.717   6.755   1.956
 7412SOL    HW223136   4.714   6.798   2.113
 7413SOL     OW23137   4.960   5.805   4.155
 7413SOL    HW123138   4.935   5.712   4.130
 7413SOL    HW223139   4.895   5.870   4.115
 7414SOL     OW23140   0.034   0.679   3.912
 7414SOL    HW123141   6.993   0.740   3.864
 7414SOL    HW223142   0.050   0.597   3.857
 7415SOL     OW23143   1.997   4.693   4.499
 7415SOL    HW123144   1.907   4.650   4.500
 7415SOL    HW223145   2.023   4.718   4.592
 7416SOL     OW23146   2.057   1.238   3.193
 7416SOL    HW123147   2.085   1.230   3.289
 7416SOL    HW223148   2.104   1.316   3.152
 7417SOL     OW23149   1.700   0.500   0.243
 7417SOL    HW123150   1.604   0.527   0.247
 7417SOL    HW223151   1.732   0.480   0.336
 7418SOL     OW23152   3.088   5.783   1.005
 7418SOL    HW123153   3.038   5.712   1.054
 7418SOL    HW223154   3.128   5.745   0.922
 7419SOL     OW23155   5.798   2.710   4.886
 7419SOL    HW123156   5.703   2.728   4.858
 7419SOL    HW223157   5.830   2.785   4.944
 7420SOL     OW23158   0.523   6.711   1.576
 7420SOL    HW123159   0.553   6.628   1.625
 7420SOL    HW223160   0.540   6.791   1.633
 7421SOL     OW23161   3.808   4.258   0.647
 7421SOL    HW123162   3.862   4.315   0.709
 7421SOL    HW223163   3.831   4.280   0.552
 7422SOL     OW23164   6.959   3.067   2.840
 7422SOL    HW123165   0.005   3.140   2.829
 7422SOL    HW223166   6.935   3.058   2.937
 7423SOL     OW23167   5.797   4.189   5.353
 7423SOL    HW123168   5.738   4.207   5.431
 7423SOL    HW223169   5.743   4.194   5.269
 7424SOL     OW23170   6.858   6.856   5.901
 7424SOL    HW123171   6.810   6.812   5.977
 7424SOL    HW223172   6.817   6.945   5.883
 7425SOL     OW23173   4.061   5.473   6.712
 7425SOL    HW123174   4.014   5.513   6.791
 7425SOL    HW223175   4.160   5.477   6.728
 7426SOL     OW23176   2.891   1.428   5.633
 7426SOL    HW123177   2.938   1.438   5.721
 7426SOL    HW223178   2.845   1.339   5.630
 7427SOL     OW23179   4.204   0.446   3.771
 7427SOL    HW123180   4.210   0.476   3.867
 7427SOL    HW223181   4.225   0.523   3.711
 7428SOL     OW23182   4.276   1.666   5.869
 7428SOL    HW123183   4.236   1.712   5.948
 7428SOL    HW223184   4.334   1.730   5.819
 7429SOL     OW23185   0.547   6.757   4.162
 7429SOL    HW123186   0.632   6.785   4.206
 7429SOL    HW223187   0.471   6.806   4.203
 7430SOL     OW23188   1.151   2.478   0.246
 7430SOL    HW123189   1.247   2.475   0.218
 7430SOL    HW223190   1.093   2.447   0.171
 7431SOL     OW23191   1.479   3.050   3.193
 7431SOL    HW123192   1.412   2.977   3.179
 7431SOL    HW223193   1.540   3.026   3.269
 7432SOL     OW23194   1.120   0.769   2.966
 7432SOL    HW123195   1.077   0.853   2.998
 7432SOL    HW223196   1.086   0.691   3.019
 7433SOL     OW23197   4.750   5.929   6.055
 7433SOL    HW123198   4.671   5.982   6.025
 7433SOL    HW223199   4.834   5.971   6.020
 7434SOL     OW23200   5.491   5.755   5.961
 7434SOL    HW123201   5.408   5.798   5.999
 7434SOL    HW223202   5.545   5.717   6.036
 7435SOL     OW23203   4.159   5.451   0.414
 7435SOL    HW123204   4.069   5.412   0.393
 7435SOL    HW223205   4.169   5.458   0.513
 7436SOL     OW23206   5.625   3.706   6.090
 7436SOL    HW123207   5.680   3.715   6.172
 7436SOL    HW223208   5.678   3.660   6.018
 7437SOL     OW23209   1.350   6.141   6.926
 7437SOL    HW123210   1.449   6.141   6.933
 7437SOL    HW223211   1.310   6.096   7.006
 7438SOL     OW23212   1.547   6.025   6.586
 7438SOL    HW123213   1.502   6.096   6.532
 7438SOL    HW223214   1.606   6.067   6.655
 7439SOL     OW23215   1.868   5.753   5.806
 7439SOL    HW123216   1.772   5.761   5.780
 7439SOL    HW223217   1.913   5.842   5.796
 7440SOL     OW23218   0.272   3.468   3.949
 7440SOL    HW123219   0.208   3.511   3.885
 7440SOL    HW223220   0.330   3.403   3.899
 7441SOL     OW23221   5.570   6.264   3.871
 7441SOL    HW123222   5.534   6.204   3.799
 7441SOL    HW223223   5.615   6.208   3.941
 7442SOL     OW23224   6.337   0.980   5.975
 7442SOL    HW123225   6.350   1.003   6.071
 7442SOL    HW223226   6.305   0.886   5.967
 7443SOL     OW23227   6.985   6.604   1.828
 7443SOL    HW123228   0.018   6.662   1.888
 7443SOL    HW223229   6.969   6.516   1.873
 7444SOL     OW23230   5.390   2.634   5.599
 7444SOL    HW123231   5.335   2.656   5.680
 7444SOL    HW223232   5.486   2.649   5.619
 7445SOL     OW23233   3.642   0.644   1.133
 7445SOL    HW123234   3.616   0.624   1.228
 7445SOL    HW223235   3.635   0.742   1.117
 7446SOL     OW23236   5.655   3.128   0.629
 7446SOL    HW123237   5.750   3.140   0.655
 7446SOL    HW223238   5.625   3.207   0.576
 7447SOL     OW23239   0.415   3.563   6.526
 7447SOL    HW123240   0.472   3.567   6.444
 7447SOL    HW223241   0.405   3.468   6.556
 7448SOL     OW23242   6.446   6.113   5.416
 7448SOL    HW123243   6.353   6.100   5.451
 7448SOL    HW223244   6.512   6.089   5.487
 7449SOL     OW23245   0.315   3.801   1.953
 7449SOL    HW123246   0.350   3.730   2.014
 7449SOL    HW223247   0.215   3.801   1.956
 7450SOL     OW23248   5.359   2.424   4.530
 7450SOL    HW123249   5.273   2.417   4.479
 7450SOL    HW223250   5.432   2.454   4.470
 7451SOL     OW23251   6.896   6.956   3.102
 7451SOL    HW123252   6.861   6.872   3.143
 7451SOL    HW223253   6.888   6.951   3.003
 7452SOL     OW23254   0.472   6.579   4.634
 7452SOL    HW123255   0.413   6.531   4.570
 7452SOL    HW223256   0.568   6.564   4.609
 7453SOL     OW23257   4.962   0.137   6.051
 7453SOL    HW123258   4.952   0.233   6.025
 7453SOL    HW223259   5.008   0.132   6.140
 7454SOL     OW23260   0.261   2.159   2.355
 7454SOL    HW123261   0.222   2.082   2.305
 7454SOL    HW223262   0.218   2.166   2.445
 7455SOL     OW23263   6.850   1.642   2.517
 7455SOL    HW123264   6.819   1.721   2.464
 7455SOL    HW223265   6.774   1.577   2.526
 7456SOL     OW23266   1.102   1.690   4.261
 7456SOL    HW123267   1.106   1.746   4.343
 7456SOL    HW223268   1.153   1.605   4.276
 7457SOL     OW23269   3.795   0.386   5.995
 7457SOL    HW123270   3.859   0.434   6.054
 7457SOL    HW223271   3.702   0.397   6.031
 7458SOL     OW23272   1.615   6.601   5.676
 7458SOL    HW123273   1.545   6.654   5.629
 7458SOL    HW223274   1.576   6.558   5.757
 7459SOL     OW23275   4.667   0.398   2.112
 7459SOL    HW123276   4.746   0.409   2.172
 7459SOL    HW223277   4.664   0.474   2.047
 7460SOL     OW23278   1.006   5.345   0.850
 7460SOL    HW123279   1.097   5.336   0.891
 7460SOL    HW223280   0.997   5.436   0.809
 7461SOL     OW23281   5.697   1.404   6.150
 7461SOL    HW123282   5.749   1.460   6.214
 7461SOL    HW223283   5.735   1.415   6.058
 7462SOL     OW23284   2.233   4.022   2.600
 7462SOL    HW123285   2.223   4.100   2.539
 7462SOL    HW223286   2.234   3.937   2.547
 7463SOL     OW23287   2.453   4.410   0.720
 7463SOL    HW123288   2.511   4.397   0.639
 7463SOL    HW223289   2.393   4.331   0.732
 7464SOL     OW23290   5.073   0.626   6.612
 7464SOL    HW123291   5.007   0.647   6.540
 7464SOL    HW223292   5.071   0.529   6.632
 7465SOL     OW23293   1.349   5.810   6.926
 7465SOL    HW123294   1.322   5.827   6.832
 7465SOL    HW223295   1.317   5.884   6.985
 7466SOL     OW23296   6.731   0.766   5.487
 7466SOL    HW123297   6.672   0.686   5.487
 7466SOL    HW223298   6.797   0.759   5.563
 7467SOL     OW23299   0.380   1.376   1.148
 7467SOL    HW123300   0.379   1.426   1.061
 7467SOL    HW223301   0.288   1.374   1.186
 7468SOL     OW23302   5.740   2.966   3.500
 7468SOL    HW123303   5.837   2.943   3.509
 7468SOL    HW223304   5.695   2.899   3.441
 7469SOL     OW23305   0.242   1.128   0.804
 7469SOL    HW123306   0.187   1.199   0.847
 7469SOL    HW223307   0.190   1.042   0.803
 7470SOL     OW23308   6.249   3.404   3.843
 7470SOL    HW123309   6.242   3.309   3.874
 7470SOL    HW223310   6.210   3.465   3.913
 7471SOL     OW23311   5.717   6.466   6.398
 7471SOL    HW123312   5.725   6.367   6.404
 7471SOL    HW223313   5.792   6.502   6.341
 7472SOL     OW23314   6.753   0.027   4.782
 7472SOL    HW123315   6.843   0.021   4.825
 7472SOL    HW223316   6.686   7.000   4.838
 7473SOL     OW23317   5.914   4.911   3.508
 7473SOL    HW123318   5.976   4.981   3.473
 7473SOL    HW223319   5.900   4.923   3.606
 7474SOL     OW23320   1.035   1.668   5.335
 7474SOL    HW123321   0.994   1.732   5.271
 7474SOL    HW223322   1.080   1.718   5.409
 7475SOL     OW23323   4.884   2.150   2.340
 7475SOL    HW123324   4.799   2.198   2.358
 7475SOL    HW223325   4.890   2.127   2.243
 7476SOL     OW23326   3.420   0.471   4.014
 7476SOL    HW123327   3.379   0.561   4.002
 7476SOL    HW223328   3.475   0.448   3.934
 7477SOL     OW23329   0.191   0.938   5.143
 7477SOL    HW123330   0.238   0.865   5.192
 7477SOL    HW223331   0.154   1.004   5.208
 7478SOL     OW23332   5.014   5.051   6.211
 7478SOL    HW123333   5.007   4.966   6.264
 7478SOL    HW223334   4.928   5.103   6.220
 7479SOL     OW23335   4.470   2.482   1.927
 7479SOL    HW123336   4.464   2.553   1.856
 7479SOL    HW223337   4.379   2.445   1.944
 7480SOL     OW23338   0.349   4.260   2.270
 7480SOL    HW123339   0.318   4.224   2.182
 7480SOL    HW223340   0.322   4.356   2.278
 7481SOL     OW23341   6.231   5.534   1.401
 7481SOL    HW123342   6.315   5.486   1.375
 7481SOL    HW223343   6.253   5.626   1.432
 7482SOL     OW23344   4.877   2.805   3.022
 7482SOL    HW123345   4.833   2.752   2.949
 7482SOL    HW223346   4.812   2.818   3.096
 7483SOL     OW23347   4.593   2.544   4.444
 7483SOL    HW123348   4.517   2.495   4.487
 7483SOL    HW223349   4.678   2.524   4.492
 7484SOL     OW23350   1.613   6.917   4.300
 7484SOL    HW123351   1.603   6.822   4.331
 7484SOL    HW223352   1.693   6.925   4.242
 7485SOL     OW23353   3.495   0.024   4.591
 7485SOL    HW123354   3.565   6.995   4.642
 7485SOL    HW223355   3.493   0.118   4.623
 7486SOL     OW23356   2.004   6.705   0.642
 7486SOL    HW123357   2.061   6.671   0.567
 7486SOL    HW223358   2.055   6.772   0.696
 7487SOL     OW23359   2.020   6.732   3.340
 7487SOL    HW123360   2.098   6.752   3.398
 7487SOL    HW223361   1.937   6.728   3.395
 7488SOL     OW23362   2.592   0.053   3.518
 7488SOL    HW123363   2.674   0.009   3.482
 7488SOL    HW223364   2.526   0.065   3.444
 7489SOL     OW23365   4.965   2.776   5.593
 7489SOL    HW123366   4.926   2.794   5.683
 7489SOL    HW223367   4.988   2.679   5.585
 7490SOL     OW23368   1.355   0.776   2.269
 7490SOL    HW123369   1.279   0.766   2.333
 7490SOL    HW223370   1.346   0.708   2.196
 7491SOL     OW23371   5.336   2.366   6.332
 7491SOL    HW123372   5.373   2.408   6.415
 7491SOL    HW223373   5.274   2.430   6.287
 7492SOL     OW23374   1.961   0.547   3.238
 7492SOL    HW123375   1.910   0.575   3.156
 7492SOL    HW223376   1.984   0.450   3.231
 7493SOL     OW23377   0.582   3.815   6.689
 7493SOL    HW123378   0.521   3.826   6.611
 7493SOL    HW223379   0.529   3.799   6.772
 7494SOL     OW23380   5.526   1.239   2.673
 7494SOL    HW123381   5.516   1.206   2.579
 7494SOL    HW223382   5.588   1.179   2.723
 7495SOL     OW23383   1.900   2.092   6.635
 7495SOL    HW123384   1.897   2.191   6.645
 7495SOL    HW223385   1.834   2.050   6.698
 7496SOL     OW23386   6.231   3.514   5.109
 7496SOL    HW123387   6.173   3.437   5.081
 7496SOL    HW223388   6.198   3.598   5.065
 7497SOL     OW23389   2.732   4.423   6.285
 7497SOL    HW123390   2.755   4.408   6.188
 7497SOL    HW223391   2.784   4.501   6.320
 7498SOL     OW23392   3.285   0.568   5.431
 7498SOL    HW123393   3.356   0.618   5.380
 7498SOL    HW223394   3.240   0.504   5.369
 7499SOL     OW23395   3.286   1.405   2.827
 7499SOL    HW123396   3.275   1.307   2.811
 7499SOL    HW223397   3.380   1.432   2.804
 7500SOL     OW23398   3.354   5.575   3.098
 7500SOL    HW123399   3.413   5.655   3.084
 7500SOL    HW223400   3.346   5.524   3.013
 7501SOL     OW23401   5.277   4.138   5.104
 7501SOL    HW123402   5.233   4.066   5.158
 7501SOL    HW223403   5.300   4.215   5.164
 7502SOL     OW23404   2.923   0.628   4.194
 7502SOL    HW123405   2.868   0.710   4.209
 7502SOL    HW223406   3.015   0.655   4.164
 7503SOL     OW23407   1.993   0.330   1.524
 7503SOL    HW123408   2.073   0.381   1.555
 7503SOL    HW223409   1.998   0.236   1.559
 7504SOL     OW23410   1.280   7.009   3.248
 7504SOL    HW123411   1.248   0.068   3.199
 7504SOL    HW223412   1.374   0.003   3.280
 7505SOL     OW23413   1.646   2.312   5.569
 7505SOL    HW123414   1.675   2.394   5.519
 7505SOL    HW223415   1.669   2.231   5.515
 7506SOL     OW23416   5.458   0.793   3.230
 7506SOL    HW123417   5.496   0.704   3.256
 7506SOL    HW223418   5.434   0.793   3.133
 7507SOL     OW23419   0.434   1.365   2.317
 7507SOL    HW123420   0.487   1.376   2.232
 7507SOL    HW223421   0.421   1.455   2.359
 7508SOL     OW23422   1.129   6.922   1.756
 7508SOL    HW123423   1.110   6.850   1.689
 7508SOL    HW223424   1.068   6.999   1.741
 7509SOL     OW23425   5.964   4.674   0.627
 7509SOL    HW123426   5.968   4.644   0.722
 7509SOL    HW223427   5.936   4.770   0.625
 7510SOL     OW23428   4.113   3.478   5.844
 7510SOL    HW123429   4.165   3.558   5.814
 7510SOL    HW223430   4.060   3.501   5.926
 7511SOL     OW23431   2.356   6.342   3.330
 7511SOL    HW123432   2.263   6.378   3.335
 7511SOL    HW223433   2.403   6.381   3.251
 7512SOL     OW23434   3.154   6.724   6.888
 7512SOL    HW123435   3.209   6.676   6.820
 7512SOL    HW223436   3.213   6.757   6.962
 7513SOL     OW23437   2.291   0.851   1.236
 7513SOL    HW123438   2.351   0.789   1.284
 7513SOL    HW223439   2.296   0.942   1.278
 7514SOL     OW23440   2.565   5.862   1.945
 7514SOL    HW123441   2.635   5.791   1.936
 7514SOL    HW223442   2.526   5.882   1.855
 7515SOL     OW23443   6.807   5.291   3.393
 7515SOL    HW123444   6.868   5.328   3.463
 7515SOL    HW223445   6.776   5.365   3.333
 7516SOL     OW23446   0.035   6.411   5.455
 7516SOL    HW123447   0.016   6.348   5.380
 7516SOL    HW223448   0.127   6.393   5.491
 7517SOL     OW23449   0.388   2.798   0.873
 7517SOL    HW123450   0.467   2.853   0.846
 7517SOL    HW223451   0.418   2.709   0.904
 7518SOL     OW23452   4.378   4.889   3.905
 7518SOL    HW123453   4.366   4.967   3.966
 7518SOL    HW223454   4.424   4.920   3.821
 7519SOL     OW23455   0.340   6.294   3.556
 7519SOL    HW123456   0.363   6.217   3.615
 7519SOL    HW223457   0.259   6.272   3.501
 7520SOL     OW23458   2.467   6.770   2.097
 7520SOL    HW123459   2.524   6.826   2.157
 7520SOL    HW223460   2.373   6.770   2.131
 7521SOL     OW23461   4.742   4.341   6.105
 7521SOL    HW123462   4.786   4.399   6.174
 7521SOL    HW223463   4.725   4.250   6.143
 7522SOL     OW23464   1.762   1.234   6.334
 7522SOL    HW123465   1.822   1.223   6.413
 7522SOL    HW223466   1.790   1.314   6.281
 7523SOL     OW23467   5.932   0.241   5.939
 7523SOL    HW123468   5.957   0.338   5.946
 7523SOL    HW223469   5.860   0.230   5.872
 7524SOL     OW23470   1.336   2.525   5.336
 7524SOL    HW123471   1.259   2.554   5.279
 7524SOL    HW223472   1.311   2.531   5.433
 7525SOL     OW23473   3.776   1.081   6.197
 7525SOL    HW123474   3.745   1.164   6.151
 7525SOL    HW223475   3.790   1.099   6.294
 7526SOL     OW23476   3.195   3.158   1.854
 7526SOL    HW123477   3.135   3.111   1.789
 7526SOL    HW223478   3.140   3.192   1.931
 7527SOL     OW23479   2.829   6.079   3.234
 7527SOL    HW123480   2.903   6.016   3.210
 7527SOL    HW223481   2.742   6.029   3.236
 7528SOL     OW23482   5.948   2.459   0.510
 7528SOL    HW123483   5.881   2.526   0.476
 7528SOL    HW223484   5.928   2.438   0.606
 7529SOL     OW23485   4.862   1.275   4.823
 7529SOL    HW123486   4.800   1.207   4.781
 7529SOL    HW223487   4.876   1.252   4.919
 7530SOL     OW23488   6.962   2.900   2.618
 7530SOL    HW123489   6.949   2.949   2.704
 7530SOL    HW223490   6.951   2.963   2.541
 7531SOL     OW23491   5.188   3.202   4.877
 7531SOL    HW123492   5.165   3.201   4.780
 7531SOL    HW223493   5.168   3.113   4.917
 7532SOL     OW23494   4.717   5.836   6.673
 7532SOL    HW123495   4.762   5.924   6.663
 7532SOL    HW223496   4.746   5.775   6.600
 7533SOL     OW23497   3.258   1.121   1.374
 7533SOL    HW123498   3.211   1.176   1.443
 7533SOL    HW223499   3.269   1.175   1.291
 7534SOL     OW23500   4.598   6.537   5.333
 7534SOL    HW123501   4.547   6.614   5.371
 7534SOL    HW223502   4.690   6.536   5.372
 7535SOL     OW23503   1.828   0.761   5.165
 7535SOL    HW123504   1.808   0.844   5.112
 7535SOL    HW223505   1.766   0.688   5.138
 7536SOL     OW23506   4.663   4.778   4.754
 7536SOL    HW123507   4.582   4.736   4.793
 7536SOL    HW223508   4.637   4.860   4.702
 7537SOL     OW23509   3.182   5.452   1.721
 7537SOL    HW123510   3.208   5.369   1.771
 7537SOL    HW223511   3.215   5.532   1.770
 7538SOL     OW23512   1.668   2.795   1.574
 7538SOL    HW123513   1.677   2.873   1.636
 7538SOL    HW223514   1.572   2.782   1.550
 7539SOL     OW23515   1.854   3.989   3.984
 7539SOL    HW123516   1.787   3.916   3.972
 7539SOL    HW223517   1.946   3.951   3.976
 7540SOL     OW23518   4.182   0.727   4.541
 7540SOL    HW123519   4.111   0.692   4.602
 7540SOL    HW223520   4.270   0.685   4.565
 7541SOL     OW23521   0.355   4.655   4.993
 7541SOL    HW123522   0.401   4.687   5.076
 7541SOL    HW223523   0.375   4.718   4.917
 7542SOL     OW23524   1.181   5.058   6.757
 7542SOL    HW123525   1.258   5.121   6.766
 7542SOL    HW223526   1.198   4.993   6.683
 7543SOL     OW23527   4.147   2.193   6.417
 7543SOL    HW123528   4.096   2.278   6.405
 7543SOL    HW223529   4.159   2.175   6.515
 7544SOL     OW23530   6.861   2.239   2.799
 7544SOL    HW123531   6.858   2.142   2.826
 7544SOL    HW223532   6.953   2.275   2.818
 7545SOL     OW23533   0.506   5.693   0.210
 7545SOL    HW123534   0.494   5.750   0.129
 7545SOL    HW223535   0.429   5.630   0.218
 7546SOL     OW23536   3.699   2.377   1.588
 7546SOL    HW123537   3.603   2.378   1.559
 7546SOL    HW223538   3.703   2.368   1.688
 7547SOL     OW23539   5.045   2.040   0.358
 7547SOL    HW123540   5.000   2.011   0.274
 7547SOL    HW223541   4.985   2.101   0.410
 7548SOL     OW23542   4.711   1.428   6.672
 7548SOL    HW123543   4.760   1.341   6.670
 7548SOL    HW223544   4.758   1.494   6.614
 7549SOL     OW23545   4.214   2.938   0.056
 7549SOL    HW123546   4.273   2.864   0.024
 7549SOL    HW223547   4.227   2.952   0.154
 7550SOL     OW23548   2.373   5.224   2.720
 7550SOL    HW123549   2.337   5.144   2.767
 7550SOL    HW223550   2.454   5.198   2.667
 7551SOL     OW23551   5.265   3.587   6.529
 7551SOL    HW123552   5.288   3.670   6.479
 7551SOL    HW223553   5.177   3.600   6.576
 7552SOL     OW23554   1.399   6.256   2.930
 7552SOL    HW123555   1.375   6.289   2.838
 7552SOL    HW223556   1.497   6.236   2.933
 7553SOL     OW23557   4.552   6.393   5.699
 7553SOL    HW123558   4.620   6.332   5.660
 7553SOL    HW223559   4.596   6.462   5.756
 7554SOL     OW23560   4.488   1.090   0.213
 7554SOL    HW123561   4.584   1.116   0.207
 7554SOL    HW223562   4.438   1.159   0.265
 7555SOL     OW23563   2.309   4.712   6.001
 7555SOL    HW123564   2.375   4.693   6.074
 7555SOL    HW223565   2.321   4.645   5.927
 7556SOL     OW23566   2.030   3.171   0.570
 7556SOL    HW123567   2.073   3.254   0.606
 7556SOL    HW223568   2.093   3.094   0.579
 7557SOL     OW23569   5.182   1.099   5.546
 7557SOL    HW123570   5.133   1.117   5.632
 7557SOL    HW223571   5.116   1.079   5.474
 7558SOL     OW23572   1.397   2.344   3.984
 7558SOL    HW123573   1.447   2.358   3.898
 7558SOL    HW223574   1.314   2.401   3.984
 7559SOL     OW23575   5.461   3.666   0.616
 7559SOL    HW123576   5.393   3.718   0.667
 7559SOL    HW223577   5.450   3.683   0.518
 7560SOL     OW23578   5.587   6.942   1.060
 7560SOL    HW123579   5.572   6.857   1.010
 7560SOL    HW223580   5.501   6.994   1.065
 7561SOL     OW23581   0.919   3.136   6.810
 7561SOL    HW123582   0.997   3.154   6.750
 7561SOL    HW223583   0.850   3.207   6.796
 7562SOL     OW23584   0.204   5.693   4.076
 7562SOL    HW123585   0.112   5.731   4.081
 7562SOL    HW223586   0.230   5.658   4.166
 7563SOL     OW23587   3.012   0.008   1.612
 7563SOL    HW123588   2.939   0.069   1.643
 7563SOL    HW223589   3.093   0.022   1.669
 7564SOL     OW23590   4.280   6.967   2.785
 7564SOL    HW123591   4.346   0.019   2.771
 7564SOL    HW223592   4.196   7.005   2.823
 7565SOL     OW23593   5.613   2.869   0.532
 7565SOL    HW123594   5.707   2.852   0.560
 7565SOL    HW223595   5.586   2.962   0.558
 7566SOL     OW23596   6.570   4.431   3.000
 7566SOL    HW123597   6.662   4.431   2.961
 7566SOL    HW223598   6.509   4.381   2.939
 7567SOL     OW23599   1.718   1.994   4.923
 7567SOL    HW123600   1.687   1.938   5.000
 7567SOL    HW223601   1.713   2.091   4.949
 7568SOL     OW23602   5.083   5.929   3.501
 7568SOL    HW123603   5.027   5.965   3.426
 7568SOL    HW223604   5.131   6.004   3.546
 7569SOL     OW23605   3.767   4.923   5.901
 7569SOL    HW123606   3.762   4.873   5.815
 7569SOL    HW223607   3.742   5.019   5.886
 7570SOL     OW23608   5.512   3.993   5.434
 7570SOL    HW123609   5.412   3.993   5.431
 7570SOL    HW223610   5.543   3.955   5.521
 7571SOL     OW23611   4.176   4.826   3.295
 7571SOL    HW123612   4.230   4.742   3.288
 7571SOL    HW223613   4.099   4.822   3.231
 7572SOL     OW23614   4.461   1.463   1.208
 7572SOL    HW123615   4.557   1.463   1.234
 7572SOL    HW223616   4.431   1.557   1.192
 7573SOL     OW23617   0.196   0.541   5.631
 7573SOL    HW123618   0.168   0.554   5.536
 7573SOL    HW223619   0.212   0.444   5.647
 7574SOL     OW23620   5.157   0.455   5.222
 7574SOL    HW123621   5.069   0.424   5.260
 7574SOL    HW223622   5.159   0.440   5.124
 7575SOL     OW23623   5.432   0.661   5.886
 7575SOL    HW123624   5.430   0.591   5.815
 7575SOL    HW223625   5.375   0.633   5.963
 7576SOL     OW23626   4.411   3.772   0.606
 7576SOL    HW123627   4.486   3.819   0.652
 7576SOL    HW223628   4.440   3.679   0.582
 7577SOL     OW23629   0.900   0.044   6.776
 7577SOL    HW123630   0.941   7.014   6.701
 7577SOL    HW223631   0.968   0.104   6.817
 7578SOL     OW23632   1.989   4.783   1.359
 7578SOL    HW123633   2.082   4.748   1.367
 7578SOL    HW223634   1.976   4.822   1.268
 7579SOL     OW23635   0.456   1.009   2.377
 7579SOL    HW123636   0.413   0.935   2.428
 7579SOL    HW223637   0.388   1.078   2.352
 7580SOL     OW23638   0.704   4.014   4.353
 7580SOL    HW123639   0.612   4.009   4.391
 7580SOL    HW223640   0.768   3.969   4.416
 7581SOL     OW23641   6.807   1.668   2.127
 7581SOL    HW123642   6.843   1.746   2.075
 7581SOL    HW223643   6.710   1.683   2.145
 7582SOL     OW23644   3.952   1.206   1.346
 7582SOL    HW123645   3.957   1.265   1.427
 7582SOL    HW223646   4.025   1.138   1.351
 7583SOL     OW23647   5.998   3.057   1.816
 7583SOL    HW123648   6.038   3.139   1.857
 7583SOL    HW223649   6.008   3.062   1.716
 7584SOL     OW23650   3.703   0.087   1.677
 7584SOL    HW123651   3.775   0.037   1.629
 7584SOL    HW223652   3.736   0.113   1.768
 7585SOL     OW23653   1.698   2.690   7.010
 7585SOL    HW123654   1.723   2.723   0.079
 7585SOL    HW223655   1.700   2.590   7.009
 7586SOL     OW23656   3.289   0.638   3.683
 7586SOL    HW123657   3.332   0.665   3.769
 7586SOL    HW223658   3.323   0.548   3.656
 7587SOL     OW23659   2.404   2.642   7.005
 7587SOL    HW123660   2.445   2.556   6.974
 7587SOL    HW223661   2.326   2.664   6.947
 7588SOL     OW23662   1.309   2.996   3.580
 7588SOL    HW123663   1.334   2.903   3.553
 7588SOL    HW223664   1.234   2.992   3.646
 7589SOL     OW23665   0.516   0.370   2.646
 7589SOL    HW123666   0.536   0.461   2.683
 7589SOL    HW223667   0.516   0.303   2.720
 7590SOL     OW23668   3.921   2.377   6.413
 7590SOL    HW123669   3.861   2.338   6.482
 7590SOL    HW223670   3.900   2.337   6.323
 7591SOL     OW23671   0.018   3.550   0.779
 7591SOL    HW123672   0.005   3.633   0.833
 7591SOL    HW223673   6.953   3.503   0.768
 7592SOL     OW23674   6.463   5.164   4.643
 7592SOL    HW123675   6.545   5.110   4.662
 7592SOL    HW223676   6.444   5.161   4.545
 7593SOL     OW23677   6.478   3.313   0.214
 7593SOL    HW123678   6.427   3.245   0.266
 7593SOL    HW223679   6.575   3.291   0.216
 7594SOL     OW23680   1.118   4.988   2.196
 7594SOL    HW123681   1.181   4.953   2.126
 7594SOL    HW223682   1.110   5.087   2.187
 7595SOL     OW23683   6.305   2.790   6.136
 7595SOL    HW123684   6.338   2.798   6.042
 7595SOL    HW223685   6.375   2.824   6.199
 7596SOL     OW23686   3.736   6.193   3.753
 7596SOL    HW123687   3.747   6.229   3.661
 7596SOL    HW223688   3.648   6.146   3.761
 7597SOL     OW23689   2.139   6.783   2.929
 7597SOL    HW123690   2.118   6.843   3.006
 7597SOL    HW223691   2.221   6.815   2.881
 7598SOL     OW23692   0.306   0.960   3.016
 7598SOL    HW123693   0.371   0.959   3.092
 7598SOL    HW223694   0.323   0.881   2.956
 7599SOL     OW23695   5.840   2.110   2.112
 7599SOL    HW123696   5.839   2.165   2.028
 7599SOL    HW223697   5.768   2.142   2.173
 7600SOL     OW23698   1.676   1.697   3.315
 7600SOL    HW123699   1.715   1.789   3.312
 7600SOL    HW223700   1.731   1.636   3.258
 7601SOL     OW23701   1.775   4.565   2.295
 7601SOL    HW123702   1.681   4.588   2.267
 7601SOL    HW223703   1.774   4.478   2.345
 7602SOL     OW23704   2.475   3.756   6.407
 7602SOL    HW123705   2.472   3.814   6.326
 7602SOL    HW223706   2.509   3.809   6.485
 7603SOL     OW23707   1.370   5.534   6.062
 7603SOL    HW123708   1.405   5.465   6.126
 7603SOL    HW223709   1.421   5.620   6.075
 7604SOL     OW23710   2.193   3.906   4.757
 7604SOL    HW123711   2.114   3.968   4.752
 7604SOL    HW223712   2.247   3.927   4.838
 7605SOL     OW23713   1.598   0.731   1.768
 7605SOL    HW123714   1.549   0.818   1.777
 7605SOL    HW223715   1.675   0.730   1.831
 7606SOL     OW23716   5.975   4.159   4.934
 7606SOL    HW123717   5.985   4.060   4.944
 7606SOL    HW223718   5.882   4.186   4.960
 7607SOL     OW23719   3.576   5.482   0.131
 7607SOL    HW123720   3.554   5.574   0.100
 7607SOL    HW223721   3.493   5.435   0.159
 7608SOL     OW23722   3.923   4.287   1.371
 7608SOL    HW123723   3.952   4.200   1.330
 7608SOL    HW223724   3.952   4.290   1.466
 7609SOL     OW23725   1.292   3.000   4.255
 7609SOL    HW123726   1.375   3.019   4.308
 7609SOL    HW223727   1.301   3.042   4.165
 7610SOL     OW23728   4.471   4.447   6.292
 7610SOL    HW123729   4.440   4.372   6.350
 7610SOL    HW223730   4.569   4.461   6.305
 7611SOL     OW23731   5.990   3.498   1.906
 7611SOL    HW123732   5.896   3.531   1.900
 7611SOL    HW223733   6.052   3.576   1.898
 7612SOL     OW23734   4.873   3.168   2.201
 7612SOL    HW123735   4.836   3.121   2.121
 7612SOL    HW223736   4.871   3.107   2.280
 7613SOL     OW23737   6.984   2.753   0.982
 7613SOL    HW123738   7.021   2.845   0.969
 7613SOL    HW223739   6.985   2.704   0.895
 7614SOL     OW23740   5.000   3.796   0.880
 7614SOL    HW123741   5.070   3.806   0.951
 7614SOL    HW223742   4.970   3.700   0.876
 7615SOL     OW23743   3.993   5.244   0.022
 7615SOL    HW123744   3.934   5.274   6.970
 7615SOL    HW223745   3.937   5.228   0.104
 7616SOL     OW23746   5.954   6.301   4.350
 7616SOL    HW123747   5.950   6.374   4.282
 7616SOL    HW223748   5.949   6.340   4.442
 7617SOL     OW23749   4.445   6.135   2.385
 7617SOL    HW123750   4.516   6.197   2.419
 7617SOL    HW223751   4.474   6.040   2.398
 7618SOL     OW23752   6.715   1.783   5.426
 7618SOL    HW123753   6.738   1.687   5.438
 7618SOL    HW223754   6.681   1.821   5.512
 7619SOL     OW23755   5.971   2.665   5.192
 7619SOL    HW123756   5.982   2.578   5.144
 7619SOL    HW223757   6.034   2.733   5.153
 7620SOL     OW23758   4.248   5.873   1.038
 7620SOL    HW123759   4.295   5.926   0.967
 7620SOL    HW223760   4.160   5.914   1.058
 7621SOL     OW23761   6.708   1.420   1.122
 7621SOL    HW123762   6.688   1.334   1.169
 7621SOL    HW223763   6.632   1.483   1.134
 7622SOL     OW23764   4.610   5.249   6.933
 7622SOL    HW123765   4.593   5.264   6.836
 7622SOL    HW223766   4.660   5.163   6.945
 7623SOL     OW23767   5.310   3.768   6.945
 7623SOL    HW123768   5.351   3.739   6.858
 7623SOL    HW223769   5.291   3.866   6.941
 7624SOL     OW23770   0.203   3.328   4.785
 7624SOL    HW123771   0.226   3.308   4.880
 7624SOL    HW223772   0.282   3.368   4.739
 7625SOL     OW23773   4.958   0.650   1.400
 7625SOL    HW123774   5.021   0.580   1.367
 7625SOL    HW223775   4.865   0.625   1.376
 7626SOL     OW23776   6.691   6.917   4.348
 7626SOL    HW123777   6.641   6.836   4.380
 7626SOL    HW223778   6.770   6.888   4.294
 7627SOL     OW23779   4.779   3.282   6.955
 7627SOL    HW123780   4.785   3.203   7.016
 7627SOL    HW223781   4.696   3.333   6.975
 7628SOL     OW23782   3.425   2.046   1.854
 7628SOL    HW123783   3.524   2.046   1.867
 7628SOL    HW223784   3.380   2.019   1.939
 7629SOL     OW23785   0.242   5.691   3.286
 7629SOL    HW123786   0.198   5.779   3.305
 7629SOL    HW223787   0.179   5.617   3.310
 7630SOL     OW23788   0.880   6.846   1.303
 7630SOL    HW123789   0.950   6.802   1.246
 7630SOL    HW223790   0.851   6.932   1.260
 7631SOL     OW23791   1.084   1.508   6.106
 7631SOL    HW123792   0.999   1.516   6.055
 7631SOL    HW223793   1.154   1.465   6.049
 7632SOL     OW23794   4.654   4.136   1.456
 7632SOL    HW123795   4.608   4.169   1.539
 7632SOL    HW223796   4.713   4.208   1.420
 7633SOL     OW23797   5.129   0.438   1.327
 7633SOL    HW123798   5.058   0.369   1.339
 7633SOL    HW223799   5.158   0.440   1.231
 7634SOL     OW23800   1.999   1.761   2.499
 7634SOL    HW123801   1.974   1.777   2.403
 7634SOL    HW223802   2.099   1.766   2.508
 7635SOL     OW23803   3.229   5.259   5.166
 7635SOL    HW123804   3.169   5.327   5.209
 7635SOL    HW223805   3.260   5.194   5.235
 7636SOL     OW23806   1.773   2.673   4.054
 7636SOL    HW123807   1.733   2.728   4.127
 7636SOL    HW223808   1.776   2.577   4.082
 7637SOL     OW23809   2.705   5.463   2.423
 7637SOL    HW123810   2.752   5.550   2.436
 7637SOL    HW223811   2.689   5.447   2.326
 7638SOL     OW23812   2.672   5.910   1.114
 7638SOL    HW123813   2.630   5.957   1.037
 7638SOL    HW223814   2.684   5.973   1.190
 7639SOL     OW23815   0.489   1.866   0.790
 7639SOL    HW123816   0.457   1.910   0.706
 7639SOL    HW223817   0.412   1.820   0.835
 7640SOL     OW23818   2.716   1.052   5.842
 7640SOL    HW123819   2.727   0.984   5.914
 7640SOL    HW223820   2.623   1.046   5.805
 7641SOL     OW23821   2.100   3.518   2.398
 7641SOL    HW123822   2.161   3.474   2.463
 7641SOL    HW223823   2.100   3.468   2.311
 7642SOL     OW23824   3.650   1.847   3.127
 7642SOL    HW123825   3.641   1.908   3.206
 7642SOL    HW223826   3.596   1.883   3.050
 7643SOL     OW23827   4.601   2.518   3.183
 7643SOL    HW123828   4.548   2.566   3.252
 7643SOL    HW223829   4.549   2.514   3.098
 7644SOL     OW23830   5.309   1.666   1.699
 7644SOL    HW123831   5.270   1.680   1.608
 7644SOL    HW223832   5.273   1.734   1.762
 7645SOL     OW23833   5.005   4.257   5.395
 7645SOL    HW123834   4.921   4.216   5.358
 7645SOL    HW223835   5.000   4.257   5.495
 7646SOL     OW23836   1.503   3.486   3.594
 7646SOL    HW123837   1.452   3.519   3.674
 7646SOL    HW223838   1.441   3.434   3.535
 7647SOL     OW23839   6.169   2.655   3.703
 7647SOL    HW123840   6.202   2.740   3.663
 7647SOL    HW223841   6.085   2.672   3.754
 7648SOL     OW23842   3.341   1.401   3.102
 7648SOL    HW123843   3.313   1.415   3.007
 7648SOL    HW223844   3.397   1.318   3.108
 7649SOL     OW23845   0.890   0.979   3.416
 7649SOL    HW123846   0.809   1.037   3.428
 7649SOL    HW223847   0.953   0.994   3.493
 7650SOL     OW23848   5.556   1.474   0.575
 7650SOL    HW123849   5.627   1.410   0.545
 7650SOL    HW223850   5.501   1.502   0.496
 7651SOL     OW23851   2.047   0.806   3.634
 7651SOL    HW123852   2.009   0.747   3.705
 7651SOL    HW223853   2.137   0.772   3.607
 7652SOL     OW23854   5.420   3.301   5.363
 7652SOL    HW123855   5.321   3.299   5.346
 7652SOL    HW223856   5.440   3.260   5.452
 7653SOL     OW23857   1.122   1.985   6.860
 7653SOL    HW123858   1.180   2.042   6.801
 7653SOL    HW223859   1.043   1.953   6.807
 7654SOL     OW23860   4.715   2.793   4.383
 7654SOL    HW123861   4.730   2.834   4.473
 7654SOL    HW223862   4.640   2.727   4.387
 7655SOL     OW23863   4.448   6.649   3.295
 7655SOL    HW123864   4.370   6.703   3.261
 7655SOL    HW223865   4.511   6.709   3.344
 7656SOL     OW23866   3.507   3.829   6.058
 7656SOL    HW123867   3.469   3.746   6.097
 7656SOL    HW223868   3.433   3.888   6.024
 7657SOL     OW23869   1.503   2.051   3.665
 7657SOL    HW123870   1.488   1.963   3.710
 7657SOL    HW223871   1.417   2.084   3.626
 7658SOL     OW23872   3.197   0.153   6.683
 7658SOL    HW123873   3.213   0.118   6.775
 7658SOL    HW223874   3.120   0.105   6.642
 7659SOL     OW23875   5.715   4.765   6.716
 7659SOL    HW123876   5.747   4.822   6.791
 7659SOL    HW223877   5.657   4.692   6.752
 7660SOL     OW23878   0.404   5.990   3.597
 7660SOL    HW123879   0.305   5.994   3.606
 7660SOL    HW223880   0.440   5.916   3.653
 7661SOL     OW23881   5.883   2.455   4.879
 7661SOL    HW123882   5.949   2.444   4.954
 7661SOL    HW223883   5.843   2.547   4.883
 7662SOL     OW23884   1.300   3.143   4.015
 7662SOL    HW123885   1.395   3.151   3.984
 7662SOL    HW223886   1.243   3.110   3.940
 7663SOL     OW23887   6.509   5.688   5.698
 7663SOL    HW123888   6.586   5.749   5.712
 7663SOL    HW223889   6.513   5.650   5.606
 7664SOL     OW23890   4.087   0.355   1.136
 7664SOL    HW123891   4.134   0.434   1.177
 7664SOL    HW223892   4.120   0.271   1.178
 7665SOL     OW23893   6.043   0.575   4.476
 7665SOL    HW123894   6.112   0.647   4.488
 7665SOL    HW223895   6.048   0.539   4.383
 7666SOL     OW23896   0.670   5.456   1.680
 7666SOL    HW123897   0.736   5.518   1.636
 7666SOL    HW223898   0.585   5.505   1.699
 7667SOL     OW23899   4.306   6.821   2.197
 7667SOL    HW123900   4.295   6.910   2.153
 7667SOL    HW223901   4.236   6.809   2.266
 7668SOL     OW23902   3.451   4.878   0.789
 7668SOL    HW123903   3.477   4.809   0.722
 7668SOL    HW223904   3.472   4.845   0.881
 7669SOL     OW23905   4.577   1.383   4.942
 7669SOL    HW123906   4.636   1.462   4.927
 7669SOL    HW223907   4.600   1.311   4.876
 7670SOL     OW23908   0.714   4.681   0.385
 7670SOL    HW123909   0.779   4.756   0.391
 7670SOL    HW223910   0.670   4.668   0.474
 7671SOL     OW23911   3.916   1.326   1.611
 7671SOL    HW123912   3.903   1.418   1.649
 7671SOL    HW223913   3.980   1.276   1.669
 7672SOL     OW23914   0.311   6.541   2.276
 7672SOL    HW123915   0.275   6.448   2.266
 7672SOL    HW223916   0.407   6.543   2.250
 7673SOL     OW23917   1.271   6.436   1.029
 7673SOL    HW123918   1.197   6.381   0.992
 7673SOL    HW223919   1.331   6.378   1.085
 7674SOL     OW23920   5.183   0.799   3.250
 7674SOL    HW123921   5.110   0.822   3.186
 7674SOL    HW223922   5.272   0.807   3.205
 7675SOL     OW23923   6.016   6.578   2.662
 7675SOL    HW123924   5.964   6.497   2.632
 7675SOL    HW223925   6.111   6.552   2.677
 7676SOL     OW23926   2.538   2.276   0.293
 7676SOL    HW123927   2.458   2.318   0.251
 7676SOL    HW223928   2.509   2.195   0.346
 7677SOL     OW23929   0.679   5.090   1.188
 7677SOL    HW123930   0.723   5.143   1.115
 7677SOL    HW223931   0.698   4.993   1.174
 7678SOL     OW23932   2.155   2.975   5.197
 7678SOL    HW123933   2.222   2.999   5.127
 7678SOL    HW223934   2.189   3.002   5.287
 7679SOL     OW23935   3.439   6.154   5.817
 7679SOL    HW123936   3.469   6.218   5.888
 7679SOL    HW223937   3.348   6.179   5.786
 7680SOL     OW23938   1.076   1.056   0.223
 7680SOL    HW123939   1.076   0.957   0.206
 7680SOL    HW223940   1.123   1.075   0.309
 7681SOL     OW23941   2.611   0.778   0.790
 7681SOL    HW123942   2.639   0.874   0.787
 7681SOL    HW223943   2.525   0.766   0.741
 7682SOL     OW23944   3.563   0.357   1.638
 7682SOL    HW123945   3.647   0.399   1.671
 7682SOL    HW223946   3.576   0.258   1.630
 7683SOL     OW23947   6.063   2.155   4.500
 7683SOL    HW123948   5.993   2.210   4.455
 7683SOL    HW223949   6.072   2.185   4.595
 7684SOL     OW23950   3.324   1.754   1.696
 7684SOL    HW123951   3.345   1.758   1.793
 7684SOL    HW223952   3.238   1.802   1.678
 7685SOL     OW23953   2.528   1.814   5.803
 7685SOL    HW123954   2.477   1.833   5.886
 7685SOL    HW223955   2.538   1.715   5.791
 7686SOL     OW23956   6.622   6.522   3.031
 7686SOL    HW123957   6.603   6.606   2.981
 7686SOL    HW223958   6.718   6.522   3.061
 7687SOL     OW23959   6.108   4.926   3.823
 7687SOL    HW123960   6.057   5.001   3.780
 7687SOL    HW223961   6.188   4.963   3.870
 7688SOL     OW23962   1.043   6.034   5.092
 7688SOL    HW123963   0.960   6.040   5.147
 7688SOL    HW223964   1.104   6.110   5.115
 7689SOL     OW23965   5.699   6.278   2.424
 7689SOL    HW123966   5.711   6.180   2.413
 7689SOL    HW223967   5.611   6.296   2.468
 7690SOL     OW23968   5.543   4.788   0.507
 7690SOL    HW123969   5.586   4.840   0.434
 7690SOL    HW223970   5.474   4.845   0.553
 7691SOL     OW23971   5.259   3.978   4.630
 7691SOL    HW123972   5.310   4.045   4.684
 7691SOL    HW223973   5.319   3.903   4.604
 7692SOL     OW23974   0.941   6.063   1.613
 7692SOL    HW123975   0.931   6.143   1.672
 7692SOL    HW223976   0.859   6.052   1.557
 7693SOL     OW23977   3.289   6.726   1.873
 7693SOL    HW123978   3.241   6.643   1.902
 7693SOL    HW223979   3.303   6.786   1.951
 7694SOL     OW23980   5.424   3.798   4.537
 7694SOL    HW123981   5.505   3.744   4.559
 7694SOL    HW223982   5.419   3.812   4.438
 7695SOL     OW23983   5.080   6.971   0.728
 7695SOL    HW123984   5.158   0.003   0.698
 7695SOL    HW223985   5.011   6.969   0.656
 7696SOL     OW23986   0.475   0.654   6.317
 7696SOL    HW123987   0.564   0.679   6.279
 7696SOL    HW223988   0.412   0.731   6.305
 7697SOL     OW23989   2.354   6.885   2.773
 7697SOL    HW123990   2.376   6.819   2.702
 7697SOL    HW223991   2.413   6.965   2.763
 7698SOL     OW23992   6.020   1.800   4.177
 7698SOL    HW123993   5.964   1.787   4.259
 7698SOL    HW223994   6.011   1.721   4.117
 7699SOL     OW23995   3.475   5.737   6.295
 7699SOL    HW123996   3.540   5.674   6.253
 7699SOL    HW223997   3.383   5.698   6.291
 7700SOL     OW23998   4.562   6.021   3.098
 7700SOL    HW123999   4.553   6.080   3.017
 7700SOL    HW224000   4.604   6.073   3.172
 7701SOL     OW24001   6.432   2.307   0.512
 7701SOL    HW124002   6.372   2.357   0.449
 7701SOL    HW224003   6.511   2.272   0.461
 7702SOL     OW24004   3.375   6.376   4.799
 7702SOL    HW124005   3.385   6.351   4.703
 7702SOL    HW224006   3.309   6.315   4.843
 7703SOL     OW24007   6.479   5.865   6.601
 7703SOL    HW124008   6.573   5.890   6.627
 7703SOL    HW224009   6.482   5.788   6.537
 7704SOL     OW24010   6.235   0.464   4.637
 7704SOL    HW124011   6.318   0.423   4.598
 7704SOL    HW224012   6.164   0.468   4.567
 7705SOL     OW24013   2.599   6.049   0.378
 7705SOL    HW124014   2.523   5.984   0.382
 7705SOL    HW224015   2.563   6.142   0.368
 7706SOL     OW24016   3.771   3.536   4.699
 7706SOL    HW124017   3.814   3.475   4.633
 7706SOL    HW224018   3.772   3.630   4.664
 7707SOL     OW24019   0.005   5.076   5.471
 7707SOL    HW124020   0.018   4.978   5.462
 7707SOL    HW224021   6.984   5.097   5.558
 7708SOL     OW24022   0.722   6.523   5.838
 7708SOL    HW124023   0.689   6.453   5.902
 7708SOL    HW224024   0.644   6.579   5.808
 7709SOL     OW24025   6.399   4.405   2.310
 7709SOL    HW124026   6.475   4.404   2.376
 7709SOL    HW224027   6.318   4.446   2.354
 7710SOL     OW24028   3.082   1.979   0.249
 7710SOL    HW124029   3.097   2.004   0.345
 7710SOL    HW224030   3.069   2.063   0.195
 7711SOL     OW24031   5.544   6.046   6.238
 7711SOL    HW124032   5.505   6.104   6.167
 7711SOL    HW224033   5.623   5.997   6.201
 7712SOL     OW24034   0.027   5.077   1.829
 7712SOL    HW124035   6.988   5.143   1.873
 7712SOL    HW224036   0.089   5.126   1.766
 7713SOL     OW24037   1.452   4.042   0.953
 7713SOL    HW124038   1.438   4.096   0.869
 7713SOL    HW224039   1.529   3.980   0.941
 7714SOL     OW24040   6.873   4.229   5.199
 7714SOL    HW124041   6.779   4.220   5.233
 7714SOL    HW224042   6.914   4.139   5.188
 7715SOL     OW24043   2.855   2.419   0.227
 7715SOL    HW124044   2.831   2.516   0.223
 7715SOL    HW224045   2.788   2.366   0.174
 7716SOL     OW24046   0.123   4.677   1.846
 7716SOL    HW124047   0.089   4.615   1.776
 7716SOL    HW224048   0.222   4.685   1.837
 7717SOL     OW24049   1.810   0.727   5.844
 7717SOL    HW124050   1.902   0.759   5.819
 7717SOL    HW224051   1.814   0.678   5.931
 7718SOL     OW24052   6.772   3.584   3.317
 7718SOL    HW124053   6.791   3.525   3.239
 7718SOL    HW224054   6.727   3.531   3.389
 7719SOL     OW24055   6.962   4.502   5.618
 7719SOL    HW124056   6.988   4.461   5.531
 7719SOL    HW224057   0.022   4.539   5.662
 7720SOL     OW24058   6.981   1.395   6.341
 7720SOL    HW124059   6.926   1.428   6.418
 7720SOL    HW224060   0.032   1.336   6.375
 7721SOL     OW24061   0.420   5.596   1.678
 7721SOL    HW124062   0.378   5.623   1.765
 7721SOL    HW224063   0.349   5.576   1.611
 7722SOL     OW24064   1.455   4.204   3.380
 7722SOL    HW124065   1.542   4.240   3.414
 7722SOL    HW224066   1.471   4.117   3.334
 7723SOL     OW24067   4.800   3.847   6.143
 7723SOL    HW124068   4.717   3.827   6.091
 7723SOL    HW224069   4.868   3.776   6.125
 7724SOL     OW24070   2.745   3.634   1.130
 7724SOL    HW124071   2.801   3.553   1.149
 7724SOL    HW224072   2.670   3.638   1.196
 7725SOL     OW24073   6.380   1.772   2.622
 7725SOL    HW124074   6.302   1.753   2.682
 7725SOL    HW224075   6.346   1.801   2.533
 7726SOL     OW24076   1.629   5.140   6.018
 7726SOL    HW124077   1.643   5.043   5.999
 7726SOL    HW224078   1.698   5.194   5.970
 7727SOL     OW24079   0.118   2.271   2.951
 7727SOL    HW124080   0.097   2.342   2.883
 7727SOL    HW224081   0.174   2.310   3.024
 7728SOL     OW24082   2.189   3.420   5.091
 7728SOL    HW124083   2.197   3.482   5.169
 7728SOL    HW224084   2.104   3.368   5.098
 7729SOL     OW24085   6.105   2.185   1.377
 7729SOL    HW124086   6.185   2.242   1.359
 7729SOL    HW224087   6.030   2.243   1.410
 7730SOL     OW24088   7.020   5.328   0.406
 7730SOL    HW124089   6.942   5.267   0.424
 7730SOL    HW224090   0.083   5.279   0.423
 7731SOL     OW24091   6.351   1.157   0.124
 7731SOL    HW124092   6.286   1.195   0.190
 7731SOL    HW224093   6.349   1.057   0.130
 7732SOL     OW24094   5.213   7.009   0.170
 7732SOL    HW124095   5.160   6.974   0.093
 7732SOL    HW224096   5.277   6.939   0.202
 7733SOL     OW24097   5.299   5.878   2.424
 7733SOL    HW124098   5.257   5.950   2.369
 7733SOL    HW224099   5.356   5.919   2.495
 7734SOL     OW24100   1.493   5.064   3.891
 7734SOL    HW124101   1.587   5.050   3.922
 7734SOL    HW224102   1.451   5.138   3.944
 7735SOL     OW24103   4.916   6.420   6.659
 7735SOL    HW124104   5.002   6.459   6.692
 7735SOL    HW224105   4.914   6.425   6.559
 7736SOL     OW24106   3.011   3.041   6.831
 7736SOL    HW124107   2.941   3.072   6.766
 7736SOL    HW224108   3.100   3.038   6.786
 7737SOL     OW24109   2.661   6.366   2.716
 7737SOL    HW124110   2.601   6.335   2.642
 7737SOL    HW224111   2.756   6.363   2.685
 7738SOL     OW24112   3.189   5.314   0.179
 7738SOL    HW124113   3.258   5.296   0.249
 7738SOL    HW224114   3.105   5.265   0.203
 7739SOL     OW24115   6.818   2.393   1.093
 7739SOL    HW124116   6.857   2.463   1.154
 7739SOL    HW224117   6.822   2.304   1.137
 7740SOL     OW24118   2.614   1.111   2.968
 7740SOL    HW124119   2.714   1.121   2.972
 7740SOL    HW224120   2.578   1.095   3.060
 7741SOL     OW24121   6.897   5.036   6.051
 7741SOL    HW124122   6.942   5.082   5.975
 7741SOL    HW224123   6.964   4.983   6.103
 7742SOL     OW24124   4.009   2.019   2.853
 7742SOL    HW124125   4.091   2.071   2.827
 7742SOL    HW224126   4.014   1.994   2.950
 7743SOL     OW24127   5.522   1.807   7.019
 7743SOL    HW124128   5.435   1.814   0.046
 7743SOL    HW224129   5.506   1.762   6.931
 7744SOL     OW24130   0.451   0.118   4.126
 7744SOL    HW124131   0.364   0.167   4.133
 7744SOL    HW224132   0.462   0.081   4.034
 7745SOL     OW24133   4.091   1.428   6.825
 7745SOL    HW124134   4.002   1.467   6.805
 7745SOL    HW224135   4.103   1.418   6.924
 7746SOL     OW24136   0.995   0.320   0.769
 7746SOL    HW124137   1.026   0.289   0.679
 7746SOL    HW224138   0.896   0.333   0.769
 7747SOL     OW24139   5.512   5.700   1.507
 7747SOL    HW124140   5.608   5.679   1.526
 7747SOL    HW224141   5.466   5.618   1.473
 7748SOL     OW24142   2.952   3.888   4.665
 7748SOL    HW124143   2.864   3.932   4.683
 7748SOL    HW224144   2.953   3.798   4.708
 7749SOL     OW24145   3.227   3.548   5.497
 7749SOL    HW124146   3.278   3.613   5.441
 7749SOL    HW224147   3.129   3.566   5.487
 7750SOL     OW24148   6.908   6.026   0.982
 7750SOL    HW124149   6.959   6.087   1.043
 7750SOL    HW224150   6.942   6.038   0.888
 7751SOL     OW24151   1.955   2.953   2.481
 7751SOL    HW124152   2.022   2.894   2.436
 7751SOL    HW224153   1.938   2.919   2.574
 7752SOL     OW24154   5.872   6.352   5.883
 7752SOL    HW124155   5.931   6.371   5.804
 7752SOL    HW224156   5.850   6.438   5.929
 7753SOL     OW24157   1.958   0.471   4.489
 7753SOL    HW124158   1.906   0.472   4.575
 7753SOL    HW224159   1.943   0.558   4.441
 7754SOL     OW24160   4.381   6.433   2.366
 7754SOL    HW124161   4.362   6.518   2.416
 7754SOL    HW224162   4.469   6.397   2.394
 7755SOL     OW24163   1.256   2.058   5.857
 7755SOL    HW124164   1.167   2.067   5.901
 7755SOL    HW224165   1.263   2.122   5.781
 7756SOL     OW24166   2.671   5.764   2.391
 7756SOL    HW124167   2.708   5.753   2.484
 7756SOL    HW224168   2.746   5.775   2.326
 7757SOL     OW24169   5.669   5.496   5.864
 7757SOL    HW124170   5.654   5.525   5.958
 7757SOL    HW224171   5.751   5.540   5.828
 7758SOL     OW24172   1.678   1.345   5.839
 7758SOL    HW124173   1.580   1.341   5.859
 7758SOL    HW224174   1.702   1.437   5.807
 7759SOL     OW24175   0.852   1.829   5.554
 7759SOL    HW124176   0.952   1.828   5.544
 7759SOL    HW224177   0.811   1.877   5.477
 7760SOL     OW24178   5.396   3.297   3.065
 7760SOL    HW124179   5.398   3.199   3.049
 7760SOL    HW224180   5.481   3.327   3.108
 7761SOL     OW24181   0.718   0.612   5.778
 7761SOL    HW124182   0.720   0.575   5.685
 7761SOL    HW224183   0.648   0.564   5.831
 7762SOL     OW24184   4.589   0.469   4.154
 7762SOL    HW124185   4.596   0.559   4.197
 7762SOL    HW224186   4.499   0.430   4.173
 7763SOL     OW24187   1.052   0.936   6.864
 7763SOL    HW124188   1.073   1.031   6.888
 7763SOL    HW224189   1.098   0.913   6.778
 7764SOL     OW24190   3.526   3.188   3.345
 7764SOL    HW124191   3.445   3.133   3.365
 7764SOL    HW224192   3.564   3.160   3.257
 7765SOL     OW24193   6.143   2.866   5.064
 7765SOL    HW124194   6.210   2.867   5.137
 7765SOL    HW224195   6.189   2.849   4.977
 7766SOL     OW24196   6.794   3.492   6.941
 7766SOL    HW124197   6.869   3.433   6.912
 7766SOL    HW224198   6.795   3.502   0.018
 7767SOL     OW24199   5.006   5.705   2.840
 7767SOL    HW124200   5.009   5.764   2.760
 7767SOL    HW224201   4.915   5.708   2.881
 7768SOL     OW24202   4.630   4.565   2.372
 7768SOL    HW124203   4.707   4.504   2.389
 7768SOL    HW224204   4.610   4.567   2.274
 7769SOL     OW24205   4.719   2.841   3.243
 7769SOL    HW124206   4.749   2.933   3.271
 7769SOL    HW224207   4.749   2.774   3.311
 7770SOL     OW24208   1.539   4.301   2.651
 7770SOL    HW124209   1.530   4.216   2.703
 7770SOL    HW224210   1.473   4.368   2.686
 7771SOL     OW24211   3.443   2.296   5.291
 7771SOL    HW124212   3.356   2.329   5.255
 7771SOL    HW224213   3.512   2.368   5.285
 7772SOL     OW24214   5.184   0.316   2.182
 7772SOL    HW124215   5.211   0.327   2.278
 7772SOL    HW224216   5.146   0.402   2.148
 7773SOL     OW24217   2.529   6.187   4.976
 7773SOL    HW124218   2.454   6.180   4.910
 7773SOL    HW224219   2.493   6.210   5.066
 7774SOL     OW24220   5.386   1.972   5.458
 7774SOL    HW124221   5.453   1.898   5.463
 7774SOL    HW224222   5.433   2.060   5.467
 7775SOL     OW24223   5.044   5.804   1.138
 7775SOL    HW124224   4.993   5.737   1.084
 7775SOL    HW224225   5.080   5.875   1.078
 7776SOL     OW24226   1.995   4.995   6.768
 7776SOL    HW124227   1.918   5.002   6.705
 7776SOL    HW224228   2.061   4.927   6.734
 7777SOL     OW24229   0.091   6.601   4.645
 7777SOL    HW124230   0.118   6.665   4.574
 7777SOL    HW224231   0.163   6.596   4.715
 7778SOL     OW24232   5.583   4.044   0.995
 7778SOL    HW124233   5.528   4.124   0.970
 7778SOL    HW224234   5.657   4.033   0.928
 7779SOL     OW24235   2.479   2.637   1.815
 7779SOL    HW124236   2.452   2.619   1.720
 7779SOL    HW224237   2.535   2.561   1.848
 7780SOL     OW24238   0.742   4.608   4.877
 7780SOL    HW124239   0.837   4.609   4.908
 7780SOL    HW224240   0.682   4.639   4.951
 7781SOL     OW24241   1.101   5.189   0.412
 7781SOL    HW124242   1.123   5.249   0.335
 7781SOL    HW224243   1.004   5.197   0.433
 7782SOL     OW24244   6.147   5.058   4.366
 7782SOL    HW124245   6.138   5.141   4.420
 7782SOL    HW224246   6.073   5.052   4.299
 7783SOL     OW24247   1.174   5.894   5.437
 7783SOL    HW124248   1.192   5.826   5.366
 7783SOL    HW224249   1.209   5.983   5.407
 7784SOL     OW24250   3.277   2.061   1.619
 7784SOL    HW124251   3.321   2.028   1.702
 7784SOL    HW224252   3.324   2.144   1.587
 7785SOL     OW24253   2.356   6.373   4.403
 7785SOL    HW124254   2.378   6.418   4.490
 7785SOL    HW224255   2.405   6.287   4.396
 7786SOL     OW24256   2.767   6.465   0.128
 7786SOL    HW124257   2.864   6.489   0.124
 7786SOL    HW224258   2.757   6.366   0.140
 7787SOL     OW24259   1.984   2.523   5.979
 7787SOL    HW124260   2.039   2.571   5.911
 7787SOL    HW224261   1.888   2.524   5.952
 7788SOL     OW24262   2.519   5.130   1.305
 7788SOL    HW124263   2.539   5.065   1.378
 7788SOL    HW224264   2.495   5.080   1.221
 7789SOL     OW24265   1.983   6.573   6.699
 7789SOL    HW124266   1.993   6.654   6.642
 7789SOL    HW224267   1.991   6.491   6.642
 7790SOL     OW24268   5.887   5.763   3.228
 7790SOL    HW124269   5.820   5.704   3.273
 7790SOL    HW224270   5.947   5.707   3.171
 7791SOL     OW24271   2.562   5.020   3.439
 7791SOL    HW124272   2.569   5.099   3.500
 7791SOL    HW224273   2.519   4.944   3.488
 7792SOL     OW24274   1.913   5.493   4.886
 7792SOL    HW124275   1.967   5.567   4.847
 7792SOL    HW224276   1.909   5.503   4.985
 7793SOL     OW24277   2.817   0.957   0.859
 7793SOL    HW124278   2.873   1.002   0.788
 7793SOL    HW224279   2.867   0.878   0.895
 7794SOL     OW24280   6.043   4.083   3.237
 7794SOL    HW124281   5.954   4.128   3.246
 7794SOL    HW224282   6.037   4.010   3.170
 7795SOL     OW24283   2.078   4.134   5.701
 7795SOL    HW124284   2.146   4.102   5.767
 7795SOL    HW224285   2.044   4.057   5.647
 7796SOL     OW24286   3.829   3.235   3.592
 7796SOL    HW124287   3.734   3.247   3.620
 7796SOL    HW224288   3.843   3.282   3.505
 7797SOL     OW24289   1.504   6.904   2.234
 7797SOL    HW124290   1.515   6.853   2.320
 7797SOL    HW224291   1.511   7.002   2.252
 7798SOL     OW24292   1.963   3.920   5.553
 7798SOL    HW124293   1.908   3.836   5.553
 7798SOL    HW224294   2.002   3.934   5.462
 7799SOL     OW24295   1.116   6.330   2.410
 7799SOL    HW124296   1.176   6.399   2.453
 7799SOL    HW224297   1.170   6.271   2.352
 7800SOL     OW24298   0.750   5.216   0.957
 7800SOL    HW124299   0.782   5.233   0.863
 7800SOL    HW224300   0.707   5.299   0.992
 7801SOL     OW24301   2.146   1.997   2.188
 7801SOL    HW124302   2.120   2.044   2.272
 7801SOL    HW224303   2.245   2.007   2.172
 7802SOL     OW24304   6.081   2.806   0.858
 7802SOL    HW124305   6.021   2.881   0.884
 7802SOL    HW224306   6.027   2.722   0.846
 7803SOL     OW24307   4.707   2.047   5.843
 7803SOL    HW124308   4.743   2.084   5.758
 7803SOL    HW224309   4.724   2.111   5.918
 7804SOL     OW24310   4.395   2.055   4.040
 7804SOL    HW124311   4.317   2.086   4.094
 7804SOL    HW224312   4.446   1.986   4.093
 7805SOL     OW24313   5.703   2.706   1.340
 7805SOL    HW124314   5.751   2.762   1.273
 7805SOL    HW224315   5.739   2.725   1.432
 7806SOL     OW24316   6.275   1.945   0.370
 7806SOL    HW124317   6.265   1.969   0.274
 7806SOL    HW224318   6.372   1.952   0.396
 7807SOL     OW24319   1.044   5.093   5.380
 7807SOL    HW124320   1.062   5.172   5.438
 7807SOL    HW224321   0.986   5.028   5.430
 7808SOL     OW24322   6.336   3.389   4.237
 7808SOL    HW124323   6.333   3.289   4.239
 7808SOL    HW224324   6.249   3.424   4.202
 7809SOL     OW24325   3.091   4.911   4.285
 7809SOL    HW124326   3.186   4.893   4.260
 7809SOL    HW224327   3.060   4.995   4.241
 7810SOL     OW24328   3.767   0.344   4.188
 7810SOL    HW124329   3.678   0.341   4.233
 7810SOL    HW224330   3.777   0.265   4.127
 7811SOL     OW24331   1.839   5.538   1.977
 7811SOL    HW124332   1.828   5.562   1.880
 7811SOL    HW224333   1.848   5.439   1.985
 7812SOL     OW24334   0.054   1.932   4.004
 7812SOL    HW124335   0.140   1.899   3.966
 7812SOL    HW224336   0.017   2.005   3.946
 7813SOL     OW24337   5.216   2.146   0.101
 7813SOL    HW124338   5.231   2.179   0.195
 7813SOL    HW224339   5.290   2.084   0.075
 7814SOL     OW24340   0.670   3.925   3.669
 7814SOL    HW124341   0.676   3.924   3.569
 7814SOL    HW224342   0.753   3.965   3.707
 7815SOL     OW24343   5.633   1.401   5.323
 7815SOL    HW124344   5.609   1.431   5.415
 7815SOL    HW224345   5.576   1.449   5.256
 7816SOL     OW24346   1.672   2.461   6.177
 7816SOL    HW124347   1.650   2.499   6.088
 7816SOL    HW224348   1.644   2.365   6.180
 7817SOL     OW24349   5.110   4.568   3.217
 7817SOL    HW124350   5.137   4.641   3.154
 7817SOL    HW224351   5.083   4.607   3.305
 7818SOL     OW24352   4.262   1.264   1.927
 7818SOL    HW124353   4.339   1.201   1.925
 7818SOL    HW224354   4.189   1.231   1.867
 7819SOL     OW24355   6.995   3.868   2.376
 7819SOL    HW124356   0.017   3.940   2.324
 7819SOL    HW224357   0.027   3.784   2.370
 7820SOL     OW24358   0.784   1.574   5.588
 7820SOL    HW124359   0.789   1.672   5.570
 7820SOL    HW224360   0.764   1.559   5.685
 7821SOL     OW24361   5.700   5.809   0.285
 7821SOL    HW124362   5.619   5.846   0.241
 7821SOL    HW224363   5.744   5.742   0.225
 7822SOL     OW24364   1.861   2.092   6.267
 7822SOL    HW124365   1.936   2.110   6.331
 7822SOL    HW224366   1.888   2.020   6.203
 7823SOL     OW24367   2.856   3.694   5.174
 7823SOL    HW124368   2.890   3.600   5.177
 7823SOL    HW224369   2.771   3.697   5.122
 7824SOL     OW24370   5.995   0.730   4.002
 7824SOL    HW124371   5.904   0.692   4.019
 7824SOL    HW224372   6.047   0.731   4.087
 7825SOL     OW24373   1.437   2.849   0.960
 7825SOL    HW124374   1.516   2.911   0.957
 7825SOL    HW224375   1.353   2.903   0.960
 7826SOL     OW24376   6.036   1.201   0.664
 7826SOL    HW124377   5.971   1.135   0.626
 7826SOL    HW224378   6.012   1.221   0.759
 7827SOL     OW24379   3.162   4.833   1.313
 7827SOL    HW124380   3.230   4.775   1.358
 7827SOL    HW224381   3.175   4.928   1.341
 7828SOL     OW24382   0.977   4.640   6.821
 7828SOL    HW124383   0.909   4.639   6.894
 7828SOL    HW224384   0.975   4.553   6.772
 7829SOL     OW24385   2.203   3.193   1.506
 7829SOL    HW124386   2.113   3.198   1.549
 7829SOL    HW224387   2.193   3.197   1.406
 7830SOL     OW24388   2.559   4.051   5.613
 7830SOL    HW124389   2.645   4.097   5.635
 7830SOL    HW224390   2.563   4.014   5.521
 7831SOL     OW24391   1.497   5.848   1.412
 7831SOL    HW124392   1.482   5.758   1.453
 7831SOL    HW224393   1.450   5.918   1.466
 7832SOL     OW24394   5.112   1.236   3.127
 7832SOL    HW124395   5.068   1.181   3.056
 7832SOL    HW224396   5.197   1.190   3.156
 7833SOL     OW24397   0.922   0.669   6.345
 7833SOL    HW124398   1.014   0.703   6.365
 7833SOL    HW224399   0.899   0.595   6.408
 7834SOL     OW24400   6.674   1.520   4.023
 7834SOL    HW124401   6.726   1.487   4.102
 7834SOL    HW224402   6.737   1.552   3.953
 7835SOL     OW24403   3.099   1.561   5.213
 7835SOL    HW124404   3.108   1.478   5.268
 7835SOL    HW224405   3.028   1.620   5.252
 7836SOL     OW24406   3.360   3.078   4.694
 7836SOL    HW124407   3.373   2.981   4.716
 7836SOL    HW224408   3.270   3.091   4.652
 7837SOL     OW24409   6.388   5.858   0.896
 7837SOL    HW124410   6.331   5.892   0.821
 7837SOL    HW224411   6.472   5.910   0.900
 7838SOL     OW24412   4.233   6.443   0.031
 7838SOL    HW124413   4.241   6.349   0.000
 7838SOL    HW224414   4.280   6.454   0.119
 7839SOL     OW24415   6.030   4.656   4.634
 7839SOL    HW124416   6.121   4.643   4.675
 7839SOL    HW224417   6.032   4.735   4.573
 7840SOL     OW24418   6.110   2.768   4.036
 7840SOL    HW124419   6.126   2.849   3.981
 7840SOL    HW224420   6.076   2.694   3.978
 7841SOL     OW24421   3.654   1.945   6.723
 7841SOL    HW124422   3.587   2.009   6.686
 7841SOL    HW224423   3.663   1.866   6.662
 7842SOL     OW24424   2.095   1.950   2.912
 7842SOL    HW124425   2.022   1.904   2.962
 7842SOL    HW224426   2.057   1.989   2.828
 7843SOL     OW24427   6.145   5.452   2.705
 7843SOL    HW124428   6.060   5.501   2.686
 7843SOL    HW224429   6.124   5.362   2.741
 7844SOL     OW24430   4.035   6.219   2.360
 7844SOL    HW124431   3.935   6.220   2.356
 7844SOL    HW224432   4.071   6.306   2.326
 7845SOL     OW24433   5.158   1.660   3.603
 7845SOL    HW124434   5.064   1.656   3.568
 7845SOL    HW224435   5.199   1.569   3.596
 7846SOL     OW24436   0.961   0.810   2.690
 7846SOL    HW124437   1.009   0.818   2.777
 7846SOL    HW224438   0.909   0.893   2.672
 7847SOL     OW24439   0.029   1.749   2.785
 7847SOL    HW124440   7.013   1.706   2.867
 7847SOL    HW224441   7.014   1.705   2.703
 7848SOL     OW24442   3.323   3.070   0.357
 7848SOL    HW124443   3.327   3.165   0.326
 7848SOL    HW224444   3.231   3.035   0.344
 7849SOL     OW24445   5.545   4.241   3.726
 7849SOL    HW124446   5.568   4.208   3.635
 7849SOL    HW224447   5.551   4.165   3.792
 7850SOL     OW24448   0.237   2.302   5.409
 7850SOL    HW124449   0.162   2.241   5.434
 7850SOL    HW224450   0.323   2.250   5.407
 7851SOL     OW24451   6.642   1.221   2.192
 7851SOL    HW124452   6.636   1.179   2.102
 7851SOL    HW224453   6.723   1.186   2.240
 7852SOL     OW24454   2.526   1.514   5.771
 7852SOL    HW124455   2.558   1.436   5.824
 7852SOL    HW224456   2.560   1.508   5.678
 7853SOL     OW24457   4.530   2.144   1.351
 7853SOL    HW124458   4.527   2.240   1.379
 7853SOL    HW224459   4.450   2.123   1.295
 7854SOL     OW24460   3.754   3.419   0.020
 7854SOL    HW124461   3.806   3.498   0.052
 7854SOL    HW224462   3.809   3.368   6.975
 7855SOL     OW24463   4.667   5.084   4.946
 7855SOL    HW124464   4.711   5.087   4.856
 7855SOL    HW224465   4.568   5.087   4.934
 7856SOL     OW24466   6.172   4.649   5.060
 7856SOL    HW124467   6.215   4.657   4.970
 7856SOL    HW224468   6.242   4.626   5.128
 7857SOL     OW24469   5.693   1.950   5.318
 7857SOL    HW124470   5.637   1.880   5.362
 7857SOL    HW224471   5.694   1.935   5.219
 7858SOL     OW24472   5.295   5.877   3.783
 7858SOL    HW124473   5.203   5.914   3.795
 7858SOL    HW224474   5.302   5.790   3.831
 7859SOL     OW24475   4.885   2.620   6.386
 7859SOL    HW124476   4.812   2.663   6.439
 7859SOL    HW224477   4.938   2.559   6.446
 7860SOL     OW24478   3.932   0.335   2.451
 7860SOL    HW124479   3.969   0.341   2.544
 7860SOL    HW224480   3.846   0.284   2.453
 7861SOL     OW24481   3.703   5.003   1.825
 7861SOL    HW124482   3.750   4.988   1.738
 7861SOL    HW224483   3.702   4.918   1.878
 7862SOL     OW24484   2.607   3.596   1.454
 7862SOL    HW124485   2.590   3.694   1.447
 7862SOL    HW224486   2.607   3.568   1.550
 7863SOL     OW24487   0.825   5.249   4.105
 7863SOL    HW124488   0.829   5.303   4.189
 7863SOL    HW224489   0.806   5.153   4.127
 7864SOL     OW24490   0.506   5.479   4.927
 7864SOL    HW124491   0.518   5.568   4.970
 7864SOL    HW224492   0.409   5.465   4.906
 7865SOL     OW24493   6.213   6.582   3.968
 7865SOL    HW124494   6.307   6.615   3.974
 7865SOL    HW224495   6.202   6.503   4.028
 7866SOL     OW24496   1.417   1.665   6.246
 7866SOL    HW124497   1.448   1.592   6.185
 7866SOL    HW224498   1.322   1.688   6.223
 7867SOL     OW24499   5.776   6.457   3.320
 7867SOL    HW124500   5.732   6.392   3.381
 7867SOL    HW224501   5.875   6.455   3.335
 7868SOL     OW24502   5.791   6.718   1.691
 7868SOL    HW124503   5.758   6.623   1.697
 7868SOL    HW224504   5.749   6.772   1.764
 7869SOL     OW24505   6.356   3.760   0.120
 7869SOL    HW124506   6.341   3.662   0.135
 7869SOL    HW224507   6.358   3.778   0.021
 7870SOL     OW24508   4.125   4.781   3.903
 7870SOL    HW124509   4.131   4.777   3.803
 7870SOL    HW224510   4.215   4.801   3.941
 7871SOL     OW24511   5.017   2.987   2.411
 7871SOL    HW124512   4.973   2.904   2.375
 7871SOL    HW224513   5.095   3.011   2.354
 7872SOL     OW24514   2.546   4.536   3.327
 7872SOL    HW124515   2.582   4.541   3.421
 7872SOL    HW224516   2.606   4.586   3.265
 7873SOL     OW24517   5.438   0.452   5.707
 7873SOL    HW124518   5.468   0.442   5.612
 7873SOL    HW224519   5.515   0.434   5.768
 7874SOL     OW24520   5.514   1.853   0.358
 7874SOL    HW124521   5.510   1.930   0.294
 7874SOL    HW224522   5.609   1.836   0.384
 7875SOL     OW24523   5.199   2.513   6.671
 7875SOL    HW124524   5.270   2.476   6.611
 7875SOL    HW224525   5.223   2.494   6.767
 7876SOL     OW24526   1.244   0.356   4.738
 7876SOL    HW124527   1.279   0.268   4.705
 7876SOL    HW224528   1.147   0.347   4.761
 7877SOL     OW24529   0.963   2.363   3.120
 7877SOL    HW124530   0.971   2.311   3.035
 7877SOL    HW224531   0.958   2.460   3.099
 7878SOL     OW24532   5.963   5.060   4.178
 7878SOL    HW124533   5.897   4.993   4.143
 7878SOL    HW224534   5.928   5.152   4.162
 7879SOL     OW24535   4.548   4.711   4.113
 7879SOL    HW124536   4.527   4.643   4.184
 7879SOL    HW224537   4.509   4.800   4.140
 7880SOL     OW24538   2.081   5.161   0.798
 7880SOL    HW124539   2.042   5.165   0.706
 7880SOL    HW224540   2.063   5.248   0.845
 7881SOL     OW24541   6.219   4.384   4.475
 7881SOL    HW124542   6.135   4.429   4.506
 7881SOL    HW224543   6.260   4.437   4.401
 7882SOL     OW24544   0.917   3.108   2.516
 7882SOL    HW124545   0.937   3.144   2.425
 7882SOL    HW224546   0.880   3.182   2.574
 7883SOL     OW24547   0.844   0.603   0.872
 7883SOL    HW124548   0.908   0.566   0.939
 7883SOL    HW224549   0.785   0.529   0.838
 7884SOL     OW24550   2.112   3.872   3.989
 7884SOL    HW124551   2.166   3.850   3.908
 7884SOL    HW224552   2.048   3.798   4.007
 7885SOL     OW24553   6.193   4.888   1.842
 7885SOL    HW124554   6.282   4.922   1.874
 7885SOL    HW224555   6.125   4.961   1.850
 7886SOL     OW24556   3.537   5.162   0.076
 7886SOL    HW124557   3.532   5.224   0.154
 7886SOL    HW224558   3.553   5.214   7.014
 7887SOL     OW24559   3.335   2.638   5.307
 7887SOL    HW124560   3.278   2.703   5.357
 7887SOL    HW224561   3.282   2.556   5.285
 7888SOL     OW24562   6.477   0.159   4.824
 7888SOL    HW124563   6.528   0.189   4.905
 7888SOL    HW224564   6.528   0.182   4.742
 7889SOL     OW24565   1.898   5.184   0.479
 7889SOL    HW124566   1.800   5.191   0.497
 7889SOL    HW224567   1.937   5.276   0.473
 7890SOL     OW24568   1.012   3.116   3.499
 7890SOL    HW124569   0.927   3.168   3.502
 7890SOL    HW224570   1.077   3.153   3.565
 7891SOL     OW24571   2.572   4.634   3.954
 7891SOL    HW124572   2.665   4.622   3.919
 7891SOL    HW224573   2.537   4.545   3.984
 7892SOL     OW24574   2.058   1.069   3.728
 7892SOL    HW124575   2.074   1.006   3.653
 7892SOL    HW224576   1.997   1.027   3.795
 7893SOL     OW24577   6.703   6.133   1.956
 7893SOL    HW124578   6.642   6.198   1.912
 7893SOL    HW224579   6.651   6.054   1.987
 7894SOL     OW24580   3.943   6.273   0.073
 7894SOL    HW124581   3.959   6.370   0.090
 7894SOL    HW224582   3.855   6.246   0.111
 7895SOL     OW24583   5.709   0.502   5.624
 7895SOL    HW124584   5.770   0.568   5.668
 7895SOL    HW224585   5.687   0.533   5.531
 7896SOL     OW24586   4.105   3.475   1.275
 7896SOL    HW124587   4.200   3.499   1.295
 7896SOL    HW224588   4.103   3.404   1.205
 7897SOL     OW24589   3.038   3.348   0.644
 7897SOL    HW124590   2.942   3.324   0.662
 7897SOL    HW224591   3.050   3.364   0.546
 7898SOL     OW24592   4.098   1.802   3.338
 7898SOL    HW124593   4.176   1.749   3.306
 7898SOL    HW224594   4.056   1.849   3.261
 7899SOL     OW24595   5.576   6.779   1.413
 7899SOL    HW124596   5.535   6.753   1.500
 7899SOL    HW224597   5.581   6.878   1.406
 7900SOL     OW24598   1.376   5.098   2.386
 7900SOL    HW124599   1.375   5.153   2.302
 7900SOL    HW224600   1.469   5.067   2.404
 7901SOL     OW24601   5.040   1.583   6.354
 7901SOL    HW124602   4.977   1.653   6.320
 7901SOL    HW224603   5.076   1.611   6.443
 7902SOL     OW24604   6.037   6.552   1.180
 7902SOL    HW124605   5.952   6.557   1.232
 7902SOL    HW224606   6.093   6.632   1.201
 7903SOL     OW24607   5.409   1.195   1.245
 7903SOL    HW124608   5.356   1.110   1.245
 7903SOL    HW224609   5.426   1.225   1.339
 7904SOL     OW24610   5.400   6.982   3.676
 7904SOL    HW124611   5.486   6.940   3.703
 7904SOL    HW224612   5.324   6.921   3.700
 7905SOL     OW24613   5.321   2.212   0.334
 7905SOL    HW124614   5.372   2.278   0.280
 7905SOL    HW224615   5.363   2.203   0.424
 7906SOL     OW24616   0.940   5.727   0.599
 7906SOL    HW124617   0.922   5.815   0.643
 7906SOL    HW224618   0.879   5.717   0.520
 7907SOL     OW24619   5.234   2.027   2.395
 7907SOL    HW124620   5.185   2.095   2.450
 7907SOL    HW224621   5.292   1.971   2.454
 7908SOL     OW24622   1.661   1.069   5.778
 7908SOL    HW124623   1.616   0.996   5.830
 7908SOL    HW224624   1.662   1.153   5.833
 7909SOL     OW24625   5.352   4.694   4.425
 7909SOL    HW124626   5.341   4.745   4.339
 7909SOL    HW224627   5.289   4.617   4.426
 7910SOL     OW24628   3.046   3.644   5.733
 7910SOL    HW124629   2.996   3.726   5.704
 7910SOL    HW224630   3.002   3.563   5.695
 7911SOL     OW24631   1.900   3.974   0.019
 7911SOL    HW124632   1.986   4.009   7.003
 7911SOL    HW224633   1.840   4.051   0.040
 7912SOL     OW24634   6.963   5.198   1.069
 7912SOL    HW124635   0.013   5.136   1.098
 7912SOL    HW224636   6.970   5.284   1.119
 7913SOL     OW24637   1.443   4.658   0.665
 7913SOL    HW124638   1.367   4.596   0.687
 7913SOL    HW224639   1.490   4.683   0.749
 7914SOL     OW24640   0.424   4.263   0.193
 7914SOL    HW124641   0.462   4.171   0.201
 7914SOL    HW224642   0.410   4.284   0.096
 7915SOL     OW24643   4.897   2.590   1.606
 7915SOL    HW124644   4.809   2.542   1.603
 7915SOL    HW224645   4.888   2.672   1.663
 7916SOL     OW24646   1.089   4.448   4.820
 7916SOL    HW124647   1.016   4.402   4.768
 7916SOL    HW224648   1.050   4.488   4.903
 7917SOL     OW24649   3.972   3.328   4.586
 7917SOL    HW124650   3.908   3.331   4.509
 7917SOL    HW224651   4.062   3.361   4.556
 7918SOL     OW24652   0.216   1.447   5.662
 7918SOL    HW124653   0.163   1.514   5.714
 7918SOL    HW224654   0.163   1.418   5.582
 7919SOL     OW24655   2.340   4.370   3.250
 7919SOL    HW124656   2.299   4.344   3.337
 7919SOL    HW224657   2.416   4.433   3.267
 7920SOL     OW24658   0.096   6.382   0.346
 7920SOL    HW124659   0.135   6.376   0.254
 7920SOL    HW224660   0.001   6.413   0.340
 7921SOL     OW24661   5.364   6.313   1.061
 7921SOL    HW124662   5.290   6.334   0.996
 7921SOL    HW224663   5.326   6.268   1.142
 7922SOL     OW24664   6.966   6.574   0.497
 7922SOL    HW124665   6.934   6.645   0.561
 7922SOL    HW224666   7.011   6.501   0.547
 7923SOL     OW24667   3.504   6.801   1.475
 7923SOL    HW124668   3.554   6.735   1.420
 7923SOL    HW224669   3.438   6.754   1.533
 7924SOL     OW24670   4.620   6.808   1.784
 7924SOL    HW124671   4.673   6.890   1.762
 7924SOL    HW224672   4.664   6.728   1.743
 7925SOL     OW24673   1.358   1.400   6.133
 7925SOL    HW124674   1.288   1.458   6.175
 7925SOL    HW224675   1.411   1.355   6.205
 7926SOL     OW24676   4.735   1.688   5.334
 7926SOL    HW124677   4.816   1.657   5.284
 7926SOL    HW224678   4.662   1.621   5.323
 7927SOL     OW24679   4.602   5.472   2.594
 7927SOL    HW124680   4.623   5.564   2.627
 7927SOL    HW224681   4.648   5.405   2.651
 7928SOL     OW24682   1.167   1.866   5.027
 7928SOL    HW124683   1.238   1.852   5.095
 7928SOL    HW224684   1.083   1.897   5.071
 7929SOL     OW24685   4.281   4.525   5.705
 7929SOL    HW124686   4.244   4.605   5.751
 7929SOL    HW224687   4.207   4.467   5.673
 7930SOL     OW24688   4.226   5.487   4.707
 7930SOL    HW124689   4.318   5.450   4.697
 7930SOL    HW224690   4.205   5.496   4.804
 7931SOL     OW24691   2.528   2.831   0.133
 7931SOL    HW124692   2.482   2.886   0.202
 7931SOL    HW224693   2.470   2.755   0.107
 7932SOL     OW24694   1.500   6.427   6.387
 7932SOL    HW124695   1.523   6.438   6.290
 7932SOL    HW224696   1.581   6.399   6.438
 7933SOL     OW24697   0.490   5.860   5.891
 7933SOL    HW124698   0.538   5.886   5.974
 7933SOL    HW224699   0.551   5.809   5.831
 7934SOL     OW24700   2.550   4.974   6.947
 7934SOL    HW124701   2.463   5.022   6.949
 7934SOL    HW224702   2.566   4.930   0.013
 7935SOL     OW24703   6.209   5.837   0.249
 7935SOL    HW124704   6.119   5.856   0.289
 7935SOL    HW224705   6.219   5.890   0.164
 7936SOL     OW24706   3.959   5.976   2.483
 7936SOL    HW124707   3.940   5.988   2.580
 7936SOL    HW224708   3.998   6.060   2.445
 7937SOL     OW24709   6.822   6.476   3.465
 7937SOL    HW124710   6.739   6.515   3.504
 7937SOL    HW224711   6.819   6.376   3.472
 7938SOL     OW24712   6.393   5.215   3.874
 7938SOL    HW124713   6.445   5.300   3.862
 7938SOL    HW224714   6.363   5.207   3.969
 7939SOL     OW24715   1.830   2.744   5.200
 7939SOL    HW124716   1.805   2.754   5.104
 7939SOL    HW224717   1.908   2.681   5.208
 7940SOL     OW24718   1.797   3.657   1.858
 7940SOL    HW124719   1.772   3.654   1.761
 7940SOL    HW224720   1.736   3.596   1.910
 7941SOL     OW24721   5.666   1.018   1.007
 7941SOL    HW124722   5.614   1.095   1.046
 7941SOL    HW224723   5.694   1.041   0.914
 7942SOL     OW24724   6.653   5.922   2.596
 7942SOL    HW124725   6.620   6.009   2.634
 7942SOL    HW224726   6.623   5.913   2.501
 7943SOL     OW24727   6.291   3.480   0.111
 7943SOL    HW124728   6.360   3.430   0.163
 7943SOL    HW224729   6.303   3.461   0.013
 7944SOL     OW24730   0.380   2.533   1.646
 7944SOL    HW124731   0.342   2.556   1.557
 7944SOL    HW224732   0.378   2.434   1.659
 7945SOL     OW24733   5.721   5.268   1.339
 7945SOL    HW124734   5.743   5.338   1.272
 7945SOL    HW224735   5.677   5.191   1.293
 7946SOL     OW24736   2.337   1.201   5.569
 7946SOL    HW124737   2.316   1.106   5.549
 7946SOL    HW224738   2.432   1.220   5.543
 7947SOL     OW24739   4.029   1.910   5.955
 7947SOL    HW124740   4.109   1.868   5.998
 7947SOL    HW224741   4.044   1.916   5.857
 7948SOL     OW24742   1.119   6.913   0.914
 7948SOL    HW124743   1.029   6.956   0.906
 7948SOL    HW224744   1.110   6.827   0.963
 7949SOL     OW24745   4.545   4.595   4.980
 7949SOL    HW124746   4.576   4.675   5.032
 7949SOL    HW224747   4.449   4.576   5.002
 7950SOL     OW24748   5.357   5.357   4.072
 7950SOL    HW124749   5.454   5.346   4.093
 7950SOL    HW224750   5.341   5.334   3.976
 7951SOL     OW24751   2.196   4.104   1.870
 7951SOL    HW124752   2.210   4.005   1.865
 7951SOL    HW224753   2.203   4.143   1.778
 7952SOL     OW24754   0.766   3.535   6.968
 7952SOL    HW124755   0.810   3.579   6.890
 7952SOL    HW224756   0.767   3.597   0.024
 7953SOL     OW24757   2.165   2.514   3.995
 7953SOL    HW124758   2.204   2.529   4.086
 7953SOL    HW224759   2.104   2.590   3.972
 7954SOL     OW24760   3.879   4.101   6.050
 7954SOL    HW124761   3.860   4.130   6.144
 7954SOL    HW224762   3.799   4.056   6.011
 7955SOL     OW24763   1.513   6.610   7.019
 7955SOL    HW124764   1.466   6.638   6.936
 7955SOL    HW224765   1.501   6.681   0.067
 7956SOL     OW24766   3.909   6.015   2.767
 7956SOL    HW124767   3.932   6.030   2.864
 7956SOL    HW224768   3.818   5.974   2.760
 7957SOL     OW24769   1.161   0.922   1.694
 7957SOL    HW124770   1.140   0.843   1.637
 7957SOL    HW224771   1.082   0.944   1.752
 7958SOL     OW24772   3.390   4.962   4.511
 7958SOL    HW124773   3.348   5.053   4.514
 7958SOL    HW224774   3.339   4.900   4.570
 7959SOL     OW24775   4.379   6.053   0.817
 7959SOL    HW124776   4.472   6.082   0.836
 7959SOL    HW224777   4.379   5.986   0.742
 7960SOL     OW24778   2.726   1.142   6.886
 7960SOL    HW124779   2.685   1.215   6.832
 7960SOL    HW224780   2.664   1.063   6.890
 7961SOL     OW24781   0.156   0.963   1.069
 7961SOL    HW124782   0.074   0.976   1.124
 7961SOL    HW224783   0.185   1.051   1.031
 7962SOL     OW24784   0.968   0.626   6.964
 7962SOL    HW124785   0.949   0.534   6.997
 7962SOL    HW224786   0.966   0.690   0.019
 7963SOL     OW24787   6.679   6.659   4.179
 7963SOL    HW124788   6.675   6.634   4.275
 7963SOL    HW224789   6.774   6.680   4.154
 7964SOL     OW24790   0.536   4.936   3.229
 7964SOL    HW124791   0.548   4.838   3.211
 7964SOL    HW224792   0.526   4.985   3.143
 7965SOL     OW24793   3.816   2.240   5.913
 7965SOL    HW124794   3.721   2.210   5.903
 7965SOL    HW224795   3.832   2.269   6.008
 7966SOL     OW24796   1.301   2.933   5.869
 7966SOL    HW124797   1.218   2.988   5.858
 7966SOL    HW224798   1.345   2.921   5.780
 7967SOL     OW24799   2.817   6.678   3.364
 7967SOL    HW124800   2.730   6.687   3.412
 7967SOL    HW224801   2.882   6.629   3.423
 7968SOL     OW24802   1.857   3.025   3.926
 7968SOL    HW124803   1.853   3.050   3.829
 7968SOL    HW224804   1.917   2.946   3.938
 7969SOL     OW24805   4.353   5.856   0.594
 7969SOL    HW124806   4.414   5.875   0.517
 7969SOL    HW224807   4.259   5.879   0.569
 7970SOL     OW24808   6.584   2.740   2.763
 7970SOL    HW124809   6.682   2.719   2.764
 7970SOL    HW224810   6.538   2.690   2.836
 7971SOL     OW24811   3.839   2.204   0.506
 7971SOL    HW124812   3.829   2.143   0.427
 7971SOL    HW224813   3.842   2.299   0.474
 7972SOL     OW24814   1.918   3.383   0.786
 7972SOL    HW124815   1.999   3.397   0.730
 7972SOL    HW224816   1.860   3.464   0.781
 7973SOL     OW24817   4.107   4.775   4.206
 7973SOL    HW124818   4.031   4.771   4.142
 7973SOL    HW224819   4.155   4.862   4.195
 7974SOL     OW24820   6.166   1.578   5.591
 7974SOL    HW124821   6.101   1.645   5.555
 7974SOL    HW224822   6.115   1.502   5.632
 7975SOL     OW24823   6.065   1.678   2.280
 7975SOL    HW124824   6.001   1.743   2.238
 7975SOL    HW224825   6.111   1.626   2.209
 7976SOL     OW24826   0.778   0.496   6.146
 7976SOL    HW124827   0.786   0.471   6.242
 7976SOL    HW224828   0.809   0.590   6.133
 7977SOL     OW24829   4.781   6.230   2.228
 7977SOL    HW124830   4.826   6.254   2.142
 7977SOL    HW224831   4.737   6.140   2.218
 7978SOL     OW24832   6.058   3.693   6.828
 7978SOL    HW124833   6.133   3.757   6.809
 7978SOL    HW224834   6.083   3.602   6.796
 7979SOL     OW24835   4.306   6.108   5.607
 7979SOL    HW124836   4.339   6.174   5.539
 7979SOL    HW224837   4.238   6.048   5.565
 7980SOL     OW24838   2.675   5.174   6.837
 7980SOL    HW124839   2.668   5.181   6.738
 7980SOL    HW224840   2.632   5.089   6.868
 7981SOL     OW24841   0.876   5.626   1.600
 7981SOL    HW124842   0.932   5.549   1.631
 7981SOL    HW224843   0.934   5.690   1.550
 7982SOL     OW24844   0.219   1.577   0.088
 7982SOL    HW124845   0.230   1.529   0.175
 7982SOL    HW224846   0.309   1.596   0.048
 7983SOL     OW24847   5.983   2.191   1.728
 7983SOL    HW124848   6.038   2.270   1.701
 7983SOL    HW224849   5.892   2.222   1.756
 7984SOL     OW24850   1.688   1.272   1.093
 7984SOL    HW124851   1.617   1.327   1.050
 7984SOL    HW224852   1.747   1.232   1.023
 7985SOL     OW24853   2.955   1.086   4.190
 7985SOL    HW124854   2.961   1.130   4.101
 7985SOL    HW224855   3.022   1.127   4.252
 7986SOL     OW24856   3.083   1.510   6.778
 7986SOL    HW124857   3.021   1.441   6.815
 7986SOL    HW224858   3.087   1.588   6.840
 7987SOL     OW24859   1.728   2.771   6.247
 7987SOL    HW124860   1.747   2.729   6.158
 7987SOL    HW224861   1.638   2.743   6.279
 7988SOL     OW24862   0.875   2.292   3.844
 7988SOL    HW124863   0.881   2.238   3.928
 7988SOL    HW224864   0.837   2.236   3.770
 7989SOL     OW24865   3.413   2.915   5.498
 7989SOL    HW124866   3.480   2.880   5.433
 7989SOL    HW224867   3.401   3.014   5.484
 7990SOL     OW24868   0.029   3.099   4.031
 7990SOL    HW124869   6.952   3.106   4.029
 7990SOL    HW224870   0.055   3.009   4.065
 7991SOL     OW24871   5.723   6.534   3.657
 7991SOL    HW124872   5.647   6.485   3.615
 7991SOL    HW224873   5.795   6.548   3.589
 7992SOL     OW24874   1.940   6.209   1.633
 7992SOL    HW124875   1.927   6.209   1.732
 7992SOL    HW224876   1.907   6.295   1.595
 7993SOL     OW24877   0.193   6.694   6.494
 7993SOL    HW124878   0.191   6.773   6.432
 7993SOL    HW224879   0.174   6.725   6.587
 7994SOL     OW24880   4.609   6.505   3.651
 7994SOL    HW124881   4.599   6.531   3.747
 7994SOL    HW224882   4.602   6.587   3.594
 7995SOL     OW24883   4.663   5.410   3.616
 7995SOL    HW124884   4.713   5.358   3.547
 7995SOL    HW224885   4.625   5.493   3.575
 7996SOL     OW24886   3.450   0.309   4.698
 7996SOL    HW124887   3.373   0.260   4.657
 7996SOL    HW224888   3.494   0.366   4.629
 7997SOL     OW24889   0.337   1.301   1.712
 7997SOL    HW124890   0.238   1.296   1.701
 7997SOL    HW224891   0.379   1.328   1.625
 7998SOL     OW24892   3.291   5.783   1.596
 7998SOL    HW124893   3.255   5.752   1.684
 7998SOL    HW224894   3.271   5.880   1.584
 7999SOL     OW24895   0.543   0.102   5.925
 7999SOL    HW124896   0.518   0.128   6.018
 7999SOL    HW224897   0.639   0.072   5.924
 8000SOL     OW24898   5.268   0.281   6.794
 8000SOL    HW124899   5.193   0.293   6.730
 8000SOL    HW224900   5.302   0.370   6.824
 8001SOL     OW24901   3.912   6.350   0.925
 8001SOL    HW124902   3.992   6.300   0.891
 8001SOL    HW224903   3.886   6.314   1.015
 8002SOL     OW24904   0.901   2.243   6.009
 8002SOL    HW124905   0.947   2.254   6.097
 8002SOL    HW224906   0.929   2.316   5.948
 8003SOL     OW24907   3.126   5.380   2.847
 8003SOL    HW124908   3.111   5.290   2.887
 8003SOL    HW224909   3.042   5.433   2.852
 8004SOL     OW24910   2.044   3.412   3.633
 8004SOL    HW124911   2.085   3.379   3.718
 8004SOL    HW224912   2.058   3.344   3.561
 8005SOL     OW24913   3.450   0.691   1.679
 8005SOL    HW124914   3.396   0.607   1.687
 8005SOL    HW224915   3.418   0.743   1.601
 8006SOL     OW24916   1.578   0.307   6.541
 8006SOL    HW124917   1.539   0.398   6.526
 8006SOL    HW224918   1.676   0.314   6.558
 8007SOL     OW24919   6.508   0.721   4.370
 8007SOL    HW124920   6.469   0.717   4.462
 8007SOL    HW224921   6.489   0.810   4.329
 8008SOL     OW24922   4.489   5.538   6.068
 8008SOL    HW124923   4.425   5.601   6.024
 8008SOL    HW224924   4.581   5.577   6.066
 8009SOL     OW24925   5.645   1.137   3.095
 8009SOL    HW124926   5.630   1.093   3.183
 8009SOL    HW224927   5.629   1.235   3.104
 8010SOL     OW24928   0.799   1.149   6.717
 8010SOL    HW124929   0.784   1.081   6.790
 8010SOL    HW224930   0.713   1.168   6.670
 8011SOL     OW24931   3.478   2.262   0.840
 8011SOL    HW124932   3.513   2.269   0.746
 8011SOL    HW224933   3.544   2.215   0.897
 8012SOL     OW24934   1.501   3.865   1.708
 8012SOL    HW124935   1.547   3.777   1.711
 8012SOL    HW224936   1.564   3.934   1.672
 8013SOL     OW24937   0.948   5.094   3.740
 8013SOL    HW124938   1.028   5.095   3.678
 8013SOL    HW224939   0.864   5.094   3.685
 8014SOL     OW24940   1.191   6.633   5.128
 8014SOL    HW124941   1.119   6.600   5.188
 8014SOL    HW224942   1.255   6.558   5.109
 8015SOL     OW24943   2.450   0.945   0.383
 8015SOL    HW124944   2.490   0.971   0.471
 8015SOL    HW224945   2.394   1.020   0.348
 8016SOL     OW24946   5.539   0.089   5.867
 8016SOL    HW124947   5.598   0.161   5.829
 8016SOL    HW224948   5.587   0.002   5.863
 8017SOL     OW24949   5.792   6.975   0.815
 8017SOL    HW124950   5.891   6.965   0.809
 8017SOL    HW224951   5.763   6.961   0.910
 8018SOL     OW24952   3.139   1.957   5.486
 8018SOL    HW124953   3.151   1.987   5.391
 8018SOL    HW224954   3.084   1.874   5.487
 8019SOL     OW24955   2.223   4.556   6.415
 8019SOL    HW124956   2.236   4.460   6.390
 8019SOL    HW224957   2.182   4.605   6.337
 8020SOL     OW24958   5.852   0.313   0.911
 8020SOL    HW124959   5.915   0.343   0.983
 8020SOL    HW224960   5.762   0.293   0.952
 8021SOL     OW24961   1.324   2.620   1.016
 8021SOL    HW124962   1.363   2.711   1.006
 8021SOL    HW224963   1.344   2.565   0.935
 8022SOL     OW24964   5.161   6.408   2.700
 8022SOL    HW124965   5.196   6.397   2.606
 8022SOL    HW224966   5.177   6.502   2.730
 8023SOL     OW24967   5.951   5.623   3.002
 8023SOL    HW124968   5.930   5.537   2.956
 8023SOL    HW224969   5.983   5.689   2.935
 8024SOL     OW24970   2.946   5.030   6.854
 8024SOL    HW124971   2.968   5.119   6.816
 8024SOL    HW224972   2.861   4.996   6.814
 8025SOL     OW24973   2.363   6.583   6.931
 8025SOL    HW124974   2.431   6.655   6.942
 8025SOL    HW224975   2.398   6.498   6.970
 8026SOL     OW24976   0.823   4.441   6.617
 8026SOL    HW124977   0.883   4.370   6.653
 8026SOL    HW224978   0.743   4.399   6.574
 8027SOL     OW24979   4.715   0.824   5.507
 8027SOL    HW124980   4.623   0.853   5.482
 8027SOL    HW224981   4.755   0.890   5.571
 8028SOL     OW24982   3.093   5.378   4.851
 8028SOL    HW124983   3.015   5.354   4.909
 8028SOL    HW224984   3.109   5.304   4.785
 8029SOL     OW24985   4.997   3.301   1.534
 8029SOL    HW124986   5.046   3.217   1.554
 8029SOL    HW224987   4.904   3.295   1.571
 8030SOL     OW24988   4.250   4.538   0.810
 8030SOL    HW124989   4.209   4.456   0.768
 8030SOL    HW224990   4.191   4.617   0.793
 8031SOL     OW24991   5.645   6.860   2.438
 8031SOL    HW124992   5.617   6.871   2.342
 8031SOL    HW224993   5.738   6.823   2.441
 8032SOL     OW24994   6.778   5.196   0.509
 8032SOL    HW124995   6.726   5.277   0.481
 8032SOL    HW224996   6.808   5.207   0.604
 8033SOL     OW24997   4.889   1.923   5.608
 8033SOL    HW124998   4.974   1.933   5.556
 8033SOL    HW224999   4.892   1.839   5.663
 8034SOL     OW25000   5.637   6.787   4.721
 8034SOL    HW125001   5.735   6.773   4.732
 8034SOL    HW225002   5.588   6.741   4.795
 8035SOL     OW25003   5.078   1.517   4.289
 8035SOL    HW125004   5.021   1.573   4.230
 8035SOL    HW225005   5.098   1.430   4.244
 8036SOL     OW25006   0.785   4.136   3.027
 8036SOL    HW125007   0.842   4.154   2.946
 8036SOL    HW225008   0.712   4.204   3.031
 8037SOL     OW25009   1.669   2.980   0.968
 8037SOL    HW125010   1.730   2.963   1.045
 8037SOL    HW225011   1.718   3.033   0.898
 8038SOL     OW25012   3.821   0.088   2.137
 8038SOL    HW125013   3.821   7.012   2.122
 8038SOL    HW225014   3.764   0.133   2.069
 8039SOL     OW25015   0.671   1.946   4.369
 8039SOL    HW125016   0.744   1.935   4.437
 8039SOL    HW225017   0.697   2.018   4.304
 8040SOL     OW25018   1.807   6.080   0.297
 8040SOL    HW125019   1.823   6.093   0.395
 8040SOL    HW225020   1.743   6.005   0.283
 8041SOL     OW25021   3.175   1.537   1.980
 8041SOL    HW125022   3.274   1.525   1.982
 8041SOL    HW225023   3.154   1.633   1.965
 8042SOL     OW25024   2.989   3.576   3.745
 8042SOL    HW125025   2.937   3.631   3.810
 8042SOL    HW225026   2.958   3.595   3.652
 8043SOL     OW25027   4.276   6.663   2.478
 8043SOL    HW125028   4.343   6.723   2.522
 8043SOL    HW225029   4.195   6.655   2.536
 8044SOL     OW25030   3.935   2.862   1.153
 8044SOL    HW125031   4.022   2.896   1.117
 8044SOL    HW225032   3.951   2.819   1.242
 8045SOL     OW25033   5.007   1.248   2.256
 8045SOL    HW125034   4.997   1.285   2.163
 8045SOL    HW225035   5.004   1.323   2.322
 8046SOL     OW25036   0.365   5.123   0.791
 8046SOL    HW125037   0.457   5.084   0.801
 8046SOL    HW225038   0.332   5.108   0.698
 8047SOL     OW25039   4.097   5.486   4.284
 8047SOL    HW125040   4.169   5.424   4.315
 8047SOL    HW225041   4.133   5.579   4.277
 8048SOL     OW25042   5.074   0.995   5.797
 8048SOL    HW125043   5.090   1.066   5.865
 8048SOL    HW225044   5.090   0.905   5.838
 8049SOL     OW25045   0.671   0.098   6.913
 8049SOL    HW125046   0.594   0.085   6.850
 8049SOL    HW225047   0.756   0.101   6.861
 8050SOL     OW25048   1.674   3.723   3.250
 8050SOL    HW125049   1.702   3.817   3.231
 8050SOL    HW225050   1.656   3.676   3.164
 8051SOL     OW25051   4.354   5.859   3.073
 8051SOL    HW125052   4.447   5.896   3.066
 8051SOL    HW225053   4.341   5.788   3.004
 8052SOL     OW25054   4.660   1.718   1.733
 8052SOL    HW125055   4.646   1.810   1.770
 8052SOL    HW225056   4.587   1.658   1.765
 8053SOL     OW25057   2.881   3.666   3.071
 8053SOL    HW125058   2.797   3.658   3.017
 8053SOL    HW225059   2.934   3.744   3.038
 8054SOL     OW25060   4.924   0.162   4.656
 8054SOL    HW125061   4.990   0.190   4.585
 8054SOL    HW225062   4.949   0.071   4.690
 8055SOL     OW25063   6.950   0.203   5.302
 8055SOL    HW125064   7.015   0.174   5.232
 8055SOL    HW225065   6.937   0.130   5.369
 8056SOL     OW25066   3.209   1.789   4.369
 8056SOL    HW125067   3.265   1.814   4.448
 8056SOL    HW225068   3.113   1.786   4.396
 8057SOL     OW25069   3.054   1.405   3.091
 8057SOL    HW125070   3.151   1.400   3.111
 8057SOL    HW225071   3.038   1.474   3.020
 8058SOL     OW25072   4.397   0.698   1.803
 8058SOL    HW125073   4.314   0.703   1.747
 8058SOL    HW225074   4.372   0.673   1.896
 8059SOL     OW25075   3.637   1.733   4.601
 8059SOL    HW125076   3.664   1.641   4.572
 8059SOL    HW225077   3.629   1.736   4.700
 8060SOL     OW25078   6.438   2.220   3.850
 8060SOL    HW125079   6.343   2.242   3.870
 8060SOL    HW225080   6.477   2.288   3.788
 8061SOL     OW25081   0.445   1.320   2.858
 8061SOL    HW125082   0.471   1.416   2.867
 8061SOL    HW225083   0.445   1.294   2.761
 8062SOL     OW25084   3.635   5.234   4.237
 8062SOL    HW125085   3.629   5.135   4.227
 8062SOL    HW225086   3.700   5.271   4.171
 8063SOL     OW25087   0.805   2.075   1.577
 8063SOL    HW125088   0.850   2.034   1.656
 8063SOL    HW225089   0.856   2.155   1.546
 8064SOL     OW25090   0.218   4.181   2.057
 8064SOL    HW125091   0.280   4.139   1.991
 8064SOL    HW225092   0.192   4.273   2.025
 8065SOL     OW25093   2.737   5.590   3.846
 8065SOL    HW125094   2.688   5.618   3.763
 8065SOL    HW225095   2.816   5.535   3.821
 8066SOL     OW25096   6.921   2.404   5.695
 8066SOL    HW125097   6.872   2.330   5.741
 8066SOL    HW225098   6.939   2.378   5.600
 8067SOL     OW25099   4.436   2.822   1.636
 8067SOL    HW125100   4.449   2.911   1.680
 8067SOL    HW225101   4.503   2.757   1.672
 8068SOL     OW25102   6.693   4.272   0.804
 8068SOL    HW125103   6.711   4.310   0.713
 8068SOL    HW225104   6.767   4.297   0.866
 8069SOL     OW25105   1.887   6.396   1.391
 8069SOL    HW125106   1.921   6.489   1.406
 8069SOL    HW225107   1.964   6.336   1.370
 8070SOL     OW25108   3.362   3.157   7.020
 8070SOL    HW125109   3.347   3.256   0.003
 8070SOL    HW225110   3.285   3.110   0.041
 8071SOL     OW25111   2.571   6.485   4.882
 8071SOL    HW125112   2.505   6.517   4.950
 8071SOL    HW225113   2.583   6.386   4.891
 8072SOL     OW25114   2.997   0.804   0.021
 8072SOL    HW125115   3.006   0.892   6.997
 8072SOL    HW225116   2.997   0.818   0.120
 8073SOL     OW25117   3.452   5.503   4.572
 8073SOL    HW125118   3.522   5.432   4.559
 8073SOL    HW225119   3.436   5.517   4.670
 8074SOL     OW25120   4.037   2.207   0.954
 8074SOL    HW125121   4.035   2.267   1.034
 8074SOL    HW225122   4.131   2.201   0.919
 8075SOL     OW25123   0.167   0.657   1.030
 8075SOL    HW125124   0.146   0.748   0.994
 8075SOL    HW225125   0.255   0.627   0.995
 8076SOL     OW25126   5.885   2.025   5.530
 8076SOL    HW125127   5.796   2.012   5.486
 8076SOL    HW225128   5.886   2.112   5.578
 8077SOL     OW25129   2.789   5.707   1.814
 8077SOL    HW125130   2.780   5.742   1.721
 8077SOL    HW225131   2.777   5.608   1.814
 8078SOL     OW25132   6.528   1.349   0.015
 8078SOL    HW125133   6.472   1.290   0.073
 8078SOL    HW225134   6.623   1.318   0.018
 8079SOL     OW25135   4.637   1.389   3.143
 8079SOL    HW125136   4.673   1.322   3.079
 8079SOL    HW225137   4.682   1.477   3.128
 8080SOL     OW25138   0.467   2.876   0.515
 8080SOL    HW125139   0.498   2.899   0.607
 8080SOL    HW225140   0.545   2.851   0.459
 8081SOL     OW25141   5.093   6.346   4.628
 8081SOL    HW125142   5.175   6.354   4.570
 8081SOL    HW225143   5.076   6.434   4.673
 8082SOL     OW25144   5.001   6.358   2.016
 8082SOL    HW125145   5.009   6.424   2.090
 8082SOL    HW225146   4.905   6.344   1.993
 8083SOL     OW25147   4.890   3.845   2.608
 8083SOL    HW125148   4.952   3.767   2.601
 8083SOL    HW225149   4.876   3.868   2.704
 8084SOL     OW25150   5.074   0.135   0.403
 8084SOL    HW125151   4.985   0.094   0.423
 8084SOL    HW225152   5.120   0.081   0.333
 8085SOL     OW25153   6.531   5.907   1.998
 8085SOL    HW125154   6.516   5.851   1.916
 8085SOL    HW225155   6.444   5.920   2.046
 8086SOL     OW25156   4.875   1.070   3.407
 8086SOL    HW125157   4.966   1.053   3.444
 8086SOL    HW225158   4.820   1.118   3.475
 8087SOL     OW25159   2.411   1.518   0.450
 8087SOL    HW125160   2.354   1.548   0.526
 8087SOL    HW225161   2.447   1.599   0.402
 8088SOL     OW25162   5.074   2.564   1.383
 8088SOL    HW125163   5.095   2.656   1.351
 8088SOL    HW225164   5.029   2.569   1.472
 8089SOL     OW25165   5.307   2.002   0.804
 8089SOL    HW125166   5.225   1.969   0.759
 8089SOL    HW225167   5.364   2.051   0.738
 8090SOL     OW25168   4.888   1.866   0.167
 8090SOL    HW125169   4.963   1.799   0.173
 8090SOL    HW225170   4.802   1.818   0.153
 8091SOL     OW25171   2.244   3.781   5.710
 8091SOL    HW125172   2.317   3.828   5.759
 8091SOL    HW225173   2.167   3.765   5.773
 8092SOL     OW25174   6.419   2.524   5.227
 8092SOL    HW125175   6.344   2.506   5.163
 8092SOL    HW225176   6.390   2.591   5.295
 8093SOL     OW25177   3.844   5.240   2.820
 8093SOL    HW125178   3.790   5.156   2.833
 8093SOL    HW225179   3.931   5.217   2.777
 8094SOL     OW25180   1.563   3.840   5.242
 8094SOL    HW125181   1.599   3.919   5.192
 8094SOL    HW225182   1.481   3.806   5.195
 8095SOL     OW25183   6.706   4.393   5.421
 8095SOL    HW125184   6.664   4.431   5.503
 8095SOL    HW225185   6.707   4.462   5.349
 8096SOL     OW25186   2.714   6.326   3.309
 8096SOL    HW125187   2.763   6.243   3.282
 8096SOL    HW225188   2.663   6.308   3.393
 8097SOL     OW25189   4.334   6.862   3.537
 8097SOL    HW125190   4.338   6.911   3.623
 8097SOL    HW225191   4.254   6.802   3.536
 8098SOL     OW25192   1.675   0.162   3.557
 8098SOL    HW125193   1.698   0.259   3.549
 8098SOL    HW225194   1.590   0.152   3.609
 8099SOL     OW25195   4.325   0.418   4.089
 8099SOL    HW125196   4.290   0.325   4.079
 8099SOL    HW225197   4.249   0.482   4.095
 8100SOL     OW25198   5.913   0.257   0.658
 8100SOL    HW125199   6.010   0.281   0.660
 8100SOL    HW225200   5.873   0.275   0.748
 8101SOL     OW25201   2.031   0.409   3.618
 8101SOL    HW125202   1.956   0.386   3.556
 8101SOL    HW225203   2.098   0.335   3.617
 8102SOL     OW25204   0.484   4.753   4.277
 8102SOL    HW125205   0.562   4.764   4.215
 8102SOL    HW225206   0.516   4.715   4.364
 8103SOL     OW25207   4.058   0.036   1.458
 8103SOL    HW125208   4.099   7.008   1.535
 8103SOL    HW225209   3.967   7.022   1.439
 8104SOL     OW25210   3.080   0.377   5.909
 8104SOL    HW125211   3.132   0.446   5.859
 8104SOL    HW225212   3.036   0.419   5.989
 8105SOL     OW25213   0.858   2.354   3.384
 8105SOL    HW125214   0.875   2.310   3.296
 8105SOL    HW225215   0.875   2.452   3.377
 8106SOL     OW25216   1.915   6.240   2.910
 8106SOL    HW125217   2.004   6.282   2.928
 8106SOL    HW225218   1.897   6.243   2.812
 8107SOL     OW25219   0.271   5.257   4.637
 8107SOL    HW125220   0.319   5.340   4.664
 8107SOL    HW225221   0.300   5.229   4.545
 8108SOL     OW25222   6.181   3.171   5.287
 8108SOL    HW125223   6.098   3.137   5.331
 8108SOL    HW225224   6.157   3.226   5.207
 8109SOL     OW25225   1.670   4.029   4.219
 8109SOL    HW125226   1.746   4.003   4.160
 8109SOL    HW225227   1.693   4.010   4.315
 8110SOL     OW25228   3.353   6.183   0.774
 8110SOL    HW125229   3.281   6.215   0.836
 8110SOL    HW225230   3.440   6.177   0.824
 8111SOL     OW25231   4.421   0.583   4.638
 8111SOL    HW125232   4.517   0.600   4.617
 8111SOL    HW225233   4.403   0.485   4.633
 8112SOL     OW25234   2.340   2.427   4.744
 8112SOL    HW125235   2.249   2.417   4.704
 8112SOL    HW225236   2.381   2.513   4.713
 8113SOL     OW25237   2.994   3.248   0.941
 8113SOL    HW125238   2.954   3.188   1.009
 8113SOL    HW225239   2.935   3.251   0.860
 8114SOL     OW25240   2.052   3.683   1.912
 8114SOL    HW125241   2.122   3.611   1.912
 8114SOL    HW225242   1.963   3.642   1.891
 8115SOL     OW25243   3.427   0.324   0.267
 8115SOL    HW125244   3.388   0.355   0.180
 8115SOL    HW225245   3.445   0.403   0.325
 8116SOL     OW25246   4.399   5.865   5.782
 8116SOL    HW125247   4.313   5.899   5.743
 8116SOL    HW225248   4.475   5.888   5.721
 8117SOL     OW25249   1.953   0.998   4.013
 8117SOL    HW125250   2.027   1.018   4.078
 8117SOL    HW225251   1.908   1.084   3.988
 8118SOL     OW25252   5.915   4.171   6.093
 8118SOL    HW125253   5.969   4.138   6.171
 8118SOL    HW225254   5.853   4.243   6.123
 8119SOL     OW25255   5.927   6.089   5.562
 8119SOL    HW125256   5.930   6.156   5.488
 8119SOL    HW225257   5.832   6.079   5.593
 8120SOL     OW25258   2.401   5.041   0.264
 8120SOL    HW125259   2.311   5.006   0.289
 8120SOL    HW225260   2.466   4.964   0.258
 8121SOL     OW25261   0.384   4.780   1.723
 8121SOL    HW125262   0.417   4.719   1.795
 8121SOL    HW225263   0.388   4.732   1.635
 8122SOL     OW25264   1.434   5.882   2.281
 8122SOL    HW125265   1.349   5.847   2.242
 8122SOL    HW225266   1.510   5.823   2.254
 8123SOL     OW25267   6.559   0.503   0.048
 8123SOL    HW125268   6.512   0.573   0.102
 8123SOL    HW225269   6.655   0.499   0.075
 8124SOL     OW25270   6.809   6.409   0.951
 8124SOL    HW125271   6.762   6.356   1.022
 8124SOL    HW225272   6.744   6.470   0.907
 8125SOL     OW25273   1.138   0.648   4.116
 8125SOL    HW125274   1.062   0.674   4.176
 8125SOL    HW225275   1.155   0.550   4.126
 8126SOL     OW25276   5.440   4.690   2.737
 8126SOL    HW125277   5.436   4.599   2.778
 8126SOL    HW225278   5.531   4.706   2.699
 8127SOL     OW25279   2.895   6.359   6.643
 8127SOL    HW125280   2.932   6.372   6.551
 8127SOL    HW225281   2.918   6.439   6.700
 8128SOL     OW25282   2.573   2.404   1.599
 8128SOL    HW125283   2.642   2.470   1.568
 8128SOL    HW225284   2.608   2.354   1.678
 8129SOL     OW25285   4.292   0.826   6.138
 8129SOL    HW125286   4.207   0.856   6.181
 8129SOL    HW225287   4.315   0.888   6.063
 8130SOL     OW25288   0.111   3.961   6.729
 8130SOL    HW125289   0.149   3.884   6.678
 8130SOL    HW225290   0.142   4.047   6.687
 8131SOL     OW25291   3.360   1.558   0.638
 8131SOL    HW125292   3.441   1.613   0.658
 8131SOL    HW225293   3.285   1.618   0.608
 8132SOL     OW25294   5.501   6.260   6.013
 8132SOL    HW125295   5.487   6.333   5.946
 8132SOL    HW225296   5.536   6.179   5.967
 8133SOL     OW25297   2.761   4.753   1.604
 8133SOL    HW125298   2.861   4.755   1.610
 8133SOL    HW225299   2.722   4.746   1.696
 8134SOL     OW25300   0.763   2.790   5.285
 8134SOL    HW125301   0.707   2.744   5.355
 8134SOL    HW225302   0.711   2.795   5.200
 8135SOL     OW25303   2.589   6.024   0.883
 8135SOL    HW125304   2.493   6.047   0.896
 8135SOL    HW225305   2.598   5.962   0.805
 8136SOL     OW25306   4.693   4.730   3.163
 8136SOL    HW125307   4.742   4.707   3.247
 8136SOL    HW225308   4.643   4.815   3.176
 8137SOL     OW25309   3.242   1.472   4.755
 8137SOL    HW125310   3.213   1.377   4.771
 8137SOL    HW225311   3.225   1.526   4.837
 8138SOL     OW25312   6.195   2.129   0.150
 8138SOL    HW125313   6.104   2.109   0.115
 8138SOL    HW225314   6.189   2.200   0.220
 8139SOL     OW25315   1.371   1.353   3.992
 8139SOL    HW125316   1.441   1.284   3.972
 8139SOL    HW225317   1.308   1.318   4.061
 8140SOL     OW25318   4.637   6.993   0.943
 8140SOL    HW125319   4.733   6.982   0.917
 8140SOL    HW225320   4.605   6.909   0.987
 8141SOL     OW25321   4.582   6.382   5.122
 8141SOL    HW125322   4.572   6.427   5.210
 8141SOL    HW225323   4.493   6.354   5.088
 8142SOL     OW25324   1.790   5.448   0.098
 8142SOL    HW125325   1.838   5.378   0.044
 8142SOL    HW225326   1.743   5.511   0.037
 8143SOL     OW25327   6.450   4.680   0.113
 8143SOL    HW125328   6.414   4.594   0.151
 8143SOL    HW225329   6.378   4.726   0.060
 8144SOL     OW25330   0.414   6.228   5.931
 8144SOL    HW125331   0.330   6.276   5.905
 8144SOL    HW225332   0.391   6.151   5.990
 8145SOL     OW25333   5.740   5.207   1.035
 8145SOL    HW125334   5.767   5.293   0.992
 8145SOL    HW225335   5.814   5.176   1.095
 8146SOL     OW25336   5.234   0.707   5.589
 8146SOL    HW125337   5.151   0.679   5.637
 8146SOL    HW225338   5.219   0.702   5.490
 8147SOL     OW25339   6.492   1.437   2.258
 8147SOL    HW125340   6.529   1.373   2.192
 8147SOL    HW225341   6.545   1.522   2.257
 8148SOL     OW25342   5.317   4.643   0.529
 8148SOL    HW125343   5.288   4.719   0.472
 8148SOL    HW225344   5.415   4.652   0.548
 8149SOL     OW25345   2.093   6.417   3.319
 8149SOL    HW125346   2.085   6.482   3.243
 8149SOL    HW225347   2.038   6.449   3.396
 8150SOL     OW25348   2.062   3.471   1.033
 8150SOL    HW125349   2.024   3.395   0.981
 8150SOL    HW225350   2.006   3.488   1.115
 8151SOL     OW25351   5.887   4.883   3.039
 8151SOL    HW125352   5.872   4.868   3.137
 8151SOL    HW225353   5.882   4.796   2.991
 8152SOL     OW25354   6.183   2.676   3.219
 8152SOL    HW125355   6.087   2.655   3.237
 8152SOL    HW225356   6.242   2.610   3.266
 8153SOL     OW25357   1.470   1.777   3.772
 8153SOL    HW125358   1.433   1.739   3.857
 8153SOL    HW225359   1.507   1.704   3.715
 8154SOL     OW25360   3.767   6.274   2.331
 8154SOL    HW125361   3.692   6.264   2.396
 8154SOL    HW225362   3.789   6.371   2.319
 8155SOL     OW25363   1.428   3.274   1.712
 8155SOL    HW125364   1.439   3.231   1.802
 8155SOL    HW225365   1.380   3.361   1.723
 8156SOL     OW25366   5.014   6.333   0.615
 8156SOL    HW125367   5.080   6.344   0.541
 8156SOL    HW225368   4.972   6.422   0.636
 8157SOL     OW25369   6.672   4.730   5.905
 8157SOL    HW125370   6.656   4.803   5.972
 8157SOL    HW225371   6.597   4.665   5.909
 8158SOL     OW25372   4.989   4.363   0.365
 8158SOL    HW125373   5.069   4.374   0.424
 8158SOL    HW225374   4.984   4.268   0.333
 8159SOL     OW25375   2.174   5.591   2.903
 8159SOL    HW125376   2.257   5.541   2.880
 8159SOL    HW225377   2.171   5.677   2.851
 8160SOL     OW25378   5.500   0.747   3.947
 8160SOL    HW125379   5.425   0.722   3.885
 8160SOL    HW225380   5.537   0.836   3.919
 8161SOL     OW25381   6.551   3.017   6.628
 8161SOL    HW125382   6.570   3.109   6.662
 8161SOL    HW225383   6.563   2.951   6.702
 8162SOL     OW25384   5.985   6.633   6.951
 8162SOL    HW125385   5.949   6.544   6.925
 8162SOL    HW225386   6.084   6.628   6.960
 8163SOL     OW25387   2.603   4.378   5.261
 8163SOL    HW125388   2.695   4.363   5.296
 8163SOL    HW225389   2.608   4.407   5.165
 8164SOL     OW25390   5.422   2.445   0.170
 8164SOL    HW125391   5.505   2.400   0.136
 8164SOL    HW225392   5.417   2.538   0.132
 8165SOL     OW25393   0.318   3.867   5.942
 8165SOL    HW125394   0.378   3.817   5.880
 8165SOL    HW225395   0.227   3.826   5.942
 8166SOL     OW25396   1.337   0.385   3.641
 8166SOL    HW125397   1.242   0.355   3.648
 8166SOL    HW225398   1.341   0.485   3.644
 8167SOL     OW25399   6.903   0.425   3.844
 8167SOL    HW125400   6.845   0.352   3.878
 8167SOL    HW225401   6.858   0.469   3.765
 8168SOL     OW25402   2.852   1.770   2.483
 8168SOL    HW125403   2.919   1.829   2.527
 8168SOL    HW225404   2.846   1.794   2.386
 8169SOL     OW25405   4.793   2.163   0.445
 8169SOL    HW125406   4.701   2.147   0.409
 8169SOL    HW225407   4.822   2.256   0.420
 8170SOL     OW25408   1.336   5.628   2.114
 8170SOL    HW125409   1.310   5.598   2.206
 8170SOL    HW225410   1.425   5.588   2.091
 8171SOL     OW25411   1.897   1.875   6.123
 8171SOL    HW125412   1.906   1.776   6.112
 8171SOL    HW225413   1.813   1.906   6.079
 8172SOL     OW25414   0.452   1.879   2.623
 8172SOL    HW125415   0.448   1.790   2.669
 8172SOL    HW225416   0.359   1.914   2.611
 8173SOL     OW25417   5.595   2.008   1.848
 8173SOL    HW125418   5.569   1.986   1.942
 8173SOL    HW225419   5.519   2.054   1.802
 8174SOL     OW25420   6.333   1.181   2.770
 8174SOL    HW125421   6.414   1.239   2.781
 8174SOL    HW225422   6.335   1.137   2.680
 8175SOL     OW25423   0.423   2.918   5.962
 8175SOL    HW125424   0.336   2.962   5.985
 8175SOL    HW225425   0.433   2.914   5.863
 8176SOL     OW25426   2.120   4.959   0.988
 8176SOL    HW125427   2.189   4.996   1.051
 8176SOL    HW225428   2.129   5.005   0.900
 8177SOL     OW25429   3.426   6.464   3.510
 8177SOL    HW125430   3.490   6.539   3.528
 8177SOL    HW225431   3.384   6.434   3.596
 8178SOL     OW25432   2.893   6.510   0.454
 8178SOL    HW125433   2.841   6.524   0.538
 8178SOL    HW225434   2.885   6.415   0.425
 8179SOL     OW25435   4.619   2.026   4.815
 8179SOL    HW125436   4.613   2.019   4.915
 8179SOL    HW225437   4.627   2.123   4.790
 8180SOL     OW25438   6.247   1.005   5.325
 8180SOL    HW125439   6.330   0.949   5.329
 8180SOL    HW225440   6.176   0.963   5.382
 8181SOL     OW25441   1.573   1.665   0.590
 8181SOL    HW125442   1.519   1.673   0.673
 8181SOL    HW225443   1.527   1.714   0.515
 8182SOL     OW25444   3.587   3.576   5.884
 8182SOL    HW125445   3.574   3.546   5.978
 8182SOL    HW225446   3.502   3.617   5.851
 8183SOL     OW25447   6.659   2.409   5.144
 8183SOL    HW125448   6.720   2.487   5.131
 8183SOL    HW225449   6.566   2.441   5.161
 8184SOL     OW25450   6.555   0.900   0.508
 8184SOL    HW125451   6.652   0.879   0.501
 8184SOL    HW225452   6.539   0.956   0.589
 8185SOL     OW25453   1.894   0.175   0.179
 8185SOL    HW125454   1.831   0.160   0.104
 8185SOL    HW225455   1.922   0.088   0.219
 8186SOL     OW25456   3.584   4.602   5.321
 8186SOL    HW125457   3.548   4.695   5.311
 8186SOL    HW225458   3.509   4.539   5.342
 8187SOL     OW25459   1.919   1.807   5.082
 8187SOL    HW125460   1.834   1.805   5.029
 8187SOL    HW225461   1.955   1.901   5.083
 8188SOL     OW25462   5.824   2.916   3.051
 8188SOL    HW125463   5.904   2.976   3.052
 8188SOL    HW225464   5.793   2.904   2.957
 8189SOL     OW25465   5.160   4.766   2.994
 8189SOL    HW125466   5.169   4.689   2.931
 8189SOL    HW225467   5.223   4.839   2.968
 8190SOL     OW25468   4.964   4.859   4.334
 8190SOL    HW125469   4.876   4.907   4.336
 8190SOL    HW225470   4.949   4.762   4.317
 8191SOL     OW25471   3.528   5.983   1.781
 8191SOL    HW125472   3.579   5.908   1.739
 8191SOL    HW225473   3.469   5.947   1.853
 8192SOL     OW25474   3.588   5.289   0.565
 8192SOL    HW125475   3.542   5.363   0.613
 8192SOL    HW225476   3.605   5.316   0.470
 8193SOL     OW25477   6.732   5.898   5.412
 8193SOL    HW125478   6.724   5.859   5.504
 8193SOL    HW225479   6.701   5.993   5.414
 8194SOL     OW25480   5.087   2.201   0.668
 8194SOL    HW125481   5.088   2.103   0.688
 8194SOL    HW225482   5.026   2.247   0.732
 8195SOL     OW25483   1.533   0.337   2.634
 8195SOL    HW125484   1.609   0.334   2.698
 8195SOL    HW225485   1.449   0.360   2.682
 8196SOL     OW25486   3.843   5.665   5.889
 8196SOL    HW125487   3.810   5.658   5.983
 8196SOL    HW225488   3.930   5.715   5.887
 8197SOL     OW25489   4.510   1.837   0.268
 8197SOL    HW125490   4.559   1.767   0.216
 8197SOL    HW225491   4.422   1.800   0.300
 8198SOL     OW25492   3.180   6.896   2.794
 8198SOL    HW125493   3.122   6.815   2.803
 8198SOL    HW225494   3.124   6.978   2.808
 8199SOL     OW25495   6.153   3.141   6.392
 8199SOL    HW125496   6.170   3.174   6.484
 8199SOL    HW225497   6.178   3.212   6.326
 8200SOL     OW25498   5.657   4.771   2.034
 8200SOL    HW125499   5.574   4.737   1.989
 8200SOL    HW225500   5.736   4.716   2.006
 8201SOL     OW25501   5.734   0.680   4.072
 8201SOL    HW125502   5.639   0.699   4.047
 8201SOL    HW225503   5.737   0.642   4.164
 8202SOL     OW25504   0.334   5.910   3.944
 8202SOL    HW125505   0.399   5.872   3.877
 8202SOL    HW225506   0.281   5.835   3.985
 8203SOL     OW25507   3.942   2.621   0.204
 8203SOL    HW125508   3.938   2.705   0.257
 8203SOL    HW225509   3.987   2.639   0.117
 8204SOL     OW25510   3.160   4.850   6.638
 8204SOL    HW125511   3.252   4.887   6.651
 8204SOL    HW225512   3.096   4.924   6.619
 8205SOL     OW25513   0.525   4.666   0.609
 8205SOL    HW125514   0.518   4.762   0.634
 8205SOL    HW225515   0.439   4.635   0.569
 8206SOL     OW25516   5.095   2.559   6.210
 8206SOL    HW125517   5.011   2.561   6.264
 8206SOL    HW225518   5.111   2.649   6.169
 8207SOL     OW25519   3.486   4.162   4.271
 8207SOL    HW125520   3.408   4.181   4.212
 8207SOL    HW225521   3.553   4.106   4.220
 8208SOL     OW25522   2.014   0.281   1.222
 8208SOL    HW125523   1.952   0.204   1.237
 8208SOL    HW225524   1.989   0.357   1.283
 8209SOL     OW25525   0.726   1.091   5.233
 8209SOL    HW125526   0.674   1.028   5.291
 8209SOL    HW225527   0.662   1.155   5.189
 8210SOL     OW25528   1.844   1.425   1.557
 8210SOL    HW125529   1.805   1.456   1.470
 8210SOL    HW225530   1.941   1.401   1.543
 8211SOL     OW25531   3.870   4.107   1.667
 8211SOL    HW125532   3.886   4.205   1.663
 8211SOL    HW225533   3.773   4.088   1.655
 8212SOL     OW25534   2.361   1.586   2.301
 8212SOL    HW125535   2.438   1.525   2.281
 8212SOL    HW225536   2.396   1.672   2.338
 8213SOL     OW25537   6.617   4.426   2.481
 8213SOL    HW125538   6.617   4.526   2.493
 8213SOL    HW225539   6.690   4.386   2.534
 8214SOL     OW25540   6.783   5.332   5.059
 8214SOL    HW125541   6.860   5.290   5.108
 8214SOL    HW225542   6.748   5.409   5.111
 8215SOL     OW25543   2.410   5.877   6.017
 8215SOL    HW125544   2.398   5.782   5.988
 8215SOL    HW225545   2.360   5.938   5.956
 8216SOL     OW25546   5.147   5.089   3.733
 8216SOL    HW125547   5.225   5.113   3.674
 8216SOL    HW225548   5.063   5.120   3.689
 8217SOL     OW25549   1.972   3.889   0.971
 8217SOL    HW125550   1.973   3.950   0.892
 8217SOL    HW225551   2.032   3.811   0.953
 8218SOL     OW25552   0.090   0.019   5.119
 8218SOL    HW125553   0.175   0.039   5.071
 8218SOL    HW225554   0.050   6.957   5.084
 8219SOL     OW25555   3.759   3.212   0.198
 8219SOL    HW125556   3.736   3.285   0.133
 8219SOL    HW225557   3.813   3.251   0.273
 8220SOL     OW25558   3.293   4.160   4.010
 8220SOL    HW125559   3.194   4.164   4.019
 8220SOL    HW225560   3.323   4.065   4.002
 8221SOL     OW25561   5.965   6.015   3.277
 8221SOL    HW125562   5.924   6.080   3.212
 8221SOL    HW225563   5.923   5.925   3.265
 8222SOL     OW25564   5.247   1.470   1.227
 8222SOL    HW125565   5.208   1.420   1.149
 8222SOL    HW225566   5.294   1.406   1.288
 8223SOL     OW25567   0.833   4.318   5.163
 8223SOL    HW125568   0.869   4.378   5.234
 8223SOL    HW225569   0.905   4.256   5.132
 8224SOL     OW25570   5.345   2.356   2.454
 8224SOL    HW125571   5.367   2.451   2.477
 8224SOL    HW225572   5.320   2.350   2.358
 8225SOL     OW25573   3.436   1.732   1.396
 8225SOL    HW125574   3.338   1.716   1.399
 8225SOL    HW225575   3.458   1.818   1.442
 8226SOL     OW25576   3.806   6.229   6.721
 8226SOL    HW125577   3.722   6.230   6.776
 8226SOL    HW225578   3.831   6.134   6.701
 8227SOL     OW25579   0.219   1.149   2.296
 8227SOL    HW125580   0.165   1.173   2.377
 8227SOL    HW225581   0.248   1.233   2.250
 8228SOL     OW25582   6.751   1.629   6.150
 8228SOL    HW125583   6.813   1.581   6.212
 8228SOL    HW225584   6.760   1.593   6.058
 8229SOL     OW25585   4.656   3.806   1.167
 8229SOL    HW125586   4.632   3.895   1.128
 8229SOL    HW225587   4.692   3.818   1.260
 8230SOL     OW25588   3.593   0.118   4.956
 8230SOL    HW125589   3.544   0.031   4.943
 8230SOL    HW225590   3.530   0.185   4.997
 8231SOL     OW25591   2.874   3.189   1.180
 8231SOL    HW125592   2.789   3.140   1.202
 8231SOL    HW225593   2.951   3.125   1.184
 8232SOL     OW25594   4.684   2.421   1.681
 8232SOL    HW125595   4.606   2.393   1.625
 8232SOL    HW225596   4.704   2.350   1.748
 8233SOL     OW25597   1.127   6.637   6.396
 8233SOL    HW125598   1.112   6.559   6.458
 8233SOL    HW225599   1.123   6.605   6.302
 8234SOL     OW25600   2.997   3.681   6.834
 8234SOL    HW125601   3.003   3.688   6.734
 8234SOL    HW225602   2.986   3.585   6.859
 8235SOL     OW25603   0.507   2.930   6.657
 8235SOL    HW125604   0.541   2.865   6.726
 8235SOL    HW225605   0.539   2.902   6.566
 8236SOL     OW25606   0.702   4.511   0.803
 8236SOL    HW125607   0.659   4.490   0.891
 8236SOL    HW225608   0.632   4.545   0.740
 8237SOL     OW25609   4.799   6.055   5.722
 8237SOL    HW125610   4.801   5.973   5.665
 8237SOL    HW225611   4.771   6.134   5.666
 8238SOL     OW25612   0.540   5.260   6.248
 8238SOL    HW125613   0.529   5.299   6.156
 8238SOL    HW225614   0.540   5.334   6.316
 8239SOL     OW25615   0.353   1.114   5.479
 8239SOL    HW125616   0.350   1.072   5.569
 8239SOL    HW225617   0.262   1.151   5.456
 8240SOL     OW25618   3.664   3.903   2.583
 8240SOL    HW125619   3.703   3.907   2.675
 8240SOL    HW225620   3.573   3.944   2.584
 8241SOL     OW25621   3.347   5.984   5.598
 8241SOL    HW125622   3.401   6.025   5.670
 8241SOL    HW225623   3.270   5.933   5.638
 8242SOL     OW25624   0.231   4.107   6.058
 8242SOL    HW125625   0.234   4.014   6.021
 8242SOL    HW225626   0.144   4.150   6.034
 8243SOL     OW25627   0.542   3.381   0.825
 8243SOL    HW125628   0.482   3.375   0.904
 8243SOL    HW225629   0.501   3.332   0.748
 8244SOL     OW25630   0.360   0.838   3.704
 8244SOL    HW125631   0.283   0.851   3.766
 8244SOL    HW225632   0.425   0.914   3.716
 8245SOL     OW25633   4.118   2.025   2.021
 8245SOL    HW125634   4.075   2.096   1.966
 8245SOL    HW225635   4.129   1.942   1.965
 8246SOL     OW25636   0.761   3.816   6.035
 8246SOL    HW125637   0.751   3.848   5.941
 8246SOL    HW225638   0.849   3.847   6.071
 8247SOL     OW25639   1.970   0.871   2.942
 8247SOL    HW125640   1.963   0.773   2.924
 8247SOL    HW225641   1.901   0.921   2.889
 8248SOL     OW25642   6.686   5.020   4.590
 8248SOL    HW125643   6.710   5.083   4.516
 8248SOL    HW225644   6.767   5.002   4.646
 8249SOL     OW25645   1.734   2.181   5.938
 8249SOL    HW125646   1.818   2.197   5.989
 8249SOL    HW225647   1.749   2.108   5.872
 8250SOL     OW25648   2.770   2.736   1.523
 8250SOL    HW125649   2.753   2.727   1.425
 8250SOL    HW225650   2.697   2.789   1.565
 8251SOL     OW25651   4.863   3.157   4.672
 8251SOL    HW125652   4.904   3.085   4.728
 8251SOL    HW225653   4.851   3.239   4.728
 8252SOL     OW25654   3.436   1.830   5.912
 8252SOL    HW125655   3.517   1.866   5.959
 8252SOL    HW225656   3.464   1.779   5.831
 8253SOL     OW25657   4.192   5.406   5.938
 8253SOL    HW125658   4.151   5.404   5.847
 8253SOL    HW225659   4.216   5.500   5.962
 8254SOL     OW25660   4.430   4.520   5.445
 8254SOL    HW125661   4.373   4.497   5.524
 8254SOL    HW225662   4.451   4.437   5.394
 8255SOL     OW25663   1.933   6.213   5.280
 8255SOL    HW125664   1.911   6.172   5.369
 8255SOL    HW225665   2.007   6.160   5.237
 8256SOL     OW25666   0.146   6.379   1.975
 8256SOL    HW125667   0.243   6.389   1.957
 8256SOL    HW225668   0.127   6.285   2.003
 8257SOL     OW25669   5.206   3.828   2.589
 8257SOL    HW125670   5.261   3.778   2.656
 8257SOL    HW225671   5.182   3.918   2.626
 8258SOL     OW25672   5.120   2.859   1.296
 8258SOL    HW125673   5.184   2.893   1.228
 8258SOL    HW225674   5.137   2.904   1.384
 8259SOL     OW25675   3.800   1.795   4.870
 8259SOL    HW125676   3.708   1.771   4.899
 8259SOL    HW225677   3.860   1.801   4.949
 8260SOL     OW25678   2.193   6.784   1.066
 8260SOL    HW125679   2.266   6.764   1.133
 8260SOL    HW225680   2.127   6.709   1.067
 8261SOL     OW25681   5.501   6.703   2.648
 8261SOL    HW125682   5.531   6.746   2.563
 8261SOL    HW225683   5.438   6.628   2.627
 8262SOL     OW25684   1.155   2.950   0.017
 8262SOL    HW125685   1.194   2.868   0.058
 8262SOL    HW225686   1.211   3.030   0.040
 8263SOL     OW25687   0.386   2.528   6.267
 8263SOL    HW125688   0.375   2.627   6.271
 8263SOL    HW225689   0.459   2.500   6.330
 8264SOL     OW25690   1.963   6.207   1.001
 8264SOL    HW125691   2.004   6.267   0.933
 8264SOL    HW225692   1.865   6.200   0.985
 8265SOL     OW25693   6.876   0.661   1.517
 8265SOL    HW125694   6.842   0.753   1.538
 8265SOL    HW225695   6.943   0.667   1.443
 8266SOL     OW25696   2.245   1.065   5.001
 8266SOL    HW125697   2.284   0.991   4.946
 8266SOL    HW225698   2.268   1.153   4.960
 8267SOL     OW25699   1.566   3.907   1.371
 8267SOL    HW125700   1.551   3.956   1.285
 8267SOL    HW225701   1.554   3.970   1.448
 8268SOL     OW25702   2.425   6.656   5.920
 8268SOL    HW125703   2.342   6.701   5.952
 8268SOL    HW225704   2.405   6.562   5.894
 8269SOL     OW25705   4.102   1.729   2.352
 8269SOL    HW125706   4.157   1.806   2.385
 8269SOL    HW225707   4.149   1.684   2.277
 8270SOL     OW25708   2.827   6.358   4.380
 8270SOL    HW125709   2.789   6.429   4.440
 8270SOL    HW225710   2.907   6.394   4.332
 8271SOL     OW25711   0.282   7.015   3.021
 8271SOL    HW125712   0.340   6.993   3.100
 8271SOL    HW225713   0.205   0.049   3.051
 8272SOL     OW25714   6.164   1.717   2.751
 8272SOL    HW125715   6.097   1.644   2.771
 8272SOL    HW225716   6.170   1.778   2.830
 8273SOL     OW25717   2.474   1.431   0.852
 8273SOL    HW125718   2.478   1.505   0.785
 8273SOL    HW225719   2.555   1.373   0.843
 8274SOL     OW25720   4.191   5.258   4.513
 8274SOL    HW125721   4.211   5.343   4.562
 8274SOL    HW225722   4.132   5.200   4.569
 8275SOL     OW25723   5.153   0.613   4.473
 8275SOL    HW125724   5.244   0.633   4.510
 8275SOL    HW225725   5.158   0.612   4.373
 8276SOL     OW25726   0.466   1.947   5.033
 8276SOL    HW125727   0.425   1.973   5.120
 8276SOL    HW225728   0.452   2.020   4.966
 8277SOL     OW25729   1.325   6.301   5.762
 8277SOL    HW125730   1.248   6.242   5.738
 8277SOL    HW225731   1.300   6.359   5.839
 8278SOL     OW25732   3.362   1.436   6.731
 8278SOL    HW125733   3.402   1.388   6.809
 8278SOL    HW225734   3.265   1.455   6.750
 8279SOL     OW25735   0.606   6.988   4.561
 8279SOL    HW125736   0.670   0.038   4.536
 8279SOL    HW225737   0.585   6.994   4.659
 8280SOL     OW25738   2.784   2.527   0.658
 8280SOL    HW125739   2.864   2.478   0.694
 8280SOL    HW225740   2.713   2.531   0.728
 8281SOL     OW25741   2.191   4.396   1.651
 8281SOL    HW125742   2.262   4.467   1.652
 8281SOL    HW225743   2.118   4.422   1.588
 8282SOL     OW25744   4.640   3.841   6.786
 8282SOL    HW125745   4.679   3.748   6.783
 8282SOL    HW225746   4.647   3.876   6.879
 8283SOL     OW25747   1.324   4.694   5.069
 8283SOL    HW125748   1.280   4.717   5.156
 8283SOL    HW225749   1.261   4.643   5.012
 8284SOL     OW25750   1.031   3.990   1.890
 8284SOL    HW125751   1.100   3.935   1.842
 8284SOL    HW225752   1.070   4.026   1.975
 8285SOL     OW25753   3.733   4.076   4.490
 8285SOL    HW125754   3.678   4.095   4.571
 8285SOL    HW225755   3.733   4.156   4.431
 8286SOL     OW25756   5.240   1.724   4.845
 8286SOL    HW125757   5.191   1.643   4.877
 8286SOL    HW225758   5.177   1.783   4.796
 8287SOL     OW25759   1.354   5.097   4.253
 8287SOL    HW125760   1.322   5.011   4.213
 8287SOL    HW225761   1.370   5.163   4.180
 8288SOL     OW25762   2.693   2.369   2.203
 8288SOL    HW125763   2.718   2.297   2.267
 8288SOL    HW225764   2.762   2.376   2.131
 8289SOL     OW25765   0.813   6.485   6.212
 8289SOL    HW125766   0.812   6.428   6.294
 8289SOL    HW225767   0.730   6.467   6.159
 8290SOL     OW25768   5.464   1.684   1.134
 8290SOL    HW125769   5.459   1.708   1.037
 8290SOL    HW225770   5.403   1.607   1.152
 8291SOL     OW25771   5.086   4.716   5.317
 8291SOL    HW125772   5.184   4.699   5.311
 8291SOL    HW225773   5.070   4.811   5.343
 8292SOL     OW25774   3.050   6.090   6.566
 8292SOL    HW125775   3.047   6.079   6.467
 8292SOL    HW225776   2.975   6.149   6.596
 8293SOL     OW25777   1.982   5.676   0.948
 8293SOL    HW125778   2.033   5.608   1.001
 8293SOL    HW225779   1.885   5.672   0.972
 8294SOL     OW25780   5.571   4.092   5.195
 8294SOL    HW125781   5.480   4.102   5.156
 8294SOL    HW225782   5.563   4.060   5.289
 8295SOL     OW25783   5.199   4.114   2.178
 8295SOL    HW125784   5.135   4.059   2.232
 8295SOL    HW225785   5.153   4.148   2.096
 8296SOL     OW25786   2.567   4.833   0.164
 8296SOL    HW125787   2.565   4.738   0.135
 8296SOL    HW225788   2.649   4.851   0.218
 8297SOL     OW25789   0.431   3.101   2.797
 8297SOL    HW125790   0.492   3.022   2.791
 8297SOL    HW225791   0.474   3.180   2.752
 8298SOL     OW25792   6.128   1.779   1.133
 8298SOL    HW125793   6.192   1.745   1.064
 8298SOL    HW225794   6.035   1.753   1.108
 8299SOL     OW25795   0.873   2.309   2.589
 8299SOL    HW125796   0.828   2.267   2.668
 8299SOL    HW225797   0.964   2.269   2.577
 8300SOL     OW25798   0.102   5.531   3.851
 8300SOL    HW125799   0.156   5.449   3.835
 8300SOL    HW225800   0.130   5.573   3.938
 8301SOL     OW25801   3.833   0.744   0.488
 8301SOL    HW125802   3.881   0.680   0.429
 8301SOL    HW225803   3.780   0.694   0.556
 8302SOL     OW25804   5.215   6.527   6.265
 8302SOL    HW125805   5.312   6.532   6.286
 8302SOL    HW225806   5.170   6.612   6.294
 8303SOL     OW25807   5.844   0.273   3.979
 8303SOL    HW125808   5.748   0.250   3.964
 8303SOL    HW225809   5.851   0.345   4.049
 8304SOL     OW25810   5.667   3.388   1.511
 8304SOL    HW125811   5.613   3.408   1.429
 8304SOL    HW225812   5.730   3.464   1.529
 8305SOL     OW25813   4.645   4.518   3.835
 8305SOL    HW125814   4.554   4.559   3.824
 8305SOL    HW225815   4.701   4.576   3.893
 8306SOL     OW25816   5.754   1.499   3.927
 8306SOL    HW125817   5.844   1.541   3.920
 8306SOL    HW225818   5.763   1.404   3.954
 8307SOL     OW25819   3.673   5.247   1.737
 8307SOL    HW125820   3.671   5.156   1.776
 8307SOL    HW225821   3.627   5.246   1.648
 8308SOL     OW25822   2.381   5.485   0.578
 8308SOL    HW125823   2.363   5.391   0.549
 8308SOL    HW225824   2.471   5.489   0.623
 8309SOL     OW25825   6.588   6.093   3.017
 8309SOL    HW125826   6.616   6.003   3.050
 8309SOL    HW225827   6.625   6.164   3.077
 8310SOL     OW25828   0.561   5.397   1.103
 8310SOL    HW125829   0.572   5.401   1.202
 8310SOL    HW225830   0.499   5.470   1.073
 8311SOL     OW25831   6.498   2.184   5.772
 8311SOL    HW125832   6.447   2.228   5.845
 8311SOL    HW225833   6.523   2.091   5.798
 8312SOL     OW25834   4.458   0.467   0.044
 8312SOL    HW125835   4.456   0.403   6.989
 8312SOL    HW225836   4.434   0.558   0.012
 8313SOL     OW25837   5.877   0.037   6.580
 8313SOL    HW125838   5.938   0.079   6.647
 8313SOL    HW225839   5.809   0.104   6.550
 8314SOL     OW25840   5.672   6.688   6.739
 8314SOL    HW125841   5.746   6.736   6.786
 8314SOL    HW225842   5.681   6.702   6.641
 8315SOL     OW25843   4.115   3.494   2.403
 8315SOL    HW125844   4.043   3.428   2.422
 8315SOL    HW225845   4.114   3.517   2.305
 8316SOL     OW25846   1.286   3.062   2.319
 8316SOL    HW125847   1.268   3.145   2.372
 8316SOL    HW225848   1.200   3.022   2.289
 8317SOL     OW25849   1.569   2.809   2.956
 8317SOL    HW125850   1.620   2.723   2.962
 8317SOL    HW225851   1.633   2.885   2.945
 8318SOL     OW25852   4.085   2.267   5.642
 8318SOL    HW125853   4.081   2.237   5.547
 8318SOL    HW225854   4.010   2.227   5.693
 8319SOL     OW25855   0.761   1.344   1.346
 8319SOL    HW125856   0.703   1.274   1.305
 8319SOL    HW225857   0.717   1.380   1.429
 8320SOL     OW25858   2.940   3.840   2.708
 8320SOL    HW125859   2.874   3.912   2.687
 8320SOL    HW225860   3.021   3.880   2.752
 8321SOL     OW25861   6.436   6.900   6.307
 8321SOL    HW125862   6.386   6.983   6.330
 8321SOL    HW225863   6.491   6.871   6.385
 8322SOL     OW25864   6.662   0.567   0.742
 8322SOL    HW125865   6.569   0.531   0.730
 8322SOL    HW225866   6.718   0.542   0.663
 8323SOL     OW25867   4.773   4.884   1.883
 8323SOL    HW125868   4.797   4.793   1.849
 8323SOL    HW225869   4.853   4.944   1.879
 8324SOL     OW25870   6.065   6.735   1.730
 8324SOL    HW125871   6.099   6.811   1.674
 8324SOL    HW225872   5.970   6.715   1.703
 8325SOL     OW25873   1.503   3.307   5.133
 8325SOL    HW125874   1.502   3.384   5.069
 8325SOL    HW225875   1.570   3.325   5.205
 8326SOL     OW25876   4.631   3.882   5.775
 8326SOL    HW125877   4.576   3.944   5.719
 8326SOL    HW225878   4.702   3.933   5.823
 8327SOL     OW25879   0.009   0.256   5.868
 8327SOL    HW125880   0.077   0.279   5.799
 8327SOL    HW225881   0.019   0.160   5.896
 8328SOL     OW25882   2.502   6.131   6.918
 8328SOL    HW125883   2.582   6.092   6.874
 8328SOL    HW225884   2.420   6.085   6.884
 8329SOL     OW25885   1.068   3.111   5.864
 8329SOL    HW125886   1.010   3.096   5.944
 8329SOL    HW225887   1.011   3.119   5.782
 8330SOL     OW25888   2.640   0.827   6.396
 8330SOL    HW125889   2.544   0.854   6.402
 8330SOL    HW225890   2.648   0.728   6.404
 8331SOL     OW25891   3.201   0.966   1.050
 8331SOL    HW125892   3.222   1.049   1.101
 8331SOL    HW225893   3.218   0.886   1.108
 8332SOL     OW25894   5.758   5.586   2.343
 8332SOL    HW125895   5.763   5.524   2.264
 8332SOL    HW225896   5.664   5.618   2.354
 8333SOL     OW25897   0.198   5.466   6.146
 8333SOL    HW125898   0.184   5.371   6.172
 8333SOL    HW225899   0.296   5.482   6.131
 8334SOL     OW25900   3.766   1.894   4.369
 8334SOL    HW125901   3.700   1.966   4.348
 8334SOL    HW225902   3.742   1.850   4.455
 8335SOL     OW25903   5.320   0.831   0.735
 8335SOL    HW125904   5.381   0.753   0.717
 8335SOL    HW225905   5.290   0.870   0.649
 8336SOL     OW25906   0.792   4.929   3.318
 8336SOL    HW125907   0.708   4.959   3.272
 8336SOL    HW225908   0.871   4.967   3.270
 8337SOL     OW25909   1.277   6.160   3.541
 8337SOL    HW125910   1.270   6.251   3.580
 8337SOL    HW225911   1.361   6.153   3.487
 8338SOL     OW25912   3.874   4.949   1.619
 8338SOL    HW125913   3.899   4.855   1.641
 8338SOL    HW225914   3.952   4.996   1.579
 8339SOL     OW25915   6.408   0.704   1.547
 8339SOL    HW125916   6.478   0.775   1.546
 8339SOL    HW225917   6.410   0.652   1.462
 8340SOL     OW25918   5.173   3.799   1.100
 8340SOL    HW125919   5.255   3.787   1.044
 8340SOL    HW225920   5.160   3.720   1.159
 8341SOL     OW25921   2.962   6.942   6.832
 8341SOL    HW125922   3.044   6.893   6.802
 8341SOL    HW225923   2.989   7.022   6.886
 8342SOL     OW25924   5.150   6.823   6.985
 8342SOL    HW125925   5.056   6.801   6.959
 8342SOL    HW225926   5.183   6.901   6.931
 8343SOL     OW25927   0.548   5.848   3.792
 8343SOL    HW125928   0.601   5.776   3.837
 8343SOL    HW225929   0.610   5.909   3.743
 8344SOL     OW25930   5.836   6.063   4.458
 8344SOL    HW125931   5.759   6.010   4.421
 8344SOL    HW225932   5.855   6.140   4.397
 8345SOL     OW25933   3.762   2.035   2.440
 8345SOL    HW125934   3.719   2.029   2.350
 8345SOL    HW225935   3.848   2.086   2.433
 8346SOL     OW25936   3.778   4.765   0.222
 8346SOL    HW125937   3.773   4.835   0.294
 8346SOL    HW225938   3.873   4.752   0.194
 8347SOL     OW25939   3.340   6.820   4.229
 8347SOL    HW125940   3.381   6.852   4.143
 8347SOL    HW225941   3.310   6.725   4.217
 8348SOL     OW25942   2.302   1.559   1.404
 8348SOL    HW125943   2.328   1.614   1.324
 8348SOL    HW225944   2.384   1.516   1.442
 8349SOL     OW25945   6.662   6.869   2.245
 8349SOL    HW125946   6.747   6.824   2.219
 8349SOL    HW225947   6.666   6.966   2.218
 8350SOL     OW25948   3.137   6.148   5.805
 8350SOL    HW125949   3.093   6.162   5.716
 8350SOL    HW225950   3.070   6.163   5.878
 8351SOL     OW25951   5.687   5.241   4.512
 8351SOL    HW125952   5.739   5.297   4.447
 8351SOL    HW225953   5.624   5.181   4.462
 8352SOL     OW25954   6.984   7.019   3.609
 8352SOL    HW125955   6.925   0.060   3.559
 8352SOL    HW225956   0.023   6.972   3.546
 8353SOL     OW25957   6.866   3.945   1.264
 8353SOL    HW125958   6.867   3.961   1.166
 8353SOL    HW225959   6.806   4.012   1.308
 8354SOL     OW25960   3.821   0.188   4.801
 8354SOL    HW125961   3.734   0.175   4.848
 8354SOL    HW225962   3.804   0.228   4.710
 8355SOL     OW25963   2.952   0.828   5.852
 8355SOL    HW125964   2.860   0.790   5.859
 8355SOL    HW225965   2.973   0.846   5.756
 8356SOL     OW25966   0.323   6.931   1.688
 8356SOL    HW125967   0.297   6.864   1.617
 8356SOL    HW225968   0.413   6.908   1.724
 8357SOL     OW25969   3.820   7.016   5.077
 8357SOL    HW125970   3.903   0.002   5.022
 8357SOL    HW225971   3.750   0.055   5.040
 8358SOL     OW25972   1.806   4.424   4.797
 8358SOL    HW125973   1.874   4.401   4.727
 8358SOL    HW225974   1.766   4.513   4.776
 8359SOL     OW25975   3.426   0.781   4.992
 8359SOL    HW125976   3.501   0.833   4.951
 8359SOL    HW225977   3.341   0.803   4.945
 8360SOL     OW25978   3.630   6.722   0.512
 8360SOL    HW125979   3.602   6.816   0.494
 8360SOL    HW225980   3.558   6.675   0.563
 8361SOL     OW25981   3.450   7.011   1.655
 8361SOL    HW125982   3.541   0.020   1.684
 8361SOL    HW225983   3.459   6.945   1.580
 8362SOL     OW25984   4.123   1.386   0.977
 8362SOL    HW125985   4.047   1.331   1.013
 8362SOL    HW225986   4.205   1.330   0.972
 8363SOL     OW25987   5.177   3.054   6.890
 8363SOL    HW125988   5.192   2.988   6.817
 8363SOL    HW225989   5.250   3.123   6.888
 8364SOL     OW25990   0.899   2.549   3.779
 8364SOL    HW125991   0.830   2.569   3.710
 8364SOL    HW225992   0.897   2.452   3.803
 8365SOL     OW25993   1.770   3.297   2.233
 8365SOL    HW125994   1.761   3.392   2.264
 8365SOL    HW225995   1.679   3.256   2.226
 8366SOL     OW25996   1.972   5.407   1.323
 8366SOL    HW125997   1.903   5.347   1.363
 8366SOL    HW225998   2.062   5.383   1.359
 8367SOL     OW25999   4.526   5.686   4.999
 8367SOL    HW126000   4.550   5.596   4.962
 8367SOL    HW226001   4.429   5.686   5.027
 8368SOL     OW26002   1.151   0.175   6.808
 8368SOL    HW126003   1.174   0.272   6.811
 8368SOL    HW226004   1.208   0.129   6.740
 8369SOL     OW26005   0.859   0.047   6.295
 8369SOL    HW126006   0.922   0.094   6.357
 8369SOL    HW226007   0.858   6.971   6.316
 8370SOL     OW26008   3.007   1.432   5.893
 8370SOL    HW126009   3.095   1.475   5.875
 8370SOL    HW226010   3.017   1.360   5.961
 8371SOL     OW26011   2.134   4.414   0.593
 8371SOL    HW126012   2.088   4.414   0.681
 8371SOL    HW226013   2.089   4.348   0.532
 8372SOL     OW26014   1.379   5.080   1.933
 8372SOL    HW126015   1.360   4.982   1.924
 8372SOL    HW226016   1.474   5.093   1.958
 8373SOL     OW26017   1.824   0.308   4.326
 8373SOL    HW126018   1.861   0.329   4.417
 8373SOL    HW226019   1.830   0.390   4.268
 8374SOL     OW26020   0.076   0.749   4.946
 8374SOL    HW126021   0.150   0.689   4.917
 8374SOL    HW226022   0.091   0.778   5.041
 8375SOL     OW26023   3.599   6.456   5.167
 8375SOL    HW126024   3.535   6.412   5.230
 8375SOL    HW226025   3.689   6.414   5.177
 8376SOL     OW26026   0.353   1.282   4.509
 8376SOL    HW126027   0.394   1.317   4.425
 8376SOL    HW226028   0.409   1.309   4.587
 8377SOL     OW26029   4.982   5.962   0.837
 8377SOL    HW126030   5.062   6.008   0.799
 8377SOL    HW226031   4.947   6.014   0.915
 8378SOL     OW26032   4.358   4.924   2.782
 8378SOL    HW126033   4.335   4.992   2.852
 8378SOL    HW226034   4.341   4.832   2.817
 8379SOL     OW26035   5.450   3.056   1.286
 8379SOL    HW126036   5.409   3.032   1.198
 8379SOL    HW226037   5.449   2.977   1.346
 8380SOL     OW26038   0.760   0.727   2.490
 8380SOL    HW126039   0.779   0.804   2.429
 8380SOL    HW226040   0.844   0.700   2.537
 8381SOL     OW26041   0.204   2.540   4.497
 8381SOL    HW126042   0.235   2.630   4.466
 8381SOL    HW226043   0.147   2.499   4.426
 8382SOL     OW26044   2.542   0.031   2.664
 8382SOL    HW126045   2.562   0.129   2.660
 8382SOL    HW226046   2.621   7.002   2.631
 8383SOL     OW26047   2.910   6.996   5.663
 8383SOL    HW126048   2.976   6.921   5.663
 8383SOL    HW226049   2.959   0.060   5.678
 8384SOL     OW26050   6.424   1.195   1.696
 8384SOL    HW126051   6.501   1.159   1.750
 8384SOL    HW226052   6.344   1.137   1.711
 8385SOL     OW26053   5.788   2.342   0.293
 8385SOL    HW126054   5.753   2.424   0.339
 8385SOL    HW226055   5.792   2.267   0.358
 8386SOL     OW26056   1.638   5.850   1.830
 8386SOL    HW126057   1.733   5.882   1.830
 8386SOL    HW226058   1.613   5.820   1.739
 8387SOL     OW26059   1.201   1.325   1.629
 8387SOL    HW126060   1.149   1.298   1.710
 8387SOL    HW226061   1.138   1.351   1.556
 8388SOL     OW26062   2.318   0.065   0.773
 8388SOL    HW126063   2.363   0.130   0.711
 8388SOL    HW226064   2.219   0.074   0.765
 8389SOL     OW26065   0.242   3.459   3.454
 8389SOL    HW126066   0.329   3.412   3.472
 8389SOL    HW226067   0.255   3.557   3.465
 8390SOL     OW26068   4.447   0.442   0.361
 8390SOL    HW126069   4.433   0.358   0.413
 8390SOL    HW226070   4.457   0.420   0.264
 8391SOL     OW26071   6.328   5.152   1.238
 8391SOL    HW126072   6.261   5.131   1.309
 8391SOL    HW226073   6.318   5.087   1.162
 8392SOL     OW26074   6.999   4.762   5.346
 8392SOL    HW126075   6.942   4.786   5.425
 8392SOL    HW226076   6.983   4.666   5.322
 8393SOL     OW26077   0.493   6.844   2.705
 8393SOL    HW126078   0.413   6.839   2.764
 8393SOL    HW226079   0.470   6.896   2.622
 8394SOL     OW26080   6.713   2.739   2.162
 8394SOL    HW126081   6.795   2.782   2.123
 8394SOL    HW226082   6.672   2.678   2.094
 8395SOL     OW26083   1.987   6.789   4.737
 8395SOL    HW126084   2.047   6.780   4.657
 8395SOL    HW226085   2.041   6.817   4.816
 8396SOL     OW26086   4.318   5.258   2.608
 8396SOL    HW126087   4.383   5.254   2.684
 8396SOL    HW226088   4.313   5.352   2.574
 8397SOL     OW26089   2.577   0.307   2.652
 8397SOL    HW126090   2.634   0.341   2.577
 8397SOL    HW226091   2.609   0.345   2.739
 8398SOL     OW26092   4.323   1.997   6.866
 8398SOL    HW126093   4.288   2.040   6.949
 8398SOL    HW226094   4.284   2.042   6.785
 8399SOL     OW26095   5.941   5.862   6.773
 8399SOL    HW126096   6.014   5.881   6.707
 8399SOL    HW226097   5.972   5.794   6.839
 8400SOL     OW26098   1.385   1.660   4.541
 8400SOL    HW126099   1.299   1.662   4.592
 8400SOL    HW226100   1.452   1.718   4.587
 8401SOL     OW26101   2.771   1.315   6.496
 8401SOL    HW126102   2.703   1.304   6.423
 8401SOL    HW226103   2.746   1.392   6.554
 8402SOL     OW26104   3.747   2.089   5.465
 8402SOL    HW126105   3.722   2.001   5.504
 8402SOL    HW226106   3.700   2.162   5.515
 8403SOL     OW26107   0.993   1.952   4.512
 8403SOL    HW126108   0.950   2.039   4.493
 8403SOL    HW226109   1.092   1.959   4.494
 8404SOL     OW26110   4.503   6.741   5.561
 8404SOL    HW126111   4.404   6.740   5.573
 8404SOL    HW226112   4.530   6.825   5.514
 8405SOL     OW26113   2.258   0.360   5.645
 8405SOL    HW126114   2.243   0.264   5.620
 8405SOL    HW226115   2.184   0.416   5.608
 8406SOL     OW26116   5.927   0.249   0.385
 8406SOL    HW126117   5.920   0.260   0.484
 8406SOL    HW226118   5.871   0.171   0.356
 8407SOL     OW26119   3.304   6.441   3.977
 8407SOL    HW126120   3.240   6.460   3.903
 8407SOL    HW226121   3.314   6.342   3.988
 8408SOL     OW26122   5.752   3.799   2.228
 8408SOL    HW126123   5.832   3.788   2.287
 8408SOL    HW226124   5.674   3.752   2.269
 8409SOL     OW26125   5.693   2.657   3.565
 8409SOL    HW126126   5.701   2.613   3.655
 8409SOL    HW226127   5.599   2.687   3.551
 8410SOL     OW26128   5.573   0.854   2.032
 8410SOL    HW126129   5.515   0.891   1.959
 8410SOL    HW226130   5.517   0.826   2.109
 8411SOL     OW26131   0.378   4.539   6.866
 8411SOL    HW126132   0.327   4.616   6.828
 8411SOL    HW226133   0.472   4.540   6.831
 8412SOL     OW26134   2.979   1.486   1.359
 8412SOL    HW126135   2.896   1.535   1.331
 8412SOL    HW226136   2.976   1.392   1.325
 8413SOL     OW26137   4.335   5.502   6.775
 8413SOL    HW126138   4.383   5.414   6.764
 8413SOL    HW226139   4.327   5.524   6.872
 8414SOL     OW26140   3.486   4.932   3.568
 8414SOL    HW126141   3.473   4.881   3.482
 8414SOL    HW226142   3.397   4.953   3.607
 8415SOL     OW26143   6.825   5.845   4.434
 8415SOL    HW126144   6.855   5.913   4.500
 8415SOL    HW226145   6.874   5.759   4.449
 8416SOL     OW26146   5.402   3.591   2.057
 8416SOL    HW126147   5.449   3.629   2.137
 8416SOL    HW226148   5.397   3.492   2.066
 8417SOL     OW26149   1.504   4.009   5.901
 8417SOL    HW126150   1.566   4.018   5.978
 8417SOL    HW226151   1.549   3.958   5.828
 8418SOL     OW26152   5.926   5.064   1.158
 8418SOL    HW126153   6.009   5.115   1.133
 8418SOL    HW226154   5.949   4.967   1.165
 8419SOL     OW26155   5.347   0.333   2.403
 8419SOL    HW126156   5.360   0.380   2.491
 8419SOL    HW226157   5.344   0.234   2.419
 8420SOL     OW26158   4.639   6.851   0.413
 8420SOL    HW126159   4.550   6.855   0.460
 8420SOL    HW226160   4.632   6.900   0.326
 8421SOL     OW26161   1.297   5.551   6.836
 8421SOL    HW126162   1.247   5.475   6.879
 8421SOL    HW226163   1.304   5.627   6.900
 8422SOL     OW26164   3.892   1.226   0.787
 8422SOL    HW126165   3.889   1.196   0.882
 8422SOL    HW226166   3.815   1.288   0.770
 8423SOL     OW26167   3.389   4.219   5.812
 8423SOL    HW126168   3.488   4.236   5.815
 8423SOL    HW226169   3.365   4.150   5.879
 8424SOL     OW26170   2.036   2.490   2.407
 8424SOL    HW126171   1.954   2.540   2.380
 8424SOL    HW226172   2.108   2.554   2.433
 8425SOL     OW26173   4.933   5.208   6.520
 8425SOL    HW126174   5.000   5.261   6.469
 8425SOL    HW226175   4.972   5.118   6.541
 8426SOL     OW26176   3.593   3.584   3.538
 8426SOL    HW126177   3.692   3.596   3.539
 8426SOL    HW226178   3.570   3.496   3.580
 8427SOL     OW26179   4.092   3.644   4.498
 8427SOL    HW126180   4.045   3.728   4.523
 8427SOL    HW226181   4.191   3.657   4.506
 8428SOL     OW26182   0.564   5.162   1.440
 8428SOL    HW126183   0.591   5.164   1.344
 8428SOL    HW226184   0.646   5.151   1.497
 8429SOL     OW26185   1.985   5.899   4.251
 8429SOL    HW126186   2.014   5.953   4.330
 8429SOL    HW226187   2.005   5.950   4.167
 8430SOL     OW26188   3.642   5.176   3.556
 8430SOL    HW126189   3.602   5.085   3.561
 8430SOL    HW226190   3.571   5.245   3.574
 8431SOL     OW26191   3.405   4.318   0.449
 8431SOL    HW126192   3.405   4.390   0.519
 8431SOL    HW226193   3.412   4.228   0.493
 8432SOL     OW26194   5.143   6.944   6.240
 8432SOL    HW126195   5.201   6.916   6.164
 8432SOL    HW226196   5.149   6.875   6.313
 8433SOL     OW26197   5.026   2.848   0.694
 8433SOL    HW126198   5.116   2.814   0.723
 8433SOL    HW226199   5.035   2.893   0.605
 8434SOL     OW26200   2.697   6.525   4.566
 8434SOL    HW126201   2.598   6.519   4.575
 8434SOL    HW226202   2.736   6.562   4.651
 8435SOL     OW26203   5.995   1.001   1.563
 8435SOL    HW126204   5.963   0.963   1.476
 8435SOL    HW226205   5.917   1.024   1.621
 8436SOL     OW26206   3.492   0.107   3.122
 8436SOL    HW126207   3.573   0.066   3.164
 8436SOL    HW226208   3.435   0.036   3.083
 8437SOL     OW26209   2.192   0.511   4.381
 8437SOL    HW126210   2.165   0.499   4.286
 8437SOL    HW226211   2.117   0.482   4.441
 8438SOL     OW26212   2.396   4.384   2.432
 8438SOL    HW126213   2.415   4.361   2.527
 8438SOL    HW226214   2.481   4.409   2.386
 8439SOL     OW26215   6.437   4.796   2.324
 8439SOL    HW126216   6.490   4.881   2.328
 8439SOL    HW226217   6.459   4.740   2.404
 8440SOL     OW26218   1.332   2.704   3.641
 8440SOL    HW126219   1.239   2.678   3.615
 8440SOL    HW226220   1.392   2.624   3.635
 8441SOL     OW26221   5.807   0.005   0.305
 8441SOL    HW126222   5.780   6.940   0.345
 8441SOL    HW226223   5.873   7.011   0.231
 8442SOL     OW26224   2.921   1.395   4.885
 8442SOL    HW126225   2.994   1.464   4.890
 8442SOL    HW226226   2.935   1.339   4.803
 8443SOL     OW26227   2.334   5.106   3.766
 8443SOL    HW126228   2.290   5.112   3.855
 8443SOL    HW226229   2.430   5.132   3.773
 8444SOL     OW26230   2.746   6.048   3.565
 8444SOL    HW126231   2.684   5.983   3.521
 8444SOL    HW226232   2.694   6.116   3.616
 8445SOL     OW26233   3.822   6.602   0.697
 8445SOL    HW126234   3.763   6.574   0.773
 8445SOL    HW226235   3.766   6.620   0.616
 8446SOL     OW26236   4.398   4.526   6.723
 8446SOL    HW126237   4.340   4.492   6.798
 8446SOL    HW226238   4.382   4.624   6.710
 8447SOL     OW26239   5.023   2.229   1.956
 8447SOL    HW126240   4.961   2.298   1.994
 8447SOL    HW226241   4.969   2.151   1.924
 8448SOL     OW26242   4.659   5.601   4.112
 8448SOL    HW126243   4.636   5.679   4.053
 8448SOL    HW226244   4.755   5.576   4.097
 8449SOL     OW26245   6.663   2.587   3.641
 8449SOL    HW126246   6.752   2.602   3.597
 8449SOL    HW226247   6.616   2.675   3.653
 8450SOL     OW26248   0.578   6.446   0.990
 8450SOL    HW126249   0.643   6.377   0.959
 8450SOL    HW226250   0.517   6.406   1.059
 8451SOL     OW26251   3.944   1.954   0.691
 8451SOL    HW126252   3.971   2.043   0.653
 8451SOL    HW226253   3.950   1.884   0.621
 8452SOL     OW26254   5.922   1.730   3.103
 8452SOL    HW126255   5.827   1.755   3.119
 8452SOL    HW226256   5.954   1.669   3.175
 8453SOL     OW26257   0.065   4.312   6.509
 8453SOL    HW126258   0.160   4.322   6.538
 8453SOL    HW226259   0.004   4.329   6.587
 8454SOL     OW26260   6.737   6.812   1.370
 8454SOL    HW126261   6.805   6.744   1.341
 8454SOL    HW226262   6.704   6.789   1.462
 8455SOL     OW26263   6.588   2.806   1.860
 8455SOL    HW126264   6.493   2.809   1.891
 8455SOL    HW226265   6.592   2.766   1.768
 8456SOL     OW26266   4.123   6.174   2.967
 8456SOL    HW126267   4.166   6.128   3.045
 8456SOL    HW226268   4.175   6.256   2.944
 8457SOL     OW26269   6.730   6.610   4.910
 8457SOL    HW126270   6.812   6.554   4.920
 8457SOL    HW226271   6.665   6.563   4.851
 8458SOL     OW26272   3.293   1.288   6.491
 8458SOL    HW126273   3.270   1.350   6.415
 8458SOL    HW226274   3.321   1.342   6.571
 8459SOL     OW26275   2.914   5.791   2.221
 8459SOL    HW126276   2.991   5.855   2.212
 8459SOL    HW226277   2.943   5.712   2.274
 8460SOL     OW26278   4.313   3.495   5.588
 8460SOL    HW126279   4.310   3.563   5.661
 8460SOL    HW226280   4.238   3.512   5.524
 8461SOL     OW26281   0.033   4.201   3.807
 8461SOL    HW126282   0.069   4.111   3.834
 8461SOL    HW226283   0.031   4.261   3.887
 8462SOL     OW26284   2.954   2.689   6.250
 8462SOL    HW126285   2.952   2.739   6.337
 8462SOL    HW226286   2.948   2.591   6.268
 8463SOL     OW26287   6.543   6.987   1.390
 8463SOL    HW126288   6.611   6.915   1.378
 8463SOL    HW226289   6.541   0.023   1.308
 8464SOL     OW26290   5.661   3.387   4.885
 8464SOL    HW126291   5.678   3.420   4.791
 8464SOL    HW226292   5.588   3.442   4.926
 8465SOL     OW26293   0.889   2.515   1.096
 8465SOL    HW126294   0.811   2.460   1.124
 8465SOL    HW226295   0.974   2.470   1.124
 8466SOL     OW26296   0.257   6.765   4.285
 8466SOL    HW126297   0.233   6.777   4.189
 8466SOL    HW226298   0.331   6.829   4.308
 8467SOL     OW26299   4.480   6.929   0.646
 8467SOL    HW126300   4.391   6.895   0.677
 8467SOL    HW226301   4.548   6.915   0.718
 8468SOL     OW26302   3.779   2.303   6.632
 8468SOL    HW126303   3.847   2.333   6.699
 8468SOL    HW226304   3.693   2.350   6.650
 8469SOL     OW26305   3.246   1.390   6.231
 8469SOL    HW126306   3.194   1.314   6.193
 8469SOL    HW226307   3.257   1.461   6.161
 8470SOL     OW26308   1.898   3.783   0.207
 8470SOL    HW126309   1.991   3.749   0.200
 8470SOL    HW226310   1.882   3.852   0.136
 8471SOL     OW26311   3.535   1.025   3.378
 8471SOL    HW126312   3.629   1.060   3.377
 8471SOL    HW226313   3.532   0.940   3.429
 8472SOL     OW26314   6.742   1.046   5.441
 8472SOL    HW126315   6.734   0.952   5.475
 8472SOL    HW226316   6.764   1.107   5.517
 8473SOL     OW26317   6.461   6.173   6.735
 8473SOL    HW126318   6.528   6.105   6.704
 8473SOL    HW226319   6.488   6.206   6.825
 8474SOL     OW26320   3.504   3.089   1.636
 8474SOL    HW126321   3.567   3.163   1.613
 8474SOL    HW226322   3.553   3.015   1.681
 8475SOL     OW26323   6.975   2.443   3.630
 8475SOL    HW126324   0.040   2.401   3.654
 8475SOL    HW226325   6.936   2.486   3.711
 8476SOL     OW26326   6.684   2.133   1.011
 8476SOL    HW126327   6.636   2.192   0.947
 8476SOL    HW226328   6.780   2.124   0.983
 8477SOL     OW26329   5.141   6.674   0.771
 8477SOL    HW126330   5.118   6.767   0.796
 8477SOL    HW226331   5.238   6.669   0.746
 8478SOL     OW26332   0.888   6.778   6.011
 8478SOL    HW126333   0.925   6.700   6.062
 8478SOL    HW226334   0.789   6.778   6.017
 8479SOL     OW26335   0.551   2.646   1.417
 8479SOL    HW126336   0.644   2.652   1.381
 8479SOL    HW226337   0.513   2.556   1.397
 8480SOL     OW26338   4.640   1.609   0.181
 8480SOL    HW126339   4.577   1.541   0.145
 8480SOL    HW226340   4.688   1.653   0.105
 8481SOL     OW26341   4.011   2.194   3.910
 8481SOL    HW126342   4.100   2.218   3.872
 8481SOL    HW226343   4.022   2.121   3.977
 8482SOL     OW26344   4.480   5.815   1.695
 8482SOL    HW126345   4.402   5.848   1.642
 8482SOL    HW226346   4.506   5.724   1.663
 8483SOL     OW26347   4.977   6.221   2.465
 8483SOL    HW126348   4.907   6.222   2.394
 8483SOL    HW226349   4.942   6.264   2.548
 8484SOL     OW26350   0.709   6.097   3.601
 8484SOL    HW126351   0.775   6.041   3.550
 8484SOL    HW226352   0.617   6.079   3.567
 8485SOL     OW26353   4.002   2.973   6.913
 8485SOL    HW126354   3.998   2.893   6.853
 8485SOL    HW226355   4.079   2.964   6.976
 8486SOL     OW26356   3.402   0.816   2.508
 8486SOL    HW126357   3.475   0.816   2.440
 8486SOL    HW226358   3.332   0.882   2.481
 8487SOL     OW26359   5.725   1.676   6.061
 8487SOL    HW126360   5.722   1.762   6.009
 8487SOL    HW226361   5.764   1.604   6.003
 8488SOL     OW26362   5.472   5.882   0.134
 8488SOL    HW126363   5.419   5.949   0.186
 8488SOL    HW226364   5.483   5.913   0.040
 8489SOL     OW26365   6.033   2.035   1.148
 8489SOL    HW126366   6.083   1.952   1.125
 8489SOL    HW226367   6.072   2.076   1.230
 8490SOL     OW26368   4.522   6.401   4.111
 8490SOL    HW126369   4.619   6.376   4.106
 8490SOL    HW226370   4.483   6.402   4.019
 8491SOL     OW26371   2.548   6.291   0.637
 8491SOL    HW126372   2.511   6.254   0.552
 8491SOL    HW226373   2.640   6.257   0.651
 8492SOL     OW26374   4.725   4.119   6.259
 8492SOL    HW126375   4.752   4.029   6.225
 8492SOL    HW226376   4.683   4.110   6.349
 8493SOL     OW26377   2.742   2.828   6.629
 8493SOL    HW126378   2.738   2.796   6.723
 8493SOL    HW226379   2.655   2.810   6.583
 8494SOL     OW26380   3.266   5.422   1.125
 8494SOL    HW126381   3.176   5.405   1.163
 8494SOL    HW226382   3.277   5.369   1.040
 8495SOL     OW26383   6.592   5.019   2.358
 8495SOL    HW126384   6.585   5.116   2.382
 8495SOL    HW226385   6.677   5.002   2.309
 8496SOL     OW26386   0.909   2.175   2.192
 8496SOL    HW126387   0.835   2.169   2.258
 8496SOL    HW226388   0.872   2.195   2.101
 8497SOL     OW26389   6.373   0.836   3.695
 8497SOL    HW126390   6.280   0.873   3.702
 8497SOL    HW226391   6.377   0.747   3.741
 8498SOL     OW26392   6.874   6.413   2.622
 8498SOL    HW126393   6.778   6.440   2.624
 8498SOL    HW226394   6.880   6.313   2.618
 8499SOL     OW26395   2.264   4.780   6.911
 8499SOL    HW126396   2.250   4.785   6.812
 8499SOL    HW226397   2.343   4.835   6.936
 8500SOL     OW26398   1.658   6.291   5.175
 8500SOL    HW126399   1.623   6.226   5.242
 8500SOL    HW226400   1.757   6.284   5.171
 8501SOL     OW26401   0.551   1.810   6.780
 8501SOL    HW126402   0.632   1.752   6.784
 8501SOL    HW226403   0.573   1.895   6.733
 8502SOL     OW26404   1.184   4.091   1.105
 8502SOL    HW126405   1.267   4.087   1.049
 8502SOL    HW226406   1.206   4.064   1.199
 8503SOL     OW26407   1.774   0.087   4.170
 8503SOL    HW126408   1.792   0.097   4.072
 8503SOL    HW226409   1.808   0.168   4.219
 8504SOL     OW26410   2.628   5.109   2.253
 8504SOL    HW126411   2.637   5.035   2.320
 8504SOL    HW226412   2.712   5.165   2.254
 8505SOL     OW26413   4.993   3.246   3.874
 8505SOL    HW126414   5.023   3.175   3.810
 8505SOL    HW226415   4.983   3.206   3.965
 8506SOL     OW26416   6.977   0.847   6.325
 8506SOL    HW126417   6.937   0.937   6.345
 8506SOL    HW226418   6.908   0.776   6.340
 8507SOL     OW26419   3.682   1.235   5.415
 8507SOL    HW126420   3.742   1.288   5.356
 8507SOL    HW226421   3.716   1.142   5.423
 8508SOL     OW26422   6.380   1.860   5.479
 8508SOL    HW126423   6.413   1.778   5.433
 8508SOL    HW226424   6.284   1.875   5.456
 8509SOL     OW26425   4.245   1.434   3.879
 8509SOL    HW126426   4.231   1.346   3.924
 8509SOL    HW226427   4.158   1.484   3.874
 8510SOL     OW26428   5.810   4.194   3.360
 8510SOL    HW126429   5.751   4.113   3.368
 8510SOL    HW226430   5.753   4.276   3.359
 8511SOL     OW26431   6.324   3.578   1.971
 8511SOL    HW126432   6.262   3.628   1.911
 8511SOL    HW226433   6.291   3.584   2.065
 8512SOL     OW26434   3.418   2.345   1.647
 8512SOL    HW126435   3.480   2.322   1.722
 8512SOL    HW226436   3.324   2.351   1.683
 8513SOL     OW26437   5.529   4.319   1.123
 8513SOL    HW126438   5.509   4.388   1.193
 8513SOL    HW226439   5.627   4.299   1.125
 8514SOL     OW26440   2.575   2.486   3.822
 8514SOL    HW126441   2.576   2.586   3.820
 8514SOL    HW226442   2.636   2.451   3.751
 8515SOL     OW26443   5.704   1.653   0.738
 8515SOL    HW126444   5.633   1.590   0.706
 8515SOL    HW226445   5.675   1.747   0.723
 8516SOL     OW26446   6.378   2.654   1.420
 8516SOL    HW126447   6.449   2.720   1.443
 8516SOL    HW226448   6.385   2.630   1.323
 8517SOL     OW26449   1.616   3.187   6.225
 8517SOL    HW126450   1.683   3.240   6.173
 8517SOL    HW226451   1.569   3.123   6.165
 8518SOL     OW26452   4.657   3.963   0.009
 8518SOL    HW126453   4.694   3.890   0.067
 8518SOL    HW226454   4.730   4.027   7.007
 8519SOL     OW26455   1.205   4.109   1.653
 8519SOL    HW126456   1.166   4.177   1.715
 8519SOL    HW226457   1.214   4.022   1.701
 8520SOL     OW26458   3.924   2.720   6.750
 8520SOL    HW126459   3.955   2.663   6.827
 8520SOL    HW226460   3.917   2.663   6.668
 8521SOL     OW26461   1.970   5.035   6.085
 8521SOL    HW126462   2.040   4.966   6.096
 8521SOL    HW226463   1.929   5.028   5.994
 8522SOL     OW26464   1.442   6.524   1.427
 8522SOL    HW126465   1.349   6.543   1.457
 8522SOL    HW226466   1.446   6.433   1.386
 8523SOL     OW26467   2.085   6.283   6.966
 8523SOL    HW126468   2.068   6.381   6.977
 8523SOL    HW226469   1.998   6.234   6.964
 8524SOL     OW26470   0.504   2.575   4.542
 8524SOL    HW126471   0.565   2.655   4.542
 8524SOL    HW226472   0.410   2.604   4.526
 8525SOL     OW26473   6.020   3.718   3.210
 8525SOL    HW126474   6.070   3.742   3.127
 8525SOL    HW226475   5.946   3.654   3.188
 8526SOL     OW26476   3.613   5.626   6.787
 8526SOL    HW126477   3.556   5.705   6.809
 8526SOL    HW226478   3.578   5.582   6.704
 8527SOL     OW26479   2.769   0.551   6.396
 8527SOL    HW126480   2.815   0.484   6.338
 8527SOL    HW226481   2.831   0.582   6.468
 8528SOL     OW26482   3.879   2.214   6.199
 8528SOL    HW126483   3.955   2.194   6.138
 8528SOL    HW226484   3.816   2.137   6.199
 8529SOL     OW26485   0.881   0.354   1.403
 8529SOL    HW126486   0.808   0.418   1.384
 8529SOL    HW226487   0.962   0.403   1.436
 8530SOL     OW26488   3.140   4.061   4.718
 8530SOL    HW126489   3.072   3.990   4.699
 8530SOL    HW226490   3.187   4.085   4.633
 8531SOL     OW26491   6.655   5.271   2.406
 8531SOL    HW126492   6.663   5.314   2.317
 8531SOL    HW226493   6.740   5.284   2.457
 8532SOL     OW26494   3.645   4.985   4.621
 8532SOL    HW126495   3.717   4.973   4.553
 8532SOL    HW226496   3.555   4.984   4.576
 8533SOL     OW26497   1.543   0.248   6.272
 8533SOL    HW126498   1.560   0.247   6.371
 8533SOL    HW226499   1.544   0.154   6.237
 8534SOL     OW26500   6.376   2.860   3.989
 8534SOL    HW126501   6.443   2.820   3.926
 8534SOL    HW226502   6.317   2.788   4.025
 8535SOL     OW26503   6.710   1.575   4.632
 8535SOL    HW126504   6.632   1.616   4.584
 8535SOL    HW226505   6.678   1.496   4.685
 8536SOL     OW26506   6.282   2.315   5.077
 8536SOL    HW126507   6.347   2.323   5.001
 8536SOL    HW226508   6.298   2.229   5.126
 8537SOL     OW26509   5.238   1.558   2.245
 8537SOL    HW126510   5.228   1.528   2.340
 8537SOL    HW226511   5.159   1.614   2.220
 8538SOL     OW26512   0.849   0.847   6.599
 8538SOL    HW126513   0.896   0.772   6.646
 8538SOL    HW226514   0.916   0.904   6.551
 8539SOL     OW26515   5.644   1.163   2.131
 8539SOL    HW126516   5.681   1.227   2.198
 8539SOL    HW226517   5.661   1.069   2.162
 8540SOL     OW26518   4.829   0.508   0.088
 8540SOL    HW126519   4.801   0.558   0.170
 8540SOL    HW226520   4.754   0.449   0.058
 8541SOL     OW26521   2.606   1.859   4.875
 8541SOL    HW126522   2.521   1.909   4.896
 8541SOL    HW226523   2.684   1.919   4.893
 8542SOL     OW26524   3.872   4.678   6.588
 8542SOL    HW126525   3.879   4.776   6.606
 8542SOL    HW226526   3.810   4.637   6.654
 8543SOL     OW26527   3.210   0.602   0.434
 8543SOL    HW126528   3.165   0.676   0.484
 8543SOL    HW226529   3.144   0.530   0.414
 8544SOL     OW26530   5.451   3.201   4.745
 8544SOL    HW126531   5.358   3.231   4.726
 8544SOL    HW226532   5.495   3.267   4.806
 8545SOL     OW26533   4.756   6.521   4.730
 8545SOL    HW126534   4.658   6.500   4.725
 8545SOL    HW226535   4.789   6.547   4.640
 8546SOL     OW26536   0.211   0.458   3.396
 8546SOL    HW126537   0.194   0.556   3.406
 8546SOL    HW226538   0.195   0.431   3.302
 8547SOL     OW26539   1.375   6.661   6.489
 8547SOL    HW126540   1.277   6.653   6.472
 8547SOL    HW226541   1.421   6.576   6.464
 8548SOL     OW26542   6.247   3.388   5.489
 8548SOL    HW126543   6.345   3.404   5.477
 8548SOL    HW226544   6.218   3.311   5.432
 8549SOL     OW26545   1.084   2.926   4.432
 8549SOL    HW126546   1.147   2.946   4.357
 8549SOL    HW226547   1.069   3.008   4.486
 8550SOL     OW26548   1.918   4.599   6.850
 8550SOL    HW126549   1.823   4.629   6.840
 8550SOL    HW226550   1.966   4.612   6.763
 8551SOL     OW26551   2.917   3.609   6.579
 8551SOL    HW126552   2.982   3.561   6.520
 8551SOL    HW226553   2.864   3.543   6.632
 8552SOL     OW26554   3.042   0.502   3.634
 8552SOL    HW126555   3.120   0.556   3.666
 8552SOL    HW226556   3.075   0.425   3.579
 8553SOL     OW26557   4.139   3.685   6.553
 8553SOL    HW126558   4.148   3.597   6.507
 8553SOL    HW226559   4.230   3.722   6.573
 8554SOL     OW26560   0.941   4.576   0.612
 8554SOL    HW126561   0.933   4.669   0.575
 8554SOL    HW226562   0.894   4.571   0.700
 8555SOL     OW26563   2.413   1.279   3.738
 8555SOL    HW126564   2.401   1.328   3.652
 8555SOL    HW226565   2.331   1.290   3.795
 8556SOL     OW26566   1.122   5.784   4.955
 8556SOL    HW126567   1.083   5.840   5.028
 8556SOL    HW226568   1.160   5.700   4.994
 8557SOL     OW26569   5.831   6.704   3.015
 8557SOL    HW126570   5.743   6.666   2.988
 8557SOL    HW226571   5.817   6.776   3.084
 8558SOL     OW26572   2.095   4.503   3.197
 8558SOL    HW126573   2.059   4.434   3.260
 8558SOL    HW226574   2.185   4.475   3.165
 8559SOL     OW26575   1.508   0.518   2.407
 8559SOL    HW126576   1.559   0.493   2.325
 8559SOL    HW226577   1.520   0.447   2.477
 8560SOL     OW26578   6.678   6.419   1.552
 8560SOL    HW126579   6.706   6.326   1.527
 8560SOL    HW226580   6.623   6.416   1.635
 8561SOL     OW26581   3.614   0.471   2.341
 8561SOL    HW126582   3.533   0.523   2.314
 8561SOL    HW226583   3.688   0.535   2.363
 8562SOL     OW26584   4.161   6.355   5.936
 8562SOL    HW126585   4.217   6.436   5.919
 8562SOL    HW226586   4.214   6.273   5.912
 8563SOL     OW26587   1.707   4.297   0.378
 8563SOL    HW126588   1.702   4.369   0.308
 8563SOL    HW226589   1.669   4.332   0.463
 8564SOL     OW26590   3.718   0.990   5.032
 8564SOL    HW126591   3.692   1.018   4.939
 8564SOL    HW226592   3.701   1.066   5.095
 8565SOL     OW26593   3.759   5.345   1.075
 8565SOL    HW126594   3.693   5.274   1.050
 8565SOL    HW226595   3.813   5.315   1.153
 8566SOL     OW26596   1.729   0.293   1.157
 8566SOL    HW126597   1.747   0.355   1.233
 8566SOL    HW226598   1.762   0.334   1.072
 8567SOL     OW26599   0.827   2.665   3.325
 8567SOL    HW126600   0.730   2.656   3.347
 8567SOL    HW226601   0.836   2.705   3.233
 8568SOL     OW26602   5.664   1.341   6.987
 8568SOL    HW126603   5.637   1.395   6.908
 8568SOL    HW226604   5.635   1.246   6.974
 8569SOL     OW26605   5.026   1.043   6.220
 8569SOL    HW126606   4.976   1.037   6.307
 8569SOL    HW226607   5.098   0.974   6.217
 8570SOL     OW26608   1.597   1.789   5.103
 8570SOL    HW126609   1.631   1.723   5.171
 8570SOL    HW226610   1.571   1.740   5.020
 8571SOL     OW26611   1.608   5.920   5.018
 8571SOL    HW126612   1.553   5.837   5.019
 8571SOL    HW226613   1.693   5.903   4.969
 8572SOL     OW26614   3.443   4.888   6.415
 8572SOL    HW126615   3.537   4.889   6.382
 8572SOL    HW226616   3.442   4.876   6.514
 8573SOL     OW26617   3.321   6.148   0.010
 8573SOL    HW126618   3.230   6.121   0.039
 8573SOL    HW226619   3.344   6.237   0.051
 8574SOL     OW26620   7.021   6.073   5.970
 8574SOL    HW126621   6.956   6.003   6.000
 8574SOL    HW226622   0.092   6.038   5.978
 8575SOL     OW26623   2.175   2.815   4.492
 8575SOL    HW126624   2.113   2.740   4.469
 8575SOL    HW226625   2.220   2.848   4.409
 8576SOL     OW26626   1.466   5.307   6.224
 8576SOL    HW126627   1.387   5.249   6.242
 8576SOL    HW226628   1.525   5.263   6.156
 8577SOL     OW26629   0.561   6.608   5.149
 8577SOL    HW126630   0.537   6.657   5.234
 8577SOL    HW226631   0.659   6.593   5.147
 8578SOL     OW26632   5.330   6.578   3.853
 8578SOL    HW126633   5.333   6.513   3.929
 8578SOL    HW226634   5.419   6.622   3.843
 8579SOL     OW26635   2.192   6.747   2.196
 8579SOL    HW126636   2.170   6.794   2.281
 8579SOL    HW226637   2.109   6.740   2.140
 8580SOL     OW26638   2.103   5.604   2.030
 8580SOL    HW126639   2.012   5.575   2.000
 8580SOL    HW226640   2.103   5.616   2.129
 8581SOL     OW26641   3.308   3.945   1.743
 8581SOL    HW126642   3.381   3.978   1.803
 8581SOL    HW226643   3.298   3.846   1.755
 8582SOL     OW26644   4.412   4.650   3.783
 8582SOL    HW126645   4.332   4.591   3.788
 8582SOL    HW226646   4.406   4.722   3.852
 8583SOL     OW26647   5.474   0.551   4.293
 8583SOL    HW126648   5.494   0.456   4.268
 8583SOL    HW226649   5.396   0.584   4.240
 8584SOL     OW26650   0.855   4.876   5.502
 8584SOL    HW126651   0.847   4.810   5.576
 8584SOL    HW226652   0.765   4.912   5.479
 8585SOL     OW26653   0.467   6.008   5.609
 8585SOL    HW126654   0.485   6.084   5.672
 8585SOL    HW226655   0.519   5.928   5.639
 8586SOL     OW26656   3.238   6.611   2.282
 8586SOL    HW126657   3.332   6.620   2.250
 8586SOL    HW226658   3.190   6.541   2.228
 8587SOL     OW26659   1.134   6.769   3.847
 8587SOL    HW126660   1.063   6.701   3.866
 8587SOL    HW226661   1.114   6.814   3.760
 8588SOL     OW26662   2.507   1.251   0.174
 8588SOL    HW126663   2.552   1.220   0.091
 8588SOL    HW226664   2.568   1.314   0.223
 8589SOL     OW26665   4.578   3.077   5.312
 8589SOL    HW126666   4.529   3.162   5.334
 8589SOL    HW226667   4.561   3.010   5.384
 8590SOL     OW26668   6.743   6.261   4.000
 8590SOL    HW126669   6.682   6.243   4.078
 8590SOL    HW226670   6.821   6.315   4.031
 8591SOL     OW26671   0.508   3.848   0.166
 8591SOL    HW126672   0.569   3.798   0.228
 8591SOL    HW226673   0.555   3.928   0.130
 8592SOL     OW26674   6.647   2.924   6.276
 8592SOL    HW126675   6.699   2.845   6.309
 8592SOL    HW226676   6.560   2.929   6.326
 8593SOL     OW26677   2.227   1.227   1.111
 8593SOL    HW126678   2.215   1.310   1.056
 8593SOL    HW226679   2.251   1.151   1.051
 8594SOL     OW26680   4.298   2.413   5.414
 8594SOL    HW126681   4.361   2.383   5.486
 8594SOL    HW226682   4.204   2.395   5.443
 8595SOL     OW26683   0.643   2.180   3.303
 8595SOL    HW126684   0.702   2.251   3.342
 8595SOL    HW226685   0.551   2.218   3.288
 8596SOL     OW26686   0.984   5.506   3.144
 8596SOL    HW126687   1.029   5.554   3.219
 8596SOL    HW226688   0.918   5.567   3.099
 8597SOL     OW26689   4.098   1.673   0.996
 8597SOL    HW126690   4.100   1.574   1.006
 8597SOL    HW226691   4.024   1.699   0.935
 8598SOL     OW26692   6.282   0.319   1.074
 8598SOL    HW126693   6.268   0.249   1.004
 8598SOL    HW226694   6.194   0.356   1.102
 8599SOL     OW26695   1.138   2.801   4.953
 8599SOL    HW126696   1.111   2.784   4.859
 8599SOL    HW226697   1.230   2.840   4.955
 8600SOL     OW26698   5.093   4.828   4.924
 8600SOL    HW126699   5.129   4.829   4.831
 8600SOL    HW226700   5.169   4.829   4.989
 8601SOL     OW26701   1.226   1.458   4.305
 8601SOL    HW126702   1.320   1.462   4.339
 8601SOL    HW226703   1.208   1.367   4.266
 8602SOL     OW26704   2.944   5.103   1.746
 8602SOL    HW126705   2.847   5.125   1.739
 8602SOL    HW226706   2.961   5.052   1.830
 8603SOL     OW26707   4.692   6.037   0.878
 8603SOL    HW126708   4.753   6.004   0.806
 8603SOL    HW226709   4.689   6.137   0.877
 8604SOL     OW26710   0.324   2.877   5.445
 8604SOL    HW126711   0.355   2.971   5.435
 8604SOL    HW226712   0.226   2.871   5.424
 8605SOL     OW26713   2.899   6.344   3.727
 8605SOL    HW126714   2.813   6.395   3.732
 8605SOL    HW226715   2.916   6.298   3.814
 8606SOL     OW26716   1.566   3.291   6.564
 8606SOL    HW126717   1.659   3.319   6.588
 8606SOL    HW226718   1.556   3.192   6.578
 8607SOL     OW26719   3.750   6.151   0.716
 8607SOL    HW126720   3.762   6.179   0.621
 8607SOL    HW226721   3.759   6.230   0.776
 8608SOL     OW26722   3.844   4.838   2.641
 8608SOL    HW126723   3.799   4.855   2.554
 8608SOL    HW226724   3.904   4.758   2.633
 8609SOL     OW26725   5.082   0.660   2.643
 8609SOL    HW126726   4.994   0.659   2.594
 8609SOL    HW226727   5.156   0.659   2.576
 8610SOL     OW26728   1.983   2.271   3.102
 8610SOL    HW126729   2.016   2.206   3.170
 8610SOL    HW226730   1.898   2.236   3.062
 8611SOL     OW26731   3.078   1.220   5.172
 8611SOL    HW126732   3.021   1.241   5.252
 8611SOL    HW226733   3.163   1.274   5.177
 8612SOL     OW26734   2.888   3.443   1.252
 8612SOL    HW126735   2.874   3.348   1.224
 8612SOL    HW226736   2.977   3.474   1.220
 8613SOL     OW26737   2.153   1.898   1.383
 8613SOL    HW126738   2.116   1.982   1.343
 8613SOL    HW226739   2.176   1.914   1.479
 8614SOL     OW26740   0.755   2.513   2.420
 8614SOL    HW126741   0.783   2.429   2.467
 8614SOL    HW226742   0.656   2.510   2.405
 8615SOL     OW26743   4.639   1.378   5.225
 8615SOL    HW126744   4.694   1.303   5.262
 8615SOL    HW226745   4.624   1.363   5.127
 8616SOL     OW26746   3.052   4.500   1.733
 8616SOL    HW126747   2.965   4.505   1.782
 8616SOL    HW226748   3.053   4.568   1.660
 8617SOL     OW26749   6.589   1.173   6.573
 8617SOL    HW126750   6.506   1.192   6.520
 8617SOL    HW226751   6.565   1.161   6.669
 8618SOL     OW26752   5.952   6.039   0.638
 8618SOL    HW126753   6.046   6.034   0.671
 8618SOL    HW226754   5.889   6.041   0.716
 8619SOL     OW26755   3.970   4.824   2.293
 8619SOL    HW126756   3.976   4.818   2.194
 8619SOL    HW226757   4.007   4.912   2.324
 8620SOL     OW26758   1.447   1.030   3.645
 8620SOL    HW126759   1.466   0.932   3.636
 8620SOL    HW226760   1.365   1.043   3.701
 8621SOL     OW26761   5.664   1.886   3.161
 8621SOL    HW126762   5.689   1.971   3.116
 8621SOL    HW226763   5.657   1.901   3.260
 8622SOL     OW26764   5.471   3.466   0.847
 8622SOL    HW126765   5.443   3.534   0.779
 8622SOL    HW226766   5.471   3.375   0.805
 8623SOL     OW26767   1.083   3.918   4.337
 8623SOL    HW126768   1.059   3.838   4.282
 8623SOL    HW226769   1.007   3.941   4.398
 8624SOL     OW26770   1.445   3.549   5.012
 8624SOL    HW126771   1.383   3.605   5.067
 8624SOL    HW226772   1.536   3.590   5.013
 8625SOL     OW26773   4.532   0.782   6.237
 8625SOL    HW126774   4.446   0.801   6.191
 8625SOL    HW226775   4.576   0.703   6.194
 8626SOL     OW26776   3.628   3.168   5.880
 8626SOL    HW126777   3.631   3.078   5.837
 8626SOL    HW226778   3.640   3.239   5.811
 8627SOL     OW26779   1.174   1.873   3.431
 8627SOL    HW126780   1.228   1.859   3.348
 8627SOL    HW226781   1.163   1.786   3.479
 8628SOL     OW26782   6.427   6.921   0.718
 8628SOL    HW126783   6.489   6.938   0.641
 8628SOL    HW226784   6.381   6.833   0.705
 8629SOL     OW26785   1.213   5.532   4.987
 8629SOL    HW126786   1.167   5.484   5.062
 8629SOL    HW226787   1.168   5.510   4.901
 8630SOL     OW26788   5.259   4.173   3.734
 8630SOL    HW126789   5.352   4.188   3.768
 8630SOL    HW226790   5.238   4.075   3.738
 8631SOL     OW26791   0.848   4.905   6.217
 8631SOL    HW126792   0.867   4.811   6.187
 8631SOL    HW226793   0.848   4.966   6.139
 8632SOL     OW26794   3.639   5.926   4.249
 8632SOL    HW126795   3.606   5.884   4.164
 8632SOL    HW226796   3.716   5.986   4.228
 8633SOL     OW26797   5.396   1.604   5.841
 8633SOL    HW126798   5.296   1.605   5.833
 8633SOL    HW226799   5.422   1.629   5.934
 8634SOL     OW26800   5.227   3.755   0.719
 8634SOL    HW126801   5.147   3.780   0.773
 8634SOL    HW226802   5.201   3.746   0.622
 8635SOL     OW26803   5.311   3.895   6.438
 8635SOL    HW126804   5.266   3.962   6.379
 8635SOL    HW226805   5.407   3.887   6.411
 8636SOL     OW26806   5.059   5.613   0.793
 8636SOL    HW126807   4.962   5.607   0.770
 8636SOL    HW226808   5.102   5.686   0.740
 8637SOL     OW26809   1.688   1.137   0.470
 8637SOL    HW126810   1.628   1.138   0.390
 8637SOL    HW226811   1.780   1.108   0.442
 8638SOL     OW26812   2.830   2.962   5.701
 8638SOL    HW126813   2.766   2.982   5.627
 8638SOL    HW226814   2.918   3.007   5.681
 8639SOL     OW26815   5.432   2.574   0.673
 8639SOL    HW126816   5.517   2.585   0.725
 8639SOL    HW226817   5.357   2.619   0.722
 8640SOL     OW26818   4.374   3.859   6.626
 8640SOL    HW126819   4.440   3.879   6.699
 8640SOL    HW226820   4.401   3.907   6.543
 8641SOL     OW26821   4.794   4.703   3.970
 8641SOL    HW126822   4.743   4.728   4.053
 8641SOL    HW226823   4.883   4.748   3.972
 8642SOL     OW26824   1.657   6.224   2.966
 8642SOL    HW126825   1.661   6.211   3.065
 8642SOL    HW226826   1.749   6.219   2.927
 8643SOL     OW26827   2.700   0.030   6.740
 8643SOL    HW126828   2.774   6.991   6.769
 8643SOL    HW226829   2.719   0.123   6.773
 8644SOL     OW26830   5.295   2.391   5.155
 8644SOL    HW126831   5.357   2.443   5.214
 8644SOL    HW226832   5.349   2.343   5.085
 8645SOL     OW26833   4.678   4.501   1.586
 8645SOL    HW126834   4.673   4.490   1.487
 8645SOL    HW226835   4.681   4.411   1.629
 8646SOL     OW26836   6.632   1.884   1.368
 8646SOL    HW126837   6.620   1.959   1.433
 8646SOL    HW226838   6.679   1.808   1.412
 8647SOL     OW26839   2.873   5.578   6.529
 8647SOL    HW126840   2.858   5.675   6.550
 8647SOL    HW226841   2.968   5.554   6.546
 8648SOL     OW26842   6.363   0.635   3.221
 8648SOL    HW126843   6.316   0.548   3.238
 8648SOL    HW226844   6.339   0.700   3.293
 8649SOL     OW26845   5.390   4.903   6.008
 8649SOL    HW126846   5.358   4.868   5.920
 8649SOL    HW226847   5.396   5.003   6.005
 8650SOL     OW26848   2.442   5.116   4.882
 8650SOL    HW126849   2.353   5.127   4.839
 8650SOL    HW226850   2.498   5.197   4.866
 8651SOL     OW26851   4.080   0.020   0.019
 8651SOL    HW126852   3.983   0.038   0.002
 8651SOL    HW226853   4.091   6.952   0.060
 8652SOL     OW26854   1.798   4.555   4.110
 8652SOL    HW126855   1.785   4.606   4.025
 8652SOL    HW226856   1.896   4.548   4.130
 8653SOL     OW26857   5.762   0.124   6.171
 8653SOL    HW126858   5.788   0.122   6.075
 8653SOL    HW226859   5.774   0.217   6.207
 8654SOL     OW26860   1.003   4.917   1.550
 8654SOL    HW126861   1.007   4.818   1.536
 8654SOL    HW226862   1.040   4.964   1.470
 8655SOL     OW26863   0.082   1.390   3.830
 8655SOL    HW126864   0.142   1.311   3.836
 8655SOL    HW226865   0.039   1.407   3.919
 8656SOL     OW26866   6.714   0.424   1.244
 8656SOL    HW126867   6.784   0.407   1.313
 8656SOL    HW226868   6.739   0.504   1.189
 8657SOL     OW26869   5.596   4.529   0.311
 8657SOL    HW126870   5.573   4.626   0.322
 8657SOL    HW226871   5.673   4.507   0.371
 8658SOL     OW26872   5.798   6.421   0.113
 8658SOL    HW126873   5.778   6.411   0.210
 8658SOL    HW226874   5.713   6.431   0.062
 8659SOL     OW26875   4.312   1.912   2.402
 8659SOL    HW126876   4.319   1.966   2.486
 8659SOL    HW226877   4.400   1.913   2.354
 8660SOL     OW26878   6.497   4.163   1.962
 8660SOL    HW126879   6.532   4.214   2.040
 8660SOL    HW226880   6.438   4.089   1.995
 8661SOL     OW26881   6.156   4.237   1.031
 8661SOL    HW126882   6.240   4.230   0.977
 8661SOL    HW226883   6.159   4.170   1.105
 8662SOL     OW26884   4.515   5.618   1.446
 8662SOL    HW126885   4.421   5.625   1.414
 8662SOL    HW226886   4.518   5.571   1.533
 8663SOL     OW26887   3.230   6.138   1.631
 8663SOL    HW126888   3.246   6.120   1.534
 8663SOL    HW226889   3.167   6.070   1.668
 8664SOL     OW26890   1.379   5.982   0.916
 8664SOL    HW126891   1.438   6.012   0.990
 8664SOL    HW226892   1.433   5.972   0.832
 8665SOL     OW26893   5.522   6.250   5.050
 8665SOL    HW126894   5.598   6.204   5.095
 8665SOL    HW226895   5.447   6.184   5.037
 8666SOL     OW26896   5.258   1.350   3.813
 8666SOL    HW126897   5.326   1.335   3.742
 8666SOL    HW226898   5.198   1.269   3.820
 8667SOL     OW26899   4.474   2.451   2.954
 8667SOL    HW126900   4.456   2.491   2.864
 8667SOL    HW226901   4.404   2.383   2.975
 8668SOL     OW26902   4.871   3.540   3.213
 8668SOL    HW126903   4.833   3.468   3.155
 8668SOL    HW226904   4.915   3.498   3.293
 8669SOL     OW26905   1.877   6.602   6.188
 8669SOL    HW126906   1.834   6.665   6.252
 8669SOL    HW226907   1.918   6.526   6.238
 8670SOL     OW26908   3.701   4.336   5.269
 8670SOL    HW126909   3.649   4.421   5.276
 8670SOL    HW226910   3.799   4.356   5.269
 8671SOL     OW26911   5.236   1.450   2.515
 8671SOL    HW126912   5.280   1.513   2.579
 8671SOL    HW226913   5.260   1.356   2.539
 8672SOL     OW26914   1.416   5.129   4.519
 8672SOL    HW126915   1.398   5.099   4.426
 8672SOL    HW226916   1.515   5.135   4.533
 8673SOL     OW26917   6.316   3.074   0.226
 8673SOL    HW126918   6.398   3.020   0.210
 8673SOL    HW226919   6.267   3.087   0.139
 8674SOL     OW26920   5.132   5.784   3.190
 8674SOL    HW126921   5.193   5.765   3.268
 8674SOL    HW226922   5.180   5.843   3.125
 8675SOL     OW26923   3.169   2.145   4.110
 8675SOL    HW126924   3.114   2.220   4.071
 8675SOL    HW226925   3.133   2.121   4.200
 8676SOL     OW26926   4.637   0.049   2.385
 8676SOL    HW126927   4.624   0.144   2.359
 8676SOL    HW226928   4.692   0.044   2.469
 8677SOL     OW26929   2.073   5.614   5.883
 8677SOL    HW126930   1.992   5.653   5.840
 8677SOL    HW226931   2.098   5.529   5.835
 8678SOL     OW26932   6.767   0.321   2.170
 8678SOL    HW126933   6.849   0.311   2.114
 8678SOL    HW226934   6.704   0.246   2.151
 8679SOL     OW26935   6.968   1.848   3.358
 8679SOL    HW126936   0.038   1.847   3.395
 8679SOL    HW226937   6.963   1.914   3.283
 8680SOL     OW26938   0.652   3.811   0.407
 8680SOL    HW126939   0.635   3.904   0.442
 8680SOL    HW226940   0.599   3.745   0.461
 8681SOL     OW26941   5.089   5.178   0.582
 8681SOL    HW126942   5.039   5.112   0.525
 8681SOL    HW226943   5.179   5.195   0.542
 8682SOL     OW26944   5.158   6.705   2.139
 8682SOL    HW126945   5.222   6.633   2.163
 8682SOL    HW226946   5.067   6.681   2.171
 8683SOL     OW26947   1.994   2.050   4.113
 8683SOL    HW126948   2.086   2.089   4.116
 8683SOL    HW226949   1.999   1.958   4.073
 8684SOL     OW26950   6.614   2.935   5.107
 8684SOL    HW126951   6.541   2.995   5.139
 8684SOL    HW226952   6.593   2.841   5.131
 8685SOL     OW26953   0.542   1.918   6.506
 8685SOL    HW126954   0.569   1.988   6.572
 8685SOL    HW226955   0.567   1.948   6.414
 8686SOL     OW26956   6.964   1.396   2.509
 8686SOL    HW126957   0.016   1.348   2.555
 8686SOL    HW226958   6.950   1.485   2.552
 8687SOL     OW26959   5.081   4.705   1.429
 8687SOL    HW126960   5.153   4.655   1.477
 8687SOL    HW226961   5.081   4.801   1.460
 8688SOL     OW26962   2.318   5.682   6.886
 8688SOL    HW126963   2.394   5.663   6.948
 8688SOL    HW226964   2.249   5.610   6.894
 8689SOL     OW26965   3.856   3.864   1.460
 8689SOL    HW126966   3.763   3.840   1.485
 8689SOL    HW226967   3.885   3.808   1.382
 8690SOL     OW26968   1.776   3.977   3.447
 8690SOL    HW126969   1.708   3.904   3.458
 8690SOL    HW226970   1.797   3.989   3.350
 8691SOL     OW26971   2.784   1.662   5.902
 8691SOL    HW126972   2.858   1.679   5.966
 8691SOL    HW226973   2.724   1.590   5.938
 8692SOL     OW26974   2.617   1.117   5.209
 8692SOL    HW126975   2.605   1.134   5.307
 8692SOL    HW226976   2.529   1.095   5.168
 8693SOL     OW26977   5.749   0.636   0.060
 8693SOL    HW126978   5.829   0.587   0.095
 8693SOL    HW226979   5.681   0.571   0.028
 8694SOL     OW26980   4.654   0.663   5.181
 8694SOL    HW126981   4.593   0.672   5.102
 8694SOL    HW226982   4.606   0.691   5.264
 8695SOL     OW26983   4.081   3.239   6.281
 8695SOL    HW126984   4.098   3.279   6.371
 8695SOL    HW226985   3.983   3.224   6.269
 8696SOL     OW26986   2.197   4.973   6.534
 8696SOL    HW126987   2.276   4.939   6.584
 8696SOL    HW226988   2.206   4.948   6.437
 8697SOL     OW26989   0.101   2.666   6.185
 8697SOL    HW126990   0.091   2.576   6.228
 8697SOL    HW226991   0.045   2.733   6.235
 8698SOL     OW26992   5.049   6.388   5.346
 8698SOL    HW126993   5.055   6.289   5.339
 8698SOL    HW226994   5.127   6.430   5.300
 8699SOL     OW26995   1.825   2.408   5.191
 8699SOL    HW126996   1.839   2.416   5.290
 8699SOL    HW226997   1.730   2.432   5.170
 8700SOL     OW26998   0.998   1.280   3.966
 8700SOL    HW126999   1.048   1.232   4.038
 8700SOL    HW227000   0.961   1.213   3.901
 8701SOL     OW27001   1.022   0.976   0.777
 8701SOL    HW127002   1.034   1.065   0.820
 8701SOL    HW227003   1.112   0.940   0.750
 8702SOL     OW27004   5.556   5.188   1.927
 8702SOL    HW127005   5.580   5.137   2.010
 8702SOL    HW227006   5.464   5.164   1.898
 8703SOL     OW27007   2.999   5.044   6.493
 8703SOL    HW127008   3.078   5.063   6.435
 8703SOL    HW227009   2.990   5.117   6.562
 8704SOL     OW27010   0.308   3.745   3.428
 8704SOL    HW127011   0.227   3.800   3.403
 8704SOL    HW227012   0.372   3.746   3.352
 8705SOL     OW27013   5.522   1.239   6.276
 8705SOL    HW127014   5.588   1.299   6.230
 8705SOL    HW227015   5.483   1.287   6.355
 8706SOL     OW27016   4.758   2.077   0.019
 8706SOL    HW127017   4.818   2.099   6.964
 8706SOL    HW227018   4.812   2.035   0.092
 8707SOL     OW27019   6.810   1.088   6.359
 8707SOL    HW127020   6.735   1.109   6.422
 8707SOL    HW227021   6.867   1.169   6.346
 8708SOL     OW27022   4.398   1.662   2.470
 8708SOL    HW127023   4.488   1.635   2.434
 8708SOL    HW227024   4.367   1.744   2.422
 8709SOL     OW27025   6.767   6.716   6.995
 8709SOL    HW127026   6.865   6.698   6.986
 8709SOL    HW227027   6.747   6.751   0.064
 8710SOL     OW27028   1.966   3.251   4.056
 8710SOL    HW127029   1.964   3.160   4.013
 8710SOL    HW227030   1.981   3.241   4.154
 8711SOL     OW27031   1.770   7.022   3.163
 8711SOL    HW127032   1.792   0.095   3.147
 8711SOL    HW227033   1.765   6.973   3.076
 8712SOL     OW27034   3.930   2.078   4.758
 8712SOL    HW127035   3.882   2.115   4.678
 8712SOL    HW227036   3.881   1.997   4.791
 8713SOL     OW27037   6.372   3.148   3.956
 8713SOL    HW127038   6.447   3.191   4.007
 8713SOL    HW227039   6.377   3.049   3.968
 8714SOL     OW27040   0.501   0.502   5.928
 8714SOL    HW127041   0.485   0.424   5.867
 8714SOL    HW227042   0.487   0.473   6.022
 8715SOL     OW27043   4.419   0.209   0.601
 8715SOL    HW127044   4.365   0.162   0.531
 8715SOL    HW227045   4.456   0.142   0.665
 8716SOL     OW27046   6.857   0.021   1.272
 8716SOL    HW127047   6.828   6.960   1.318
 8716SOL    HW227048   6.820   0.101   1.320
 8717SOL     OW27049   2.896   3.344   4.523
 8717SOL    HW127050   2.915   3.441   4.510
 8717SOL    HW227051   2.799   3.327   4.508
 8718SOL     OW27052   1.745   3.765   5.434
 8718SOL    HW127053   1.805   3.685   5.431
 8718SOL    HW227054   1.694   3.771   5.348
 8719SOL     OW27055   3.671   0.396   6.501
 8719SOL    HW127056   3.654   0.413   6.598
 8719SOL    HW227057   3.730   0.468   6.465
 8720SOL     OW27058   6.563   5.416   5.859
 8720SOL    HW127059   6.557   5.482   5.785
 8720SOL    HW227060   6.653   5.423   5.903
 8721SOL     OW27061   6.887   3.200   1.796
 8721SOL    HW127062   6.905   3.245   1.883
 8721SOL    HW227063   6.816   3.250   1.746
 8722SOL     OW27064   3.847   1.620   6.704
 8722SOL    HW127065   3.877   1.602   6.610
 8722SOL    HW227066   3.748   1.629   6.705
 8723SOL     OW27067   5.585   6.026   1.271
 8723SOL    HW127068   5.501   5.993   1.315
 8723SOL    HW227069   5.573   6.028   1.172
 8724SOL     OW27070   4.515   6.783   5.047
 8724SOL    HW127071   4.569   6.701   5.027
 8724SOL    HW227072   4.506   6.838   4.965
 8725SOL     OW27073   1.913   6.234   5.958
 8725SOL    HW127074   1.934   6.327   5.926
 8725SOL    HW227075   1.984   6.205   6.023
 8726SOL     OW27076   6.622   1.255   3.369
 8726SOL    HW127077   6.638   1.349   3.340
 8726SOL    HW227078   6.700   1.198   3.343
 8727SOL     OW27079   6.302   6.665   2.154
 8727SOL    HW127080   6.278   6.569   2.151
 8727SOL    HW227081   6.286   6.706   2.064
 8728SOL     OW27082   6.316   0.518   2.164
 8728SOL    HW127083   6.219   0.491   2.159
 8728SOL    HW227084   6.355   0.483   2.249
 8729SOL     OW27085   3.689   5.643   4.939
 8729SOL    HW127086   3.713   5.729   4.984
 8729SOL    HW227087   3.733   5.638   4.849
 8730SOL     OW27088   6.379   4.515   2.627
 8730SOL    HW127089   6.365   4.437   2.688
 8730SOL    HW227090   6.450   4.491   2.560
 8731SOL     OW27091   1.952   2.539   3.034
 8731SOL    HW127092   1.972   2.449   3.073
 8731SOL    HW227093   1.901   2.527   2.948
 8732SOL     OW27094   5.844   5.092   1.673
 8732SOL    HW127095   5.849   5.089   1.773
 8732SOL    HW227096   5.865   5.185   1.642
 8733SOL     OW27097   1.811   5.235   1.445
 8733SOL    HW127098   1.727   5.271   1.484
 8733SOL    HW227099   1.844   5.160   1.502
 8734SOL     OW27100   1.163   4.680   2.196
 8734SOL    HW127101   1.139   4.750   2.263
 8734SOL    HW227102   1.205   4.722   2.116
 8735SOL     OW27103   1.041   2.552   0.861
 8735SOL    HW127104   1.127   2.522   0.820
 8735SOL    HW227105   1.002   2.477   0.914
 8736SOL     OW27106   0.225   5.587   6.788
 8736SOL    HW127107   0.137   5.551   6.754
 8736SOL    HW227108   0.261   5.654   6.723
 8737SOL     OW27109   1.661   6.205   6.779
 8737SOL    HW127110   1.661   6.302   6.803
 8737SOL    HW227111   1.632   6.151   6.859
 8738SOL     OW27112   2.648   5.764   4.515
 8738SOL    HW127113   2.672   5.741   4.421
 8738SOL    HW227114   2.684   5.693   4.576
 8739SOL     OW27115   5.915   5.270   6.685
 8739SOL    HW127116   6.011   5.256   6.709
 8739SOL    HW227117   5.858   5.257   6.766
 8740SOL     OW27118   4.631   1.305   4.500
 8740SOL    HW127119   4.728   1.292   4.483
 8740SOL    HW227120   4.595   1.375   4.438
 8741SOL     OW27121   2.795   1.282   2.504
 8741SOL    HW127122   2.831   1.372   2.478
 8741SOL    HW227123   2.849   1.246   2.580
 8742SOL     OW27124   5.627   6.168   1.609
 8742SOL    HW127125   5.541   6.119   1.615
 8742SOL    HW227126   5.696   6.123   1.665
 8743SOL     OW27127   1.622   0.316   2.188
 8743SOL    HW127128   1.584   0.282   2.102
 8743SOL    HW227129   1.591   0.257   2.263
 8744SOL     OW27130   3.997   2.593   6.515
 8744SOL    HW127131   4.081   2.562   6.560
 8744SOL    HW227132   3.977   2.533   6.438
 8745SOL     OW27133   6.338   2.754   6.842
 8745SOL    HW127134   6.318   2.706   6.757
 8745SOL    HW227135   6.424   2.804   6.833
 8746SOL     OW27136   4.629   5.288   4.288
 8746SOL    HW127137   4.603   5.384   4.284
 8746SOL    HW227138   4.548   5.232   4.302
 8747SOL     OW27139   0.909   2.826   3.116
 8747SOL    HW127140   0.978   2.875   3.169
 8747SOL    HW227141   0.878   2.883   3.040
 8748SOL     OW27142   6.537   1.342   4.646
 8748SOL    HW127143   6.460   1.383   4.596
 8748SOL    HW227144   6.533   1.371   4.742
 8749SOL     OW27145   2.339   0.461   4.810
 8749SOL    HW127146   2.325   0.438   4.714
 8749SOL    HW227147   2.258   0.509   4.844
 8750SOL     OW27148   3.273   3.964   4.944
 8750SOL    HW127149   3.222   4.037   4.898
 8750SOL    HW227150   3.305   3.898   4.876
 8751SOL     OW27151   5.575   1.580   2.376
 8751SOL    HW127152   5.574   1.613   2.282
 8751SOL    HW227153   5.620   1.490   2.379
 8752SOL     OW27154   2.852   3.079   0.129
 8752SOL    HW127155   2.828   3.033   0.215
 8752SOL    HW227156   2.859   3.011   0.056
 8753SOL     OW27157   4.327   2.139   5.720
 8753SOL    HW127158   4.231   2.156   5.697
 8753SOL    HW227159   4.355   2.201   5.794
 8754SOL     OW27160   2.341   3.500   5.909
 8754SOL    HW127161   2.264   3.530   5.965
 8754SOL    HW227162   2.316   3.415   5.862
 8755SOL     OW27163   1.840   0.758   0.643
 8755SOL    HW127164   1.744   0.745   0.668
 8755SOL    HW227165   1.897   0.754   0.725
 8756SOL     OW27166   0.757   3.471   3.771
 8756SOL    HW127167   0.673   3.521   3.750
 8756SOL    HW227168   0.833   3.536   3.780
 8757SOL     OW27169   4.127   5.678   6.237
 8757SOL    HW127170   4.119   5.773   6.268
 8757SOL    HW227171   4.139   5.618   6.315
 8758SOL     OW27172   5.085   5.724   2.212
 8758SOL    HW127173   5.122   5.748   2.302
 8758SOL    HW227174   5.152   5.749   2.141
 8759SOL     OW27175   5.133   2.526   0.239
 8759SOL    HW127176   5.096   2.502   0.329
 8759SOL    HW227177   5.206   2.462   0.214
 8760SOL     OW27178   2.151   1.172   5.234
 8760SOL    HW127179   2.235   1.218   5.264
 8760SOL    HW227180   2.171   1.115   5.155
 8761SOL     OW27181   6.196   2.132   1.893
 8761SOL    HW127182   6.281   2.140   1.841
 8761SOL    HW227183   6.118   2.143   1.832
 8762SOL     OW27184   1.549   3.989   2.965
 8762SOL    HW127185   1.508   3.992   3.056
 8762SOL    HW227186   1.490   4.037   2.900
 8763SOL     OW27187   6.881   6.518   5.980
 8763SOL    HW127188   6.929   6.444   5.935
 8763SOL    HW227189   6.946   6.590   6.005
 8764SOL     OW27190   4.749   0.801   4.897
 8764SOL    HW127191   4.792   0.750   4.971
 8764SOL    HW227192   4.812   0.872   4.865
 8765SOL     OW27193   4.955   6.652   3.767
 8765SOL    HW127194   4.866   6.666   3.810
 8765SOL    HW227195   4.977   6.731   3.710
 8766SOL     OW27196   4.773   4.231   4.069
 8766SOL    HW127197   4.821   4.302   4.120
 8766SOL    HW227198   4.747   4.267   3.979
 8767SOL     OW27199   4.890   5.400   2.918
 8767SOL    HW127200   4.969   5.422   2.974
 8767SOL    HW227201   4.886   5.301   2.903
 8768SOL     OW27202   1.143   2.621   0.486
 8768SOL    HW127203   1.056   2.636   0.533
 8768SOL    HW227204   1.126   2.571   0.400
 8769SOL     OW27205   0.099   0.841   4.146
 8769SOL    HW127206   0.019   0.901   4.145
 8769SOL    HW227207   0.086   0.767   4.080
 8770SOL     OW27208   4.671   4.220   2.404
 8770SOL    HW127209   4.715   4.133   2.428
 8770SOL    HW227210   4.674   4.233   2.305
 8771SOL     OW27211   1.223   1.291   6.450
 8771SOL    HW127212   1.274   1.232   6.513
 8771SOL    HW227213   1.268   1.380   6.444
 8772SOL     OW27214   5.226   0.594   6.068
 8772SOL    HW127215   5.165   0.555   5.999
 8772SOL    HW227216   5.178   0.601   6.155
 8773SOL     OW27217   4.494   2.343   3.602
 8773SOL    HW127218   4.555   2.409   3.648
 8773SOL    HW227219   4.423   2.393   3.553
 8774SOL     OW27220   1.237   0.789   0.270
 8774SOL    HW127221   1.280   0.835   0.193
 8774SOL    HW227222   1.290   0.709   0.297
 8775SOL     OW27223   6.040   6.603   5.338
 8775SOL    HW127224   6.090   6.520   5.315
 8775SOL    HW227225   5.963   6.613   5.275
 8776SOL     OW27226   3.687   2.827   6.850
 8776SOL    HW127227   3.784   2.823   6.828
 8776SOL    HW227228   3.636   2.766   6.790
 8777SOL     OW27229   0.270   4.136   2.526
 8777SOL    HW127230   0.188   4.189   2.549
 8777SOL    HW227231   0.298   4.159   2.432
 8778SOL     OW27232   5.083   2.944   5.409
 8778SOL    HW127233   5.038   2.872   5.462
 8778SOL    HW227234   5.088   2.916   5.313
 8779SOL     OW27235   2.987   5.123   2.537
 8779SOL    HW127236   3.071   5.113   2.591
 8779SOL    HW227237   2.926   5.047   2.559
 8780SOL     OW27238   0.843   6.402   2.718
 8780SOL    HW127239   0.762   6.397   2.777
 8780SOL    HW227240   0.924   6.381   2.772
 8781SOL     OW27241   5.565   1.038   3.334
 8781SOL    HW127242   5.656   1.014   3.368
 8781SOL    HW227243   5.518   0.954   3.304
 8782SOL     OW27244   6.429   6.590   1.381
 8782SOL    HW127245   6.496   6.528   1.423
 8782SOL    HW227246   6.418   6.670   1.439
 8783SOL     OW27247   6.584   4.659   3.574
 8783SOL    HW127248   6.678   4.635   3.596
 8783SOL    HW227249   6.552   4.604   3.496
 8784SOL     OW27250   6.484   3.947   6.014
 8784SOL    HW127251   6.403   3.987   6.056
 8784SOL    HW227252   6.470   3.940   5.915
 8785SOL     OW27253   5.708   3.790   0.184
 8785SOL    HW127254   5.746   3.883   0.181
 8785SOL    HW227255   5.743   3.738   0.106
 8786SOL     OW27256   2.212   0.619   0.384
 8786SOL    HW127257   2.242   0.707   0.347
 8786SOL    HW227258   2.192   0.556   0.309
 8787SOL     OW27259   3.761   2.101   1.740
 8787SOL    HW127260   3.821   2.142   1.671
 8787SOL    HW227261   3.737   2.170   1.808
 8788SOL     OW27262   6.359   1.275   5.667
 8788SOL    HW127263   6.363   1.261   5.568
 8788SOL    HW227264   6.268   1.307   5.693
 8789SOL     OW27265   6.414   6.890   4.734
 8789SOL    HW127266   6.352   6.880   4.811
 8789SOL    HW227267   6.421   6.987   4.709
 8790SOL     OW27268   0.455   0.541   6.751
 8790SOL    HW127269   0.404   0.564   6.668
 8790SOL    HW227270   0.537   0.490   6.726
 8791SOL     OW27271   5.474   6.716   4.958
 8791SOL    HW127272   5.532   6.635   4.950
 8791SOL    HW227273   5.482   6.755   5.050
 8792SOL     OW27274   2.160   6.345   2.965
 8792SOL    HW127275   2.253   6.375   2.943
 8792SOL    HW227276   2.162   6.283   3.043
 8793SOL     OW27277   1.304   4.271   3.163
 8793SOL    HW127278   1.366   4.229   3.228
 8793SOL    HW227279   1.210   4.263   3.196
 8794SOL     OW27280   5.121   0.146   2.415
 8794SOL    HW127281   5.100   0.236   2.454
 8794SOL    HW227282   5.059   0.128   2.339
 8795SOL     OW27283   1.463   5.091   5.761
 8795SOL    HW127284   1.418   5.176   5.786
 8795SOL    HW227285   1.525   5.063   5.834
 8796SOL     OW27286   3.843   2.156   4.510
 8796SOL    HW127287   3.918   2.123   4.453
 8796SOL    HW227288   3.757   2.150   4.459
 8797SOL     OW27289   0.079   0.005   6.807
 8797SOL    HW127290   0.106   0.101   6.822
 8797SOL    HW227291   0.008   7.002   6.873
 8798SOL     OW27292   5.076   5.812   6.087
 8798SOL    HW127293   5.016   5.808   6.167
 8798SOL    HW227294   5.034   5.870   6.017
 8799SOL     OW27295   2.645   4.682   3.576
 8799SOL    HW127296   2.693   4.676   3.663
 8799SOL    HW227297   2.569   4.746   3.585
 8800SOL     OW27298   6.392   3.822   5.349
 8800SOL    HW127299   6.384   3.833   5.448
 8800SOL    HW227300   6.488   3.835   5.322
 8801SOL     OW27301   6.865   1.305   5.124
 8801SOL    HW127302   6.822   1.304   5.214
 8801SOL    HW227303   6.925   1.225   5.115
 8802SOL     OW27304   1.976   6.962   0.283
 8802SOL    HW127305   2.004   6.992   0.374
 8802SOL    HW227306   1.933   6.872   0.289
 8803SOL     OW27307   6.545   6.321   6.988
 8803SOL    HW127308   6.511   6.399   6.935
 8803SOL    HW227309   6.497   6.317   0.054
 8804SOL     OW27310   2.394   6.515   1.993
 8804SOL    HW127311   2.403   6.597   2.049
 8804SOL    HW227312   2.298   6.498   1.973
 8805SOL     OW27313   2.577   6.238   3.691
 8805SOL    HW127314   2.623   6.327   3.695
 8805SOL    HW227315   2.478   6.252   3.688
 8806SOL     OW27316   3.170   5.173   2.301
 8806SOL    HW127317   3.085   5.121   2.309
 8806SOL    HW227318   3.181   5.230   2.383
 8807SOL     OW27319   5.017   0.384   0.323
 8807SOL    HW127320   5.064   0.389   0.235
 8807SOL    HW227321   5.030   0.293   0.362
 8808SOL     OW27322   5.738   2.724   6.740
 8808SOL    HW127323   5.674   2.652   6.766
 8808SOL    HW227324   5.825   2.683   6.712
 8809SOL     OW27325   4.902   5.654   3.303
 8809SOL    HW127326   4.876   5.572   3.251
 8809SOL    HW227327   4.984   5.694   3.262
 8810SOL     OW27328   6.057   0.825   4.841
 8810SOL    HW127329   6.132   0.889   4.860
 8810SOL    HW227330   6.093   0.733   4.829
 8811SOL     OW27331   3.174   0.918   2.343
 8811SOL    HW127332   3.208   0.984   2.410
 8811SOL    HW227333   3.100   0.958   2.290
 8812SOL     OW27334   1.817   0.398   0.917
 8812SOL    HW127335   1.856   0.489   0.899
 8812SOL    HW227336   1.778   0.362   0.832
 8813SOL     OW27337   2.321   4.614   1.587
 8813SOL    HW127338   2.363   4.685   1.644
 8813SOL    HW227339   2.293   4.654   1.500
 8814SOL     OW27340   5.600   6.582   0.954
 8814SOL    HW127341   5.587   6.494   0.908
 8814SOL    HW227342   5.610   6.567   1.053
 8815SOL     OW27343   5.390   0.085   1.322
 8815SOL    HW127344   5.343   0.137   1.393
 8815SOL    HW227345   5.489   0.087   1.340
 8816SOL     OW27346   0.977   6.421   0.282
 8816SOL    HW127347   1.020   6.386   0.199
 8816SOL    HW227348   1.043   6.419   0.357
 8817SOL     OW27349   0.079   4.965   4.003
 8817SOL    HW127350   0.132   4.938   4.084
 8817SOL    HW227351   0.063   4.884   3.945
 8818SOL     OW27352   0.233   4.395   4.601
 8818SOL    HW127353   0.321   4.379   4.556
 8818SOL    HW227354   0.203   4.311   4.647
 8819SOL     OW27355   5.689   5.430   5.166
 8819SOL    HW127356   5.749   5.510   5.163
 8819SOL    HW227357   5.671   5.406   5.261
 8820SOL     OW27358   1.958   0.409   5.262
 8820SOL    HW127359   1.899   0.384   5.338
 8820SOL    HW227360   2.038   0.458   5.297
 8821SOL     OW27361   1.516   6.038   1.172
 8821SOL    HW127362   1.597   6.004   1.125
 8821SOL    HW227363   1.501   5.984   1.255
 8822SOL     OW27364   1.032   0.042   3.934
 8822SOL    HW127365   1.046   6.993   3.866
 8822SOL    HW227366   0.976   0.115   3.896
 8823SOL     OW27367   2.645   0.790   2.445
 8823SOL    HW127368   2.634   0.872   2.502
 8823SOL    HW227369   2.719   0.804   2.380
 8824SOL     OW27370   1.103   2.210   0.552
 8824SOL    HW127371   1.183   2.192   0.495
 8824SOL    HW227372   1.078   2.127   0.602
 8825SOL     OW27373   2.364   1.426   1.745
 8825SOL    HW127374   2.394   1.412   1.840
 8825SOL    HW227375   2.293   1.496   1.742
 8826SOL     OW27376   0.088   3.247   0.204
 8826SOL    HW127377   0.062   3.260   0.299
 8826SOL    HW227378   0.127   3.332   0.168
 8827SOL     OW27379   3.997   1.832   1.786
 8827SOL    HW127380   3.935   1.856   1.861
 8827SOL    HW227381   3.951   1.846   1.698
 8828SOL     OW27382   4.113   5.878   5.788
 8828SOL    HW127383   4.106   5.801   5.725
 8828SOL    HW227384   4.030   5.934   5.781
 8829SOL     OW27385   5.234   3.193   0.662
 8829SOL    HW127386   5.303   3.180   0.734
 8829SOL    HW227387   5.226   3.110   0.608
 8830SOL     OW27388   1.616   1.995   2.923
 8830SOL    HW127389   1.530   1.979   2.876
 8830SOL    HW227390   1.655   1.907   2.952
 8831SOL     OW27391   3.968   2.210   4.236
 8831SOL    HW127392   4.065   2.209   4.210
 8831SOL    HW227393   3.952   2.283   4.302
 8832SOL     OW27394   0.221   6.569   3.208
 8832SOL    HW127395   0.309   6.522   3.214
 8832SOL    HW227396   0.182   6.579   3.299
 8833SOL     OW27397   2.188   5.366   5.819
 8833SOL    HW127398   2.254   5.354   5.745
 8833SOL    HW227399   2.135   5.282   5.830
 8834SOL     OW27400   5.494   4.155   4.630
 8834SOL    HW127401   5.516   4.242   4.587
 8834SOL    HW227402   5.425   4.169   4.702
 8835SOL     OW27403   4.945   1.038   5.360
 8835SOL    HW127404   4.951   0.944   5.326
 8835SOL    HW227405   4.855   1.075   5.338
 8836SOL     OW27406   5.361   2.483   0.451
 8836SOL    HW127407   5.416   2.539   0.513
 8836SOL    HW227408   5.403   2.483   0.360
 8837SOL     OW27409   0.258   6.262   2.280
 8837SOL    HW127410   0.172   6.216   2.299
 8837SOL    HW227411   0.311   6.209   2.214
 8838SOL     OW27412   2.328   5.432   3.476
 8838SOL    HW127413   2.251   5.409   3.536
 8838SOL    HW227414   2.410   5.385   3.509
 8839SOL     OW27415   5.976   5.303   2.416
 8839SOL    HW127416   5.966   5.367   2.493
 8839SOL    HW227417   5.892   5.251   2.405
 8840SOL     OW27418   0.087   1.707   2.391
 8840SOL    HW127419   0.022   1.640   2.426
 8840SOL    HW227420   0.165   1.659   2.350
 8841SOL     OW27421   0.623   0.905   4.966
 8841SOL    HW127422   0.586   0.819   4.929
 8841SOL    HW227423   0.688   0.884   5.038
 8842SOL     OW27424   3.471   2.981   2.681
 8842SOL    HW127425   3.511   2.964   2.591
 8842SOL    HW227426   3.531   2.941   2.751
 8843SOL     OW27427   2.042   3.561   5.715
 8843SOL    HW127428   2.024   3.468   5.749
 8843SOL    HW227429   2.127   3.562   5.663
 8844SOL     OW27430   0.131   1.160   6.441
 8844SOL    HW127431   0.107   1.067   6.412
 8844SOL    HW227432   0.213   1.157   6.498
 8845SOL     OW27433   3.300   3.635   0.751
 8845SOL    HW127434   3.218   3.600   0.796
 8845SOL    HW227435   3.381   3.603   0.801
 8846SOL     OW27436   3.695   5.538   3.964
 8846SOL    HW127437   3.721   5.545   3.868
 8846SOL    HW227438   3.636   5.615   3.988
 8847SOL     OW27439   2.453   0.881   2.962
 8847SOL    HW127440   2.525   0.950   2.961
 8847SOL    HW227441   2.426   0.863   3.057
 8848SOL     OW27442   2.788   2.185   2.416
 8848SOL    HW127443   2.886   2.187   2.397
 8848SOL    HW227444   2.773   2.210   2.512
 8849SOL     OW27445   2.921   6.617   3.100
 8849SOL    HW127446   2.898   6.639   3.195
 8849SOL    HW227447   2.871   6.536   3.071
 8850SOL     OW27448   1.132   1.939   0.107
 8850SOL    HW127449   1.124   1.964   0.010
 8850SOL    HW227450   1.052   1.885   0.133
 8851SOL     OW27451   1.320   4.865   2.658
 8851SOL    HW127452   1.397   4.872   2.595
 8851SOL    HW227453   1.352   4.840   2.749
 8852SOL     OW27454   5.385   3.179   5.605
 8852SOL    HW127455   5.438   3.129   5.674
 8852SOL    HW227456   5.291   3.144   5.604
 8853SOL     OW27457   2.930   1.325   0.820
 8853SOL    HW127458   2.935   1.361   0.913
 8853SOL    HW227459   3.013   1.274   0.799
 8854SOL     OW27460   3.189   2.191   5.644
 8854SOL    HW127461   3.180   2.114   5.580
 8854SOL    HW227462   3.166   2.276   5.597
 8855SOL     OW27463   0.005   5.431   1.517
 8855SOL    HW127464   0.099   5.465   1.510
 8855SOL    HW227465   6.964   5.501   1.484
 8856SOL     OW27466   0.257   6.346   6.288
 8856SOL    HW127467   0.169   6.337   6.333
 8856SOL    HW227468   0.253   6.420   6.220
 8857SOL     OW27469   6.753   1.647   4.331
 8857SOL    HW127470   6.825   1.693   4.278
 8857SOL    HW227471   6.736   1.697   4.415
 8858SOL     OW27472   0.656   3.204   5.824
 8858SOL    HW127473   0.651   3.105   5.811
 8858SOL    HW227474   0.723   3.242   5.760
 8859SOL     OW27475   0.145   0.311   3.956
 8859SOL    HW127476   0.179   0.319   4.050
 8859SOL    HW227477   0.048   0.334   3.954
 8860SOL     OW27478   7.015   2.524   3.062
 8860SOL    HW127479   0.015   2.528   2.965
 8860SOL    HW227480   6.930   2.473   3.074
 8861SOL     OW27481   4.230   1.531   6.185
 8861SOL    HW127482   4.163   1.464   6.154
 8861SOL    HW227483   4.321   1.502   6.157
 8862SOL     OW27484   5.556   0.164   3.973
 8862SOL    HW127485   5.588   0.182   4.066
 8862SOL    HW227486   5.540   0.250   3.926
 8863SOL     OW27487   1.578   4.837   4.238
 8863SOL    HW127488   1.638   4.764   4.270
 8863SOL    HW227489   1.632   4.921   4.226
 8864SOL     OW27490   3.228   4.777   6.220
 8864SOL    HW127491   3.307   4.801   6.275
 8864SOL    HW227492   3.248   4.693   6.168
 8865SOL     OW27493   3.287   0.066   5.890
 8865SOL    HW127494   3.190   0.056   5.915
 8865SOL    HW227495   3.299   0.153   5.842
 8866SOL     OW27496   5.519   0.545   3.299
 8866SOL    HW127497   5.563   0.465   3.258
 8866SOL    HW227498   5.428   0.520   3.333
 8867SOL     OW27499   5.728   4.285   3.060
 8867SOL    HW127500   5.638   4.258   3.096
 8867SOL    HW227501   5.766   4.211   3.005
 8868SOL     OW27502   6.519   2.813   1.169
 8868SOL    HW127503   6.542   2.861   1.253
 8868SOL    HW227504   6.541   2.716   1.179
 8869SOL     OW27505   4.084   5.704   4.656
 8869SOL    HW127506   3.989   5.673   4.659
 8869SOL    HW227507   4.145   5.627   4.676
 8870SOL     OW27508   2.781   0.327   0.758
 8870SOL    HW127509   2.807   0.405   0.700
 8870SOL    HW227510   2.709   0.356   0.821
 8871SOL     OW27511   2.304   1.192   4.301
 8871SOL    HW127512   2.300   1.115   4.364
 8871SOL    HW227513   2.385   1.184   4.244
 8872SOL     OW27514   1.259   4.273   4.933
 8872SOL    HW127515   1.188   4.333   4.898
 8872SOL    HW227516   1.343   4.325   4.947
 8873SOL     OW27517   0.878   6.700   1.795
 8873SOL    HW127518   0.962   6.657   1.763
 8873SOL    HW227519   0.842   6.761   1.723
 8874SOL     OW27520   2.036   6.570   2.692
 8874SOL    HW127521   2.014   6.589   2.788
 8874SOL    HW227522   2.133   6.583   2.676
 8875SOL     OW27523   0.194   3.847   5.000
 8875SOL    HW127524   0.233   3.793   5.074
 8875SOL    HW227525   0.094   3.841   5.003
 8876SOL     OW27526   2.214   6.429   5.336
 8876SOL    HW127527   2.207   6.505   5.272
 8876SOL    HW227528   2.250   6.349   5.289
 8877SOL     OW27529   2.925   2.313   4.414
 8877SOL    HW127530   2.999   2.247   4.401
 8877SOL    HW227531   2.891   2.308   4.508
 8878SOL     OW27532   6.231   4.804   0.740
 8878SOL    HW127533   6.325   4.809   0.706
 8878SOL    HW227534   6.167   4.813   0.664
 8879SOL     OW27535   4.921   4.878   3.034
 8879SOL    HW127536   4.863   4.833   3.102
 8879SOL    HW227537   5.000   4.820   3.014
 8880SOL     OW27538   5.345   6.072   4.906
 8880SOL    HW127539   5.291   6.092   4.824
 8880SOL    HW227540   5.410   5.999   4.885
 8881SOL     OW27541   4.750   6.725   3.999
 8881SOL    HW127542   4.731   6.672   4.081
 8881SOL    HW227543   4.841   6.768   4.007
 8882SOL     OW27544   5.480   1.250   0.979
 8882SOL    HW127545   5.442   1.241   1.071
 8882SOL    HW227546   5.561   1.308   0.981
 8883SOL     OW27547   1.634   6.116   5.936
 8883SOL    HW127548   1.586   6.159   6.013
 8883SOL    HW227549   1.727   6.152   5.931
 8884SOL     OW27550   6.574   4.060   5.575
 8884SOL    HW127551   6.672   4.047   5.591
 8884SOL    HW227552   6.560   4.102   5.485
 8885SOL     OW27553   6.070   3.966   1.984
 8885SOL    HW127554   6.106   4.054   1.953
 8885SOL    HW227555   6.056   3.969   2.083
 8886SOL     OW27556   2.607   6.899   4.573
 8886SOL    HW127557   2.695   6.946   4.561
 8886SOL    HW227558   2.610   6.846   4.658
 8887SOL     OW27559   3.859   0.480   0.264
 8887SOL    HW127560   3.941   0.497   0.318
 8887SOL    HW227561   3.869   0.521   0.173
 8888SOL     OW27562   1.703   1.597   5.743
 8888SOL    HW127563   1.789   1.645   5.758
 8888SOL    HW227564   1.682   1.596   5.645
 8889SOL     OW27565   6.674   0.363   6.586
 8889SOL    HW127566   6.685   0.376   6.684
 8889SOL    HW227567   6.618   0.282   6.569
 8890SOL     OW27568   6.971   5.986   4.770
 8890SOL    HW127569   6.878   5.953   4.783
 8890SOL    HW227570   6.980   6.030   4.681
 8891SOL     OW27571   4.254   3.019   6.590
 8891SOL    HW127572   4.197   2.989   6.513
 8891SOL    HW227573   4.202   3.083   6.647
 8892SOL     OW27574   3.371   5.476   2.830
 8892SOL    HW127575   3.281   5.431   2.834
 8892SOL    HW227576   3.442   5.409   2.848
 8893SOL     OW27577   0.783   5.706   3.930
 8893SOL    HW127578   0.728   5.715   4.014
 8893SOL    HW227579   0.880   5.714   3.953
 8894SOL     OW27580   3.563   2.705   6.665
 8894SOL    HW127581   3.466   2.723   6.681
 8894SOL    HW227582   3.572   2.630   6.600
 8895SOL     OW27583   6.501   2.963   2.115
 8895SOL    HW127584   6.534   2.869   2.119
 8895SOL    HW227585   6.555   3.020   2.177
 8896SOL     OW27586   2.687   3.316   5.541
 8896SOL    HW127587   2.607   3.375   5.537
 8896SOL    HW227588   2.716   3.294   5.448
 8897SOL     OW27589   2.148   3.126   3.169
 8897SOL    HW127590   2.171   3.035   3.202
 8897SOL    HW227591   2.179   3.135   3.074
 8898SOL     OW27592   5.210   3.347   2.346
 8898SOL    HW127593   5.110   3.344   2.341
 8898SOL    HW227594   5.239   3.321   2.437
 8899SOL     OW27595   1.678   5.163   1.746
 8899SOL    HW127596   1.774   5.178   1.769
 8899SOL    HW227597   1.621   5.232   1.791
 8900SOL     OW27598   5.569   2.918   2.825
 8900SOL    HW127599   5.608   2.932   2.734
 8900SOL    HW227600   5.525   2.828   2.829
 8901SOL     OW27601   1.767   0.992   5.020
 8901SOL    HW127602   1.693   0.990   5.086
 8901SOL    HW227603   1.730   0.988   4.927
 8902SOL     OW27604   1.791   6.457   0.537
 8902SOL    HW127605   1.853   6.533   0.556
 8902SOL    HW227606   1.789   6.439   0.439
 8903SOL     OW27607   0.486   1.857   4.558
 8903SOL    HW127608   0.548   1.881   4.483
 8903SOL    HW227609   0.433   1.776   4.533
 8904SOL     OW27610   6.596   0.350   4.201
 8904SOL    HW127611   6.645   0.276   4.246
 8904SOL    HW227612   6.658   0.398   4.139
 8905SOL     OW27613   1.934   4.251   3.628
 8905SOL    HW127614   1.993   4.175   3.655
 8905SOL    HW227615   1.841   4.235   3.660
 8906SOL     OW27616   0.404   6.268   6.709
 8906SOL    HW127617   0.405   6.207   6.630
 8906SOL    HW227618   0.400   6.363   6.678
 8907SOL     OW27619   2.911   2.529   5.525
 8907SOL    HW127620   2.992   2.582   5.501
 8907SOL    HW227621   2.842   2.590   5.565
 8908SOL     OW27622   1.796   5.109   0.242
 8908SOL    HW127623   1.868   5.148   0.299
 8908SOL    HW227624   1.708   5.153   0.263
 8909SOL     OW27625   2.445   1.015   5.768
 8909SOL    HW127626   2.380   1.071   5.716
 8909SOL    HW227627   2.429   1.027   5.866
 8910SOL     OW27628   0.414   2.684   5.618
 8910SOL    HW127629   0.341   2.628   5.658
 8910SOL    HW227630   0.379   2.731   5.537
 8911SOL     OW27631   4.041   2.126   5.035
 8911SOL    HW127632   4.084   2.133   4.945
 8911SOL    HW227633   4.070   2.203   5.092
 8912SOL     OW27634   3.379   3.679   6.262
 8912SOL    HW127635   3.293   3.726   6.245
 8912SOL    HW227636   3.408   3.697   6.356
 8913SOL     OW27637   4.888   5.342   5.410
 8913SOL    HW127638   4.985   5.346   5.435
 8913SOL    HW227639   4.856   5.247   5.417
 8914SOL     OW27640   4.481   0.285   4.664
 8914SOL    HW127641   4.550   0.227   4.708
 8914SOL    HW227642   4.516   0.316   4.575
 8915SOL     OW27643   0.993   2.937   4.059
 8915SOL    HW127644   1.021   2.844   4.036
 8915SOL    HW227645   1.049   2.971   4.135
 8916SOL     OW27646   6.825   2.774   0.624
 8916SOL    HW127647   6.907   2.725   0.653
 8916SOL    HW227648   6.832   2.870   0.651
 8917SOL     OW27649   6.612   3.851   6.924
 8917SOL    HW127650   6.640   3.849   6.828
 8917SOL    HW227651   6.686   3.887   6.980
 8918SOL     OW27652   6.569   3.705   0.779
 8918SOL    HW127653   6.543   3.781   0.838
 8918SOL    HW227654   6.495   3.684   0.717
 8919SOL     OW27655   4.181   4.285   0.717
 8919SOL    HW127656   4.150   4.228   0.793
 8919SOL    HW227657   4.275   4.261   0.693
 8920SOL     OW27658   0.350   1.178   6.864
 8920SOL    HW127659   0.255   1.183   6.894
 8920SOL    HW227660   0.401   1.118   6.926
 8921SOL     OW27661   2.073   2.205   2.371
 8921SOL    HW127662   2.088   2.299   2.401
 8921SOL    HW227663   1.990   2.201   2.315
 8922SOL     OW27664   4.309   5.026   1.283
 8922SOL    HW127665   4.349   5.021   1.192
 8922SOL    HW227666   4.343   4.949   1.338
 8923SOL     OW27667   1.951   2.583   6.646
 8923SOL    HW127668   1.900   2.667   6.630
 8923SOL    HW227669   1.909   2.508   6.595
 8924SOL     OW27670   3.896   5.419   5.347
 8924SOL    HW127671   3.910   5.518   5.356
 8924SOL    HW227672   3.802   5.396   5.374
 8925SOL     OW27673   1.268   1.893   3.070
 8925SOL    HW127674   1.307   1.856   3.154
 8925SOL    HW227675   1.168   1.887   3.074
 8926SOL     OW27676   6.382   2.904   5.916
 8926SOL    HW127677   6.447   2.879   5.844
 8926SOL    HW227678   6.399   2.997   5.946
 8927SOL     OW27679   0.056   0.917   4.721
 8927SOL    HW127680   0.149   0.950   4.710
 8927SOL    HW227681   0.051   0.854   4.798
 8928SOL     OW27682   0.816   6.754   6.423
 8928SOL    HW127683   0.849   6.674   6.373
 8928SOL    HW227684   0.716   6.758   6.417
 8929SOL     OW27685   5.497   1.718   4.402
 8929SOL    HW127686   5.479   1.692   4.497
 8929SOL    HW227687   5.517   1.636   4.348
 8930SOL     OW27688   1.974   3.367   4.416
 8930SOL    HW127689   2.026   3.348   4.333
 8930SOL    HW227690   1.883   3.401   4.391
 8931SOL     OW27691   2.300   3.228   0.747
 8931SOL    HW127692   2.368   3.253   0.816
 8931SOL    HW227693   2.264   3.311   0.704
 8932SOL     OW27694   6.367   1.177   1.392
 8932SOL    HW127695   6.390   1.180   1.490
 8932SOL    HW227696   6.276   1.217   1.378
 8933SOL     OW27697   2.361   2.580   6.245
 8933SOL    HW127698   2.296   2.609   6.315
 8933SOL    HW227699   2.449   2.624   6.261
 8934SOL     OW27700   3.308   5.216   4.471
 8934SOL    HW127701   3.368   5.237   4.394
 8934SOL    HW227702   3.233   5.283   4.474
 8935SOL     OW27703   0.166   4.412   0.235
 8935SOL    HW127704   0.257   4.386   0.205
 8935SOL    HW227705   0.168   4.504   0.274
 8936SOL     OW27706   1.424   3.160   2.778
 8936SOL    HW127707   1.522   3.151   2.761
 8936SOL    HW227708   1.373   3.120   2.703
 8937SOL     OW27709   0.224   0.251   5.621
 8937SOL    HW127710   0.288   0.264   5.697
 8937SOL    HW227711   0.258   0.179   5.561
 8938SOL     OW27712   0.233   6.615   0.877
 8938SOL    HW127713   0.287   6.692   0.842
 8938SOL    HW227714   0.235   6.616   0.977
 8939SOL     OW27715   6.168   4.253   4.090
 8939SOL    HW127716   6.147   4.156   4.078
 8939SOL    HW227717   6.263   4.271   4.065
 8940SOL     OW27718   6.733   0.767   1.842
 8940SOL    HW127719   6.715   0.679   1.797
 8940SOL    HW227720   6.734   0.754   1.941
 8941SOL     OW27721   5.521   2.699   4.823
 8941SOL    HW127722   5.499   2.796   4.836
 8941SOL    HW227723   5.536   2.681   4.726
 8942SOL     OW27724   6.027   5.834   5.629
 8942SOL    HW127725   6.005   5.932   5.621
 8942SOL    HW227726   6.016   5.790   5.540
 8943SOL     OW27727   3.768   5.568   0.294
 8943SOL    HW127728   3.720   5.516   0.224
 8943SOL    HW227729   3.803   5.505   0.364
 8944SOL     OW27730   5.404   5.904   5.492
 8944SOL    HW127731   5.478   5.867   5.548
 8944SOL    HW227732   5.394   6.002   5.510
 8945SOL     OW27733   1.336   0.895   3.264
 8945SOL    HW127734   1.363   0.975   3.318
 8945SOL    HW227735   1.239   0.902   3.240
 8946SOL     OW27736   2.587   1.650   5.028
 8946SOL    HW127737   2.664   1.590   5.010
 8946SOL    HW227738   2.594   1.732   4.971
 8947SOL     OW27739   2.578   2.885   5.922
 8947SOL    HW127740   2.661   2.934   5.948
 8947SOL    HW227741   2.586   2.789   5.949
 8948SOL     OW27742   6.129   6.124   4.604
 8948SOL    HW127743   6.041   6.103   4.561
 8948SOL    HW227744   6.189   6.169   4.537
 8949SOL     OW27745   3.276   5.976   0.380
 8949SOL    HW127746   3.364   6.019   0.359
 8949SOL    HW227747   3.222   5.969   0.296
 8950SOL     OW27748   4.740   4.274   6.699
 8950SOL    HW127749   4.705   4.194   6.651
 8950SOL    HW227750   4.689   4.355   6.670
 8951SOL     OW27751   1.568   1.188   4.858
 8951SOL    HW127752   1.559   1.117   4.789
 8951SOL    HW227753   1.487   1.188   4.917
 8952SOL     OW27754   0.980   6.130   2.094
 8952SOL    HW127755   0.958   6.039   2.128
 8952SOL    HW227756   1.073   6.155   2.122
 8953SOL     OW27757   1.526   3.613   6.963
 8953SOL    HW127758   1.478   3.624   6.876
 8953SOL    HW227759   1.489   3.679   0.007
 8954SOL     OW27760   0.346   6.827   4.643
 8954SOL    HW127761   0.367   6.877   4.559
 8954SOL    HW227762   0.395   6.740   4.643
 8955SOL     OW27763   0.157   5.547   2.505
 8955SOL    HW127764   0.202   5.517   2.421
 8955SOL    HW227765   0.166   5.476   2.575
 8956SOL     OW27766   2.284   0.979   6.825
 8956SOL    HW127767   2.235   0.902   6.784
 8956SOL    HW227768   2.227   1.061   6.820
 8957SOL     OW27769   1.658   4.484   1.095
 8957SOL    HW127770   1.731   4.433   1.140
 8957SOL    HW227771   1.571   4.435   1.106
 8958SOL     OW27772   0.163   1.608   4.899
 8958SOL    HW127773   0.125   1.520   4.871
 8958SOL    HW227774   0.259   1.596   4.926
 8959SOL     OW27775   1.707   4.238   2.091
 8959SOL    HW127776   1.714   4.301   2.168
 8959SOL    HW227777   1.700   4.145   2.125
 8960SOL     OW27778   4.084   5.132   3.149
 8960SOL    HW127779   3.999   5.166   3.191
 8960SOL    HW227780   4.081   5.032   3.146
 8961SOL     OW27781   2.798   0.621   3.678
 8961SOL    HW127782   2.730   0.559   3.641
 8961SOL    HW227783   2.890   0.590   3.652
 8962SOL     OW27784   6.611   5.637   2.950
 8962SOL    HW127785   6.633   5.542   2.971
 8962SOL    HW227786   6.611   5.651   2.851
 8963SOL     OW27787   4.178   6.795   4.755
 8963SOL    HW127788   4.093   6.812   4.705
 8963SOL    HW227789   4.248   6.764   4.690
 8964SOL     OW27790   5.207   3.764   2.997
 8964SOL    HW127791   5.164   3.847   3.033
 8964SOL    HW227792   5.136   3.704   2.960
 8965SOL     OW27793   2.701   5.047   0.912
 8965SOL    HW127794   2.698   4.953   0.946
 8965SOL    HW227795   2.668   5.049   0.818
 8966SOL     OW27796   6.801   4.381   0.559
 8966SOL    HW127797   6.754   4.349   0.477
 8966SOL    HW227798   6.891   4.338   0.565
 8967SOL     OW27799   4.246   6.870   0.981
 8967SOL    HW127800   4.231   6.901   0.888
 8967SOL    HW227801   4.337   6.830   0.989
 8968SOL     OW27802   4.403   5.672   3.307
 8968SOL    HW127803   4.318   5.622   3.287
 8968SOL    HW227804   4.407   5.755   3.252
 8969SOL     OW27805   6.208   0.779   4.204
 8969SOL    HW127806   6.292   0.789   4.152
 8969SOL    HW227807   6.229   0.781   4.302
 8970SOL     OW27808   2.708   3.292   6.838
 8970SOL    HW127809   2.768   3.270   6.914
 8970SOL    HW227810   2.660   3.210   6.808
 8971SOL     OW27811   5.929   4.699   1.511
 8971SOL    HW127812   5.979   4.639   1.450
 8971SOL    HW227813   5.892   4.777   1.460
 8972SOL     OW27814   5.045   3.307   6.918
 8972SOL    HW127815   5.101   3.225   6.928
 8972SOL    HW227816   4.949   3.284   6.928
 8973SOL     OW27817   0.823   3.485   3.132
 8973SOL    HW127818   0.900   3.515   3.076
 8973SOL    HW227819   0.799   3.391   3.107
 8974SOL     OW27820   1.115   4.739   4.650
 8974SOL    HW127821   1.145   4.653   4.690
 8974SOL    HW227822   1.030   4.769   4.694
 8975SOL     OW27823   1.605   6.526   6.141
 8975SOL    HW127824   1.704   6.542   6.137
 8975SOL    HW227825   1.558   6.614   6.148
 8976SOL     OW27826   6.960   5.648   5.788
 8976SOL    HW127827   6.884   5.677   5.846
 8976SOL    HW227828   7.021   5.726   5.771
 8977SOL     OW27829   0.076   2.870   6.931
 8977SOL    HW127830   0.116   2.930   7.000
 8977SOL    HW227831   0.144   2.849   6.861
 8978SOL     OW27832   5.013   6.436   3.594
 8978SOL    HW127833   5.112   6.437   3.597
 8978SOL    HW227834   4.977   6.507   3.655
 8979SOL     OW27835   0.861   4.095   4.828
 8979SOL    HW127836   0.769   4.090   4.865
 8979SOL    HW227837   0.921   4.141   4.894
 8980SOL     OW27838   3.923   3.011   5.409
 8980SOL    HW127839   3.888   2.959   5.487
 8980SOL    HW227840   3.886   2.973   5.324
 8981SOL     OW27841   4.275   1.143   6.120
 8981SOL    HW127842   4.198   1.112   6.176
 8981SOL    HW227843   4.281   1.085   6.038
 8982SOL     OW27844   1.427   2.112   1.990
 8982SOL    HW127845   1.328   2.108   1.976
 8982SOL    HW227846   1.458   2.026   2.031
 8983SOL     OW27847   1.065   5.650   6.477
 8983SOL    HW127848   1.092   5.656   6.381
 8983SOL    HW227849   1.110   5.572   6.519
 8984SOL     OW27850   6.529   0.071   3.935
 8984SOL    HW127851   6.568   0.159   3.961
 8984SOL    HW227852   6.603   0.006   3.919
 8985SOL     OW27853   2.269   2.032   0.767
 8985SOL    HW127854   2.272   2.057   0.864
 8985SOL    HW227855   2.362   2.018   0.733
 8986SOL     OW27856   4.183   5.158   1.773
 8986SOL    HW127857   4.169   5.245   1.724
 8986SOL    HW227858   4.113   5.147   1.843
 8987SOL     OW27859   5.291   0.116   0.631
 8987SOL    HW127860   5.364   0.049   0.617
 8987SOL    HW227861   5.275   0.166   0.547
 8988SOL     OW27862   1.484   4.242   6.615
 8988SOL    HW127863   1.438   4.174   6.558
 8988SOL    HW227864   1.582   4.243   6.593
 8989SOL     OW27865   5.486   3.624   2.358
 8989SOL    HW127866   5.428   3.647   2.436
 8989SOL    HW227867   5.579   3.605   2.391
 8990SOL     OW27868   1.965   5.682   2.324
 8990SOL    HW127869   1.977   5.584   2.340
 8990SOL    HW227870   1.957   5.729   2.412
 8991SOL     OW27871   1.881   2.162   0.024
 8991SOL    HW127872   1.870   2.069   0.058
 8991SOL    HW227873   1.930   2.217   0.092
 8992SOL     OW27874   6.657   2.316   0.026
 8992SOL    HW127875   6.594   2.241   0.043
 8992SOL    HW227876   6.616   2.380   6.983
 8993SOL     OW27877   4.877   2.413   2.097
 8993SOL    HW127878   4.799   2.364   2.058
 8993SOL    HW227879   4.887   2.500   2.049
 8994SOL     OW27880   1.519   4.997   4.813
 8994SOL    HW127881   1.478   4.937   4.744
 8994SOL    HW227882   1.488   4.969   4.904
 8995SOL     OW27883   0.898   2.352   6.739
 8995SOL    HW127884   0.810   2.355   6.788
 8995SOL    HW227885   0.922   2.444   6.709
 8996SOL     OW27886   6.608   4.987   1.573
 8996SOL    HW127887   6.579   5.082   1.588
 8996SOL    HW227888   6.630   4.945   1.661
 8997SOL     OW27889   4.715   1.115   6.613
 8997SOL    HW127890   4.616   1.114   6.596
 8997SOL    HW227891   4.764   1.120   6.526
 8998SOL     OW27892   6.862   3.359   4.628
 8998SOL    HW127893   6.766   3.341   4.606
 8998SOL    HW227894   6.920   3.304   4.568
 8999SOL     OW27895   5.204   6.404   7.004
 8999SOL    HW127896   5.279   6.468   0.000
 8999SOL    HW227897   5.236   6.310   7.019
 9000SOL     OW27898   2.359   3.895   0.227
 9000SOL    HW127899   2.454   3.863   0.229
 9000SOL    HW227900   2.314   3.872   0.313
 9001SOL     OW27901   1.270   5.529   2.371
 9001SOL    HW127902   1.342   5.460   2.373
 9001SOL    HW227903   1.280   5.591   2.449
 9002SOL     OW27904   6.636   4.984   5.054
 9002SOL    HW127905   6.697   5.005   5.130
 9002SOL    HW227906   6.640   5.058   4.987
 9003SOL     OW27907   5.088   2.999   1.539
 9003SOL    HW127908   5.110   2.925   1.603
 9003SOL    HW227909   5.162   3.066   1.541
 9004SOL     OW27910   4.566   6.279   0.788
 9004SOL    HW127911   4.610   6.312   0.705
 9004SOL    HW227912   4.536   6.356   0.843
 9005SOL     OW27913   5.060   2.609   4.423
 9005SOL    HW127914   5.015   2.598   4.511
 9005SOL    HW227915   5.073   2.519   4.381
 9006SOL     OW27916   2.992   6.543   0.955
 9006SOL    HW127917   2.971   6.637   0.982
 9006SOL    HW227918   2.932   6.515   0.880
 9007SOL     OW27919   4.556   0.824   3.979
 9007SOL    HW127920   4.533   0.826   3.882
 9007SOL    HW227921   4.511   0.901   4.025
 9008SOL     OW27922   0.638   5.777   3.228
 9008SOL    HW127923   0.594   5.707   3.284
 9008SOL    HW227924   0.583   5.861   3.231
 9009SOL     OW27925   2.637   1.374   0.486
 9009SOL    HW127926   2.554   1.426   0.466
 9009SOL    HW227927   2.612   1.280   0.510
 9010SOL     OW27928   1.330   6.627   3.989
 9010SOL    HW127929   1.283   6.546   4.025
 9010SOL    HW227930   1.267   6.680   3.933
 9011SOL     OW27931   4.477   2.405   1.470
 9011SOL    HW127932   4.486   2.481   1.406
 9011SOL    HW227933   4.380   2.393   1.494
 9012SOL     OW27934   2.867   4.086   1.055
 9012SOL    HW127935   2.913   4.175   1.063
 9012SOL    HW227936   2.880   4.050   0.962
 9013SOL     OW27937   0.023   6.718   4.975
 9013SOL    HW127938   0.061   6.758   4.892
 9013SOL    HW227939   7.000   6.632   4.953
 9014SOL     OW27940   7.008   1.552   0.438
 9014SOL    HW127941   6.929   1.563   0.377
 9014SOL    HW227942   0.044   1.633   0.431
 9015SOL     OW27943   5.662   1.710   1.514
 9015SOL    HW127944   5.736   1.747   1.458
 9015SOL    HW227945   5.671   1.745   1.608
 9016SOL     OW27946   0.787   6.799   6.862
 9016SOL    HW127947   0.797   6.715   6.916
 9016SOL    HW227948   0.842   6.872   6.904
 9017SOL     OW27949   4.686   2.278   1.953
 9017SOL    HW127950   4.666   2.227   2.037
 9017SOL    HW227951   4.634   2.363   1.952
 9018SOL     OW27952   3.930   2.046   6.876
 9018SOL    HW127953   3.842   2.007   6.849
 9018SOL    HW227954   3.919   2.143   6.895
 9019SOL     OW27955   1.053   0.401   1.863
 9019SOL    HW127956   0.978   0.414   1.799
 9019SOL    HW227957   1.024   0.428   1.955
 9020SOL     OW27958   1.011   3.456   1.505
 9020SOL    HW127959   1.065   3.417   1.431
 9020SOL    HW227960   0.924   3.490   1.469
 9021SOL     OW27961   6.436   0.821   4.031
 9021SOL    HW127962   6.373   0.783   3.963
 9021SOL    HW227963   6.527   0.780   4.019
 9022SOL     OW27964   2.697   1.741   0.037
 9022SOL    HW127965   2.736   1.673   6.998
 9022SOL    HW227966   2.753   1.749   0.119
 9023SOL     OW27967   3.694   3.959   2.065
 9023SOL    HW127968   3.630   3.882   2.067
 9023SOL    HW227969   3.736   3.970   2.155
 9024SOL     OW27970   0.275   4.975   4.960
 9024SOL    HW127971   0.190   5.002   4.914
 9024SOL    HW227972   0.319   4.902   4.908
 9025SOL     OW27973   0.605   5.304   6.981
 9025SOL    HW127974   0.690   5.338   6.941
 9025SOL    HW227975   0.529   5.325   6.920
 9026SOL     OW27976   3.870   3.359   1.069
 9026SOL    HW127977   3.901   3.274   1.111
 9026SOL    HW227978   3.850   3.343   0.972
 9027SOL     OW27979   0.964   2.112   4.023
 9027SOL    HW127980   1.020   2.032   4.043
 9027SOL    HW227981   1.015   2.195   4.048
 9028SOL     OW27982   2.105   3.823   5.994
 9028SOL    HW127983   2.193   3.804   6.038
 9028SOL    HW227984   2.057   3.737   5.977
 9029SOL     OW27985   3.119   6.021   4.673
 9029SOL    HW127986   3.198   6.082   4.670
 9029SOL    HW227987   3.122   5.965   4.755
 9030SOL     OW27988   2.487   2.208   3.644
 9030SOL    HW127989   2.529   2.272   3.580
 9030SOL    HW227990   2.434   2.259   3.712
 9031SOL     OW27991   4.694   5.576   4.448
 9031SOL    HW127992   4.601   5.556   4.420
 9031SOL    HW227993   4.748   5.607   4.369
 9032SOL     OW27994   3.579   2.988   0.152
 9032SOL    HW127995   3.658   3.047   0.170
 9032SOL    HW227996   3.496   3.044   0.151
 9033SOL     OW27997   1.346   5.245   4.031
 9033SOL    HW127998   1.247   5.257   4.031
 9033SOL    HW227999   1.390   5.331   4.004
 9034SOL     OW28000   3.013   0.260   5.675
 9034SOL    HW128001   3.031   0.307   5.761
 9034SOL    HW228002   2.952   0.317   5.619
 9035SOL     OW28003   1.416   4.400   6.063
 9035SOL    HW128004   1.484   4.336   6.027
 9035SOL    HW228005   1.338   4.404   6.001
 9036SOL     OW28006   2.184   0.904   5.480
 9036SOL    HW128007   2.256   0.858   5.429
 9036SOL    HW228008   2.097   0.858   5.465
 9037SOL     OW28009   1.441   3.898   5.585
 9037SOL    HW128010   1.379   3.949   5.646
 9037SOL    HW228011   1.510   3.851   5.639
 9038SOL     OW28012   4.678   6.189   5.925
 9038SOL    HW128013   4.706   6.137   5.844
 9038SOL    HW228014   4.578   6.192   5.929
 9039SOL     OW28015   2.942   4.931   4.927
 9039SOL    HW128016   2.874   4.943   4.854
 9039SOL    HW228017   2.915   4.985   5.006
 9040SOL     OW28018   3.330   2.136   3.159
 9040SOL    HW128019   3.295   2.161   3.069
 9040SOL    HW228020   3.258   2.148   3.228
 9041SOL     OW28021   1.269   2.357   1.939
 9041SOL    HW128022   1.368   2.341   1.942
 9041SOL    HW228023   1.223   2.288   1.996
 9042SOL     OW28024   2.826   6.950   4.007
 9042SOL    HW128025   2.883   0.000   3.969
 9042SOL    HW228026   2.752   6.930   3.943
 9043SOL     OW28027   1.754   1.302   0.096
 9043SOL    HW128028   1.690   1.226   0.108
 9043SOL    HW228029   1.713   1.387   0.129
 9044SOL     OW28030   5.448   0.785   1.581
 9044SOL    HW128031   5.484   0.823   1.666
 9044SOL    HW228032   5.507   0.812   1.505
 9045SOL     OW28033   2.879   1.086   2.319
 9045SOL    HW128034   2.905   1.107   2.225
 9045SOL    HW228035   2.847   1.169   2.365
 9046SOL     OW28036   3.604   4.152   3.866
 9046SOL    HW128037   3.626   4.101   3.783
 9046SOL    HW228038   3.516   4.198   3.854
 9047SOL     OW28039   0.924   3.557   5.822
 9047SOL    HW128040   0.945   3.502   5.904
 9047SOL    HW228041   1.007   3.565   5.766
 9048SOL     OW28042   5.863   2.073   6.254
 9048SOL    HW128043   5.855   2.127   6.338
 9048SOL    HW228044   5.795   1.999   6.256
 9049SOL     OW28045   3.633   7.002   6.462
 9049SOL    HW128046   3.651   6.974   6.367
 9049SOL    HW228047   3.553   0.039   6.464
 9050SOL     OW28048   0.358   3.500   6.887
 9050SOL    HW128049   0.435   3.447   6.923
 9050SOL    HW228050   0.276   3.480   6.941
 9051SOL     OW28051   4.675   6.460   0.564
 9051SOL    HW128052   4.743   6.510   0.618
 9051SOL    HW228053   4.720   6.405   0.495
 9052SOL     OW28054   1.740   2.401   4.155
 9052SOL    HW128055   1.813   2.381   4.220
 9052SOL    HW228056   1.654   2.363   4.188
 9053SOL     OW28057   1.936   1.784   3.046
 9053SOL    HW128058   1.971   1.809   3.136
 9053SOL    HW228059   1.857   1.723   3.057
 9054SOL     OW28060   1.420   6.456   2.203
 9054SOL    HW128061   1.416   6.553   2.226
 9054SOL    HW228062   1.485   6.442   2.128
 9055SOL     OW28063   6.039   3.032   3.910
 9055SOL    HW128064   6.059   3.087   3.991
 9055SOL    HW228065   5.941   3.012   3.908
 9056SOL     OW28066   0.925   0.962   1.858
 9056SOL    HW128067   0.934   1.017   1.941
 9056SOL    HW228068   0.845   0.902   1.866
 9057SOL     OW28069   5.807   5.250   5.915
 9057SOL    HW128070   5.782   5.347   5.919
 9057SOL    HW228071   5.901   5.241   5.881
 9058SOL     OW28072   2.366   1.947   2.877
 9058SOL    HW128073   2.382   1.928   2.780
 9058SOL    HW228074   2.268   1.942   2.897
 9059SOL     OW28075   1.155   2.039   4.803
 9059SOL    HW128076   1.227   2.027   4.735
 9059SOL    HW228077   1.161   1.967   4.872
 9060SOL     OW28078   5.995   3.077   2.710
 9060SOL    HW128079   6.053   2.997   2.722
 9060SOL    HW228080   5.946   3.070   2.623
 9061SOL     OW28081   2.797   5.425   1.831
 9061SOL    HW128082   2.831   5.347   1.779
 9061SOL    HW228083   2.697   5.419   1.839
 9062SOL     OW28084   1.845   6.193   1.914
 9062SOL    HW128085   1.830   6.269   1.976
 9062SOL    HW228086   1.933   6.151   1.933
 9063SOL     OW28087   2.678   0.406   2.905
 9063SOL    HW128088   2.600   0.358   2.945
 9063SOL    HW228089   2.719   0.466   2.973
 9064SOL     OW28090   6.073   2.606   5.444
 9064SOL    HW128091   6.166   2.634   5.421
 9064SOL    HW228092   6.013   2.619   5.365
 9065SOL     OW28093   3.135   6.386   5.984
 9065SOL    HW128094   3.046   6.390   6.030
 9065SOL    HW228095   3.167   6.291   5.982
 9066SOL     OW28096   5.315   6.376   0.512
 9066SOL    HW128097   5.276   6.418   0.430
 9066SOL    HW228098   5.370   6.444   0.561
 9067SOL     OW28099   6.362   0.499   4.231
 9067SOL    HW128100   6.429   0.425   4.232
 9067SOL    HW228101   6.404   0.583   4.266
 9068SOL     OW28102   2.379   6.841   4.801
 9068SOL    HW128103   2.372   6.939   4.819
 9068SOL    HW228104   2.476   6.815   4.793
 9069SOL     OW28105   2.159   2.353   1.903
 9069SOL    HW128106   2.116   2.399   1.981
 9069SOL    HW228107   2.141   2.406   1.820
 9070SOL     OW28108   1.398   4.173   5.174
 9070SOL    HW128109   1.406   4.268   5.204
 9070SOL    HW228110   1.350   4.170   5.086
 9071SOL     OW28111   5.329   0.033   1.055
 9071SOL    HW128112   5.368   0.071   1.138
 9071SOL    HW228113   5.245   0.082   1.031
 9072SOL     OW28114   6.939   1.436   2.187
 9072SOL    HW128115   6.978   1.435   2.279
 9072SOL    HW228116   6.888   1.520   2.173
 9073SOL     OW28117   3.661   6.707   1.861
 9073SOL    HW128118   3.641   6.738   1.953
 9073SOL    HW228119   3.661   6.785   1.798
 9074SOL     OW28120   2.339   1.359   2.027
 9074SOL    HW128121   2.283   1.420   2.082
 9074SOL    HW228122   2.325   1.264   2.056
 9075SOL     OW28123   1.379   1.006   2.979
 9075SOL    HW128124   1.331   0.940   3.036
 9075SOL    HW228125   1.314   1.048   2.915
 9076SOL     OW28126   5.994   2.252   4.748
 9076SOL    HW128127   5.957   2.163   4.775
 9076SOL    HW228128   5.950   2.324   4.802
 9077SOL     OW28129   5.859   0.271   0.088
 9077SOL    HW128130   5.880   0.287   0.185
 9077SOL    HW228131   5.761   0.255   0.077
 9078SOL     OW28132   4.308   3.732   6.310
 9078SOL    HW128133   4.367   3.659   6.275
 9078SOL    HW228134   4.213   3.704   6.305
 9079SOL     OW28135   3.344   0.095   3.882
 9079SOL    HW128136   3.289   0.082   3.964
 9079SOL    HW228137   3.318   0.029   3.812
 9080SOL     OW28138   4.922   2.769   6.990
 9080SOL    HW128139   4.852   2.703   6.963
 9080SOL    HW228140   5.008   2.721   7.008
 9081SOL     OW28141   3.677   6.226   2.975
 9081SOL    HW128142   3.648   6.213   2.881
 9081SOL    HW228143   3.705   6.138   3.014
 9082SOL     OW28144   2.578   0.534   5.747
 9082SOL    HW128145   2.562   0.624   5.708
 9082SOL    HW228146   2.575   0.465   5.674
 9083SOL     OW28147   3.166   5.869   5.812
 9083SOL    HW128148   3.213   5.807   5.875
 9083SOL    HW228149   3.187   5.964   5.836
 9084SOL     OW28150   3.038   3.676   4.813
 9084SOL    HW128151   3.078   3.724   4.891
 9084SOL    HW228152   2.996   3.591   4.843
 9085SOL     OW28153   2.530   4.865   1.470
 9085SOL    HW128154   2.605   4.851   1.534
 9085SOL    HW228155   2.453   4.907   1.517
 9086SOL     OW28156   1.074   4.863   0.190
 9086SOL    HW128157   1.100   4.767   0.178
 9086SOL    HW228158   1.055   4.903   0.100
 9087SOL     OW28159   4.822   2.843   1.732
 9087SOL    HW128160   4.778   2.886   1.811
 9087SOL    HW228161   4.909   2.888   1.713
 9088SOL     OW28162   5.993   6.512   0.859
 9088SOL    HW128163   5.980   6.551   0.950
 9088SOL    HW228164   5.907   6.518   0.808
 9089SOL     OW28165   5.220   5.836   5.739
 9089SOL    HW128166   5.285   5.865   5.669
 9089SOL    HW228167   5.205   5.911   5.803
 9090SOL     OW28168   0.008   0.743   3.628
 9090SOL    HW128169   0.005   0.843   3.616
 9090SOL    HW228170   6.937   0.707   3.628
 9091SOL     OW28171   3.341   4.421   0.202
 9091SOL    HW128172   3.382   4.387   0.287
 9091SOL    HW228173   3.260   4.366   0.180
 9092SOL     OW28174   0.441   1.126   0.586
 9092SOL    HW128175   0.465   1.046   0.643
 9092SOL    HW228176   0.345   1.149   0.601
 9093SOL     OW28177   1.003   6.578   5.781
 9093SOL    HW128178   1.045   6.495   5.819
 9093SOL    HW228179   0.918   6.597   5.829
 9094SOL     OW28180   6.510   4.974   2.871
 9094SOL    HW128181   6.447   5.033   2.921
 9094SOL    HW228182   6.459   4.917   2.807
 9095SOL     OW28183   5.412   4.564   6.133
 9095SOL    HW128184   5.370   4.509   6.061
 9095SOL    HW228185   5.444   4.651   6.095
 9096SOL     OW28186   5.836   4.288   2.502
 9096SOL    HW128187   5.818   4.219   2.573
 9096SOL    HW228188   5.801   4.377   2.532
 9097SOL     OW28189   0.973   1.637   1.015
 9097SOL    HW128190   0.939   1.569   1.080
 9097SOL    HW228191   1.042   1.596   0.956
 9098SOL     OW28192   3.603   1.866   5.302
 9098SOL    HW128193   3.550   1.921   5.367
 9098SOL    HW228194   3.628   1.922   5.223
 9099SOL     OW28195   3.376   2.452   5.588
 9099SOL    HW128196   3.369   2.552   5.586
 9099SOL    HW228197   3.359   2.416   5.497
 9100SOL     OW28198   0.550   3.185   3.298
 9100SOL    HW128199   0.544   3.284   3.284
 9100SOL    HW228200   0.556   3.165   3.395
 9101SOL     OW28201   2.301   2.551   2.872
 9101SOL    HW128202   2.359   2.597   2.940
 9101SOL    HW228203   2.311   2.597   2.784
 9102SOL     OW28204   2.719   6.462   1.633
 9102SOL    HW128205   2.703   6.557   1.608
 9102SOL    HW228206   2.633   6.421   1.664
 9103SOL     OW28207   6.951   3.066   6.513
 9103SOL    HW128208   6.897   3.126   6.455
 9103SOL    HW228209   6.917   3.071   6.607
 9104SOL     OW28210   0.360   5.883   2.404
 9104SOL    HW128211   0.389   5.791   2.430
 9104SOL    HW228212   0.371   5.945   2.481
 9105SOL     OW28213   0.943   1.411   6.330
 9105SOL    HW128214   0.998   1.439   6.252
 9105SOL    HW228215   1.001   1.366   6.397
 9106SOL     OW28216   0.087   3.681   1.043
 9106SOL    HW128217   0.036   3.606   1.084
 9106SOL    HW228218   0.183   3.655   1.033
 9107SOL     OW28219   2.935   0.879   6.704
 9107SOL    HW128220   2.897   0.944   6.639
 9107SOL    HW228221   2.977   0.928   6.781
 9108SOL     OW28222   5.319   4.612   5.298
 9108SOL    HW128223   5.269   4.525   5.294
 9108SOL    HW228224   5.376   4.614   5.380
 9109SOL     OW28225   6.465   3.225   3.714
 9109SOL    HW128226   6.452   3.324   3.723
 9109SOL    HW228227   6.418   3.179   3.789
 9110SOL     OW28228   1.879   4.902   4.235
 9110SOL    HW128229   1.850   4.894   4.139
 9110SOL    HW228230   1.933   4.821   4.260
 9111SOL     OW28231   5.636   2.296   0.646
 9111SOL    HW128232   5.547   2.259   0.672
 9111SOL    HW228233   5.687   2.227   0.595
 9112SOL     OW28234   1.085   5.241   2.884
 9112SOL    HW128235   0.987   5.261   2.879
 9112SOL    HW228236   1.132   5.279   2.804
 9113SOL     OW28237   4.782   3.003   2.601
 9113SOL    HW128238   4.744   2.926   2.550
 9113SOL    HW228239   4.876   3.019   2.571
 9114SOL     OW28240   0.498   5.106   3.481
 9114SOL    HW128241   0.504   5.036   3.410
 9114SOL    HW228242   0.471   5.063   3.567
 9115SOL     OW28243   6.713   5.960   4.785
 9115SOL    HW128244   6.658   5.980   4.704
 9115SOL    HW228245   6.688   6.024   4.858
 9116SOL     OW28246   6.989   6.864   2.680
 9116SOL    HW128247   0.050   6.839   2.730
 9116SOL    HW228248   6.969   6.960   2.695
 9117SOL     OW28249   3.778   2.692   6.368
 9117SOL    HW128250   3.816   2.754   6.437
 9117SOL    HW228251   3.687   2.662   6.397
 9118SOL     OW28252   0.417   2.997   0.282
 9118SOL    HW128253   0.404   2.965   0.375
 9118SOL    HW228254   0.496   2.951   0.241
 9119SOL     OW28255   4.277   0.842   2.527
 9119SOL    HW128256   4.211   0.788   2.579
 9119SOL    HW228257   4.352   0.783   2.497
 9120SOL     OW28258   6.738   1.447   5.504
 9120SOL    HW128259   6.678   1.466   5.581
 9120SOL    HW228260   6.699   1.374   5.448
 9121SOL     OW28261   3.889   6.684   5.092
 9121SOL    HW128262   3.869   6.779   5.070
 9121SOL    HW228263   3.809   6.643   5.137
 9122SOL     OW28264   2.313   4.673   2.177
 9122SOL    HW128265   2.281   4.767   2.174
 9122SOL    HW228266   2.402   4.666   2.132
 9123SOL     OW28267   1.653   0.600   4.763
 9123SOL    HW128268   1.688   0.624   4.672
 9123SOL    HW228269   1.651   0.681   4.821
 9124SOL     OW28270   4.501   5.167   0.176
 9124SOL    HW128271   4.427   5.191   0.113
 9124SOL    HW228272   4.587   5.158   0.126
 9125SOL     OW28273   4.455   4.256   0.687
 9125SOL    HW128274   4.454   4.186   0.759
 9125SOL    HW228275   4.542   4.306   0.691
 9126SOL     OW28276   6.233   3.296   1.419
 9126SOL    HW128277   6.307   3.363   1.424
 9126SOL    HW228278   6.195   3.280   1.510
 9127SOL     OW28279   6.056   1.446   6.073
 9127SOL    HW128280   6.114   1.398   6.007
 9127SOL    HW228281   6.099   1.533   6.098
 9128SOL     OW28282   5.694   2.456   5.110
 9128SOL    HW128283   5.628   2.531   5.114
 9128SOL    HW228284   5.752   2.466   5.029
 9129SOL     OW28285   6.816   1.956   6.769
 9129SOL    HW128286   6.799   2.054   6.779
 9129SOL    HW228287   6.879   1.926   6.841
 9130SOL     OW28288   1.291   4.100   6.506
 9130SOL    HW128289   1.283   4.162   6.428
 9130SOL    HW228290   1.224   4.026   6.497
 9131SOL     OW28291   5.603   3.326   6.233
 9131SOL    HW128292   5.685   3.379   6.213
 9131SOL    HW228293   5.528   3.388   6.256
 9132SOL     OW28294   0.552   5.707   4.103
 9132SOL    HW128295   0.457   5.738   4.098
 9132SOL    HW228296   0.568   5.663   4.191
 9133SOL     OW28297   3.798   6.297   1.144
 9133SOL    HW128298   3.747   6.221   1.184
 9133SOL    HW228299   3.766   6.383   1.184
 9134SOL     OW28300   3.838   5.184   1.311
 9134SOL    HW128301   3.772   5.214   1.380
 9134SOL    HW228302   3.918   5.146   1.356
 9135SOL     OW28303   0.466   0.153   1.531
 9135SOL    HW128304   0.482   0.112   1.441
 9135SOL    HW228305   0.433   0.083   1.594
 9136SOL     OW28306   4.645   5.924   6.351
 9136SOL    HW128307   4.642   5.950   6.447
 9136SOL    HW228308   4.572   5.858   6.331
 9137SOL     OW28309   3.973   0.912   6.700
 9137SOL    HW128310   4.033   0.988   6.726
 9137SOL    HW228311   3.886   0.948   6.667
 9138SOL     OW28312   6.819   4.591   6.355
 9138SOL    HW128313   6.915   4.588   6.328
 9138SOL    HW228314   6.812   4.578   6.454
 9139SOL     OW28315   1.779   1.389   2.973
 9139SOL    HW128316   1.798   1.325   2.899
 9139SOL    HW228317   1.763   1.480   2.935
 9140SOL     OW28318   0.398   3.712   2.495
 9140SOL    HW128319   0.396   3.755   2.405
 9140SOL    HW228320   0.408   3.783   2.565
 9141SOL     OW28321   5.889   6.445   1.618
 9141SOL    HW128322   5.852   6.352   1.627
 9141SOL    HW228323   5.867   6.482   1.528
 9142SOL     OW28324   0.519   4.073   1.653
 9142SOL    HW128325   0.531   4.052   1.556
 9142SOL    HW228326   0.590   4.136   1.682
 9143SOL     OW28327   6.575   2.907   0.223
 9143SOL    HW128328   6.670   2.938   0.231
 9143SOL    HW228329   6.571   2.826   0.165
 9144SOL     OW28330   3.014   5.619   4.976
 9144SOL    HW128331   3.032   5.535   4.926
 9144SOL    HW228332   3.011   5.696   4.912
 9145SOL     OW28333   0.615   5.815   6.433
 9145SOL    HW128334   0.650   5.839   6.524
 9145SOL    HW228335   0.664   5.735   6.399
 9146SOL     OW28336   5.373   3.021   2.995
 9146SOL    HW128337   5.443   2.988   2.933
 9146SOL    HW228338   5.352   2.951   3.063
 9147SOL     OW28339   6.342   0.702   5.444
 9147SOL    HW128340   6.328   0.765   5.520
 9147SOL    HW228341   6.408   0.632   5.470
 9148SOL     OW28342   5.381   6.265   2.341
 9148SOL    HW128343   5.321   6.186   2.328
 9148SOL    HW228344   5.426   6.259   2.430
 9149SOL     OW28345   5.176   3.605   2.199
 9149SOL    HW128346   5.183   3.522   2.255
 9149SOL    HW228347   5.258   3.614   2.143
 9150SOL     OW28348   3.735   4.951   0.924
 9150SOL    HW128349   3.645   4.913   0.947
 9150SOL    HW228350   3.778   4.894   0.853
 9151SOL     OW28351   1.806   4.643   3.843
 9151SOL    HW128352   1.887   4.584   3.847
 9151SOL    HW228353   1.831   4.731   3.803
 9152SOL     OW28354   2.189   4.389   4.714
 9152SOL    HW128355   2.248   4.361   4.638
 9152SOL    HW228356   2.184   4.316   4.781
 9153SOL     OW28357   0.458   2.604   6.566
 9153SOL    HW128358   0.491   2.522   6.611
 9153SOL    HW228359   0.358   2.605   6.565
 9154SOL     OW28360   4.847   4.653   4.621
 9154SOL    HW128361   4.924   4.716   4.620
 9154SOL    HW228362   4.769   4.695   4.668
 9155SOL     OW28363   2.557   4.746   2.510
 9155SOL    HW128364   2.542   4.683   2.433
 9155SOL    HW228365   2.486   4.816   2.510
 9156SOL     OW28366   6.479   1.940   1.160
 9156SOL    HW128367   6.516   1.918   1.251
 9156SOL    HW228368   6.547   1.992   1.108
 9157SOL     OW28369   3.199   3.941   6.792
 9157SOL    HW128370   3.187   4.036   6.764
 9157SOL    HW228371   3.269   3.935   6.863
 9158SOL     OW28372   6.361   4.017   4.164
 9158SOL    HW128373   6.356   4.076   4.244
 9158SOL    HW228374   6.457   3.994   4.146
 9159SOL     OW28375   2.277   0.586   3.624
 9159SOL    HW128376   2.294   0.571   3.722
 9159SOL    HW228377   2.207   0.521   3.593
 9160SOL     OW28378   0.638   6.209   5.758
 9160SOL    HW128379   0.714   6.195   5.821
 9160SOL    HW228380   0.551   6.199   5.807
 9161SOL     OW28381   6.389   4.665   3.005
 9161SOL    HW128382   6.464   4.600   3.001
 9161SOL    HW228383   6.317   4.630   3.066
 9162SOL     OW28384   4.332   0.459   2.693
 9162SOL    HW128385   4.264   0.447   2.621
 9162SOL    HW228386   4.286   0.474   2.781
 9163SOL     OW28387   6.952   3.073   3.709
 9163SOL    HW128388   7.021   3.008   3.679
 9163SOL    HW228389   6.995   3.143   3.767
 9164SOL     OW28390   1.924   0.385   6.790
 9164SOL    HW128391   1.848   0.399   6.852
 9164SOL    HW228392   2.007   0.367   6.842
 9165SOL     OW28393   5.227   2.123   5.995
 9165SOL    HW128394   5.147   2.101   6.052
 9165SOL    HW228395   5.309   2.089   6.039
 9166SOL     OW28396   4.799   5.587   0.780
 9166SOL    HW128397   4.777   5.611   0.875
 9166SOL    HW228398   4.715   5.559   0.733
 9167SOL     OW28399   2.127   1.973   6.006
 9167SOL    HW128400   2.141   1.937   6.098
 9167SOL    HW228401   2.047   2.033   6.005
 9168SOL     OW28402   6.793   6.270   6.394
 9168SOL    HW128403   6.728   6.199   6.421
 9168SOL    HW228404   6.783   6.287   6.296
 9169SOL     OW28405   0.005   6.569   6.321
 9169SOL    HW128406   0.065   6.585   6.399
 9169SOL    HW228407   0.060   6.554   6.239
 9170SOL     OW28408   1.964   0.170   6.152
 9170SOL    HW128409   1.987   0.137   6.243
 9170SOL    HW228410   2.030   0.134   6.086
 9171SOL     OW28411   3.689   6.112   0.174
 9171SOL    HW128412   3.716   6.031   0.122
 9171SOL    HW228413   3.642   6.084   0.258
 9172SOL     OW28414   4.447   1.170   3.666
 9172SOL    HW128415   4.527   1.191   3.610
 9172SOL    HW228416   4.451   1.223   3.751
 9173SOL     OW28417   5.922   3.567   5.501
 9173SOL    HW128418   5.959   3.519   5.581
 9173SOL    HW228419   5.882   3.654   5.530
 9174SOL     OW28420   1.024   5.777   6.810
 9174SOL    HW128421   1.122   5.766   6.789
 9174SOL    HW228422   0.973   5.783   6.724
 9175SOL     OW28423   1.229   0.431   6.814
 9175SOL    HW128424   1.312   0.473   6.852
 9175SOL    HW228425   1.227   0.446   6.716
 9176SOL     OW28426   2.603   0.519   2.145
 9176SOL    HW128427   2.549   0.488   2.223
 9176SOL    HW228428   2.556   0.497   2.060
 9177SOL     OW28429   1.475   2.748   4.145
 9177SOL    HW128430   1.539   2.802   4.199
 9177SOL    HW228431   1.398   2.719   4.202
 9178SOL     OW28432   2.005   5.999   6.218
 9178SOL    HW128433   1.933   6.053   6.261
 9178SOL    HW228434   1.985   5.902   6.229
 9179SOL     OW28435   1.808   5.815   4.888
 9179SOL    HW128436   1.748   5.736   4.876
 9179SOL    HW228437   1.830   5.855   4.799
 9180SOL     OW28438   6.534   2.570   3.211
 9180SOL    HW128439   6.495   2.599   3.124
 9180SOL    HW228440   6.468   2.513   3.260
 9181SOL     OW28441   4.754   2.794   3.784
 9181SOL    HW128442   4.768   2.824   3.879
 9181SOL    HW228443   4.753   2.874   3.724
 9182SOL     OW28444   3.149   0.278   2.890
 9182SOL    HW128445   3.084   0.223   2.836
 9182SOL    HW228446   3.242   0.245   2.874
 9183SOL     OW28447   4.638   4.519   6.593
 9183SOL    HW128448   4.714   4.538   6.654
 9183SOL    HW228449   4.552   4.544   6.638
 9184SOL     OW28450   3.703   2.195   0.999
 9184SOL    HW128451   3.752   2.281   0.982
 9184SOL    HW228452   3.752   2.142   1.069
 9185SOL     OW28453   0.192   0.025   5.384
 9185SOL    HW128454   0.118   7.014   5.442
 9185SOL    HW228455   0.173   0.004   5.289
 9186SOL     OW28456   5.575   0.895   5.493
 9186SOL    HW128457   5.509   0.869   5.563
 9186SOL    HW228458   5.531   0.953   5.424
 9187SOL     OW28459   4.450   2.154   0.267
 9187SOL    HW128460   4.511   2.082   0.234
 9187SOL    HW228461   4.460   2.163   0.366
 9188SOL     OW28462   1.712   0.418   1.743
 9188SOL    HW128463   1.652   0.493   1.718
 9188SOL    HW228464   1.801   0.455   1.772
 9189SOL     OW28465   3.058   6.645   2.843
 9189SOL    HW128466   3.134   6.583   2.859
 9189SOL    HW228467   2.987   6.629   2.911
 9190SOL     OW28468   0.585   3.809   4.982
 9190SOL    HW128469   0.633   3.751   4.915
 9190SOL    HW228470   0.512   3.757   5.025
 9191SOL     OW28471   5.578   1.363   6.702
 9191SOL    HW128472   5.496   1.371   6.645
 9191SOL    HW228473   5.614   1.270   6.695
 9192SOL     OW28474   6.013   3.136   5.623
 9192SOL    HW128475   5.989   3.045   5.659
 9192SOL    HW228476   5.930   3.182   5.592
 9193SOL     OW28477   4.097   3.653   4.193
 9193SOL    HW128478   4.041   3.733   4.170
 9193SOL    HW228479   4.100   3.642   4.292
 9194SOL     OW28480   3.944   5.848   2.249
 9194SOL    HW128481   3.874   5.889   2.191
 9194SOL    HW228482   3.966   5.911   2.323
 9195SOL     OW28483   1.879   3.140   3.225
 9195SOL    HW128484   1.842   3.219   3.175
 9195SOL    HW228485   1.976   3.130   3.205
 9196SOL     OW28486   5.312   0.210   3.593
 9196SOL    HW128487   5.327   0.123   3.639
 9196SOL    HW228488   5.355   0.208   3.503
 9197SOL     OW28489   3.352   5.478   0.499
 9197SOL    HW128490   3.286   5.478   0.574
 9197SOL    HW228491   3.397   5.567   0.493
 9198SOL     OW28492   6.131   4.350   6.355
 9198SOL    HW128493   6.195   4.311   6.421
 9198SOL    HW228494   6.158   4.444   6.334
 9199SOL     OW28495   0.363   2.814   6.256
 9199SOL    HW128496   0.353   2.832   6.158
 9199SOL    HW228497   0.320   2.887   6.308
 9200SOL     OW28498   2.134   5.704   6.144
 9200SOL    HW128499   2.169   5.626   6.195
 9200SOL    HW228500   2.092   5.673   6.059
 9201SOL     OW28501   0.583   3.017   0.777
 9201SOL    HW128502   0.676   2.994   0.806
 9201SOL    HW228503   0.536   3.067   0.851
 9202SOL     OW28504   1.202   5.697   3.859
 9202SOL    HW128505   1.166   5.752   3.934
 9202SOL    HW228506   1.142   5.619   3.844
 9203SOL     OW28507   5.452   3.018   5.821
 9203SOL    HW128508   5.416   3.076   5.894
 9203SOL    HW228509   5.472   2.927   5.858
 9204SOL     OW28510   4.869   3.631   4.011
 9204SOL    HW128511   4.969   3.635   4.014
 9204SOL    HW228512   4.838   3.648   3.918
 9205SOL     OW28513   4.924   5.521   2.569
 9205SOL    HW128514   4.931   5.534   2.668
 9205SOL    HW228515   5.004   5.471   2.536
 9206SOL     OW28516   3.489   0.304   3.755
 9206SOL    HW128517   3.557   0.253   3.702
 9206SOL    HW228518   3.430   0.239   3.803
 9207SOL     OW28519   3.702   5.174   6.501
 9207SOL    HW128520   3.734   5.227   6.423
 9207SOL    HW228521   3.602   5.180   6.507
 9208SOL     OW28522   5.464   4.159   2.349
 9208SOL    HW128523   5.529   4.183   2.277
 9208SOL    HW228524   5.376   4.135   2.308
 9209SOL     OW28525   4.253   0.398   1.484
 9209SOL    HW128526   4.231   0.380   1.580
 9209SOL    HW228527   4.337   0.350   1.459
 9210SOL     OW28528   0.449   0.785   1.597
 9210SOL    HW128529   0.485   0.721   1.665
 9210SOL    HW228530   0.508   0.866   1.592
 9211SOL     OW28531   5.433   3.551   6.342
 9211SOL    HW128532   5.365   3.529   6.412
 9211SOL    HW228533   5.503   3.611   6.382
 9212SOL     OW28534   4.952   4.403   4.984
 9212SOL    HW128535   4.996   4.415   4.895
 9212SOL    HW228536   5.020   4.418   5.056
 9213SOL     OW28537   4.832   5.419   4.632
 9213SOL    HW128538   4.836   5.451   4.727
 9213SOL    HW228539   4.795   5.492   4.574
 9214SOL     OW28540   0.018   2.947   4.811
 9214SOL    HW128541   6.952   2.994   4.818
 9214SOL    HW228542   0.012   2.875   4.742
 9215SOL     OW28543   1.136   4.682   3.156
 9215SOL    HW128544   1.104   4.776   3.169
 9215SOL    HW228545   1.057   4.621   3.151
 9216SOL     OW28546   2.533   6.683   3.950
 9216SOL    HW128547   2.552   6.637   4.036
 9216SOL    HW228548   2.470   6.760   3.966
 9217SOL     OW28549   5.802   1.799   0.021
 9217SOL    HW128550   5.819   1.804   6.945
 9217SOL    HW228551   5.705   1.812   0.039
 9218SOL     OW28552   3.776   0.728   6.836
 9218SOL    HW128553   3.686   0.771   6.847
 9218SOL    HW228554   3.840   0.794   6.796
 9219SOL     OW28555   4.327   3.335   5.922
 9219SOL    HW128556   4.381   3.327   5.838
 9219SOL    HW228557   4.238   3.374   5.902
 9220SOL     OW28558   1.443   6.808   2.534
 9220SOL    HW128559   1.355   6.772   2.565
 9220SOL    HW228560   1.453   6.903   2.563
 9221SOL     OW28561   2.782   6.771   4.207
 9221SOL    HW128562   2.683   6.761   4.214
 9221SOL    HW228563   2.804   6.838   4.136
 9222SOL     OW28564   2.815   5.068   5.135
 9222SOL    HW128565   2.833   5.061   5.233
 9222SOL    HW228566   2.727   5.026   5.114
 9223SOL     OW28567   1.070   2.677   4.313
 9223SOL    HW128568   1.031   2.764   4.345
 9223SOL    HW228569   1.000   2.624   4.265
 9224SOL     OW28570   1.678   4.389   3.504
 9224SOL    HW128571   1.702   4.308   3.557
 9224SOL    HW228572   1.759   4.447   3.492
 9225SOL     OW28573   3.976   5.469   5.760
 9225SOL    HW128574   3.917   5.546   5.787
 9225SOL    HW228575   3.921   5.385   5.756
 9226SOL     OW28576   0.963   0.205   1.177
 9226SOL    HW128577   0.934   0.251   1.261
 9226SOL    HW228578   1.063   0.194   1.178
 9227SOL     OW28579   2.027   6.010   1.494
 9227SOL    HW128580   2.002   6.074   1.566
 9227SOL    HW228581   2.021   6.055   1.405
 9228SOL     OW28582   2.342   2.388   0.137
 9228SOL    HW128583   2.259   2.336   0.154
 9228SOL    HW228584   2.343   2.420   0.042
 9229SOL     OW28585   0.821   5.055   5.999
 9229SOL    HW128586   0.728   5.090   5.992
 9229SOL    HW228587   0.885   5.120   5.957
 9230SOL     OW28588   5.039   3.573   2.780
 9230SOL    HW128589   5.018   3.566   2.683
 9230SOL    HW228590   5.132   3.540   2.797
 9231SOL     OW28591   0.839   3.408   5.185
 9231SOL    HW128592   0.833   3.426   5.087
 9231SOL    HW228593   0.935   3.403   5.212
 9232SOL     OW28594   3.112   5.020   0.934
 9232SOL    HW128595   3.049   5.067   0.995
 9232SOL    HW228596   3.091   4.923   0.931
 9233SOL     OW28597   0.496   6.705   0.980
 9233SOL    HW128598   0.454   6.728   1.068
 9233SOL    HW228599   0.532   6.612   0.985
 9234SOL     OW28600   2.246   6.082   0.707
 9234SOL    HW128601   2.211   6.113   0.619
 9234SOL    HW228602   2.183   6.015   0.747
 9235SOL     OW28603   2.107   3.307   3.376
 9235SOL    HW128604   2.022   3.352   3.353
 9235SOL    HW228605   2.135   3.248   3.300
 9236SOL     OW28606   2.890   3.883   6.586
 9236SOL    HW128607   2.930   3.902   6.676
 9236SOL    HW228608   2.883   3.784   6.573
 9237SOL     OW28609   0.804   5.691   3.043
 9237SOL    HW128610   0.870   5.764   3.025
 9237SOL    HW228611   0.734   5.725   3.106
 9238SOL     OW28612   2.914   1.995   5.914
 9238SOL    HW128613   2.934   2.090   5.888
 9238SOL    HW228614   2.903   1.940   5.831
 9239SOL     OW28615   6.709   4.581   6.626
 9239SOL    HW128616   6.752   4.631   6.701
 9239SOL    HW228617   6.665   4.499   6.661
 9240SOL     OW28618   5.224   2.786   1.976
 9240SOL    HW128619   5.154   2.853   2.002
 9240SOL    HW228620   5.292   2.829   1.918
 9241SOL     OW28621   0.596   5.827   0.689
 9241SOL    HW128622   0.668   5.889   0.719
 9241SOL    HW228623   0.582   5.837   0.591
 9242SOL     OW28624   1.758   3.889   1.999
 9242SOL    HW128625   1.764   3.825   1.923
 9242SOL    HW228626   1.839   3.947   2.001
 9243SOL     OW28627   7.001   0.701   2.125
 9243SOL    HW128628   6.992   0.801   2.123
 9243SOL    HW228629   6.910   0.659   2.121
 9244SOL     OW28630   2.825   6.070   5.669
 9244SOL    HW128631   2.882   6.129   5.612
 9244SOL    HW228632   2.743   6.120   5.697
 9245SOL     OW28633   0.659   4.527   3.792
 9245SOL    HW128634   0.567   4.557   3.818
 9245SOL    HW228635   0.726   4.563   3.856
 9246SOL     OW28636   5.538   0.408   3.840
 9246SOL    HW128637   5.458   0.454   3.802
 9246SOL    HW228638   5.615   0.472   3.845
 9247SOL     OW28639   3.583   5.442   2.362
 9247SOL    HW128640   3.683   5.443   2.364
 9247SOL    HW228641   3.551   5.350   2.340
 9248SOL     OW28642   2.824   2.326   4.672
 9248SOL    HW128643   2.740   2.276   4.691
 9248SOL    HW228644   2.813   2.422   4.696
 9249SOL     OW28645   4.663   5.234   1.695
 9249SOL    HW128646   4.618   5.198   1.613
 9249SOL    HW228647   4.757   5.260   1.674
 9250SOL     OW28648   6.518   2.817   3.701
 9250SOL    HW128649   6.589   2.884   3.719
 9250SOL    HW228650   6.473   2.838   3.614
 9251SOL     OW28651   3.996   1.179   2.277
 9251SOL    HW128652   3.932   1.121   2.226
 9251SOL    HW228653   4.023   1.257   2.221
 9252SOL     OW28654   5.826   0.330   4.895
 9252SOL    HW128655   5.830   0.404   4.962
 9252SOL    HW228656   5.839   0.367   4.803
 9253SOL     OW28657   5.613   5.348   5.410
 9253SOL    HW128658   5.607   5.249   5.423
 9253SOL    HW228659   5.542   5.393   5.463
 9254SOL     OW28660   4.464   4.655   2.998
 9254SOL    HW128661   4.503   4.642   2.907
 9254SOL    HW228662   4.537   4.678   3.063
 9255SOL     OW28663   5.012   3.517   0.243
 9255SOL    HW128664   5.016   3.505   0.144
 9255SOL    HW228665   4.976   3.433   0.285
 9256SOL     OW28666   2.846   0.233   2.272
 9256SOL    HW128667   2.843   0.202   2.178
 9256SOL    HW228668   2.797   0.320   2.280
 9257SOL     OW28669   5.981   5.167   3.675
 9257SOL    HW128670   5.929   5.243   3.715
 9257SOL    HW228671   6.076   5.195   3.661
 9258SOL     OW28672   4.112   3.521   1.637
 9258SOL    HW128673   4.134   3.617   1.616
 9258SOL    HW228674   4.191   3.478   1.681
 9259SOL     OW28675   1.643   1.560   0.916
 9259SOL    HW128676   1.680   1.610   0.994
 9259SOL    HW228677   1.714   1.549   0.847
 9260SOL     OW28678   6.284   2.530   6.117
 9260SOL    HW128679   6.326   2.508   6.029
 9260SOL    HW228680   6.290   2.629   6.133
 9261SOL     OW28681   4.317   1.646   6.814
 9261SOL    HW128682   4.219   1.626   6.804
 9261SOL    HW228683   4.329   1.744   6.831
 9262SOL     OW28684   0.712   5.969   4.985
 9262SOL    HW128685   0.710   5.995   5.081
 9262SOL    HW228686   0.678   6.044   4.929
 9263SOL     OW28687   3.002   5.563   2.323
 9263SOL    HW128688   3.021   5.522   2.234
 9263SOL    HW228689   3.080   5.547   2.384
 9264SOL     OW28690   4.843   3.836   0.375
 9264SOL    HW128691   4.846   3.756   0.435
 9264SOL    HW228692   4.803   3.811   0.287
 9265SOL     OW28693   3.481   2.583   0.377
 9265SOL    HW128694   3.545   2.516   0.415
 9265SOL    HW228695   3.396   2.536   0.353
 9266SOL     OW28696   0.946   5.917   1.280
 9266SOL    HW128697   1.025   5.954   1.232
 9266SOL    HW228698   0.973   5.836   1.332
 9267SOL     OW28699   0.310   1.978   4.203
 9267SOL    HW128700   0.366   1.898   4.183
 9267SOL    HW228701   0.230   1.951   4.257
 9268SOL     OW28702   1.035   0.168   2.578
 9268SOL    HW128703   1.110   0.229   2.603
 9268SOL    HW228704   0.951   0.198   2.622
 9269SOL     OW28705   4.311   0.457   5.959
 9269SOL    HW128706   4.278   0.363   5.962
 9269SOL    HW228707   4.291   0.497   5.870
 9270SOL     OW28708   4.353   0.124   5.845
 9270SOL    HW128709   4.396   0.057   5.906
 9270SOL    HW228710   4.416   0.146   5.770
 9271SOL     OW28711   6.179   0.341   0.676
 9271SOL    HW128712   6.199   0.366   0.770
 9271SOL    HW228713   6.254   0.287   0.638
 9272SOL     OW28714   1.275   6.222   6.146
 9272SOL    HW128715   1.257   6.226   6.245
 9272SOL    HW228716   1.239   6.136   6.109
 9273SOL     OW28717   6.712   5.933   3.606
 9273SOL    HW128718   6.766   5.850   3.614
 9273SOL    HW228719   6.734   5.994   3.682
 9274SOL     OW28720   7.007   1.867   6.963
 9274SOL    HW128721   0.013   1.875   0.036
 9274SOL    HW228722   0.062   1.834   6.908
 9275SOL     OW28723   6.467   0.629   0.393
 9275SOL    HW128724   6.495   0.706   0.451
 9275SOL    HW228725   6.372   0.606   0.413
 9276SOL     OW28726   2.220   4.796   0.606
 9276SOL    HW128727   2.144   4.855   0.578
 9276SOL    HW228728   2.239   4.730   0.533
 9277SOL     OW28729   4.418   4.938   2.025
 9277SOL    HW128730   4.418   4.839   2.008
 9277SOL    HW228731   4.394   4.986   1.940
 9278SOL     OW28732   2.070   0.788   5.854
 9278SOL    HW128733   2.070   0.880   5.891
 9278SOL    HW228734   2.152   0.739   5.884
 9279SOL     OW28735   3.369   6.614   1.639
 9279SOL    HW128736   3.453   6.562   1.659
 9279SOL    HW228737   3.334   6.654   1.723
 9280SOL     OW28738   2.951   1.235   2.717
 9280SOL    HW128739   2.910   1.200   2.801
 9280SOL    HW228740   3.042   1.193   2.705
 9281SOL     OW28741   3.094   4.336   0.068
 9281SOL    HW128742   2.997   4.326   0.047
 9281SOL    HW228743   3.136   4.396   7.022
 9282SOL     OW28744   5.042   1.152   3.804
 9282SOL    HW128745   4.947   1.160   3.834
 9282SOL    HW228746   5.058   1.215   3.728
 9283SOL     OW28747   5.248   0.382   4.625
 9283SOL    HW128748   5.206   0.302   4.582
 9283SOL    HW228749   5.241   0.460   4.564
 9284SOL     OW28750   2.704   3.264   5.281
 9284SOL    HW128751   2.739   3.173   5.259
 9284SOL    HW228752   2.606   3.259   5.298
 9285SOL     OW28753   4.850   3.400   1.197
 9285SOL    HW128754   4.841   3.497   1.219
 9285SOL    HW228755   4.804   3.346   1.267
 9286SOL     OW28756   5.320   5.222   0.823
 9286SOL    HW128757   5.371   5.264   0.747
 9286SOL    HW228758   5.229   5.261   0.829
 9287SOL     OW28759   3.940   4.745   6.041
 9287SOL    HW128760   3.898   4.689   6.112
 9287SOL    HW228761   3.870   4.801   5.996
 9288SOL     OW28762   4.286   1.971   2.680
 9288SOL    HW128763   4.231   1.890   2.702
 9288SOL    HW228764   4.373   1.966   2.729
 9289SOL     OW28765   4.728   0.239   1.072
 9289SOL    HW128766   4.649   0.178   1.082
 9289SOL    HW228767   4.715   0.297   0.992
 9290SOL     OW28768   5.650   0.980   3.867
 9290SOL    HW128769   5.700   0.948   3.787
 9290SOL    HW228770   5.578   1.043   3.838
 9291SOL     OW28771   1.333   5.303   5.832
 9291SOL    HW128772   1.288   5.350   5.756
 9291SOL    HW228773   1.366   5.370   5.898
 9292SOL     OW28774   2.737   2.266   6.646
 9292SOL    HW128775   2.695   2.229   6.729
 9292SOL    HW228776   2.836   2.266   6.655
 9293SOL     OW28777   5.768   4.321   6.829
 9293SOL    HW128778   5.854   4.332   6.878
 9293SOL    HW228779   5.778   4.247   6.761
 9294SOL     OW28780   5.338   1.596   6.291
 9294SOL    HW128781   5.241   1.584   6.274
 9294SOL    HW228782   5.381   1.642   6.214
 9295SOL     OW28783   5.725   0.253   5.763
 9295SOL    HW128784   5.743   0.351   5.759
 9295SOL    HW228785   5.757   0.210   5.678
 9296SOL     OW28786   2.144   4.933   0.311
 9296SOL    HW128787   2.103   4.923   0.220
 9296SOL    HW228788   2.072   4.926   0.380
 9297SOL     OW28789   0.959   0.019   2.900
 9297SOL    HW128790   0.908   6.976   2.844
 9297SOL    HW228791   0.953   0.110   2.859
 9298SOL     OW28792   1.539   6.198   6.185
 9298SOL    HW128793   1.507   6.289   6.163
 9298SOL    HW228794   1.465   6.145   6.225
 9299SOL     OW28795   0.874   2.164   4.454
 9299SOL    HW128796   0.794   2.221   4.472
 9299SOL    HW228797   0.920   2.197   4.372
 9300SOL     OW28798   0.157   5.294   5.560
 9300SOL    HW128799   0.109   5.215   5.523
 9300SOL    HW228800   0.091   5.361   5.593
 9301SOL     OW28801   5.834   5.051   4.699
 9301SOL    HW128802   5.777   5.109   4.642
 9301SOL    HW228803   5.902   5.108   4.747
 9302SOL     OW28804   2.043   3.432   4.675
 9302SOL    HW128805   2.019   3.403   4.583
 9302SOL    HW228806   2.082   3.354   4.725
 9303SOL     OW28807   2.915   3.610   0.661
 9303SOL    HW128808   2.986   3.545   0.689
 9303SOL    HW228809   2.874   3.651   0.742
 9304SOL     OW28810   4.497   4.942   0.507
 9304SOL    HW128811   4.522   5.032   0.472
 9304SOL    HW228812   4.529   4.933   0.602
 9305SOL     OW28813   3.763   0.700   0.787
 9305SOL    HW128814   3.686   0.714   0.850
 9305SOL    HW228815   3.822   0.781   0.788
 9306SOL     OW28816   1.350   4.121   5.435
 9306SOL    HW128817   1.359   4.144   5.338
 9306SOL    HW228818   1.371   4.024   5.449
 9307SOL     OW28819   0.794   3.991   0.246
 9307SOL    HW128820   0.733   3.933   0.299
 9307SOL    HW228821   0.887   3.956   0.251
 9308SOL     OW28822   1.537   3.776   2.281
 9308SOL    HW128823   1.445   3.809   2.260
 9308SOL    HW228824   1.604   3.849   2.267
 9309SOL     OW28825   3.722   5.709   5.617
 9309SOL    HW128826   3.669   5.791   5.594
 9309SOL    HW228827   3.756   5.716   5.711
 9310SOL     OW28828   5.328   6.403   5.773
 9310SOL    HW128829   5.273   6.483   5.796
 9310SOL    HW228830   5.424   6.430   5.761
 9311SOL     OW28831   5.515   4.511   1.351
 9311SOL    HW128832   5.549   4.505   1.445
 9311SOL    HW228833   5.419   4.537   1.352
 9312SOL     OW28834   1.611   2.444   0.940
 9312SOL    HW128835   1.656   2.474   1.025
 9312SOL    HW228836   1.679   2.403   0.879
 9313SOL     OW28837   0.271   0.042   2.029
 9313SOL    HW128838   0.281   6.977   2.077
 9313SOL    HW228839   0.182   0.082   2.051
 9314SOL     OW28840   6.888   3.514   0.223
 9314SOL    HW128841   6.921   3.598   0.181
 9314SOL    HW228842   6.931   3.503   0.313
 9315SOL     OW28843   6.778   0.262   5.717
 9315SOL    HW128844   6.695   0.248   5.770
 9315SOL    HW228845   6.858   0.255   5.778
 9316SOL     OW28846   6.014   6.397   5.656
 9316SOL    HW128847   6.039   6.310   5.612
 9316SOL    HW228848   5.981   6.461   5.587
 9317SOL     OW28849   4.356   5.861   4.102
 9317SOL    HW128850   4.414   5.819   4.033
 9317SOL    HW228851   4.315   5.944   4.065
 9318SOL     OW28852   5.583   0.184   0.024
 9318SOL    HW128853   5.578   0.120   6.970
 9318SOL    HW228854   5.490   0.212   0.050
 9319SOL     OW28855   2.430   2.727   1.101
 9319SOL    HW128856   2.368   2.803   1.115
 9319SOL    HW228857   2.434   2.704   1.003
 9320SOL     OW28858   4.233   0.599   5.658
 9320SOL    HW128859   4.180   0.532   5.710
 9320SOL    HW228860   4.171   0.660   5.608
 9321SOL     OW28861   0.917   1.187   5.096
 9321SOL    HW128862   0.915   1.287   5.102
 9321SOL    HW228863   0.842   1.149   5.149
 9322SOL     OW28864   0.246   4.674   0.066
 9322SOL    HW128865   0.292   4.615   7.022
 9322SOL    HW228866   0.300   4.678   0.150
 9323SOL     OW28867   1.305   1.289   4.563
 9323SOL    HW128868   1.388   1.300   4.508
 9323SOL    HW228869   1.319   1.331   4.653
 9324SOL     OW28870   1.983   3.959   2.698
 9324SOL    HW128871   1.995   3.903   2.780
 9324SOL    HW228872   2.066   3.955   2.642
 9325SOL     OW28873   0.060   0.110   0.639
 9325SOL    HW128874   0.144   0.108   0.586
 9325SOL    HW228875   0.049   0.199   0.682
 9326SOL     OW28876   2.770   4.899   0.358
 9326SOL    HW128877   2.789   4.994   0.383
 9326SOL    HW228878   2.832   4.838   0.409
 9327SOL     OW28879   4.038   6.672   2.594
 9327SOL    HW128880   3.991   6.740   2.651
 9327SOL    HW228881   4.053   6.589   2.647
 9328SOL     OW28882   1.680   0.495   5.154
 9328SOL    HW128883   1.635   0.462   5.237
 9328SOL    HW228884   1.754   0.433   5.128
 9329SOL     OW28885   6.698   5.189   1.185
 9329SOL    HW128886   6.779   5.183   1.127
 9329SOL    HW228887   6.707   5.125   1.262
 9330SOL     OW28888   0.085   0.013   5.960
 9330SOL    HW128889   0.175   6.999   5.985
 9330SOL    HW228890   0.015   6.967   5.981
 9331SOL     OW28891   1.976   1.632   6.387
 9331SOL    HW128892   1.915   1.697   6.432
 9331SOL    HW228893   1.964   1.638   6.288
 9332SOL     OW28894   4.743   5.142   0.732
 9332SOL    HW128895   4.665   5.190   0.771
 9332SOL    HW228896   4.761   5.177   0.640
 9333SOL     OW28897   4.083   5.263   6.260
 9333SOL    HW128898   4.147   5.334   6.231
 9333SOL    HW228899   4.130   5.174   6.262
 9334SOL     OW28900   4.885   6.274   4.783
 9334SOL    HW128901   4.830   6.358   4.787
 9334SOL    HW228902   4.959   6.286   4.718
 9335SOL     OW28903   1.548   1.774   0.098
 9335SOL    HW128904   1.598   1.796   0.015
 9335SOL    HW228905   1.455   1.747   0.075
 9336SOL     OW28906   4.731   6.261   4.366
 9336SOL    HW128907   4.791   6.190   4.404
 9336SOL    HW228908   4.756   6.279   4.271
 9337SOL     OW28909   5.012   1.330   5.712
 9337SOL    HW128910   5.103   1.333   5.754
 9337SOL    HW228911   4.943   1.315   5.782
 9338SOL     OW28912   6.458   6.517   0.878
 9338SOL    HW128913   6.455   6.421   0.905
 9338SOL    HW228914   6.453   6.575   0.959
 9339SOL     OW28915   5.968   5.866   0.057
 9339SOL    HW128916   6.059   5.898   0.027
 9339SOL    HW228917   5.922   5.940   0.107
 9340SOL     OW28918   3.628   4.964   2.837
 9340SOL    HW128919   3.568   4.947   2.758
 9340SOL    HW228920   3.716   4.919   2.822
 9341SOL     OW28921   5.798   4.639   1.107
 9341SOL    HW128922   5.786   4.686   1.020
 9341SOL    HW228923   5.841   4.701   1.173
 9342SOL     OW28924   2.671   0.361   4.381
 9342SOL    HW128925   2.682   0.317   4.471
 9342SOL    HW228926   2.699   0.296   4.310
 9343SOL     OW28927   4.973   3.933   1.944
 9343SOL    HW128928   4.932   3.921   2.035
 9343SOL    HW228929   5.031   3.855   1.923
 9344SOL     OW28930   5.514   5.773   0.877
 9344SOL    HW128931   5.489   5.777   0.781
 9344SOL    HW228932   5.441   5.726   0.928
 9345SOL     OW28933   6.864   4.680   2.145
 9345SOL    HW128934   6.892   4.757   2.089
 9345SOL    HW228935   6.766   4.685   2.163
 9346SOL     OW28936   4.701   0.018   1.948
 9346SOL    HW128937   4.776   0.084   1.944
 9346SOL    HW228938   4.718   6.975   2.022
 9347SOL     OW28939   3.109   6.225   0.544
 9347SOL    HW128940   3.167   6.147   0.523
 9347SOL    HW228941   3.112   6.244   0.642
 9348SOL     OW28942   2.549   5.233   2.509
 9348SOL    HW128943   2.625   5.298   2.504
 9348SOL    HW228944   2.502   5.229   2.420
 9349SOL     OW28945   6.697   5.207   2.893
 9349SOL    HW128946   6.739   5.278   2.838
 9349SOL    HW228947   6.618   5.169   2.845
 9350SOL     OW28948   6.717   1.951   4.209
 9350SOL    HW128949   6.650   1.898   4.158
 9350SOL    HW228950   6.797   1.895   4.228
 9351SOL     OW28951   3.188   0.410   6.191
 9351SOL    HW128952   3.122   0.483   6.171
 9351SOL    HW228953   3.268   0.449   6.236
 9352SOL     OW28954   3.375   2.647   6.159
 9352SOL    HW128955   3.431   2.611   6.084
 9352SOL    HW228956   3.281   2.613   6.150
 9353SOL     OW28957   1.432   4.196   0.699
 9353SOL    HW128958   1.513   4.231   0.652
 9353SOL    HW228959   1.403   4.261   0.769
 9354SOL     OW28960   6.479   2.133   6.814
 9354SOL    HW128961   6.485   2.034   6.808
 9354SOL    HW228962   6.472   2.161   6.910
 9355SOL     OW28963   6.935   1.764   4.656
 9355SOL    HW128964   6.860   1.704   4.682
 9355SOL    HW228965   6.971   1.810   4.737
 9356SOL     OW28966   4.892   5.900   1.616
 9356SOL    HW128967   4.980   5.894   1.568
 9356SOL    HW228968   4.818   5.888   1.550
 9357SOL     OW28969   3.367   3.188   6.403
 9357SOL    HW128970   3.278   3.203   6.445
 9357SOL    HW228971   3.438   3.235   6.457
 9358SOL     OW28972   6.556   3.454   2.692
 9358SOL    HW128973   6.541   3.551   2.673
 9358SOL    HW228974   6.629   3.419   2.632
 9359SOL     OW28975   1.025   3.801   5.669
 9359SOL    HW128976   0.968   3.771   5.592
 9359SOL    HW228977   0.969   3.811   5.751
 9360SOL     OW28978   1.423   6.763   6.127
 9360SOL    HW128979   1.475   6.806   6.053
 9360SOL    HW228980   1.328   6.794   6.125
 9361SOL     OW28981   1.424   6.414   3.126
 9361SOL    HW128982   1.403   6.347   3.055
 9361SOL    HW228983   1.405   6.506   3.093
 9362SOL     OW28984   1.572   2.725   2.305
 9362SOL    HW128985   1.652   2.784   2.295
 9362SOL    HW228986   1.551   2.712   2.402
 9363SOL     OW28987   3.900   5.951   1.675
 9363SOL    HW128988   3.971   5.884   1.695
 9363SOL    HW228989   3.810   5.911   1.690
 9364SOL     OW28990   3.865   2.902   5.658
 9364SOL    HW128991   3.945   2.955   5.686
 9364SOL    HW228992   3.792   2.913   5.726
 9365SOL     OW28993   2.194   2.222   5.319
 9365SOL    HW128994   2.267   2.210   5.251
 9365SOL    HW228995   2.194   2.317   5.350
 9366SOL     OW28996   3.584   6.925   6.982
 9366SOL    HW128997   3.656   6.869   6.942
 9366SOL    HW228998   3.566   7.004   6.923
 9367SOL     OW28999   6.717   5.993   2.303
 9367SOL    HW129000   6.793   5.937   2.270
 9367SOL    HW229001   6.736   6.090   2.285
 9368SOL     OW29002   2.682   1.565   3.632
 9368SOL    HW129003   2.689   1.472   3.667
 9368SOL    HW229004   2.696   1.565   3.533
 9369SOL     OW29005   6.958   0.140   4.920
 9369SOL    HW129006   6.970   0.240   4.922
 9369SOL    HW229007   7.006   0.099   4.997
 9370SOL     OW29008   5.001   0.004   2.196
 9370SOL    HW129009   4.942   6.965   2.143
 9370SOL    HW229010   5.081   0.028   2.142
 9371SOL     OW29011   2.511   4.931   0.746
 9371SOL    HW129012   2.469   5.019   0.726
 9371SOL    HW229013   2.477   4.863   0.681
 9372SOL     OW29014   4.978   6.164   2.779
 9372SOL    HW129015   4.945   6.103   2.706
 9372SOL    HW229016   5.012   6.249   2.738
 9373SOL     OW29017   4.629   2.115   2.162
 9373SOL    HW129018   4.559   2.047   2.183
 9373SOL    HW229019   4.718   2.070   2.153
 9374SOL     OW29020   0.887   3.312   1.018
 9374SOL    HW129021   0.849   3.237   0.963
 9374SOL    HW229022   0.876   3.398   0.969
 9375SOL     OW29023   6.143   1.421   3.003
 9375SOL    HW129024   6.072   1.450   2.939
 9375SOL    HW229025   6.108   1.348   3.062
 9376SOL     OW29026   2.805   4.402   1.033
 9376SOL    HW129027   2.749   4.458   0.973
 9376SOL    HW229028   2.751   4.376   1.113
 9377SOL     OW29029   1.800   5.518   3.965
 9377SOL    HW129030   1.869   5.449   3.946
 9377SOL    HW229031   1.839   5.591   4.021
 9378SOL     OW29032   1.280   1.527   5.263
 9378SOL    HW129033   1.285   1.435   5.301
 9378SOL    HW229034   1.187   1.563   5.275
 9379SOL     OW29035   4.274   6.137   4.973
 9379SOL    HW129036   4.219   6.062   4.937
 9379SOL    HW229037   4.305   6.114   5.065
 9380SOL     OW29038   5.813   5.051   5.118
 9380SOL    HW129039   5.866   5.024   5.038
 9380SOL    HW229040   5.746   4.980   5.140
 9381SOL     OW29041   3.501   2.582   5.909
 9381SOL    HW129042   3.450   2.636   5.843
 9381SOL    HW229043   3.587   2.552   5.868
 9382SOL     OW29044   3.431   0.720   2.781
 9382SOL    HW129045   3.428   0.733   2.682
 9382SOL    HW229046   3.365   0.782   2.824
 9383SOL     OW29047   1.604   5.826   4.564
 9383SOL    HW129048   1.643   5.862   4.479
 9383SOL    HW229049   1.594   5.727   4.556
 9384SOL     OW29050   3.019   6.767   1.779
 9384SOL    HW129051   2.981   6.829   1.710
 9384SOL    HW229052   3.113   6.795   1.800
 9385SOL     OW29053   3.685   0.402   3.040
 9385SOL    HW129054   3.593   0.367   3.056
 9385SOL    HW229055   3.679   0.492   2.997
 9386SOL     OW29056   2.176   6.238   5.003
 9386SOL    HW129057   2.221   6.213   4.918
 9386SOL    HW229058   2.137   6.157   5.046
 9387SOL     OW29059   2.256   1.432   6.993
 9387SOL    HW129060   2.296   1.523   7.008
 9387SOL    HW229061   2.209   1.402   0.054
 9388SOL     OW29062   2.166   5.383   2.611
 9388SOL    HW129063   2.137   5.477   2.631
 9388SOL    HW229064   2.254   5.365   2.655
 9389SOL     OW29065   1.512   0.086   4.452
 9389SOL    HW129066   1.545   7.018   4.425
 9389SOL    HW229067   1.588   0.150   4.456
 9390SOL     OW29068   4.515   5.058   4.611
 9390SOL    HW129069   4.598   5.107   4.635
 9390SOL    HW229070   4.435   5.111   4.640
 9391SOL     OW29071   2.377   1.330   5.220
 9391SOL    HW129072   2.461   1.356   5.268
 9391SOL    HW229073   2.363   1.390   5.141
 9392SOL     OW29074   6.752   0.655   5.972
 9392SOL    HW129075   6.851   0.657   5.962
 9392SOL    HW229076   6.712   0.734   5.925
 9393SOL     OW29077   3.392   6.914   6.098
 9393SOL    HW129078   3.351   6.970   6.026
 9393SOL    HW229079   3.324   6.896   6.169
 9394SOL     OW29080   0.635   1.468   2.133
 9394SOL    HW129081   0.689   1.538   2.178
 9394SOL    HW229082   0.635   1.485   2.034
 9395SOL     OW29083   2.560   1.825   0.997
 9395SOL    HW129084   2.573   1.730   1.027
 9395SOL    HW229085   2.609   1.886   1.059
 9396SOL     OW29086   2.209   5.234   4.260
 9396SOL    HW129087   2.180   5.260   4.352
 9396SOL    HW229088   2.298   5.187   4.265
 9397SOL     OW29089   4.462   0.271   6.855
 9397SOL    HW129090   4.535   0.203   6.858
 9397SOL    HW229091   4.379   0.230   6.816
 9398SOL     OW29092   6.853   0.689   4.804
 9398SOL    HW129093   6.923   0.718   4.870
 9398SOL    HW229094   6.897   0.670   4.716
 9399SOL     OW29095   0.041   1.844   5.682
 9399SOL    HW129096   0.027   1.915   5.614
 9399SOL    HW229097   0.074   1.885   5.767
 9400SOL     OW29098   4.051   1.375   2.101
 9400SOL    HW129099   4.105   1.307   2.051
 9400SOL    HW229100   4.021   1.447   2.038
 9401SOL     OW29101   5.646   0.210   3.623
 9401SOL    HW129102   5.689   0.123   3.648
 9401SOL    HW229103   5.551   0.211   3.656
 9402SOL     OW29104   1.243   4.874   3.767
 9402SOL    HW129105   1.323   4.905   3.715
 9402SOL    HW229106   1.272   4.848   3.859
 9403SOL     OW29107   6.131   1.916   2.936
 9403SOL    HW129108   6.185   1.979   2.991
 9403SOL    HW229109   6.044   1.896   2.982
 9404SOL     OW29110   1.676   3.135   6.890
 9404SOL    HW129111   1.672   3.232   6.912
 9404SOL    HW229112   1.771   3.106   6.879
 9405SOL     OW29113   1.526   5.371   2.528
 9405SOL    HW129114   1.606   5.359   2.587
 9405SOL    HW229115   1.470   5.288   2.529
 9406SOL     OW29116   6.577   3.022   5.504
 9406SOL    HW129117   6.610   3.091   5.440
 9406SOL    HW229118   6.483   2.997   5.481
 9407SOL     OW29119   2.845   5.371   2.887
 9407SOL    HW129120   2.857   5.301   2.957
 9407SOL    HW229121   2.856   5.330   2.796
 9408SOL     OW29122   5.182   2.206   6.474
 9408SOL    HW129123   5.231   2.270   6.414
 9408SOL    HW229124   5.084   2.211   6.456
 9409SOL     OW29125   6.193   5.595   0.046
 9409SOL    HW129126   6.111   5.619   7.016
 9409SOL    HW229127   6.196   5.648   0.130
 9410SOL     OW29128   3.209   0.010   1.814
 9410SOL    HW129129   3.287   6.983   1.774
 9410SOL    HW229130   3.241   0.093   1.858
 9411SOL     OW29131   3.028   3.054   2.081
 9411SOL    HW129132   3.113   3.001   2.081
 9411SOL    HW229133   2.950   2.992   2.083
 9412SOL     OW29134   6.839   2.419   2.389
 9412SOL    HW129135   6.772   2.476   2.341
 9412SOL    HW229136   6.792   2.341   2.431
 9413SOL     OW29137   3.021   6.076   3.565
 9413SOL    HW129138   3.043   6.122   3.651
 9413SOL    HW229139   2.939   6.117   3.525
 9414SOL     OW29140   3.308   0.778   3.422
 9414SOL    HW129141   3.274   0.757   3.513
 9414SOL    HW229142   3.407   0.796   3.427
 9415SOL     OW29143   3.183   6.450   1.873
 9415SOL    HW129144   3.108   6.443   1.808
 9415SOL    HW229145   3.269   6.422   1.829
 9416SOL     OW29146   0.491   2.656   1.121
 9416SOL    HW129147   0.535   2.624   1.037
 9416SOL    HW229148   0.552   2.643   1.199
 9417SOL     OW29149   4.200   0.291   6.167
 9417SOL    HW129150   4.111   0.326   6.196
 9417SOL    HW229151   4.224   0.211   6.222
 9418SOL     OW29152   3.557   6.614   1.303
 9418SOL    HW129153   3.604   6.678   1.242
 9418SOL    HW229154   3.459   6.625   1.293
 9419SOL     OW29155   3.669   5.184   5.891
 9419SOL    HW129156   3.631   5.248   5.957
 9419SOL    HW229157   3.601   5.166   5.819
 9420SOL     OW29158   6.497   3.462   5.492
 9420SOL    HW129159   6.487   3.506   5.403
 9420SOL    HW229160   6.584   3.490   5.534
 9421SOL     OW29161   2.214   6.748   4.282
 9421SOL    HW129162   2.202   6.688   4.202
 9421SOL    HW229163   2.125   6.769   4.322
 9422SOL     OW29164   3.863   5.917   3.361
 9422SOL    HW129165   3.941   5.964   3.403
 9422SOL    HW229166   3.876   5.912   3.262
 9423SOL     OW29167   3.664   0.607   3.852
 9423SOL    HW129168   3.620   0.692   3.825
 9423SOL    HW229169   3.676   0.605   3.952
 9424SOL     OW29170   5.701   1.258   4.428
 9424SOL    HW129171   5.766   1.281   4.355
 9424SOL    HW229172   5.687   1.159   4.429
 9425SOL     OW29173   6.565   3.289   6.763
 9425SOL    HW129174   6.501   3.285   6.840
 9425SOL    HW229175   6.635   3.358   6.781
 9426SOL     OW29176   3.479   2.118   6.579
 9426SOL    HW129177   3.454   2.210   6.608
 9426SOL    HW229178   3.476   2.112   6.479
 9427SOL     OW29179   2.806   4.866   3.397
 9427SOL    HW129180   2.774   4.786   3.448
 9427SOL    HW229181   2.733   4.934   3.391
 9428SOL     OW29182   6.051   0.597   1.361
 9428SOL    HW129183   5.957   0.629   1.371
 9428SOL    HW229184   6.107   0.634   1.436
 9429SOL     OW29185   2.099   3.794   2.445
 9429SOL    HW129186   2.104   3.695   2.452
 9429SOL    HW229187   2.058   3.820   2.357
 9430SOL     OW29188   0.424   4.394   2.598
 9430SOL    HW129189   0.369   4.311   2.607
 9430SOL    HW229190   0.431   4.439   2.687
 9431SOL     OW29191   6.446   4.108   1.200
 9431SOL    HW129192   6.438   4.208   1.205
 9431SOL    HW229193   6.356   4.067   1.214
 9432SOL     OW29194   4.728   0.482   2.682
 9432SOL    HW129195   4.755   0.441   2.769
 9432SOL    HW229196   4.740   0.581   2.686
 9433SOL     OW29197   2.889   5.368   2.620
 9433SOL    HW129198   2.943   5.286   2.603
 9433SOL    HW229199   2.831   5.387   2.541
 9434SOL     OW29200   5.378   4.915   2.884
 9434SOL    HW129201   5.399   4.837   2.825
 9434SOL    HW229202   5.400   5.000   2.836
 9435SOL     OW29203   0.710   2.702   4.351
 9435SOL    HW129204   0.763   2.659   4.278
 9435SOL    HW229205   0.699   2.800   4.331
 9436SOL     OW29206   1.487   2.559   1.728
 9436SOL    HW129207   1.543   2.603   1.798
 9436SOL    HW229208   1.420   2.626   1.693
 9437SOL     OW29209   1.965   5.926   3.222
 9437SOL    HW129210   1.938   5.975   3.305
 9437SOL    HW229211   1.903   5.949   3.147
 9438SOL     OW29212   0.239   0.446   1.846
 9438SOL    HW129213   0.184   0.515   1.799
 9438SOL    HW229214   0.300   0.402   1.780
 9439SOL     OW29215   0.636   3.417   1.221
 9439SOL    HW129216   0.679   3.351   1.159
 9439SOL    HW229217   0.630   3.506   1.176
 9440SOL     OW29218   4.122   4.773   3.616
 9440SOL    HW129219   4.191   4.835   3.579
 9440SOL    HW229220   4.121   4.689   3.562
 9441SOL     OW29221   0.484   3.221   5.175
 9441SOL    HW129222   0.518   3.216   5.082
 9441SOL    HW229223   0.500   3.313   5.211
 9442SOL     OW29224   4.248   2.974   0.640
 9442SOL    HW129225   4.201   3.049   0.686
 9442SOL    HW229226   4.289   2.914   0.708
 9443SOL     OW29227   2.071   5.452   0.781
 9443SOL    HW129228   2.161   5.464   0.822
 9443SOL    HW229229   2.010   5.525   0.813
 9444SOL     OW29230   1.278   3.158   0.129
 9444SOL    HW129231   1.252   3.146   0.225
 9444SOL    HW229232   1.345   3.232   0.122
 9445SOL     OW29233   5.592   3.489   3.526
 9445SOL    HW129234   5.646   3.445   3.598
 9445SOL    HW229235   5.628   3.581   3.510
 9446SOL     OW29236   6.691   5.643   4.269
 9446SOL    HW129237   6.688   5.543   4.277
 9446SOL    HW229238   6.748   5.680   4.342
 9447SOL     OW29239   6.097   3.856   4.765
 9447SOL    HW129240   6.183   3.908   4.767
 9447SOL    HW229241   6.050   3.865   4.852
 9448SOL     OW29242   0.082   0.274   6.788
 9448SOL    HW129243   0.098   0.372   6.794
 9448SOL    HW229244   0.011   0.255   6.720
 9449SOL     OW29245   6.785   6.066   0.330
 9449SOL    HW129246   6.764   6.142   0.391
 9449SOL    HW229247   6.882   6.041   0.339
 9450SOL     OW29248   2.499   5.368   5.109
 9450SOL    HW129249   2.524   5.317   5.026
 9450SOL    HW229250   2.499   5.306   5.187
 9451SOL     OW29251   4.364   6.765   5.898
 9451SOL    HW129252   4.326   6.703   5.968
 9451SOL    HW229253   4.338   6.732   5.807
 9452SOL     OW29254   2.059   4.420   0.204
 9452SOL    HW129255   2.132   4.433   0.138
 9452SOL    HW229256   2.052   4.501   0.262
 9453SOL     OW29257   1.902   4.926   3.413
 9453SOL    HW129258   1.829   4.858   3.406
 9453SOL    HW229259   1.990   4.882   3.393
 9454SOL     OW29260   3.536   3.065   6.846
 9454SOL    HW129261   3.575   2.974   6.832
 9454SOL    HW229262   3.502   3.073   6.939
 9455SOL     OW29263   3.406   1.472   3.370
 9455SOL    HW129264   3.431   1.569   3.376
 9455SOL    HW229265   3.368   1.452   3.280
 9456SOL     OW29266   0.738   3.020   1.115
 9456SOL    HW129267   0.777   3.050   1.202
 9456SOL    HW229268   0.806   3.029   1.043
 9457SOL     OW29269   2.272   3.869   5.365
 9457SOL    HW129270   2.307   3.868   5.459
 9457SOL    HW229271   2.336   3.918   5.306
 9458SOL     OW29272   1.182   2.863   6.782
 9458SOL    HW129273   1.212   2.943   6.731
 9458SOL    HW229274   1.152   2.891   6.874
 9459SOL     OW29275   5.193   4.379   3.463
 9459SOL    HW129276   5.126   4.305   3.460
 9459SOL    HW229277   5.212   4.410   3.370
 9460SOL     OW29278   0.351   2.891   3.863
 9460SOL    HW129279   0.431   2.937   3.902
 9460SOL    HW229280   0.361   2.793   3.875
 9461SOL     OW29281   6.567   1.716   2.265
 9461SOL    HW129282   6.488   1.738   2.208
 9461SOL    HW229283   6.595   1.797   2.316
 9462SOL     OW29284   2.169   4.088   3.161
 9462SOL    HW129285   2.211   4.116   3.074
 9462SOL    HW229286   2.195   3.994   3.182
 9463SOL     OW29287   6.456   0.900   1.960
 9463SOL    HW129288   6.468   0.801   1.956
 9463SOL    HW229289   6.359   0.923   1.957
 9464SOL     OW29290   6.525   0.224   1.220
 9464SOL    HW129291   6.586   0.301   1.237
 9464SOL    HW229292   6.439   0.257   1.180
 9465SOL     OW29293   1.549   4.920   2.813
 9465SOL    HW129294   1.645   4.949   2.822
 9465SOL    HW229295   1.541   4.823   2.834
 9466SOL     OW29296   4.258   4.610   6.238
 9466SOL    HW129297   4.330   4.542   6.225
 9466SOL    HW229298   4.288   4.698   6.200
 9467SOL     OW29299   1.403   2.878   2.057
 9467SOL    HW129300   1.316   2.923   2.037
 9467SOL    HW229301   1.397   2.828   2.142
 9468SOL     OW29302   6.021   3.480   6.290
 9468SOL    HW129303   5.988   3.450   6.380
 9468SOL    HW229304   5.969   3.433   6.219
 9469SOL     OW29305   6.650   5.548   1.925
 9469SOL    HW129306   6.555   5.555   1.895
 9469SOL    HW229307   6.709   5.601   1.863
 9470SOL     OW29308   4.595   3.413   5.693
 9470SOL    HW129309   4.620   3.508   5.676
 9470SOL    HW229310   4.560   3.372   5.608
 9471SOL     OW29311   0.268   1.974   4.700
 9471SOL    HW129312   0.351   1.929   4.668
 9471SOL    HW229313   0.292   2.046   4.766
 9472SOL     OW29314   6.058   3.566   4.825
 9472SOL    HW129315   6.082   3.662   4.810
 9472SOL    HW229316   5.983   3.561   4.890
 9473SOL     OW29317   3.317   5.367   6.315
 9473SOL    HW129318   3.411   5.390   6.293
 9473SOL    HW229319   3.301   5.269   6.302
 9474SOL     OW29320   0.559   2.364   6.948
 9474SOL    HW129321   0.548   2.408   0.015
 9474SOL    HW229322   0.585   2.268   6.962
 9475SOL     OW29323   3.278   3.354   6.208
 9475SOL    HW129324   3.263   3.327   6.303
 9475SOL    HW229325   3.360   3.308   6.172
 9476SOL     OW29326   3.292   4.070   4.466
 9476SOL    HW129327   3.345   3.988   4.486
 9476SOL    HW229328   3.351   4.137   4.421
 9477SOL     OW29329   0.680   3.394   1.489
 9477SOL    HW129330   0.657   3.435   1.401
 9477SOL    HW229331   0.689   3.295   1.479
 9478SOL     OW29332   5.194   3.174   0.282
 9478SOL    HW129333   5.178   3.097   0.221
 9478SOL    HW229334   5.206   3.142   0.376
 9479SOL     OW29335   4.359   6.246   6.782
 9479SOL    HW129336   4.352   6.147   6.782
 9479SOL    HW229337   4.282   6.285   6.732
 9480SOL     OW29338   4.635   3.857   0.721
 9480SOL    HW129339   4.678   3.933   0.672
 9480SOL    HW229340   4.694   3.830   0.797
 9481SOL     OW29341   5.124   3.214   2.050
 9481SOL    HW129342   5.173   3.289   2.006
 9481SOL    HW229343   5.042   3.248   2.095
 9482SOL     OW29344   0.156   0.605   2.864
 9482SOL    HW129345   0.102   0.643   2.939
 9482SOL    HW229346   0.170   0.507   2.881
 9483SOL     OW29347   1.388   1.934   1.692
 9483SOL    HW129348   1.294   1.906   1.715
 9483SOL    HW229349   1.446   1.853   1.690
 9484SOL     OW29350   3.821   1.061   3.373
 9484SOL    HW129351   3.853   1.140   3.425
 9484SOL    HW229352   3.838   1.075   3.276
 9485SOL     OW29353   0.275   0.383   0.718
 9485SOL    HW129354   0.243   0.350   0.807
 9485SOL    HW229355   0.199   0.383   0.653
 9486SOL     OW29356   3.131   6.336   1.134
 9486SOL    HW129357   3.051   6.282   1.159
 9486SOL    HW229358   3.101   6.426   1.101
 9487SOL     OW29359   3.858   3.626   3.557
 9487SOL    HW129360   3.872   3.720   3.525
 9487SOL    HW229361   3.930   3.602   3.622
 9488SOL     OW29362   2.082   6.547   1.189
 9488SOL    HW129363   2.075   6.451   1.217
 9488SOL    HW229364   2.041   6.605   1.259
 9489SOL     OW29365   4.441   4.452   1.740
 9489SOL    HW129366   4.530   4.478   1.703
 9489SOL    HW229367   4.451   4.371   1.798
 9490SOL     OW29368   6.817   5.265   1.524
 9490SOL    HW129369   6.908   5.305   1.515
 9490SOL    HW229370   6.816   5.174   1.482
 9491SOL     OW29371   6.426   4.833   3.724
 9491SOL    HW129372   6.400   4.898   3.653
 9491SOL    HW229373   6.484   4.762   3.684
 9492SOL     OW29374   3.386   2.941   3.317
 9492SOL    HW129375   3.377   2.927   3.218
 9492SOL    HW229376   3.296   2.943   3.359
 9493SOL     OW29377   3.155   5.201   3.580
 9493SOL    HW129378   3.228   5.188   3.513
 9493SOL    HW229379   3.195   5.221   3.669
 9494SOL     OW29380   5.017   4.403   1.617
 9494SOL    HW129381   4.969   4.346   1.684
 9494SOL    HW229382   4.973   4.492   1.611
 9495SOL     OW29383   6.177   1.828   3.832
 9495SOL    HW129384   6.229   1.767   3.893
 9495SOL    HW229385   6.234   1.853   3.754
 9496SOL     OW29386   6.591   4.313   1.560
 9496SOL    HW129387   6.512   4.368   1.534
 9496SOL    HW229388   6.646   4.364   1.627
 9497SOL     OW29389   5.480   6.030   6.574
 9497SOL    HW129390   5.569   6.073   6.592
 9497SOL    HW229391   5.412   6.100   6.557
 9498SOL     OW29392   4.804   6.532   4.458
 9498SOL    HW129393   4.763   6.442   4.447
 9498SOL    HW229394   4.775   6.591   4.382
 9499SOL     OW29395   1.817   5.466   6.405
 9499SOL    HW129396   1.837   5.451   6.308
 9499SOL    HW229397   1.877   5.536   6.442
 9500SOL     OW29398   5.749   0.741   0.796
 9500SOL    HW129399   5.781   0.709   0.885
 9500SOL    HW229400   5.649   0.747   0.797
 9501SOL     OW29401   3.112   1.228   4.364
 9501SOL    HW129402   3.086   1.320   4.391
 9501SOL    HW229403   3.202   1.206   4.404
 9502SOL     OW29404   5.420   2.593   5.295
 9502SOL    HW129405   5.474   2.652   5.235
 9502SOL    HW229406   5.437   2.618   5.390
 9503SOL     OW29407   0.030   1.567   1.789
 9503SOL    HW129408   0.115   1.585   1.740
 9503SOL    HW229409   0.045   1.496   1.858
 9504SOL     OW29410   0.225   2.659   1.146
 9504SOL    HW129411   0.178   2.731   1.096
 9504SOL    HW229412   0.323   2.680   1.151
 9505SOL     OW29413   5.313   4.744   3.344
 9505SOL    HW129414   5.312   4.844   3.336
 9505SOL    HW229415   5.224   4.712   3.377
 9506SOL     OW29416   0.629   2.321   6.105
 9506SOL    HW129417   0.675   2.327   6.194
 9506SOL    HW229418   0.695   2.292   6.036
 9507SOL     OW29419   1.080   2.601   3.567
 9507SOL    HW129420   1.023   2.586   3.648
 9507SOL    HW229421   1.053   2.687   3.523
 9508SOL     OW29422   6.559   2.850   0.492
 9508SOL    HW129423   6.544   2.883   0.399
 9508SOL    HW229424   6.656   2.834   0.507
 9509SOL     OW29425   0.616   0.946   3.980
 9509SOL    HW129426   0.573   0.992   3.902
 9509SOL    HW229427   0.604   0.847   3.971
 9510SOL     OW29428   1.513   3.472   2.743
 9510SOL    HW129429   1.517   3.557   2.691
 9510SOL    HW229430   1.430   3.471   2.799
 9511SOL     OW29431   1.425   0.350   0.868
 9511SOL    HW129432   1.426   0.396   0.957
 9511SOL    HW229433   1.334   0.313   0.850
 9512SOL     OW29434   5.435   1.537   1.479
 9512SOL    HW129435   5.402   1.547   1.385
 9512SOL    HW229436   5.516   1.593   1.492
 9513SOL     OW29437   1.803   4.012   6.315
 9513SOL    HW129438   1.742   3.987   6.239
 9513SOL    HW229439   1.889   3.961   6.306
 9514SOL     OW29440   2.059   5.184   6.472
 9514SOL    HW129441   1.969   5.196   6.514
 9514SOL    HW229442   2.101   5.100   6.507
 9515SOL     OW29443   1.893   5.707   1.398
 9515SOL    HW129444   1.933   5.625   1.358
 9515SOL    HW229445   1.807   5.729   1.352
 9516SOL     OW29446   5.110   4.446   5.226
 9516SOL    HW129447   5.063   4.532   5.246
 9516SOL    HW229448   5.076   4.375   5.287
 9517SOL     OW29449   1.280   5.017   0.798
 9517SOL    HW129450   1.350   4.988   0.863
 9517SOL    HW229451   1.300   4.979   0.708
 9518SOL     OW29452   2.104   2.150   6.911
 9518SOL    HW129453   2.145   2.106   6.991
 9518SOL    HW229454   2.008   2.169   6.928
 9519SOL     OW29455   3.985   3.080   4.352
 9519SOL    HW129456   3.954   3.030   4.433
 9519SOL    HW229457   4.062   3.138   4.377
 9520SOL     OW29458   0.905   2.043   3.310
 9520SOL    HW129459   0.806   2.058   3.309
 9520SOL    HW229460   0.927   1.978   3.383
 9521SOL     OW29461   5.092   5.254   1.560
 9521SOL    HW129462   5.101   5.295   1.469
 9521SOL    HW229463   5.182   5.234   1.597
 9522SOL     OW29464   4.083   5.061   1.097
 9522SOL    HW129465   4.150   5.056   1.171
 9522SOL    HW229466   4.026   5.142   1.109
 9523SOL     OW29467   2.663   4.745   5.256
 9523SOL    HW129468   2.715   4.718   5.337
 9523SOL    HW229469   2.708   4.709   5.175
 9524SOL     OW29470   3.431   3.111   0.631
 9524SOL    HW129471   3.345   3.104   0.682
 9524SOL    HW229472   3.411   3.107   0.533
 9525SOL     OW29473   2.316   2.416   5.740
 9525SOL    HW129474   2.362   2.411   5.829
 9525SOL    HW229475   2.378   2.455   5.672
 9526SOL     OW29476   6.433   4.815   1.046
 9526SOL    HW129477   6.533   4.812   1.048
 9526SOL    HW229478   6.398   4.739   0.990
 9527SOL     OW29479   0.389   0.694   4.403
 9527SOL    HW129480   0.413   0.788   4.380
 9527SOL    HW229481   0.290   0.683   4.403
 9528SOL     OW29482   6.588   1.488   0.750
 9528SOL    HW129483   6.590   1.499   0.650
 9528SOL    HW229484   6.649   1.555   0.792
 9529SOL     OW29485   6.432   3.525   6.337
 9529SOL    HW129486   6.374   3.490   6.264
 9529SOL    HW229487   6.469   3.615   6.312
 9530SOL     OW29488   2.059   3.378   2.886
 9530SOL    HW129489   2.093   3.284   2.885
 9530SOL    HW229490   1.960   3.377   2.872
 9531SOL     OW29491   4.520   5.241   2.819
 9531SOL    HW129492   4.582   5.316   2.842
 9531SOL    HW229493   4.452   5.231   2.891
 9532SOL     OW29494   6.861   6.404   1.251
 9532SOL    HW129495   6.923   6.433   1.324
 9532SOL    HW229496   6.873   6.463   1.171
 9533SOL     OW29497   0.216   5.897   5.196
 9533SOL    HW129498   0.281   5.867   5.266
 9533SOL    HW229499   0.123   5.875   5.226
 9534SOL     OW29500   0.092   3.853   4.653
 9534SOL    HW129501   0.097   3.876   4.556
 9534SOL    HW229502   0.029   3.777   4.666
 9535SOL     OW29503   2.238   0.696   6.647
 9535SOL    HW129504   2.302   0.630   6.686
 9535SOL    HW229505   2.145   0.672   6.673
 9536SOL     OW29506   2.837   3.862   5.633
 9536SOL    HW129507   2.924   3.892   5.593
 9536SOL    HW229508   2.784   3.811   5.566
 9537SOL     OW29509   2.712   6.587   3.761
 9537SOL    HW129510   2.751   6.652   3.696
 9537SOL    HW229511   2.646   6.635   3.820
 9538SOL     OW29512   5.952   1.659   3.632
 9538SOL    HW129513   6.001   1.582   3.591
 9538SOL    HW229514   5.935   1.640   3.728
 9539SOL     OW29515   3.428   3.827   4.752
 9539SOL    HW129516   3.421   3.857   4.657
 9539SOL    HW229517   3.512   3.862   4.792
 9540SOL     OW29518   6.157   3.743   4.506
 9540SOL    HW129519   6.104   3.779   4.583
 9540SOL    HW229520   6.153   3.808   4.430
 9541SOL     OW29521   3.336   0.809   5.592
 9541SOL    HW129522   3.420   0.848   5.554
 9541SOL    HW229523   3.328   0.713   5.563
 9542SOL     OW29524   4.988   4.439   4.688
 9542SOL    HW129525   4.939   4.521   4.660
 9542SOL    HW229526   4.925   4.361   4.688
 9543SOL     OW29527   3.388   0.702   5.865
 9543SOL    HW129528   3.392   0.786   5.810
 9543SOL    HW229529   3.434   0.717   5.952
 9544SOL     OW29530   6.924   2.073   3.026
 9544SOL    HW129531   6.995   2.004   3.040
 9544SOL    HW229532   6.965   2.164   3.025
 9545SOL     OW29533   6.091   5.846   4.426
 9545SOL    HW129534   6.094   5.903   4.344
 9545SOL    HW229535   6.181   5.844   4.469
 9546SOL     OW29536   3.458   2.043   5.453
 9546SOL    HW129537   3.501   2.133   5.450
 9546SOL    HW229538   3.424   2.026   5.545
 9547SOL     OW29539   1.983   6.341   4.389
 9547SOL    HW129540   2.066   6.352   4.335
 9547SOL    HW229541   1.903   6.361   4.332
 9548SOL     OW29542   6.000   5.240   6.280
 9548SOL    HW129543   6.047   5.325   6.258
 9548SOL    HW229544   6.064   5.177   6.325
 9549SOL     OW29545   2.693   2.712   1.252
 9549SOL    HW129546   2.760   2.750   1.189
 9549SOL    HW229547   2.601   2.720   1.213
 9550SOL     OW29548   0.297   1.463   0.323
 9550SOL    HW129549   0.355   1.384   0.304
 9550SOL    HW229550   0.298   1.483   0.420
 9551SOL     OW29551   5.476   1.433   4.429
 9551SOL    HW129552   5.420   1.431   4.512
 9551SOL    HW229553   5.571   1.411   4.452
 9552SOL     OW29554   1.452   0.159   3.718
 9552SOL    HW129555   1.417   0.252   3.725
 9552SOL    HW229556   1.468   0.122   3.809
 9553SOL     OW29557   6.287   3.615   5.898
 9553SOL    HW129558   6.228   3.560   5.839
 9553SOL    HW229559   6.380   3.577   5.897
 9554SOL     OW29560   1.720   6.300   1.189
 9554SOL    HW129561   1.793   6.332   1.249
 9554SOL    HW229562   1.634   6.296   1.240
 9555SOL     OW29563   1.085   0.959   3.225
 9555SOL    HW129564   1.079   1.051   3.188
 9555SOL    HW229565   1.008   0.942   3.287
 9556SOL     OW29566   1.056   3.178   1.530
 9556SOL    HW129567   1.023   3.265   1.567
 9556SOL    HW229568   1.017   3.103   1.584
 9557SOL     OW29569   0.614   6.820   2.388
 9557SOL    HW129570   0.697   6.792   2.339
 9557SOL    HW229571   0.588   6.748   2.453
 9558SOL     OW29572   6.155   6.215   4.909
 9558SOL    HW129573   6.080   6.212   4.842
 9558SOL    HW229574   6.150   6.134   4.968
 9559SOL     OW29575   6.950   4.602   0.662
 9559SOL    HW129576   6.900   4.586   0.747
 9559SOL    HW229577   6.901   4.560   0.586
 9560SOL     OW29578   1.857   1.506   3.205
 9560SOL    HW129579   1.872   1.446   3.127
 9560SOL    HW229580   1.880   1.458   3.290
 9561SOL     OW29581   1.272   6.640   0.314
 9561SOL    HW129582   1.214   6.682   0.384
 9561SOL    HW229583   1.351   6.698   0.297
 9562SOL     OW29584   3.270   6.981   5.450
 9562SOL    HW129585   3.180   7.017   5.426
 9562SOL    HW229586   3.341   0.023   5.421
 9563SOL     OW29587   6.137   6.272   0.908
 9563SOL    HW129588   6.109   6.359   0.868
 9563SOL    HW229589   6.124   6.274   1.007
 9564SOL     OW29590   3.014   6.862   0.478
 9564SOL    HW129591   3.031   6.799   0.554
 9564SOL    HW229592   3.011   6.810   0.393
 9565SOL     OW29593   4.107   0.479   4.754
 9565SOL    HW129594   4.079   0.438   4.667
 9565SOL    HW229595   4.178   0.423   4.797
 9566SOL     OW29596   1.911   5.204   6.931
 9566SOL    HW129597   1.938   5.118   6.887
 9566SOL    HW229598   1.973   5.223   7.007
 9567SOL     OW29599   5.252   4.863   0.364
 9567SOL    HW129600   5.298   4.952   0.357
 9567SOL    HW229601   5.289   4.801   0.295
 9568SOL     OW29602   4.438   2.223   6.666
 9568SOL    HW129603   4.480   2.224   6.757
 9568SOL    HW229604   4.359   2.284   6.665
 9569SOL     OW29605   0.961   2.077   2.787
 9569SOL    HW129606   0.983   1.989   2.745
 9569SOL    HW229607   1.030   2.100   2.856
 9570SOL     OW29608   0.666   3.069   2.124
 9570SOL    HW129609   0.639   3.121   2.043
 9570SOL    HW229610   0.599   2.996   2.140
 9571SOL     OW29611   3.650   4.069   6.451
 9571SOL    HW129612   3.621   4.072   6.356
 9571SOL    HW229613   3.569   4.079   6.510
 9572SOL     OW29614   1.656   5.049   2.043
 9572SOL    HW129615   1.673   5.111   2.120
 9572SOL    HW229616   1.736   5.047   1.983
 9573SOL     OW29617   0.927   1.412   6.778
 9573SOL    HW129618   1.024   1.436   6.781
 9573SOL    HW229619   0.916   1.324   6.732
 9574SOL     OW29620   3.970   3.091   3.795
 9574SOL    HW129621   3.908   3.123   3.723
 9574SOL    HW229622   4.040   3.160   3.812
 9575SOL     OW29623   6.662   1.229   1.334
 9575SOL    HW129624   6.703   1.204   1.422
 9575SOL    HW229625   6.563   1.216   1.339
 9576SOL     OW29626   2.279   0.300   2.145
 9576SOL    HW129627   2.272   0.379   2.206
 9576SOL    HW229628   2.270   0.330   2.050
 9577SOL     OW29629   1.677   0.835   6.153
 9577SOL    HW129630   1.698   0.739   6.134
 9577SOL    HW229631   1.758   0.880   6.191
 9578SOL     OW29632   0.944   4.166   3.927
 9578SOL    HW129633   0.886   4.174   4.008
 9578SOL    HW229634   0.992   4.253   3.912
 9579SOL     OW29635   1.816   4.913   2.832
 9579SOL    HW129636   1.824   5.012   2.837
 9579SOL    HW229637   1.886   4.871   2.891
 9580SOL     OW29638   3.554   3.267   0.837
 9580SOL    HW129639   3.505   3.257   0.923
 9580SOL    HW229640   3.522   3.198   0.772
 9581SOL     OW29641   0.828   5.286   6.262
 9581SOL    HW129642   0.868   5.211   6.314
 9581SOL    HW229643   0.730   5.269   6.248
 9582SOL     OW29644   4.727   5.136   5.862
 9582SOL    HW129645   4.643   5.100   5.822
 9582SOL    HW229646   4.716   5.233   5.883
 9583SOL     OW29647   4.229   4.476   1.117
 9583SOL    HW129648   4.238   4.378   1.133
 9583SOL    HW229649   4.238   4.496   1.020
 9584SOL     OW29650   6.363   6.392   0.177
 9584SOL    HW129651   6.297   6.414   0.105
 9584SOL    HW229652   6.395   6.476   0.220
 9585SOL     OW29653   6.412   0.445   3.958
 9585SOL    HW129654   6.357   0.386   3.900
 9585SOL    HW229655   6.393   0.425   4.054
 9586SOL     OW29656   6.420   4.053   2.907
 9586SOL    HW129657   6.426   3.990   2.829
 9586SOL    HW229658   6.510   4.065   2.948
 9587SOL     OW29659   0.364   0.924   2.048
 9587SOL    HW129660   0.333   0.987   2.119
 9587SOL    HW229661   0.319   0.835   2.060
 9588SOL     OW29662   0.626   1.857   2.043
 9588SOL    HW129663   0.725   1.846   2.036
 9588SOL    HW229664   0.582   1.767   2.033
 9589SOL     OW29665   2.420   5.569   5.966
 9589SOL    HW129666   2.478   5.539   5.890
 9589SOL    HW229667   2.327   5.534   5.954
 9590SOL     OW29668   0.147   3.443   1.644
 9590SOL    HW129669   0.129   3.347   1.619
 9590SOL    HW229670   0.240   3.467   1.617
 9591SOL     OW29671   2.857   5.824   6.646
 9591SOL    HW129672   2.813   5.914   6.656
 9591SOL    HW229673   2.946   5.825   6.690
 9592SOL     OW29674   3.341   4.281   1.107
 9592SOL    HW129675   3.265   4.291   1.043
 9592SOL    HW229676   3.314   4.318   1.196
 9593SOL     OW29677   6.988   0.441   4.898
 9593SOL    HW129678   6.947   0.431   4.807
 9593SOL    HW229679   0.061   0.470   4.888
 9594SOL     OW29680   1.642   6.839   2.974
 9594SOL    HW129681   1.545   6.849   2.953
 9594SOL    HW229682   1.652   6.805   3.068
 9595SOL     OW29683   1.559   4.610   5.489
 9595SOL    HW129684   1.627   4.568   5.549
 9595SOL    HW229685   1.469   4.605   5.533
 9596SOL     OW29686   0.395   5.874   7.003
 9596SOL    HW129687   0.406   5.932   6.922
 9596SOL    HW229688   0.299   5.871   0.007
 9597SOL     OW29689   0.365   4.331   0.884
 9597SOL    HW129690   0.332   4.422   0.859
 9597SOL    HW229691   0.373   4.324   0.983
 9598SOL     OW29692   1.394   3.346   4.811
 9598SOL    HW129693   1.410   3.412   4.884
 9598SOL    HW229694   1.444   3.374   4.729
 9599SOL     OW29695   4.036   0.503   5.823
 9599SOL    HW129696   4.029   0.414   5.868
 9599SOL    HW229697   4.011   0.575   5.888
 9600SOL     OW29698   2.291   6.940   0.178
 9600SOL    HW129699   2.207   6.970   0.223
 9600SOL    HW229700   2.294   6.976   0.085
 9601SOL     OW29701   6.319   3.527   0.939
 9601SOL    HW129702   6.401   3.470   0.933
 9601SOL    HW229703   6.277   3.516   1.029
 9602SOL     OW29704   6.520   4.908   6.765
 9602SOL    HW129705   6.512   4.825   6.821
 9602SOL    HW229706   6.441   4.967   6.781
 9603SOL     OW29707   3.505   1.598   5.314
 9603SOL    HW129708   3.433   1.582   5.381
 9603SOL    HW229709   3.522   1.696   5.306
 9604SOL     OW29710   4.090   0.469   6.873
 9604SOL    HW129711   4.146   0.399   6.917
 9604SOL    HW229712   4.150   0.540   6.835
 9605SOL     OW29713   0.270   4.582   4.090
 9605SOL    HW129714   0.311   4.553   4.003
 9605SOL    HW229715   0.342   4.618   4.150
 9606SOL     OW29716   1.807   6.154   5.530
 9606SOL    HW129717   1.810   6.250   5.558
 9606SOL    HW229718   1.727   6.139   5.471
 9607SOL     OW29719   1.323   1.663   1.879
 9607SOL    HW129720   1.261   1.692   1.806
 9607SOL    HW229721   1.415   1.697   1.861
 9608SOL     OW29722   6.565   6.510   2.089
 9608SOL    HW129723   6.479   6.555   2.113
 9608SOL    HW229724   6.621   6.497   2.171
 9609SOL     OW29725   2.174   3.669   6.388
 9609SOL    HW129726   2.272   3.689   6.390
 9609SOL    HW229727   2.154   3.597   6.455
 9610SOL     OW29728   2.077   5.072   4.016
 9610SOL    HW129729   2.139   5.012   4.066
 9610SOL    HW229730   2.025   5.128   4.081
 9611SOL     OW29731   0.365   6.749   6.871
 9611SOL    HW129732   0.409   6.692   6.940
 9611SOL    HW229733   0.432   6.772   6.799
 9612SOL     OW29734   0.659   3.626   1.984
 9612SOL    HW129735   0.743   3.582   2.017
 9612SOL    HW229736   0.580   3.573   2.016
 9613SOL     OW29737   4.148   6.471   3.534
 9613SOL    HW129738   4.136   6.565   3.501
 9613SOL    HW229739   4.073   6.449   3.597
 9614SOL     OW29740   3.750   2.560   0.887
 9614SOL    HW129741   3.789   2.480   0.842
 9614SOL    HW229742   3.678   2.600   0.830
 9615SOL     OW29743   0.575   6.866   1.773
 9615SOL    HW129744   0.664   6.909   1.761
 9615SOL    HW229745   0.565   6.836   1.868
 9616SOL     OW29746   4.531   3.571   1.084
 9616SOL    HW129747   4.579   3.484   1.095
 9616SOL    HW229748   4.585   3.644   1.125
 9617SOL     OW29749   1.353   3.800   4.310
 9617SOL    HW129750   1.359   3.841   4.219
 9617SOL    HW229751   1.267   3.829   4.353
 9618SOL     OW29752   3.732   6.723   6.296
 9618SOL    HW129753   3.798   6.703   6.369
 9618SOL    HW229754   3.655   6.660   6.303
 9619SOL     OW29755   0.640   6.854   0.425
 9619SOL    HW129756   0.659   6.922   0.496
 9619SOL    HW229757   0.714   6.855   0.357
 9620SOL     OW29758   5.411   2.695   6.717
 9620SOL    HW129759   5.344   2.745   6.662
 9620SOL    HW229760   5.383   2.694   6.813
 9621SOL     OW29761   1.638   1.009   3.106
 9621SOL    HW129762   1.684   1.065   3.175
 9621SOL    HW229763   1.540   1.024   3.111
 9622SOL     OW29764   5.575   0.938   0.510
 9622SOL    HW129765   5.486   0.972   0.481
 9622SOL    HW229766   5.564   0.851   0.557
 9623SOL     OW29767   4.118   5.144   5.233
 9623SOL    HW129768   4.164   5.113   5.317
 9623SOL    HW229769   4.153   5.091   5.155
 9624SOL     OW29770   6.316   4.326   3.695
 9624SOL    HW129771   6.264   4.320   3.609
 9624SOL    HW229772   6.308   4.419   3.732
 9625SOL     OW29773   5.313   5.221   6.937
 9625SOL    HW129774   5.255   5.181   7.008
 9625SOL    HW229775   5.340   5.314   6.965
 9626SOL     OW29776   2.312   6.227   0.138
 9626SOL    HW129777   2.237   6.290   0.119
 9626SOL    HW229778   2.373   6.223   0.059
 9627SOL     OW29779   6.905   3.819   3.859
 9627SOL    HW129780   6.876   3.763   3.937
 9627SOL    HW229781   6.841   3.895   3.848
 9628SOL     OW29782   6.347   4.598   0.448
 9628SOL    HW129783   6.440   4.624   0.425
 9628SOL    HW229784   6.348   4.520   0.511
 9629SOL     OW29785   0.008   6.287   3.001
 9629SOL    HW129786   6.999   6.198   2.966
 9629SOL    HW229787   0.092   6.314   2.953
 9630SOL     OW29788   6.359   6.449   4.977
 9630SOL    HW129789   6.318   6.472   4.889
 9630SOL    HW229790   6.350   6.351   4.993
 9631SOL     OW29791   5.282   1.432   0.130
 9631SOL    HW129792   5.185   1.409   0.133
 9631SOL    HW229793   5.307   1.481   0.214
 9632SOL     OW29794   1.943   5.306   2.157
 9632SOL    HW129795   1.867   5.287   2.219
 9632SOL    HW229796   2.015   5.354   2.206
 9633SOL     OW29797   4.132   4.697   0.325
 9633SOL    HW129798   4.191   4.616   0.332
 9633SOL    HW229799   4.065   4.683   0.252
 9634SOL     OW29800   0.308   6.470   4.436
 9634SOL    HW129801   0.220   6.496   4.396
 9634SOL    HW229802   0.379   6.474   4.366
 9635SOL     OW29803   2.513   4.641   5.686
 9635SOL    HW129804   2.510   4.738   5.712
 9635SOL    HW229805   2.460   4.587   5.751
 9636SOL     OW29806   4.558   1.934   6.250
 9636SOL    HW129807   4.463   1.917   6.223
 9636SOL    HW229808   4.581   1.878   6.329
 9637SOL     OW29809   3.261   2.453   0.317
 9637SOL    HW129810   3.205   2.534   0.334
 9637SOL    HW229811   3.264   2.435   0.219
 9638SOL     OW29812   0.200   3.746   6.261
 9638SOL    HW129813   0.252   3.786   6.184
 9638SOL    HW229814   0.104   3.771   6.252
 9639SOL     OW29815   4.504   1.891   2.231
 9639SOL    HW129816   4.470   1.850   2.147
 9639SOL    HW229817   4.580   1.836   2.267
 9640SOL     OW29818   3.231   0.876   2.898
 9640SOL    HW129819   3.277   0.917   2.977
 9640SOL    HW229820   3.139   0.846   2.925
 9641SOL     OW29821   5.566   5.253   1.561
 9641SOL    HW129822   5.599   5.286   1.650
 9641SOL    HW229823   5.643   5.249   1.497
 9642SOL     OW29824   2.113   5.602   4.672
 9642SOL    HW129825   2.060   5.518   4.664
 9642SOL    HW229826   2.172   5.612   4.592
 9643SOL     OW29827   5.894   4.774   3.751
 9643SOL    HW129828   5.963   4.839   3.783
 9643SOL    HW229829   5.933   4.682   3.749
 9644SOL     OW29830   0.442   4.813   4.778
 9644SOL    HW129831   0.486   4.889   4.731
 9644SOL    HW229832   0.425   4.739   4.714
 9645SOL     OW29833   3.000   4.861   3.960
 9645SOL    HW129834   3.098   4.844   3.971
 9645SOL    HW229835   2.951   4.820   4.037
 9646SOL     OW29836   2.585   4.534   2.295
 9646SOL    HW129837   2.684   4.525   2.285
 9646SOL    HW229838   2.542   4.528   2.204
 9647SOL     OW29839   0.557   5.642   2.436
 9647SOL    HW129840   0.611   5.714   2.394
 9647SOL    HW229841   0.617   5.567   2.463
 9648SOL     OW29842   3.097   1.744   0.068
 9648SOL    HW129843   3.059   1.780   0.153
 9648SOL    HW229844   3.025   1.699   0.016
 9649SOL     OW29845   2.325   4.524   6.997
 9649SOL    HW129846   2.411   4.531   0.025
 9649SOL    HW229847   2.301   4.614   6.960
 9650SOL     OW29848   4.782   4.570   2.934
 9650SOL    HW129849   4.758   4.649   2.991
 9650SOL    HW229850   4.740   4.580   2.843
 9651SOL     OW29851   5.676   1.412   0.963
 9651SOL    HW129852   5.672   1.501   0.918
 9651SOL    HW229853   5.768   1.374   0.955
 9652SOL     OW29854   1.833   4.115   1.354
 9652SOL    HW129855   1.907   4.047   1.354
 9652SOL    HW229856   1.794   4.123   1.445
 9653SOL     OW29857   4.595   5.182   5.277
 9653SOL    HW129858   4.682   5.135   5.292
 9653SOL    HW229859   4.561   5.218   5.364
 9654SOL     OW29860   3.332   3.236   2.561
 9654SOL    HW129861   3.250   3.190   2.525
 9654SOL    HW229862   3.353   3.199   2.652
 9655SOL     OW29863   0.308   1.607   0.582
 9655SOL    HW129864   0.396   1.560   0.590
 9655SOL    HW229865   0.258   1.599   0.668
 9656SOL     OW29866   4.521   1.893   0.565
 9656SOL    HW129867   4.488   1.799   0.572
 9656SOL    HW229868   4.518   1.923   0.470
 9657SOL     OW29869   6.033   2.916   3.517
 9657SOL    HW129870   6.079   2.992   3.563
 9657SOL    HW229871   6.049   2.922   3.419
 9658SOL     OW29872   5.637   2.199   2.316
 9658SOL    HW129873   5.544   2.162   2.314
 9658SOL    HW229874   5.679   2.178   2.404
 9659SOL     OW29875   0.230   2.606   6.991
 9659SOL    HW129876   0.137   2.640   6.976
 9659SOL    HW229877   0.293   2.683   6.998
 9660SOL     OW29878   0.868   6.784   2.308
 9660SOL    HW129879   0.896   6.876   2.278
 9660SOL    HW229880   0.949   6.727   2.320
 9661SOL     OW29881   3.221   6.072   1.340
 9661SOL    HW129882   3.258   6.028   1.258
 9661SOL    HW229883   3.247   6.168   1.341
 9662SOL     OW29884   4.296   3.162   5.667
 9662SOL    HW129885   4.264   3.255   5.647
 9662SOL    HW229886   4.246   3.097   5.611
 9663SOL     OW29887   6.449   6.969   3.026
 9663SOL    HW129888   6.353   6.975   3.053
 9663SOL    HW229889   6.490   0.038   3.031
 9664SOL     OW29890   5.514   5.875   4.790
 9664SOL    HW129891   5.437   5.822   4.754
 9664SOL    HW229892   5.593   5.862   4.730
 9665SOL     OW29893   5.662   6.154   6.733
 9665SOL    HW129894   5.675   6.241   6.686
 9665SOL    HW229895   5.728   6.145   6.808
 9666SOL     OW29896   6.625   3.938   2.169
 9666SOL    HW129897   6.601   3.877   2.094
 9666SOL    HW229898   6.675   3.888   2.239
 9667SOL     OW29899   4.368   3.282   6.459
 9667SOL    HW129900   4.285   3.338   6.453
 9667SOL    HW229901   4.342   3.188   6.482
 9668SOL     OW29902   6.633   0.317   6.322
 9668SOL    HW129903   6.608   0.366   6.406
 9668SOL    HW229904   6.556   0.318   6.259
 9669SOL     OW29905   2.127   6.844   2.459
 9669SOL    HW129906   2.124   6.923   2.520
 9669SOL    HW229907   2.037   6.802   2.453
 9670SOL     OW29908   6.526   4.952   6.309
 9670SOL    HW129909   6.552   5.019   6.379
 9670SOL    HW229910   6.501   4.866   6.354
 9671SOL     OW29911   6.373   4.426   0.207
 9671SOL    HW129912   6.358   4.434   0.305
 9671SOL    HW229913   6.310   4.359   0.169
 9672SOL     OW29914   1.558   5.743   3.951
 9672SOL    HW129915   1.518   5.816   3.895
 9672SOL    HW229916   1.538   5.655   3.910
 9673SOL     OW29917   4.689   3.244   1.348
 9673SOL    HW129918   4.707   3.159   1.399
 9673SOL    HW229919   4.605   3.285   1.382
 9674SOL     OW29920   2.650   6.648   2.914
 9674SOL    HW129921   2.694   6.560   2.936
 9674SOL    HW229922   2.644   6.658   2.815
 9675SOL     OW29923   5.459   2.643   6.994
 9675SOL    HW129924   5.497   2.731   7.021
 9675SOL    HW229925   5.526   2.592   6.942
 9676SOL     OW29926   1.612   3.787   5.766
 9676SOL    HW129927   1.555   3.710   5.797
 9676SOL    HW229928   1.707   3.769   5.790
 9677SOL     OW29929   6.996   5.404   4.860
 9677SOL    HW129930   6.951   5.396   4.771
 9677SOL    HW229931   6.930   5.436   4.928
 9678SOL     OW29932   2.926   3.630   3.484
 9678SOL    HW129933   2.991   3.637   3.409
 9678SOL    HW229934   2.915   3.720   3.527
 9679SOL     OW29935   3.394   1.230   3.498
 9679SOL    HW129936   3.400   1.324   3.464
 9679SOL    HW229937   3.439   1.169   3.433
 9680SOL     OW29938   4.732   1.013   2.768
 9680SOL    HW129939   4.649   1.023   2.714
 9680SOL    HW229940   4.749   0.917   2.785
 9681SOL     OW29941   2.912   1.724   0.547
 9681SOL    HW129942   2.850   1.802   0.556
 9681SOL    HW229943   2.880   1.650   0.606
 9682SOL     OW29944   5.101   4.630   3.696
 9682SOL    HW129945   5.187   4.678   3.678
 9682SOL    HW229946   5.066   4.657   3.786
 9683SOL     OW29947   2.876   5.511   1.060
 9683SOL    HW129948   2.838   5.420   1.046
 9683SOL    HW229949   2.929   5.513   1.144
 9684SOL     OW29950   0.128   3.306   6.244
 9684SOL    HW129951   0.226   3.285   6.238
 9684SOL    HW229952   0.114   3.375   6.315
 9685SOL     OW29953   3.536   4.808   1.048
 9685SOL    HW129954   3.510   4.714   1.069
 9685SOL    HW229955   3.501   4.869   1.120
 9686SOL     OW29956   6.539   1.860   0.184
 9686SOL    HW129957   6.459   1.801   0.177
 9686SOL    HW229958   6.609   1.815   0.239
 9687SOL     OW29959   2.006   0.744   4.436
 9687SOL    HW129960   2.006   0.774   4.531
 9687SOL    HW229961   2.095   0.703   4.414
 9688SOL     OW29962   0.996   3.409   2.473
 9688SOL    HW129963   0.979   3.478   2.544
 9688SOL    HW229964   0.923   3.413   2.405
 9689SOL     OW29965   0.711   4.804   5.819
 9689SOL    HW129966   0.695   4.789   5.721
 9689SOL    HW229967   0.745   4.896   5.833
 9690SOL     OW29968   6.101   5.338   0.060
 9690SOL    HW129969   6.149   5.295   0.136
 9690SOL    HW229970   6.144   5.427   0.040
 9691SOL     OW29971   3.367   5.221   0.873
 9691SOL    HW129972   3.290   5.162   0.895
 9691SOL    HW229973   3.447   5.191   0.924
 9692SOL     OW29974   3.595   5.658   2.145
 9692SOL    HW129975   3.653   5.649   2.064
 9692SOL    HW229976   3.601   5.574   2.199
 9693SOL     OW29977   5.651   4.698   2.299
 9693SOL    HW129978   5.639   4.727   2.204
 9693SOL    HW229979   5.634   4.600   2.306
 9694SOL     OW29980   2.119   0.756   0.745
 9694SOL    HW129981   2.100   0.671   0.697
 9694SOL    HW229982   2.065   0.760   0.829
 9695SOL     OW29983   6.756   2.952   3.015
 9695SOL    HW129984   6.817   2.893   3.068
 9695SOL    HW229985   6.676   2.975   3.071
 9696SOL     OW29986   5.350   3.424   1.092
 9696SOL    HW129987   5.393   3.434   1.003
 9696SOL    HW229988   5.364   3.508   1.145
 9697SOL     OW29989   0.335   5.386   6.933
 9697SOL    HW129990   0.318   5.299   6.888
 9697SOL    HW229991   0.296   5.460   6.879
 9698SOL     OW29992   4.685   1.548   6.000
 9698SOL    HW129993   4.690   1.647   5.988
 9698SOL    HW229994   4.691   1.525   6.097
 9699SOL     OW29995   6.516   5.500   6.841
 9699SOL    HW129996   6.585   5.572   6.849
 9699SOL    HW229997   6.506   5.454   6.929
 9700SOL     OW29998   4.832   5.622   5.034
 9700SOL    HW129999   4.828   5.607   5.133
 9700SOL    HW230000   4.784   5.706   5.011
 9701SOL     OW30001   4.362   4.845   6.056
 9701SOL    HW130002   4.366   4.932   6.007
 9701SOL    HW230003   4.452   4.801   6.055
 9702SOL     OW30004   4.657   0.286   6.481
 9702SOL    HW130005   4.562   0.254   6.476
 9702SOL    HW230006   4.718   0.207   6.480
 9703SOL     OW30007   4.898   3.769   3.781
 9703SOL    HW130008   4.877   3.850   3.727
 9703SOL    HW230009   4.983   3.728   3.749
 9704SOL     OW30010   3.720   0.264   1.937
 9704SOL    HW130011   3.765   0.307   1.858
 9704SOL    HW230012   3.653   0.326   1.975
 9705SOL     OW30013   5.338   4.578   5.832
 9705SOL    HW130014   5.425   4.627   5.821
 9705SOL    HW230015   5.279   4.597   5.755
 9706SOL     OW30016   1.493   3.347   0.057
 9706SOL    HW130017   1.553   3.273   0.087
 9706SOL    HW230018   1.541   3.435   0.066
 9707SOL     OW30019   6.945   4.624   2.531
 9707SOL    HW130020   7.015   4.583   2.472
 9707SOL    HW230021   6.988   4.686   2.596
 9708SOL     OW30022   1.829   1.620   4.140
 9708SOL    HW130023   1.758   1.673   4.186
 9708SOL    HW230024   1.887   1.574   4.207
 9709SOL     OW30025   5.291   6.565   2.967
 9709SOL    HW130026   5.228   6.507   3.019
 9709SOL    HW230027   5.292   6.657   3.006
 9710SOL     OW30028   6.726   1.677   1.519
 9710SOL    HW130029   6.685   1.586   1.531
 9710SOL    HW230030   6.745   1.717   1.608
 9711SOL     OW30031   2.839   5.518   6.043
 9711SOL    HW130032   2.776   5.579   5.995
 9711SOL    HW230033   2.907   5.483   5.979
 9712SOL     OW30034   5.609   3.724   6.428
 9712SOL    HW130035   5.703   3.720   6.463
 9712SOL    HW230036   5.593   3.814   6.387
 9713SOL     OW30037   0.853   4.563   3.596
 9713SOL    HW130038   0.906   4.637   3.638
 9713SOL    HW230039   0.785   4.529   3.661
 9714SOL     OW30040   4.013   6.459   6.439
 9714SOL    HW130041   4.093   6.420   6.484
 9714SOL    HW230042   4.007   6.557   6.459
 9715SOL     OW30043   5.594   4.016   6.381
 9715SOL    HW130044   5.552   4.064   6.304
 9715SOL    HW230045   5.684   4.055   6.400
 9716SOL     OW30046   3.955   4.303   6.754
 9716SOL    HW130047   3.973   4.284   6.851
 9716SOL    HW230048   3.906   4.391   6.746
 9717SOL     OW30049   5.757   5.919   6.126
 9717SOL    HW130050   5.730   5.831   6.164
 9717SOL    HW230051   5.854   5.935   6.146
 9718SOL     OW30052   4.979   2.991   0.442
 9718SOL    HW130053   4.953   2.935   0.364
 9718SOL    HW230054   4.898   3.038   0.478
 9719SOL     OW30055   6.099   1.353   5.766
 9719SOL    HW130056   6.001   1.341   5.745
 9719SOL    HW230057   6.129   1.278   5.825
 9720SOL     OW30058   6.884   5.234   2.029
 9720SOL    HW130059   6.867   5.319   1.979
 9720SOL    HW230060   6.963   5.245   2.089
 9721SOL     OW30061   6.760   1.671   0.833
 9721SOL    HW130062   6.818   1.698   0.756
 9721SOL    HW230063   6.769   1.739   0.906
 9722SOL     OW30064   5.722   0.978   4.145
 9722SOL    HW130065   5.715   0.938   4.053
 9722SOL    HW230066   5.796   0.933   4.195
 9723SOL     OW30067   2.687   6.692   2.635
 9723SOL    HW130068   2.713   6.597   2.614
 9723SOL    HW230069   2.607   6.716   2.580
 9724SOL     OW30070   1.896   4.701   0.309
 9724SOL    HW130071   1.976   4.675   0.363
 9724SOL    HW230072   1.829   4.746   0.367
 9725SOL     OW30073   4.055   5.003   6.082
 9725SOL    HW130074   4.057   4.908   6.053
 9725SOL    HW230075   3.962   5.028   6.109
 9726SOL     OW30076   5.397   1.084   4.495
 9726SOL    HW130077   5.417   1.176   4.528
 9726SOL    HW230078   5.482   1.031   4.493
 9727SOL     OW30079   1.585   2.996   6.687
 9727SOL    HW130080   1.660   2.979   6.622
 9727SOL    HW230081   1.619   3.049   6.764
 9728SOL     OW30082   0.624   0.874   5.869
 9728SOL    HW130083   0.526   0.892   5.877
 9728SOL    HW230084   0.638   0.787   5.821
 9729SOL     OW30085   0.707   4.043   4.080
 9729SOL    HW130086   0.697   4.035   4.179
 9729SOL    HW230087   0.781   3.983   4.049
 9730SOL     OW30088   1.171   4.028   3.922
 9730SOL    HW130089   1.248   4.068   3.972
 9730SOL    HW230090   1.094   4.091   3.925
 9731SOL     OW30091   4.979   4.535   0.954
 9731SOL    HW130092   4.954   4.549   1.049
 9731SOL    HW230093   4.959   4.440   0.928
 9732SOL     OW30094   6.209   5.652   3.363
 9732SOL    HW130095   6.267   5.675   3.441
 9732SOL    HW230096   6.188   5.736   3.312
 9733SOL     OW30097   6.182   5.092   0.579
 9733SOL    HW130098   6.281   5.097   0.568
 9733SOL    HW230099   6.160   5.069   0.674
 9734SOL     OW30100   6.850   1.748   1.761
 9734SOL    HW130101   6.921   1.679   1.770
 9734SOL    HW230102   6.799   1.755   1.847
 9735SOL     OW30103   1.965   4.160   4.380
 9735SOL    HW130104   1.951   4.185   4.285
 9735SOL    HW230105   2.053   4.115   4.391
 9736SOL     OW30106   6.480   1.038   6.886
 9736SOL    HW130107   6.400   1.061   6.831
 9736SOL    HW230108   6.475   1.088   6.973
 9737SOL     OW30109   5.460   2.740   3.470
 9737SOL    HW130110   5.367   2.727   3.505
 9737SOL    HW230111   5.463   2.823   3.415
 9738SOL     OW30112   1.781   0.445   1.400
 9738SOL    HW130113   1.692   0.417   1.436
 9738SOL    HW230114   1.854   0.403   1.455
 9739SOL     OW30115   5.876   5.034   2.109
 9739SOL    HW130116   5.903   4.937   2.102
 9739SOL    HW230117   5.920   5.085   2.035
 9740SOL     OW30118   6.489   1.755   3.512
 9740SOL    HW130119   6.416   1.736   3.446
 9740SOL    HW230120   6.550   1.826   3.474
 9741SOL     OW30121   4.062   0.813   2.373
 9741SOL    HW130122   4.157   0.817   2.406
 9741SOL    HW230123   4.001   0.854   2.441
 9742SOL     OW30124   4.168   0.174   0.888
 9742SOL    HW130125   4.236   0.247   0.897
 9742SOL    HW230126   4.168   0.119   0.971
 9743SOL     OW30127   0.023   2.505   5.021
 9743SOL    HW130128   6.963   2.541   4.978
 9743SOL    HW230129   0.099   2.569   5.005
 9744SOL     OW30130   1.201   7.004   2.761
 9744SOL    HW130131   1.171   0.008   2.669
 9744SOL    HW230132   1.122   6.996   2.821
 9745SOL     OW30133   5.354   3.343   5.958
 9745SOL    HW130134   5.257   3.339   5.934
 9745SOL    HW230135   5.375   3.273   6.027
 9746SOL     OW30136   6.424   0.385   5.696
 9746SOL    HW130137   6.339   0.348   5.735
 9746SOL    HW230138   6.485   0.411   5.771
 9747SOL     OW30139   2.230   0.984   1.807
 9747SOL    HW130140   2.306   0.944   1.755
 9747SOL    HW230141   2.261   1.006   1.899
 9748SOL     OW30142   0.205   1.235   3.484
 9748SOL    HW130143   0.295   1.267   3.456
 9748SOL    HW230144   0.134   1.296   3.447
 9749SOL     OW30145   2.568   0.607   4.777
 9749SOL    HW130146   2.544   0.697   4.816
 9749SOL    HW230147   2.488   0.548   4.781
 9750SOL     OW30148   5.528   4.236   3.222
 9750SOL    HW130149   5.595   4.292   3.271
 9750SOL    HW230150   5.490   4.167   3.283
 9751SOL     OW30151   1.490   0.675   1.352
 9751SOL    HW130152   1.572   0.730   1.364
 9751SOL    HW230153   1.427   0.693   1.428
 9752SOL     OW30154   4.570   2.137   5.575
 9752SOL    HW130155   4.570   2.053   5.520
 9752SOL    HW230156   4.491   2.136   5.637
 9753SOL     OW30157   6.044   5.921   6.200
 9753SOL    HW130158   6.045   5.886   6.106
 9753SOL    HW230159   6.129   5.893   6.246
 9754SOL     OW30160   1.491   1.281   6.340
 9754SOL    HW130161   1.587   1.268   6.314
 9754SOL    HW230162   1.485   1.350   6.412
 9755SOL     OW30163   3.282   3.524   4.358
 9755SOL    HW130164   3.262   3.470   4.440
 9755SOL    HW230165   3.357   3.587   4.378
 9756SOL     OW30166   6.741   3.509   0.798
 9756SOL    HW130167   6.671   3.574   0.768
 9756SOL    HW230168   6.698   3.432   0.845
 9757SOL     OW30169   5.504   3.473   4.000
 9757SOL    HW130170   5.460   3.412   3.934
 9757SOL    HW230171   5.527   3.422   4.083
 9758SOL     OW30172   2.528   6.787   0.005
 9758SOL    HW130173   2.522   6.811   0.102
 9758SOL    HW230174   2.618   6.748   7.008
 9759SOL     OW30175   1.347   0.232   0.163
 9759SOL    HW130176   1.292   0.304   0.205
 9759SOL    HW230177   1.444   0.255   0.171
 9760SOL     OW30178   4.530   2.531   4.992
 9760SOL    HW130179   4.535   2.471   4.912
 9760SOL    HW230180   4.569   2.620   4.970
 9761SOL     OW30181   5.940   1.580   2.858
 9761SOL    HW130182   5.847   1.562   2.827
 9761SOL    HW230183   5.937   1.633   2.943
 9762SOL     OW30184   3.414   1.103   4.354
 9762SOL    HW130185   3.364   1.049   4.422
 9762SOL    HW230186   3.506   1.066   4.342
 9763SOL     OW30187   5.271   2.107   1.979
 9763SOL    HW130188   5.307   2.079   1.890
 9763SOL    HW230189   5.219   2.192   1.969
 9764SOL     OW30190   0.328   2.837   2.667
 9764SOL    HW130191   0.262   2.824   2.593
 9764SOL    HW230192   0.308   2.922   2.715
 9765SOL     OW30193   6.941   1.030   3.870
 9765SOL    HW130194   6.944   1.099   3.797
 9765SOL    HW230195   6.849   0.992   3.876
 9766SOL     OW30196   3.306   0.003   2.368
 9766SOL    HW130197   3.254   6.981   2.295
 9766SOL    HW230198   3.322   6.960   2.442
 9767SOL     OW30199   4.703   0.653   4.671
 9767SOL    HW130200   4.717   0.716   4.747
 9767SOL    HW230201   4.732   0.697   4.586
 9768SOL     OW30202   5.496   1.870   2.686
 9768SOL    HW130203   5.496   1.771   2.673
 9768SOL    HW230204   5.502   1.891   2.783
 9769SOL     OW30205   3.865   0.828   2.626
 9769SOL    HW130206   3.819   0.775   2.698
 9769SOL    HW230207   3.824   0.919   2.620
 9770SOL     OW30208   5.652   0.863   6.456
 9770SOL    HW130209   5.679   0.931   6.388
 9770SOL    HW230210   5.582   0.802   6.417
 9771SOL     OW30211   3.163   5.609   0.190
 9771SOL    HW130212   3.103   5.658   0.253
 9771SOL    HW230213   3.151   5.511   0.201
 9772SOL     OW30214   1.667   6.748   2.684
 9772SOL    HW130215   1.595   6.773   2.620
 9772SOL    HW230216   1.741   6.702   2.635
 9773SOL     OW30217   5.588   5.445   4.236
 9773SOL    HW130218   5.511   5.400   4.281
 9773SOL    HW230219   5.671   5.431   4.290
 9774SOL     OW30220   0.217   4.919   2.416
 9774SOL    HW130221   0.290   4.894   2.353
 9774SOL    HW230222   0.239   5.004   2.462
 9775SOL     OW30223   2.963   0.501   3.162
 9775SOL    HW130224   2.964   0.536   3.068
 9775SOL    HW230225   3.032   0.549   3.216
 9776SOL     OW30226   1.743   4.576   4.472
 9776SOL    HW130227   1.744   4.488   4.426
 9776SOL    HW230228   1.668   4.578   4.539
 9777SOL     OW30229   6.222   5.656   6.534
 9777SOL    HW130230   6.130   5.638   6.567
 9777SOL    HW230231   6.278   5.574   6.544
 9778SOL     OW30232   0.201   1.055   3.861
 9778SOL    HW130233   0.212   1.049   3.961
 9778SOL    HW230234   0.105   1.046   3.837
 9779SOL     OW30235   1.541   1.545   5.246
 9779SOL    HW130236   1.584   1.474   5.191
 9779SOL    HW230237   1.441   1.539   5.236
 9780SOL     OW30238   2.792   1.655   1.178
 9780SOL    HW130239   2.785   1.740   1.230
 9780SOL    HW230240   2.703   1.610   1.175
 9781SOL     OW30241   1.768   4.018   4.518
 9781SOL    HW130242   1.842   4.072   4.479
 9781SOL    HW230243   1.697   4.079   4.553
 9782SOL     OW30244   6.491   1.620   1.198
 9782SOL    HW130245   6.557   1.689   1.228
 9782SOL    HW230246   6.422   1.606   1.269
 9783SOL     OW30247   4.549   2.218   3.291
 9783SOL    HW130248   4.620   2.209   3.361
 9783SOL    HW230249   4.587   2.199   3.201
 9784SOL     OW30250   3.813   1.138   4.532
 9784SOL    HW130251   3.882   1.205   4.556
 9784SOL    HW230252   3.808   1.129   4.432
 9785SOL     OW30253   0.470   3.719   5.770
 9785SOL    HW130254   0.505   3.755   5.684
 9785SOL    HW230255   0.526   3.640   5.798
 9786SOL     OW30256   2.264   4.272   6.922
 9786SOL    HW130257   2.171   4.279   6.959
 9786SOL    HW230258   2.314   4.356   6.944
 9787SOL     OW30259   4.667   4.268   1.740
 9787SOL    HW130260   4.760   4.251   1.773
 9787SOL    HW230261   4.602   4.256   1.816
 9788SOL     OW30262   0.598   0.658   3.742
 9788SOL    HW130263   0.614   0.565   3.710
 9788SOL    HW230264   0.510   0.690   3.706
 9789SOL     OW30265   0.754   5.566   0.790
 9789SOL    HW130266   0.710   5.637   0.736
 9789SOL    HW230267   0.709   5.478   0.772
 9790SOL     OW30268   6.237   4.533   6.929
 9790SOL    HW130269   6.252   4.627   6.960
 9790SOL    HW230270   6.151   4.528   6.878
 9791SOL     OW30271   0.832   1.022   2.371
 9791SOL    HW130272   0.930   1.000   2.366
 9791SOL    HW230273   0.802   1.023   2.466
 9792SOL     OW30274   4.966   5.149   1.050
 9792SOL    HW130275   4.876   5.166   1.090
 9792SOL    HW230276   5.036   5.152   1.122
 9793SOL     OW30277   4.742   6.102   3.393
 9793SOL    HW130278   4.824   6.085   3.339
 9793SOL    HW230279   4.760   6.174   3.460
 9794SOL     OW30280   6.991   4.303   0.927
 9794SOL    HW130281   0.017   4.337   1.008
 9794SOL    HW230282   0.034   4.295   0.852
 9795SOL     OW30283   2.160   1.758   4.391
 9795SOL    HW130284   2.225   1.834   4.402
 9795SOL    HW230285   2.195   1.695   4.321
 9796SOL     OW30286   3.755   2.281   1.329
 9796SOL    HW130287   3.775   2.184   1.316
 9796SOL    HW230288   3.771   2.305   1.425
 9797SOL     OW30289   2.260   5.483   6.304
 9797SOL    HW130290   2.194   5.418   6.265
 9797SOL    HW230291   2.348   5.471   6.260
 9798SOL     OW30292   3.081   0.306   1.657
 9798SOL    HW130293   3.069   0.397   1.619
 9798SOL    HW230294   2.991   0.266   1.676
 9799SOL     OW30295   4.119   3.517   3.967
 9799SOL    HW130296   4.131   3.580   4.043
 9799SOL    HW230297   4.114   3.423   4.002
 9800SOL     OW30298   3.934   6.712   4.609
 9800SOL    HW130299   3.886   6.644   4.665
 9800SOL    HW230300   4.007   6.666   4.557
 9801SOL     OW30301   4.787   3.735   0.115
 9801SOL    HW130302   4.872   3.683   0.122
 9801SOL    HW230303   4.716   3.677   0.074
 9802SOL     OW30304   0.244   3.637   1.396
 9802SOL    HW130305   0.212   3.722   1.355
 9802SOL    HW230306   0.299   3.659   1.477
 9803SOL     OW30307   0.636   2.077   6.714
 9803SOL    HW130308   0.617   2.161   6.664
 9803SOL    HW230309   0.628   2.094   6.812
 9804SOL     OW30310   1.368   6.893   2.960
 9804SOL    HW130311   1.302   6.909   2.887
 9804SOL    HW230312   1.366   6.969   3.025
 9805SOL     OW30313   0.972   0.578   5.023
 9805SOL    HW130314   1.022   0.585   5.109
 9805SOL    HW230315   1.020   0.629   4.952
 9806SOL     OW30316   1.262   1.355   0.653
 9806SOL    HW130317   1.325   1.282   0.679
 9806SOL    HW230318   1.300   1.405   0.575
 9807SOL     OW30319   2.645   3.734   0.137
 9807SOL    HW130320   2.657   3.735   0.038
 9807SOL    HW230321   2.605   3.647   0.165
 9808SOL     OW30322   4.816   1.001   5.699
 9808SOL    HW130323   4.803   1.100   5.706
 9808SOL    HW230324   4.909   0.978   5.726
 9809SOL     OW30325   0.627   2.111   6.993
 9809SOL    HW130326   0.579   2.035   0.016
 9809SOL    HW230327   0.721   2.116   0.005
 9810SOL     OW30328   2.120   3.074   3.542
 9810SOL    HW130329   2.115   3.142   3.469
 9810SOL    HW230330   2.036   3.077   3.596
 9811SOL     OW30331   5.564   4.656   3.507
 9811SOL    HW130332   5.606   4.745   3.524
 9811SOL    HW230333   5.476   4.669   3.462
 9812SOL     OW30334   3.400   2.027   5.711
 9812SOL    HW130335   3.309   2.069   5.707
 9812SOL    HW230336   3.403   1.963   5.788
 9813SOL     OW30337   5.586   1.079   6.969
 9813SOL    HW130338   5.598   0.998   0.004
 9813SOL    HW230339   5.621   1.060   6.877
 9814SOL     OW30340   0.137   0.428   0.425
 9814SOL    HW130341   0.123   0.520   0.387
 9814SOL    HW230342   0.055   0.373   0.410
 9815SOL     OW30343   5.415   3.747   3.584
 9815SOL    HW130344   5.502   3.767   3.538
 9815SOL    HW230345   5.430   3.743   3.683
 9816SOL     OW30346   6.880   1.171   6.719
 9816SOL    HW130347   6.903   1.233   6.644
 9816SOL    HW230348   6.827   1.094   6.683
 9817SOL     OW30349   2.416   6.418   2.910
 9817SOL    HW130350   2.495   6.375   2.867
 9817SOL    HW230351   2.441   6.450   3.001
 9818SOL     OW30352   1.313   0.899   4.921
 9818SOL    HW130353   1.241   0.952   4.966
 9818SOL    HW230354   1.399   0.912   4.970
 9819SOL     OW30355   4.819   2.608   4.192
 9819SOL    HW130356   4.791   2.681   4.255
 9819SOL    HW230357   4.910   2.628   4.156
 9820SOL     OW30358   4.578   3.251   6.264
 9820SOL    HW130359   4.535   3.173   6.218
 9820SOL    HW230360   4.515   3.289   6.331
 9821SOL     OW30361   5.327   0.463   0.602
 9821SOL    HW130362   5.227   0.464   0.590
 9821SOL    HW230363   5.369   0.420   0.522
 9822SOL     OW30364   2.723   5.679   3.545
 9822SOL    HW130365   2.794   5.743   3.575
 9822SOL    HW230366   2.753   5.632   3.462
 9823SOL     OW30367   2.590   0.387   0.963
 9823SOL    HW130368   2.571   0.357   1.056
 9823SOL    HW230369   2.507   0.425   0.922
 9824SOL     OW30370   1.987   5.349   4.164
 9824SOL    HW130371   1.972   5.415   4.238
 9824SOL    HW230372   2.070   5.297   4.183
 9825SOL     OW30373   5.301   6.340   4.423
 9825SOL    HW130374   5.390   6.300   4.444
 9825SOL    HW230375   5.260   6.291   4.346
 9826SOL     OW30376   4.172   5.395   5.291
 9826SOL    HW130377   4.078   5.417   5.315
 9826SOL    HW230378   4.178   5.299   5.262
 9827SOL     OW30379   1.792   4.277   3.969
 9827SOL    HW130380   1.749   4.190   3.944
 9827SOL    HW230381   1.742   4.353   3.927
 9828SOL     OW30382   3.095   2.332   5.423
 9828SOL    HW130383   3.141   2.383   5.349
 9828SOL    HW230384   3.021   2.388   5.460
 9829SOL     OW30385   4.449   5.737   6.267
 9829SOL    HW130386   4.404   5.700   6.348
 9829SOL    HW230387   4.466   5.664   6.201
 9830SOL     OW30388   4.953   1.369   2.020
 9830SOL    HW130389   4.947   1.463   1.987
 9830SOL    HW230390   4.907   1.308   1.956
 9831SOL     OW30391   1.166   4.991   2.966
 9831SOL    HW130392   1.153   5.074   2.911
 9831SOL    HW230393   1.123   4.913   2.919
 9832SOL     OW30394   5.443   5.646   2.615
 9832SOL    HW130395   5.522   5.658   2.555
 9832SOL    HW230396   5.466   5.676   2.707
 9833SOL     OW30397   3.418   3.503   4.110
 9833SOL    HW130398   3.404   3.409   4.079
 9833SOL    HW230399   3.374   3.516   4.199
 9834SOL     OW30400   2.461   4.545   5.417
 9834SOL    HW130401   2.504   4.564   5.506
 9834SOL    HW230402   2.524   4.493   5.360
 9835SOL     OW30403   3.458   3.135   4.431
 9835SOL    HW130404   3.373   3.127   4.379
 9835SOL    HW230405   3.438   3.156   4.526
 9836SOL     OW30406   0.300   3.795   3.784
 9836SOL    HW130407   0.386   3.761   3.747
 9836SOL    HW230408   0.226   3.773   3.721
 9837SOL     OW30409   4.169   0.931   2.137
 9837SOL    HW130410   4.234   1.006   2.147
 9837SOL    HW230411   4.130   0.908   2.226
 9838SOL     OW30412   1.687   6.819   0.446
 9838SOL    HW130413   1.750   6.742   0.430
 9838SOL    HW230414   1.738   6.895   0.487
 9839SOL     OW30415   5.023   6.371   3.935
 9839SOL    HW130416   5.009   6.450   3.876
 9839SOL    HW230417   5.109   6.382   3.985
 9840SOL     OW30418   5.860   1.917   0.857
 9840SOL    HW130419   5.863   1.845   0.926
 9840SOL    HW230420   5.775   1.969   0.867
 9841SOL     OW30421   1.549   3.982   4.835
 9841SOL    HW130422   1.595   3.968   4.922
 9841SOL    HW230423   1.585   4.065   4.792
 9842SOL     OW30424   3.447   3.258   1.370
 9842SOL    HW130425   3.492   3.343   1.396
 9842SOL    HW230426   3.467   3.188   1.438
 9843SOL     OW30427   0.007   0.495   2.520
 9843SOL    HW130428   6.935   0.485   2.490
 9843SOL    HW230429   0.012   0.490   2.620
 9844SOL     OW30430   5.932   1.349   3.615
 9844SOL    HW130431   5.957   1.316   3.705
 9844SOL    HW230432   6.013   1.352   3.557
 9845SOL     OW30433   1.809   2.319   3.883
 9845SOL    HW130434   1.785   2.350   3.974
 9845SOL    HW230435   1.831   2.222   3.885
 9846SOL     OW30436   3.461   2.580   1.504
 9846SOL    HW130437   3.430   2.663   1.551
 9846SOL    HW230438   3.418   2.500   1.545
 9847SOL     OW30439   3.660   2.884   2.826
 9847SOL    HW130440   3.692   2.812   2.764
 9847SOL    HW230441   3.719   2.888   2.906
 9848SOL     OW30442   4.296   3.864   5.455
 9848SOL    HW130443   4.307   3.910   5.543
 9848SOL    HW230444   4.237   3.784   5.467
 9849SOL     OW30445   1.009   6.872   6.602
 9849SOL    HW130446   0.961   6.820   6.531
 9849SOL    HW230447   0.994   6.828   6.690
 9850SOL     OW30448   6.771   0.762   3.773
 9850SOL    HW130449   6.729   0.841   3.728
 9850SOL    HW230450   6.704   0.688   3.779
 9851SOL     OW30451   1.549   0.386   4.314
 9851SOL    HW130452   1.646   0.398   4.334
 9851SOL    HW230453   1.538   0.328   4.234
 9852SOL     OW30454   2.279   2.002   4.360
 9852SOL    HW130455   2.366   2.032   4.400
 9852SOL    HW230456   2.291   1.988   4.262
 9853SOL     OW30457   5.799   3.735   5.696
 9853SOL    HW130458   5.812   3.832   5.715
 9853SOL    HW230459   5.701   3.716   5.684
 9854SOL     OW30460   0.316   6.162   4.479
 9854SOL    HW130461   0.380   6.168   4.402
 9854SOL    HW230462   0.277   6.252   4.497
 9855SOL     OW30463   1.676   3.311   1.546
 9855SOL    HW130464   1.657   3.275   1.455
 9855SOL    HW230465   1.598   3.292   1.606
 9856SOL     OW30466   4.795   4.006   4.237
 9856SOL    HW130467   4.725   3.940   4.212
 9856SOL    HW230468   4.812   4.068   4.160
 9857SOL     OW30469   4.725   2.766   2.448
 9857SOL    HW130470   4.763   2.791   2.359
 9857SOL    HW230471   4.772   2.683   2.481
 9858SOL     OW30472   6.979   6.700   1.262
 9858SOL    HW130473   0.029   6.638   1.293
 9858SOL    HW230474   6.965   6.688   1.163
 9859SOL     OW30475   6.635   5.854   3.128
 9859SOL    HW130476   6.603   5.809   3.211
 9859SOL    HW230477   6.625   5.792   3.050
 9860SOL     OW30478   1.914   2.355   4.369
 9860SOL    HW130479   1.819   2.363   4.399
 9860SOL    HW230480   1.953   2.270   4.404
 9861SOL     OW30481   2.741   0.642   2.986
 9861SOL    HW130482   2.700   0.711   3.046
 9861SOL    HW230483   2.733   0.672   2.891
 9862SOL     OW30484   2.579   3.540   6.868
 9862SOL    HW130485   2.600   3.442   6.862
 9862SOL    HW230486   2.519   3.566   6.792
 9863SOL     OW30487   3.169   5.568   1.483
 9863SOL    HW130488   3.164   5.505   1.561
 9863SOL    HW230489   3.218   5.651   1.510
 9864SOL     OW30490   3.335   0.726   4.239
 9864SOL    HW130491   3.270   0.802   4.239
 9864SOL    HW230492   3.415   0.750   4.293
 9865SOL     OW30493   1.486   6.692   4.404
 9865SOL    HW130494   1.419   6.755   4.367
 9865SOL    HW230495   1.449   6.599   4.404
 9866SOL     OW30496   5.807   4.659   6.192
 9866SOL    HW130497   5.875   4.733   6.195
 9866SOL    HW230498   5.754   4.659   6.277
 9867SOL     OW30499   6.749   2.043   1.737
 9867SOL    HW130500   6.844   2.025   1.715
 9867SOL    HW230501   6.737   2.140   1.756
 9868SOL     OW30502   0.036   2.767   4.594
 9868SOL    HW130503   0.071   2.803   4.508
 9868SOL    HW230504   6.993   2.693   4.576
 9869SOL     OW30505   0.305   2.630   1.902
 9869SOL    HW130506   0.315   2.595   1.809
 9869SOL    HW230507   0.386   2.608   1.955
 9870SOL     OW30508   4.000   5.672   2.936
 9870SOL    HW130509   4.099   5.670   2.946
 9870SOL    HW230510   3.971   5.599   2.874
 9871SOL     OW30511   6.444   4.593   5.953
 9871SOL    HW130512   6.448   4.611   6.052
 9871SOL    HW230513   6.399   4.505   5.937
 9872SOL     OW30514   3.662   5.734   4.447
 9872SOL    HW130515   3.686   5.639   4.425
 9872SOL    HW230516   3.659   5.788   4.364
 9873SOL     OW30517   2.163   2.799   0.664
 9873SOL    HW130518   2.214   2.870   0.615
 9873SOL    HW230519   2.076   2.836   0.696
 9874SOL     OW30520   6.708   2.762   5.384
 9874SOL    HW130521   6.698   2.862   5.375
 9874SOL    HW230522   6.710   2.738   5.481
 9875SOL     OW30523   6.189   5.734   2.461
 9875SOL    HW130524   6.251   5.677   2.514
 9875SOL    HW230525   6.231   5.823   2.443
 9876SOL     OW30526   5.254   6.940   4.564
 9876SOL    HW130527   5.345   6.969   4.594
 9876SOL    HW230528   5.263   6.879   4.485
 9877SOL     OW30529   0.016   4.629   4.055
 9877SOL    HW130530   0.009   4.643   3.956
 9877SOL    HW230531   0.113   4.628   4.081
 9878SOL     OW30532   2.931   3.266   6.193
 9878SOL    HW130533   2.977   3.177   6.199
 9878SOL    HW230534   2.832   3.252   6.193
 9879SOL     OW30535   5.559   5.181   5.960
 9879SOL    HW130536   5.656   5.187   5.936
 9879SOL    HW230537   5.523   5.271   5.982
 9880SOL     OW30538   2.686   1.198   0.884
 9880SOL    HW130539   2.765   1.249   0.850
 9880SOL    HW230540   2.708   1.101   0.889
 9881SOL     OW30541   0.082   1.602   4.554
 9881SOL    HW130542   0.026   1.519   4.544
 9881SOL    HW230543   0.023   1.679   4.580
 9882SOL     OW30544   2.797   3.832   5.931
 9882SOL    HW130545   2.716   3.777   5.949
 9882SOL    HW230546   2.827   3.817   5.837
 9883SOL     OW30547   0.897   6.456   0.774
 9883SOL    HW130548   0.847   6.423   0.694
 9883SOL    HW230549   0.870   6.550   0.793
 9884SOL     OW30550   4.513   1.249   0.523
 9884SOL    HW130551   4.429   1.218   0.478
 9884SOL    HW230552   4.541   1.337   0.485
 9885SOL     OW30553   0.530   3.247   4.632
 9885SOL    HW130554   0.469   3.219   4.558
 9885SOL    HW230555   0.515   3.344   4.652
 9886SOL     OW30556   0.701   5.787   1.277
 9886SOL    HW130557   0.789   5.810   1.237
 9886SOL    HW230558   0.646   5.737   1.210
 9887SOL     OW30559   3.792   6.829   6.862
 9887SOL    HW130560   3.780   6.731   6.847
 9887SOL    HW230561   3.792   6.877   6.774
 9888SOL     OW30562   5.730   4.877   3.307
 9888SOL    HW130563   5.786   4.873   3.390
 9888SOL    HW230564   5.659   4.947   3.318
 9889SOL     OW30565   6.913   4.274   1.944
 9889SOL    HW130566   6.926   4.226   1.857
 9889SOL    HW230567   6.907   4.208   2.018
 9890SOL     OW30568   0.490   2.373   1.379
 9890SOL    HW130569   0.559   2.386   1.308
 9890SOL    HW230570   0.411   2.325   1.340
 9891SOL     OW30571   6.261   4.275   1.607
 9891SOL    HW130572   6.352   4.313   1.618
 9891SOL    HW230573   6.261   4.208   1.532
 9892SOL     OW30574   1.564   5.517   3.137
 9892SOL    HW130575   1.605   5.594   3.186
 9892SOL    HW230576   1.485   5.549   3.086
 9893SOL     OW30577   6.317   6.844   2.343
 9893SOL    HW130578   6.331   6.777   2.270
 9893SOL    HW230579   6.269   6.924   2.307
 9894SOL     OW30580   2.754   1.788   6.207
 9894SOL    HW130581   2.834   1.763   6.152
 9894SOL    HW230582   2.723   1.879   6.179
 9895SOL     OW30583   5.768   2.800   5.380
 9895SOL    HW130584   5.794   2.760   5.292
 9895SOL    HW230585   5.818   2.754   5.454
 9896SOL     OW30586   5.404   1.736   0.878
 9896SOL    HW130587   5.348   1.812   0.847
 9896SOL    HW230588   5.411   1.667   0.806
 9897SOL     OW30589   4.882   0.346   2.916
 9897SOL    HW130590   4.961   0.403   2.891
 9897SOL    HW230591   4.830   0.392   2.988
 9898SOL     OW30592   0.166   4.573   5.712
 9898SOL    HW130593   0.229   4.521   5.654
 9898SOL    HW230594   0.174   4.543   5.807
 9899SOL     OW30595   6.815   5.717   2.731
 9899SOL    HW130596   6.757   5.795   2.707
 9899SOL    HW230597   6.892   5.748   2.786
 9900SOL     OW30598   1.750   2.992   2.986
 9900SOL    HW130599   1.733   3.051   2.908
 9900SOL    HW230600   1.721   3.038   3.070
 9901SOL     OW30601   1.986   1.150   0.463
 9901SOL    HW130602   2.058   1.199   0.512
 9901SOL    HW230603   2.005   1.052   0.464
 9902SOL     OW30604   4.453   4.040   0.856
 9902SOL    HW130605   4.412   3.962   0.905
 9902SOL    HW230606   4.524   4.006   0.794
 9903SOL     OW30607   5.258   0.060   2.094
 9903SOL    HW130608   5.235   0.157   2.098
 9903SOL    HW230609   5.300   0.039   2.006
 9904SOL     OW30610   7.002   3.788   6.489
 9904SOL    HW130611   0.019   3.879   6.495
 9904SOL    HW230612   0.027   3.726   6.552
 9905SOL     OW30613   1.405   6.680   6.769
 9905SOL    HW130614   1.320   6.644   6.807
 9905SOL    HW230615   1.398   6.683   6.669
 9906SOL     OW30616   2.150   3.539   6.878
 9906SOL    HW130617   2.157   3.636   6.858
 9906SOL    HW230618   2.191   3.486   6.804
 9907SOL     OW30619   1.167   0.578   3.359
 9907SOL    HW130620   1.239   0.588   3.291
 9907SOL    HW230621   1.204   0.595   3.450
 9908SOL     OW30622   0.660   3.500   5.785
 9908SOL    HW130623   0.750   3.539   5.767
 9908SOL    HW230624   0.664   3.442   5.866
 9909SOL     OW30625   3.744   0.443   2.760
 9909SOL    HW130626   3.747   0.540   2.782
 9909SOL    HW230627   3.660   0.422   2.709
 9910SOL     OW30628   0.986   5.213   1.808
 9910SOL    HW130629   0.918   5.186   1.740
 9910SOL    HW230630   1.078   5.199   1.770
 9911SOL     OW30631   4.190   5.890   2.050
 9911SOL    HW130632   4.153   5.982   2.056
 9911SOL    HW230633   4.172   5.841   2.136
 9912SOL     OW30634   4.043   0.936   1.398
 9912SOL    HW130635   4.051   0.932   1.299
 9912SOL    HW230636   3.975   0.870   1.429
 9913SOL     OW30637   6.393   3.525   1.575
 9913SOL    HW130638   6.354   3.616   1.564
 9913SOL    HW230639   6.432   3.515   1.666
 9914SOL     OW30640   0.888   0.413   5.278
 9914SOL    HW130641   0.800   0.365   5.276
 9914SOL    HW230642   0.959   0.355   5.238
 9915SOL     OW30643   4.971   2.635   3.694
 9915SOL    HW130644   4.892   2.686   3.728
 9915SOL    HW230645   4.949   2.538   3.692
 9916SOL     OW30646   2.339   2.080   3.457
 9916SOL    HW130647   2.302   2.001   3.506
 9916SOL    HW230648   2.385   2.140   3.522
 9917SOL     OW30649   3.513   3.601   4.502
 9917SOL    HW130650   3.536   3.518   4.450
 9917SOL    HW230651   3.541   3.589   4.597
 9918SOL     OW30652   0.791   2.244   1.945
 9918SOL    HW130653   0.806   2.292   1.858
 9918SOL    HW230654   0.694   2.246   1.968
 9919SOL     OW30655   2.484   5.759   1.296
 9919SOL    HW130656   2.562   5.808   1.257
 9919SOL    HW230657   2.422   5.731   1.223
 9920SOL     OW30658   4.029   6.754   2.327
 9920SOL    HW130659   3.943   6.795   2.356
 9920SOL    HW230660   4.088   6.739   2.406
 9921SOL     OW30661   4.499   6.916   4.578
 9921SOL    HW130662   4.465   6.822   4.571
 9921SOL    HW230663   4.560   6.935   4.501
 9922SOL     OW30664   4.817   4.808   1.284
 9922SOL    HW130665   4.879   4.732   1.306
 9922SOL    HW230666   4.751   4.778   1.216
 9923SOL     OW30667   0.240   2.841   6.715
 9923SOL    HW130668   0.334   2.837   6.682
 9923SOL    HW230669   0.180   2.798   6.648
 9924SOL     OW30670   4.629   1.702   3.332
 9924SOL    HW130671   4.591   1.795   3.331
 9924SOL    HW230672   4.666   1.680   3.242
 9925SOL     OW30673   1.801   4.879   3.695
 9925SOL    HW130674   1.744   4.843   3.621
 9925SOL    HW230675   1.852   4.959   3.662
 9926SOL     OW30676   3.147   2.406   0.615
 9926SOL    HW130677   3.072   2.358   0.570
 9926SOL    HW230678   3.222   2.420   0.550
 9927SOL     OW30679   1.077   1.939   0.914
 9927SOL    HW130680   1.170   1.914   0.943
 9927SOL    HW230681   1.046   2.019   0.966
 9928SOL     OW30682   5.461   3.681   2.678
 9928SOL    HW130683   5.545   3.628   2.666
 9928SOL    HW230684   5.476   3.774   2.646
 9929SOL     OW30685   3.531   4.175   4.692
 9929SOL    HW130686   3.453   4.237   4.682
 9929SOL    HW230687   3.568   4.181   4.784
 9930SOL     OW30688   0.841   0.420   6.431
 9930SOL    HW130689   0.776   0.383   6.498
 9930SOL    HW230690   0.914   0.353   6.416
 9931SOL     OW30691   6.713   5.358   4.255
 9931SOL    HW130692   6.670   5.274   4.223
 9931SOL    HW230693   6.792   5.336   4.312
 9932SOL     OW30694   2.148   1.585   6.775
 9932SOL    HW130695   2.165   1.508   6.836
 9932SOL    HW230696   2.206   1.577   6.694
 9933SOL     OW30697   1.786   0.986   4.434
 9933SOL    HW130698   1.779   1.073   4.384
 9933SOL    HW230699   1.882   0.967   4.454
 9934SOL     OW30700   6.223   1.519   6.872
 9934SOL    HW130701   6.302   1.561   6.919
 9934SOL    HW230702   6.152   1.499   6.939
 9935SOL     OW30703   2.371   0.752   0.644
 9935SOL    HW130704   2.348   0.808   0.565
 9935SOL    HW230705   2.293   0.750   0.707
 9936SOL     OW30706   6.723   5.310   0.037
 9936SOL    HW130707   6.806   5.267   0.000
 9936SOL    HW230708   6.746   5.359   0.121
 9937SOL     OW30709   1.581   1.315   3.155
 9937SOL    HW130710   1.624   1.270   3.234
 9937SOL    HW230711   1.651   1.344   3.091
 9938SOL     OW30712   5.812   6.781   4.116
 9938SOL    HW130713   5.730   6.806   4.167
 9938SOL    HW230714   5.847   6.860   4.066
 9939SOL     OW30715   2.439   2.649   0.842
 9939SOL    HW130716   2.364   2.583   0.843
 9939SOL    HW230717   2.525   2.601   0.861
 9940SOL     OW30718   1.143   0.147   3.073
 9940SOL    HW130719   1.057   0.102   3.048
 9940SOL    HW230720   1.123   0.237   3.112
 9941SOL     OW30721   2.792   5.840   5.315
 9941SOL    HW130722   2.803   5.939   5.321
 9941SOL    HW230723   2.878   5.799   5.285
 9942SOL     OW30724   4.786   5.664   1.717
 9942SOL    HW130725   4.797   5.753   1.672
 9942SOL    HW230726   4.692   5.632   1.705
 9943SOL     OW30727   1.000   4.006   6.765
 9943SOL    HW130728   1.031   3.942   6.695
 9943SOL    HW230729   1.054   3.991   6.849
 9944SOL     OW30730   0.460   5.124   6.463
 9944SOL    HW130731   0.490   5.159   6.374
 9944SOL    HW230732   0.538   5.121   6.525
 9945SOL     OW30733   5.463   4.232   6.926
 9945SOL    HW130734   5.479   4.324   6.892
 9945SOL    HW230735   5.489   4.165   6.856
 9946SOL     OW30736   6.036   0.259   3.188
 9946SOL    HW130737   6.056   0.181   3.247
 9946SOL    HW230738   5.956   0.238   3.132
 9947SOL     OW30739   2.720   1.488   4.688
 9947SOL    HW130740   2.767   1.510   4.773
 9947SOL    HW230741   2.651   1.557   4.669
 9948SOL     OW30742   6.973   5.779   5.318
 9948SOL    HW130743   6.897   5.828   5.360
 9948SOL    HW230744   6.997   5.699   5.373
 9949SOL     OW30745   6.890   5.298   3.848
 9949SOL    HW130746   6.951   5.284   3.926
 9949SOL    HW230747   6.831   5.218   3.838
 9950SOL     OW30748   6.996   5.935   5.712
 9950SOL    HW130749   0.042   5.962   5.780
 9950SOL    HW230750   7.013   5.983   5.626
 9951SOL     OW30751   1.759   2.248   2.940
 9951SOL    HW130752   1.825   2.249   2.866
 9951SOL    HW230753   1.712   2.160   2.942
 9952SOL     OW30754   1.409   3.709   0.700
 9952SOL    HW130755   1.371   3.632   0.649
 9952SOL    HW230756   1.351   3.729   0.779
 9953SOL     OW30757   5.735   2.932   3.982
 9953SOL    HW130758   5.765   2.892   3.896
 9953SOL    HW230759   5.774   2.881   4.058
 9954SOL     OW30760   1.265   0.112   4.579
 9954SOL    HW130761   1.348   0.133   4.527
 9954SOL    HW230762   1.258   0.013   4.591
 9955SOL     OW30763   3.464   3.732   6.780
 9955SOL    HW130764   3.372   3.766   6.798
 9955SOL    HW230765   3.465   3.682   6.694
 9956SOL     OW30766   0.535   3.318   2.183
 9956SOL    HW130767   0.575   3.227   2.196
 9956SOL    HW230768   0.459   3.311   2.117
 9957SOL     OW30769   5.652   0.388   2.438
 9957SOL    HW130770   5.590   0.315   2.465
 9957SOL    HW230771   5.673   0.445   2.518
 9958SOL     OW30772   3.144   5.990   6.306
 9958SOL    HW130773   3.218   6.002   6.241
 9958SOL    HW230774   3.058   5.975   6.257
 9959SOL     OW30775   4.044   3.748   2.433
 9959SOL    HW130776   4.086   3.780   2.518
 9959SOL    HW230777   4.087   3.662   2.405
 9960SOL     OW30778   0.538   6.443   1.263
 9960SOL    HW130779   0.614   6.385   1.290
 9960SOL    HW230780   0.563   6.539   1.273
 9961SOL     OW30781   1.728   4.465   3.119
 9961SOL    HW130782   1.648   4.493   3.066
 9961SOL    HW230783   1.770   4.545   3.161
 9962SOL     OW30784   4.538   0.883   2.049
 9962SOL    HW130785   4.552   0.796   2.001
 9962SOL    HW230786   4.520   0.866   2.146
 9963SOL     OW30787   2.874   2.424   6.012
 9963SOL    HW130788   2.891   2.519   5.986
 9963SOL    HW230789   2.894   2.364   5.935
 9964SOL     OW30790   4.468   5.125   5.795
 9964SOL    HW130791   4.392   5.138   5.858
 9964SOL    HW230792   4.444   5.163   5.706
 9965SOL     OW30793   3.521   4.863   5.245
 9965SOL    HW130794   3.602   4.895   5.196
 9965SOL    HW230795   3.439   4.899   5.200
 9966SOL     OW30796   1.746   4.762   2.008
 9966SOL    HW130797   1.685   4.823   2.058
 9966SOL    HW230798   1.829   4.745   2.062
 9967SOL     OW30799   5.747   5.105   2.349
 9967SOL    HW130800   5.749   5.078   2.445
 9967SOL    HW230801   5.819   5.057   2.299
 9968SOL     OW30802   3.520   6.018   6.259
 9968SOL    HW130803   3.550   6.060   6.173
 9968SOL    HW230804   3.508   5.920   6.246
 9969SOL     OW30805   1.139   3.348   3.928
 9969SOL    HW130806   1.223   3.318   3.972
 9969SOL    HW230807   1.145   3.330   3.830
 9970SOL     OW30808   0.212   4.689   2.529
 9970SOL    HW130809   0.213   4.701   2.628
 9970SOL    HW230810   0.208   4.779   2.485
 9971SOL     OW30811   2.039   4.081   0.329
 9971SOL    HW130812   2.020   4.095   0.231
 9971SOL    HW230813   2.124   4.127   0.353
 9972SOL     OW30814   3.181   4.423   0.765
 9972SOL    HW130815   3.162   4.441   0.669
 9972SOL    HW230816   3.278   4.437   0.784
 9973SOL     OW30817   4.453   2.045   4.542
 9973SOL    HW130818   4.433   2.006   4.632
 9973SOL    HW230819   4.534   2.002   4.504
 9974SOL     OW30820   6.830   3.429   3.098
 9974SOL    HW130821   6.901   3.450   3.031
 9974SOL    HW230822   6.839   3.334   3.127
 9975SOL     OW30823   0.010   4.446   6.788
 9975SOL    HW130824   0.068   4.519   6.752
 9975SOL    HW230825   6.952   4.485   6.832
 9976SOL     OW30826   6.537   4.687   4.974
 9976SOL    HW130827   6.531   4.787   4.970
 9976SOL    HW230828   6.485   4.654   5.053
 9977SOL     OW30829   6.646   4.962   6.068
 9977SOL    HW130830   6.737   5.003   6.053
 9977SOL    HW230831   6.628   4.958   6.166
 9978SOL     OW30832   5.919   1.728   5.220
 9978SOL    HW130833   5.830   1.758   5.186
 9978SOL    HW230834   5.924   1.628   5.215
 9979SOL     OW30835   6.509   4.298   5.781
 9979SOL    HW130836   6.462   4.258   5.702
 9979SOL    HW230837   6.536   4.226   5.844
 9980SOL     OW30838   1.362   1.294   0.170
 9980SOL    HW130839   1.354   1.207   0.120
 9980SOL    HW230840   1.270   1.328   0.192
 9981SOL     OW30841   2.596   1.727   0.458
 9981SOL    HW130842   2.600   1.715   0.557
 9981SOL    HW230843   2.683   1.699   0.418
 9982SOL     OW30844   1.131   1.645   3.575
 9982SOL    HW130845   1.151   1.562   3.524
 9982SOL    HW230846   1.169   1.639   3.667
 9983SOL     OW30847   1.233   0.878   1.369
 9983SOL    HW130848   1.226   0.805   1.436
 9983SOL    HW230849   1.312   0.936   1.390
 9984SOL     OW30850   0.643   0.300   0.089
 9984SOL    HW130851   0.571   0.305   0.159
 9984SOL    HW230852   0.627   0.220   0.031
 9985SOL     OW30853   3.737   6.919   1.352
 9985SOL    HW130854   3.668   6.883   1.415
 9985SOL    HW230855   3.703   7.002   1.309
 9986SOL     OW30856   5.045   4.104   0.099
 9986SOL    HW130857   4.967   4.145   0.053
 9986SOL    HW230858   5.111   4.072   0.031
 9987SOL     OW30859   5.877   1.830   2.173
 9987SOL    HW130860   5.839   1.919   2.147
 9987SOL    HW230861   5.813   1.758   2.146
 9988SOL     OW30862   6.884   4.962   4.771
 9988SOL    HW130863   6.983   4.969   4.775
 9988SOL    HW230864   6.844   4.998   4.855
 9989SOL     OW30865   5.342   3.466   3.695
 9989SOL    HW130866   5.254   3.499   3.660
 9989SOL    HW230867   5.416   3.517   3.651
 9990SOL     OW30868   2.620   0.442   3.588
 9990SOL    HW130869   2.616   0.368   3.520
 9990SOL    HW230870   2.580   0.525   3.548
 9991SOL     OW30871   1.578   2.805   5.207
 9991SOL    HW130872   1.671   2.767   5.208
 9991SOL    HW230873   1.541   2.799   5.114
 9992SOL     OW30874   3.630   3.544   0.735
 9992SOL    HW130875   3.634   3.458   0.786
 9992SOL    HW230876   3.564   3.535   0.660
 9993SOL     OW30877   3.973   6.377   3.122
 9993SOL    HW130878   3.997   6.288   3.081
 9993SOL    HW230879   3.917   6.429   3.058
 9994SOL     OW30880   0.314   4.022   3.599
 9994SOL    HW130881   0.358   4.029   3.510
 9994SOL    HW230882   0.253   3.943   3.600
 9995SOL     OW30883   3.111   0.270   3.179
 9995SOL    HW130884   3.119   0.256   3.080
 9995SOL    HW230885   3.043   0.340   3.197
 9996SOL     OW30886   2.707   2.552   0.940
 9996SOL    HW130887   2.740   2.644   0.963
 9996SOL    HW230888   2.773   2.484   0.972
 9997SOL     OW30889   5.025   1.000   0.866
 9997SOL    HW130890   5.055   1.067   0.798
 9997SOL    HW230891   5.086   1.002   0.945
 9998SOL     OW30892   5.476   3.788   2.984
 9998SOL    HW130893   5.379   3.779   3.005
 9998SOL    HW230894   5.492   3.758   2.890
 9999SOL     OW30895   6.661   5.745   5.169
 9999SOL    HW130896   6.742   5.743   5.109
 9999SOL    HW230897   6.686   5.788   5.256
10000SOL     OW30898   6.170   2.094   6.564
10000SOL    HW130899   6.114   2.018   6.532
10000SOL    HW230900   6.218   2.135   6.486
10001SOL     OW30901   4.519   0.168   1.851
10001SOL    HW130902   4.506   0.252   1.903
10001SOL    HW230903   4.586   0.110   1.898
10002SOL     OW30904   1.249   1.461   2.051
10002SOL    HW130905   1.315   1.387   2.042
10002SOL    HW230906   1.248   1.516   1.968
10003SOL     OW30907   3.582   2.043   2.625
10003SOL    HW130908   3.609   2.050   2.721
10003SOL    HW230909   3.661   2.062   2.566
10004SOL     OW30910   5.198   2.857   4.736
10004SOL    HW130911   5.279   2.897   4.778
10004SOL    HW230912   5.204   2.757   4.740
10005SOL     OW30913   4.155   5.560   3.293
10005SOL    HW130914   4.181   5.464   3.309
10005SOL    HW230915   4.063   5.563   3.254
10006SOL     OW30916   5.030   1.498   4.904
10006SOL    HW130917   4.989   1.477   4.993
10006SOL    HW230918   4.980   1.447   4.833
10007SOL     OW30919   0.547   3.718   4.517
10007SOL    HW130920   0.481   3.666   4.463
10007SOL    HW230921   0.520   3.815   4.518
10008SOL     OW30922   4.101   1.024   2.912
10008SOL    HW130923   4.157   1.072   2.979
10008SOL    HW230924   4.130   1.051   2.820
10009SOL     OW30925   1.946   4.093   2.020
10009SOL    HW130926   1.905   4.181   2.047
10009SOL    HW230927   2.038   4.109   1.985
10010SOL     OW30928   2.166   6.580   0.437
10010SOL    HW130929   2.155   6.507   0.370
10010SOL    HW230930   2.212   6.545   0.518
10011SOL     OW30931   0.572   3.510   6.297
10011SOL    HW130932   0.646   3.534   6.234
10011SOL    HW230933   0.488   3.492   6.244
10012SOL     OW30934   4.938   6.751   2.672
10012SOL    HW130935   4.986   6.838   2.661
10012SOL    HW230936   4.885   6.732   2.590
10013SOL     OW30937   1.923   1.950   4.736
10013SOL    HW130938   2.000   1.996   4.780
10013SOL    HW230939   1.840   1.967   4.788
10014SOL     OW30940   0.133   1.986   1.364
10014SOL    HW130941   0.089   1.897   1.357
10014SOL    HW230942   0.162   2.001   1.459
10015SOL     OW30943   3.554   4.656   0.372
10015SOL    HW130944   3.466   4.625   0.336
10015SOL    HW230945   3.623   4.651   0.299
10016SOL     OW30946   1.986   0.357   5.008
10016SOL    HW130947   1.974   0.376   5.106
10016SOL    HW230948   1.966   0.260   4.990
10017SOL     OW30949   2.421   1.282   2.491
10017SOL    HW130950   2.323   1.264   2.504
10017SOL    HW230951   2.438   1.306   2.395
10018SOL     OW30952   6.393   5.009   5.969
10018SOL    HW130953   6.484   4.992   6.007
10018SOL    HW230954   6.401   5.073   5.892
10019SOL     OW30955   0.563   1.992   3.124
10019SOL    HW130956   0.632   2.002   3.053
10019SOL    HW230957   0.591   2.042   3.206
10020SOL     OW30958   0.561   1.198   1.209
10020SOL    HW130959   0.542   1.108   1.171
10020SOL    HW230960   0.496   1.264   1.172
10021SOL     OW30961   1.387   2.433   2.725
10021SOL    HW130962   1.336   2.404   2.645
10021SOL    HW230963   1.326   2.436   2.804
10022SOL     OW30964   3.774   7.000   0.858
10022SOL    HW130965   3.848   6.936   0.877
10022SOL    HW230966   3.790   0.063   0.908
10023SOL     OW30967   2.138   4.873   5.405
10023SOL    HW130968   2.074   4.799   5.383
10023SOL    HW230969   2.191   4.897   5.324
10024SOL     OW30970   2.141   6.461   1.892
10024SOL    HW130971   2.164   6.517   1.813
10024SOL    HW230972   2.141   6.364   1.865
10025SOL     OW30973   1.948   2.103   1.311
10025SOL    HW130974   1.946   2.024   1.250
10025SOL    HW230975   2.011   2.172   1.275
10026SOL     OW30976   3.734   6.276   3.471
10026SOL    HW130977   3.638   6.286   3.444
10026SOL    HW230978   3.792   6.291   3.391
10027SOL     OW30979   1.020   4.160   5.061
10027SOL    HW130980   1.112   4.172   5.023
10027SOL    HW230981   1.027   4.152   5.161
10028SOL     OW30982   1.218   1.646   2.258
10028SOL    HW130983   1.254   1.579   2.193
10028SOL    HW230984   1.200   1.601   2.345
10029SOL     OW30985   2.533   1.587   4.506
10029SOL    HW130986   2.584   1.580   4.421
10029SOL    HW230987   2.443   1.545   4.494
10030SOL     OW30988   2.308   0.153   4.269
10030SOL    HW130989   2.393   0.104   4.287
10030SOL    HW230990   2.235   0.117   4.327
10031SOL     OW30991   6.168   4.636   3.730
10031SOL    HW130992   6.170   4.735   3.716
10031SOL    HW230993   6.230   4.611   3.805
10032SOL     OW30994   3.898   0.459   5.386
10032SOL    HW130995   3.948   0.377   5.359
10032SOL    HW230996   3.961   0.537   5.389
10033SOL     OW30997   4.434   1.725   4.082
10033SOL    HW130998   4.409   1.740   3.986
10033SOL    HW230999   4.352   1.698   4.133
10034SOL     OW31000   3.797   0.185   3.870
10034SOL    HW131001   3.775   0.118   3.941
10034SOL    HW231002   3.739   0.168   3.790
10035SOL     OW31003   0.119   4.727   2.794
10035SOL    HW131004   0.024   4.751   2.772
10035SOL    HW231005   0.168   4.810   2.822
10036SOL     OW31006   5.734   1.102   1.426
10036SOL    HW131007   5.736   1.110   1.525
10036SOL    HW231008   5.681   1.021   1.400
10037SOL     OW31009   5.883   1.689   1.087
10037SOL    HW131010   5.833   1.689   1.174
10037SOL    HW231011   5.876   1.600   1.044
10038SOL     OW31012   4.254   1.338   6.458
10038SOL    HW131013   4.317   1.416   6.453
10038SOL    HW231014   4.160   1.369   6.442
10039SOL     OW31015   3.668   0.425   5.229
10039SOL    HW131016   3.717   0.455   5.311
10039SOL    HW231017   3.732   0.414   5.153
10040SOL     OW31018   4.403   5.978   6.036
10040SOL    HW131019   4.409   5.899   5.974
10040SOL    HW231020   4.355   5.951   6.119
10041SOL     OW31021   4.248   5.931   6.294
10041SOL    HW131022   4.256   5.958   6.390
10041SOL    HW231023   4.311   5.855   6.275
10042SOL     OW31024   0.877   2.093   4.797
10042SOL    HW131025   0.810   2.121   4.728
10042SOL    HW231026   0.966   2.082   4.753
10043SOL     OW31027   0.156   2.466   4.768
10043SOL    HW131028   0.164   2.501   4.674
10043SOL    HW231029   0.064   2.431   4.782
10044SOL     OW31030   3.041   1.054   4.910
10044SOL    HW131031   2.994   1.084   4.828
10044SOL    HW231032   2.995   1.091   4.991
10045SOL     OW31033   4.948   6.922   3.665
10045SOL    HW131034   4.889   6.914   3.585
10045SOL    HW231035   4.942   7.015   3.702
10046SOL     OW31036   1.647   3.637   1.606
10046SOL    HW131037   1.612   3.672   1.519
10046SOL    HW231038   1.630   3.539   1.612
10047SOL     OW31039   6.874   3.681   5.260
10047SOL    HW131040   6.810   3.630   5.202
10047SOL    HW231041   6.942   3.618   5.296
10048SOL     OW31042   6.099   0.968   3.296
10048SOL    HW131043   6.181   0.950   3.242
10048SOL    HW231044   6.124   1.015   3.380
10049SOL     OW31045   0.142   0.539   6.708
10049SOL    HW131046   0.148   0.502   6.616
10049SOL    HW231047   0.201   0.620   6.716
10050SOL     OW31048   5.644   3.290   5.157
10050SOL    HW131049   5.636   3.283   5.058
10050SOL    HW231050   5.557   3.263   5.199
10051SOL     OW31051   5.199   2.939   5.085
10051SOL    HW131052   5.268   2.991   5.136
10051SOL    HW231053   5.209   2.842   5.106
10052SOL     OW31054   2.072   1.574   2.944
10052SOL    HW131055   2.149   1.610   2.891
10052SOL    HW231056   2.024   1.650   2.989
10053SOL     OW31057   3.567   5.670   2.683
10053SOL    HW131058   3.628   5.681   2.604
10053SOL    HW231059   3.516   5.584   2.673
10054SOL     OW31060   5.498   5.796   6.443
10054SOL    HW131061   5.421   5.746   6.483
10054SOL    HW231062   5.497   5.890   6.477
10055SOL     OW31063   5.578   1.966   4.679
10055SOL    HW131064   5.524   2.043   4.712
10055SOL    HW231065   5.525   1.913   4.613
10056SOL     OW31066   5.431   4.091   3.482
10056SOL    HW131067   5.386   4.033   3.414
10056SOL    HW231068   5.363   4.152   3.523
10057SOL     OW31069   4.254   2.044   5.273
10057SOL    HW131070   4.239   1.947   5.294
10057SOL    HW231071   4.171   2.095   5.296
10058SOL     OW31072   0.093   3.452   4.461
10058SOL    HW131073   0.006   3.500   4.454
10058SOL    HW231074   0.081   3.364   4.507
10059SOL     OW31075   6.378   0.300   1.563
10059SOL    HW131076   6.464   0.249   1.569
10059SOL    HW231077   6.367   0.356   1.644
10060SOL     OW31078   1.707   2.367   1.781
10060SOL    HW131079   1.717   2.277   1.737
10060SOL    HW231080   1.613   2.400   1.768
10061SOL     OW31081   4.480   0.911   3.713
10061SOL    HW131082   4.461   1.008   3.695
10061SOL    HW231083   4.484   0.862   3.625
10062SOL     OW31084   6.134   0.362   4.256
10062SOL    HW131085   6.170   0.441   4.207
10062SOL    HW231086   6.210   0.312   4.298
10063SOL     OW31087   2.567   1.204   4.154
10063SOL    HW131088   2.603   1.130   4.097
10063SOL    HW231089   2.583   1.292   4.110
10064SOL     OW31090   5.215   0.030   6.846
10064SOL    HW131091   5.245   0.124   6.833
10064SOL    HW231092   5.186   7.014   6.758
10065SOL     OW31093   3.092   0.648   2.375
10065SOL    HW131094   3.147   0.726   2.406
10065SOL    HW231095   2.995   0.674   2.374
10066SOL     OW31096   0.470   2.454   3.749
10066SOL    HW131097   0.443   2.511   3.827
10066SOL    HW231098   0.511   2.369   3.784
10067SOL     OW31099   6.951   3.952   5.165
10067SOL    HW131100   6.949   3.852   5.175
10067SOL    HW231101   6.960   3.975   5.068
10068SOL     OW31102   6.847   3.190   3.229
10068SOL    HW131103   6.932   3.161   3.274
10068SOL    HW231104   6.806   3.112   3.183
10069SOL     OW31105   2.324   4.903   2.446
10069SOL    HW131106   2.315   4.915   2.347
10069SOL    HW231107   2.243   4.856   2.482
10070SOL     OW31108   0.228   6.158   5.112
10070SOL    HW131109   0.230   6.142   5.013
10070SOL    HW231110   0.240   6.071   5.160
10071SOL     OW31111   6.406   6.202   4.804
10071SOL    HW131112   6.317   6.213   4.849
10071SOL    HW231113   6.396   6.222   4.706
10072SOL     OW31114   6.814   0.166   4.254
10072SOL    HW131115   6.813   0.074   4.294
10072SOL    HW231116   6.892   0.217   4.289
10073SOL     OW31117   6.047   4.833   5.235
10073SOL    HW131118   6.105   4.790   5.166
10073SOL    HW231119   6.007   4.917   5.197
10074SOL     OW31120   2.054   0.596   5.572
10074SOL    HW131121   2.076   0.628   5.479
10074SOL    HW231122   2.070   0.670   5.637
10075SOL     OW31123   1.859   2.527   2.714
10075SOL    HW131124   1.913   2.449   2.681
10075SOL    HW231125   1.770   2.527   2.667
10076SOL     OW31126   6.434   6.988   4.168
10076SOL    HW131127   6.517   6.973   4.221
10076SOL    HW231128   6.458   7.014   4.075
10077SOL     OW31129   4.234   2.710   6.311
10077SOL    HW131130   4.289   2.781   6.267
10077SOL    HW231131   4.162   2.680   6.249
10078SOL     OW31132   0.432   5.518   3.654
10078SOL    HW131133   0.532   5.513   3.646
10078SOL    HW231134   0.406   5.605   3.697
10079SOL     OW31135   5.587   3.099   3.698
10079SOL    HW131136   5.651   3.063   3.629
10079SOL    HW231137   5.639   3.137   3.774
10080SOL     OW31138   4.443   0.767   5.650
10080SOL    HW131139   4.365   0.706   5.659
10080SOL    HW231140   4.504   0.755   5.729
10081SOL     OW31141   6.930   1.120   0.800
10081SOL    HW131142   6.958   1.183   0.727
10081SOL    HW231143   6.834   1.137   0.824
10082SOL     OW31144   0.580   5.471   1.371
10082SOL    HW131145   0.585   5.569   1.393
10082SOL    HW231146   0.535   5.423   1.447
10083SOL     OW31147   3.589   0.303   3.352
10083SOL    HW131148   3.567   0.209   3.324
10083SOL    HW231149   3.656   0.342   3.289
10084SOL     OW31150   2.285   1.037   5.989
10084SOL    HW131151   2.309   0.968   6.057
10084SOL    HW231152   2.318   1.126   6.019
10085SOL     OW31153   2.473   5.672   0.858
10085SOL    HW131154   2.572   5.662   0.866
10085SOL    HW231155   2.452   5.736   0.783
10086SOL     OW31156   4.625   5.740   2.137
10086SOL    HW131157   4.697   5.686   2.095
10086SOL    HW231158   4.545   5.744   2.077
10087SOL     OW31159   0.027   6.513   4.357
10087SOL    HW131160   0.043   6.504   4.455
10087SOL    HW231161   0.032   6.609   4.330
10088SOL     OW31162   6.547   0.258   2.416
10088SOL    HW131163   6.550   0.166   2.378
10088SOL    HW231164   6.452   0.287   2.426
10089SOL     OW31165   2.847   1.774   2.861
10089SOL    HW131166   2.842   1.688   2.809
10089SOL    HW231167   2.937   1.782   2.903
10090SOL     OW31168   0.750   5.178   1.642
10090SOL    HW131169   0.699   5.117   1.702
10090SOL    HW231170   0.716   5.272   1.655
10091SOL     OW31171   6.969   4.765   6.627
10091SOL    HW131172   6.902   4.790   6.558
10091SOL    HW231173   6.957   4.823   6.708
10092SOL     OW31174   2.106   2.636   5.763
10092SOL    HW131175   2.160   2.709   5.806
10092SOL    HW231176   2.159   2.552   5.763
10093SOL     OW31177   5.508   3.414   5.748
10093SOL    HW131178   5.457   3.358   5.682
10093SOL    HW231179   5.461   3.411   5.836
10094SOL     OW31180   3.876   5.600   1.123
10094SOL    HW131181   3.909   5.644   1.040
10094SOL    HW231182   3.826   5.516   1.099
10095SOL     OW31183   5.850   1.984   4.628
10095SOL    HW131184   5.750   1.989   4.636
10095SOL    HW231185   5.882   2.059   4.570
10096SOL     OW31186   4.124   5.373   2.887
10096SOL    HW131187   4.137   5.278   2.858
10096SOL    HW231188   4.078   5.375   2.976
10097SOL     OW31189   0.867   1.867   0.220
10097SOL    HW131190   0.871   1.942   0.285
10097SOL    HW231191   0.786   1.812   0.237
10098SOL     OW31192   3.119   0.433   5.240
10098SOL    HW131193   3.048   0.365   5.255
10098SOL    HW231194   3.118   0.461   5.144
10099SOL     OW31195   0.138   4.821   1.260
10099SOL    HW131196   0.071   4.814   1.334
10099SOL    HW231197   0.224   4.779   1.288
10100SOL     OW31198   4.774   6.279   5.553
10100SOL    HW131199   4.753   6.269   5.455
10100SOL    HW231200   4.849   6.344   5.564
10101SOL     OW31201   6.534   3.479   1.839
10101SOL    HW131202   6.450   3.513   1.881
10101SOL    HW231203   6.584   3.423   1.905
10102SOL     OW31204   6.684   1.079   1.946
10102SOL    HW131205   6.609   1.014   1.957
10102SOL    HW231206   6.770   1.035   1.969
10103SOL     OW31207   3.732   0.693   5.716
10103SOL    HW131208   3.724   0.689   5.616
10103SOL    HW231209   3.718   0.602   5.754
10104SOL     OW31210   1.582   1.664   4.849
10104SOL    HW131211   1.500   1.613   4.873
10104SOL    HW231212   1.592   1.666   4.750
10105SOL     OW31213   1.418   0.872   6.825
10105SOL    HW131214   1.451   0.796   6.880
10105SOL    HW231215   1.347   0.839   6.762
10106SOL     OW31216   4.213   6.287   0.513
10106SOL    HW131217   4.312   6.272   0.508
10106SOL    HW231218   4.167   6.224   0.450
10107SOL     OW31219   5.815   1.561   5.518
10107SOL    HW131220   5.886   1.623   5.483
10107SOL    HW231221   5.734   1.614   5.543
10108SOL     OW31222   6.941   1.312   0.584
10108SOL    HW131223   6.956   1.398   0.535
10108SOL    HW231224   6.866   1.262   0.542
10109SOL     OW31225   5.912   0.981   0.455
10109SOL    HW131226   5.820   0.968   0.419
10109SOL    HW231227   5.977   0.989   0.379
10110SOL     OW31228   5.166   4.974   4.216
10110SOL    HW131229   5.254   4.930   4.231
10110SOL    HW231230   5.094   4.920   4.258
10111SOL     OW31231   5.757   3.563   3.891
10111SOL    HW131232   5.679   3.512   3.926
10111SOL    HW231233   5.818   3.500   3.842
10112SOL     OW31234   5.798   4.017   3.602
10112SOL    HW131235   5.892   4.048   3.597
10112SOL    HW231236   5.761   4.035   3.693
10113SOL     OW31237   4.269   6.908   6.794
10113SOL    HW131238   4.237   6.852   6.718
10113SOL    HW231239   4.213   6.990   6.802
10114SOL     OW31240   4.247   2.065   1.652
10114SOL    HW131241   4.289   2.003   1.585
10114SOL    HW231242   4.272   2.035   1.745
10115SOL     OW31243   3.927   0.896   5.165
10115SOL    HW131244   4.002   0.846   5.121
10115SOL    HW231245   3.854   0.911   5.099
10116SOL     OW31246   0.659   7.016   0.143
10116SOL    HW131247   0.658   0.013   0.044
10116SOL    HW231248   0.663   6.917   0.157
10117SOL     OW31249   6.693   6.377   6.127
10117SOL    HW131250   6.611   6.420   6.166
10117SOL    HW231251   6.752   6.447   6.087
10118SOL     OW31252   1.973   4.226   2.994
10118SOL    HW131253   1.922   4.262   3.072
10118SOL    HW231254   1.990   4.128   3.007
10119SOL     OW31255   6.635   5.512   4.688
10119SOL    HW131256   6.678   5.578   4.749
10119SOL    HW231257   6.624   5.424   4.735
10120SOL     OW31258   2.208   3.207   4.504
10120SOL    HW131259   2.194   3.267   4.583
10120SOL    HW231260   2.250   3.122   4.534
10121SOL     OW31261   5.737   4.146   6.612
10121SOL    HW131262   5.832   4.122   6.592
10121SOL    HW231263   5.697   4.075   6.670
10122SOL     OW31264   5.647   3.180   2.857
10122SOL    HW131265   5.630   3.210   2.763
10122SOL    HW231266   5.632   3.081   2.864
10123SOL     OW31267   6.006   5.727   1.218
10123SOL    HW131268   6.083   5.751   1.277
10123SOL    HW231269   5.953   5.809   1.198
10124SOL     OW31270   1.342   5.185   0.520
10124SOL    HW131271   1.254   5.147   0.490
10124SOL    HW231272   1.326   5.273   0.565
10125SOL     OW31273   1.860   1.542   1.927
10125SOL    HW131274   1.941   1.485   1.912
10125SOL    HW231275   1.783   1.505   1.875
10126SOL     OW31276   6.894   0.239   0.361
10126SOL    HW131277   6.856   0.175   0.428
10126SOL    HW231278   6.857   0.331   0.379
10127SOL     OW31279   2.752   4.064   7.009
10127SOL    HW131280   2.732   4.141   6.947
10127SOL    HW231281   2.718   3.979   6.969
10128SOL     OW31282   3.018   1.235   6.575
10128SOL    HW131283   3.101   1.260   6.526
10128SOL    HW231284   2.942   1.294   6.546
10129SOL     OW31285   6.397   1.356   3.053
10129SOL    HW131286   6.310   1.394   3.021
10129SOL    HW231287   6.456   1.339   2.974
10130SOL     OW31288   1.121   2.744   1.242
10130SOL    HW131289   1.201   2.699   1.203
10130SOL    HW231290   1.087   2.690   1.319
10131SOL     OW31291   1.838   6.732   4.170
10131SOL    HW131292   1.889   6.756   4.087
10131SOL    HW231293   1.875   6.782   4.248
10132SOL     OW31294   3.005   0.105   3.880
10132SOL    HW131295   3.026   0.072   3.788
10132SOL    HW231296   3.054   0.190   3.897
10133SOL     OW31297   4.421   6.346   0.238
10133SOL    HW131298   4.444   6.440   0.263
10133SOL    HW231299   4.499   6.286   0.255
10134SOL     OW31300   6.393   0.752   2.501
10134SOL    HW131301   6.343   0.826   2.455
10134SOL    HW231302   6.404   0.675   2.439
10135SOL     OW31303   4.912   3.375   3.639
10135SOL    HW131304   4.954   3.363   3.729
10135SOL    HW231305   4.816   3.345   3.642
10136SOL     OW31306   4.851   1.974   2.131
10136SOL    HW131307   4.845   2.004   2.037
10136SOL    HW231308   4.941   1.931   2.147
10137SOL     OW31309   0.081   3.887   4.385
10137SOL    HW131310   0.068   3.807   4.326
10137SOL    HW231311   0.137   3.955   4.337
10138SOL     OW31312   5.798   3.554   0.297
10138SOL    HW131313   5.785   3.626   0.229
10138SOL    HW231314   5.724   3.556   0.363
10139SOL     OW31315   2.869   3.419   3.302
10139SOL    HW131316   2.812   3.479   3.246
10139SOL    HW231317   2.881   3.460   3.393
10140SOL     OW31318   7.021   6.496   6.694
10140SOL    HW131319   6.926   6.507   6.722
10140SOL    HW231320   0.046   6.584   6.703
10141SOL     OW31321   4.503   1.051   5.739
10141SOL    HW131322   4.508   0.963   5.692
10141SOL    HW231323   4.531   1.124   5.677
10142SOL     OW31324   6.153   6.305   5.991
10142SOL    HW131325   6.054   6.304   5.998
10142SOL    HW231326   6.185   6.399   5.977
10143SOL     OW31327   5.787   1.858   0.423
10143SOL    HW131328   5.826   1.792   0.358
10143SOL    HW231329   5.848   1.867   0.502
10144SOL     OW31330   3.871   0.176   6.413
10144SOL    HW131331   3.785   0.204   6.455
10144SOL    HW231332   3.853   0.111   6.339
10145SOL     OW31333   3.048   5.358   3.166
10145SOL    HW131334   3.038   5.432   3.233
10145SOL    HW231335   2.959   5.319   3.145
10146SOL     OW31336   5.246   4.412   4.796
10146SOL    HW131337   5.289   4.501   4.782
10146SOL    HW231338   5.152   4.414   4.763
10147SOL     OW31339   5.082   4.265   6.279
10147SOL    HW131340   5.070   4.356   6.242
10147SOL    HW231341   5.043   4.261   6.371
10148SOL     OW31342   5.024   4.860   6.997
10148SOL    HW131343   5.097   4.810   6.949
10148SOL    HW231344   4.955   4.795   0.006
10149SOL     OW31345   5.452   3.743   1.507
10149SOL    HW131346   5.393   3.675   1.551
10149SOL    HW231347   5.403   3.830   1.499
10150SOL     OW31348   3.620   2.920   1.322
10150SOL    HW131349   3.671   3.006   1.323
10150SOL    HW231350   3.637   2.870   1.407
10151SOL     OW31351   0.961   5.911   0.037
10151SOL    HW131352   0.980   5.853   6.981
10151SOL    HW231353   0.866   5.898   0.067
10152SOL     OW31354   6.597   6.564   3.611
10152SOL    HW131355   6.625   6.657   3.587
10152SOL    HW231356   6.500   6.553   3.593
10153SOL     OW31357   4.066   6.051   3.496
10153SOL    HW131358   4.153   6.001   3.491
10153SOL    HW231359   4.075   6.139   3.449
10154SOL     OW31360   3.632   6.229   4.772
10154SOL    HW131361   3.687   6.292   4.717
10154SOL    HW231362   3.568   6.281   4.828
10155SOL     OW31363   4.804   2.135   6.670
10155SOL    HW131364   4.768   2.142   6.576
10155SOL    HW231365   4.858   2.216   6.691
10156SOL     OW31366   5.412   0.858   2.298
10156SOL    HW131367   5.492   0.821   2.344
10156SOL    HW231368   5.329   0.821   2.341
10157SOL     OW31369   0.097   1.826   0.176
10157SOL    HW131370   0.145   1.739   0.162
10157SOL    HW231371   0.100   1.851   0.273
10158SOL     OW31372   6.638   6.015   0.864
10158SOL    HW131373   6.732   5.986   0.880
10158SOL    HW231374   6.615   6.006   0.767
10159SOL     OW31375   2.899   2.370   1.396
10159SOL    HW131376   2.880   2.395   1.491
10159SOL    HW231377   2.919   2.272   1.392
10160SOL     OW31378   1.274   2.818   2.802
10160SOL    HW131379   1.231   2.805   2.892
10160SOL    HW231380   1.368   2.849   2.815
10161SOL     OW31381   3.441   3.794   0.434
10161SOL    HW131382   3.389   3.790   0.349
10161SOL    HW231383   3.450   3.701   0.472
10162SOL     OW31384   3.637   5.042   0.626
10162SOL    HW131385   3.640   5.140   0.608
10162SOL    HW231386   3.571   5.023   0.699
10163SOL     OW31387   0.056   3.653   0.427
10163SOL    HW131388   0.101   3.713   0.360
10163SOL    HW231389   0.126   3.603   0.479
10164SOL     OW31390   6.459   3.562   5.252
10164SOL    HW131391   6.467   3.661   5.267
10164SOL    HW231392   6.370   3.542   5.210
10165SOL     OW31393   6.816   1.589   3.453
10165SOL    HW131394   6.725   1.549   3.467
10165SOL    HW231395   6.809   1.666   3.390
10166SOL     OW31396   2.750   1.660   1.588
10166SOL    HW131397   2.764   1.730   1.659
10166SOL    HW231398   2.829   1.598   1.588
10167SOL     OW31399   0.721   5.384   0.224
10167SOL    HW131400   0.654   5.336   0.281
10167SOL    HW231401   0.689   5.386   0.129
10168SOL     OW31402   6.280   2.578   6.639
10168SOL    HW131403   6.313   2.484   6.644
10168SOL    HW231404   6.256   2.599   6.544
10169SOL     OW31405   0.611   4.352   3.589
10169SOL    HW131406   0.563   4.287   3.647
10169SOL    HW231407   0.625   4.438   3.639
10170SOL     OW31408   6.549   5.596   6.482
10170SOL    HW131409   6.626   5.617   6.543
10170SOL    HW231410   6.488   5.531   6.527
10171SOL     OW31411   1.001   2.881   5.200
10171SOL    HW131412   1.029   2.871   5.105
10171SOL    HW231413   0.916   2.831   5.215
10172SOL     OW31414   1.059   5.863   4.411
10172SOL    HW131415   1.072   5.772   4.372
10172SOL    HW231416   1.071   5.859   4.510
10173SOL     OW31417   1.606   2.023   0.549
10173SOL    HW131418   1.547   2.094   0.589
10173SOL    HW231419   1.550   1.945   0.522
10174SOL     OW31420   5.496   5.079   3.301
10174SOL    HW131421   5.458   5.065   3.209
10174SOL    HW231422   5.429   5.049   3.369
10175SOL     OW31423   5.128   2.844   3.132
10175SOL    HW131424   5.151   2.938   3.158
10175SOL    HW231425   5.037   2.843   3.090
10176SOL     OW31426   0.143   2.966   5.058
10176SOL    HW131427   0.082   2.962   4.978
10176SOL    HW231428   0.230   2.923   5.036
10177SOL     OW31429   1.729   0.825   1.063
10177SOL    HW131430   1.747   0.833   1.161
10177SOL    HW231431   1.646   0.771   1.049
10178SOL     OW31432   6.941   0.945   0.302
10178SOL    HW131433   7.011   1.016   0.296
10178SOL    HW231434   6.857   0.977   0.258
10179SOL     OW31435   0.669   2.445   6.375
10179SOL    HW131436   0.724   2.529   6.378
10179SOL    HW231437   0.620   2.434   6.462
10180SOL     OW31438   4.151   0.706   6.721
10180SOL    HW131439   4.149   0.657   6.633
10180SOL    HW231440   4.085   0.781   6.718
10181SOL     OW31441   6.989   2.716   1.694
10181SOL    HW131442   0.064   2.731   1.678
10181SOL    HW231443   6.964   2.753   1.784
10182SOL     OW31444   4.415   0.659   0.836
10182SOL    HW131445   4.491   0.724   0.828
10182SOL    HW231446   4.360   0.682   0.916
10183SOL     OW31447   5.638   2.350   5.748
10183SOL    HW131448   5.595   2.293   5.679
10183SOL    HW231449   5.628   2.446   5.724
10184SOL     OW31450   4.485   1.733   6.514
10184SOL    HW131451   4.387   1.732   6.493
10184SOL    HW231452   4.501   1.785   6.598
10185SOL     OW31453   6.228   6.467   3.098
10185SOL    HW131454   6.322   6.502   3.096
10185SOL    HW231455   6.165   6.542   3.121
10186SOL     OW31456   5.208   4.017   4.360
10186SOL    HW131457   5.139   3.947   4.339
10186SOL    HW231458   5.233   4.011   4.456
10187SOL     OW31459   1.022   4.278   6.759
10187SOL    HW131460   1.026   4.179   6.743
10187SOL    HW231461   1.096   4.322   6.709
10188SOL     OW31462   3.631   4.136   6.857
10188SOL    HW131463   3.625   4.056   6.798
10188SOL    HW231464   3.704   4.123   6.924
10189SOL     OW31465   0.559   1.264   6.612
10189SOL    HW131466   0.524   1.329   6.680
10189SOL    HW231467   0.483   1.213   6.573
10190SOL     OW31468   3.780   3.131   1.328
10190SOL    HW131469   3.867   3.134   1.278
10190SOL    HW231470   3.776   3.208   1.391
10191SOL     OW31471   4.684   5.296   6.507
10191SOL    HW131472   4.771   5.246   6.505
10191SOL    HW231473   4.657   5.319   6.414
10192SOL     OW31474   4.247   0.952   5.237
10192SOL    HW131475   4.323   1.001   5.196
10192SOL    HW231476   4.191   0.910   5.165
10193SOL     OW31477   3.600   3.230   2.462
10193SOL    HW131478   3.504   3.249   2.483
10193SOL    HW231479   3.613   3.132   2.453
10194SOL     OW31480   4.801   0.358   5.066
10194SOL    HW131481   4.776   0.262   5.075
10194SOL    HW231482   4.796   0.384   4.969
10195SOL     OW31483   6.905   6.471   0.109
10195SOL    HW131484   6.807   6.477   0.092
10195SOL    HW231485   6.953   6.537   0.050
10196SOL     OW31486   3.757   2.131   4.034
10196SOL    HW131487   3.841   2.165   4.076
10196SOL    HW231488   3.733   2.188   3.956
10197SOL     OW31489   5.227   1.760   4.328
10197SOL    HW131490   5.183   1.673   4.350
10197SOL    HW231491   5.320   1.760   4.367
10198SOL     OW31492   3.896   6.615   1.996
10198SOL    HW131493   3.815   6.624   1.938
10198SOL    HW231494   3.928   6.706   2.022
10199SOL     OW31495   0.942   2.281   0.757
10199SOL    HW131496   0.856   2.232   0.743
10199SOL    HW231497   1.007   2.255   0.686
10200SOL     OW31498   4.707   3.407   5.398
10200SOL    HW131499   4.645   3.332   5.420
10200SOL    HW231500   4.660   3.472   5.338
10201SOL     OW31501   0.753   5.634   0.065
10201SOL    HW131502   0.848   5.603   0.053
10201SOL    HW231503   0.704   5.568   0.122
10202SOL     OW31504   2.743   4.439   0.285
10202SOL    HW131505   2.808   4.507   0.251
10202SOL    HW231506   2.782   4.347   0.273
10203SOL     OW31507   6.728   2.692   2.419
10203SOL    HW131508   6.645   2.637   2.427
10203SOL    HW231509   6.733   2.732   2.328
10204SOL     OW31510   4.067   5.472   6.441
10204SOL    HW131511   4.053   5.479   6.540
10204SOL    HW231512   4.060   5.376   6.413
10205SOL     OW31513   3.058   1.030   1.902
10205SOL    HW131514   3.140   0.995   1.947
10205SOL    HW231515   3.079   1.117   1.857
10206SOL     OW31516   6.757   0.063   6.685
10206SOL    HW131517   6.680   0.083   6.625
10206SOL    HW231518   6.728   0.068   6.780
10207SOL     OW31519   1.379   2.179   0.014
10207SOL    HW131520   1.333   2.091   0.023
10207SOL    HW231521   1.473   2.171   0.048
10208SOL     OW31522   6.398   5.421   3.530
10208SOL    HW131523   6.459   5.403   3.608
10208SOL    HW231524   6.452   5.444   3.450
10209SOL     OW31525   0.255   0.048   6.592
10209SOL    HW131526   0.182   0.019   6.654
10209SOL    HW231527   0.217   0.064   6.501
10210SOL     OW31528   5.210   6.136   0.799
10210SOL    HW131529   5.247   6.109   0.888
10210SOL    HW231530   5.166   6.225   0.807
10211SOL     OW31531   3.974   6.153   5.026
10211SOL    HW131532   4.051   6.195   4.979
10211SOL    HW231533   3.914   6.110   4.959
10212SOL     OW31534   7.019   6.921   5.520
10212SOL    HW131535   6.990   6.849   5.458
10212SOL    HW231536   0.020   6.882   5.609
10213SOL     OW31537   5.563   3.219   2.600
10213SOL    HW131538   5.559   3.122   2.578
10213SOL    HW231539   5.470   3.255   2.608
10214SOL     OW31540   0.697   1.451   1.592
10214SOL    HW131541   0.666   1.371   1.645
10214SOL    HW231542   0.774   1.495   1.639
10215SOL     OW31543   3.149   3.042   3.368
10215SOL    HW131544   3.143   3.135   3.330
10215SOL    HW231545   3.077   3.030   3.436
10216SOL     OW31546   0.877   1.047   1.133
10216SOL    HW131547   0.910   0.960   1.097
10216SOL    HW231548   0.832   1.098   1.060
10217SOL     OW31549   1.961   2.576   3.783
10217SOL    HW131550   2.009   2.536   3.705
10217SOL    HW231551   1.877   2.525   3.800
10218SOL     OW31552   1.437   0.954   1.729
10218SOL    HW131553   1.340   0.929   1.728
10218SOL    HW231554   1.447   1.047   1.762
10219SOL     OW31555   0.614   2.639   2.676
10219SOL    HW131556   0.544   2.641   2.604
10219SOL    HW231557   0.603   2.720   2.734
10220SOL     OW31558   3.938   1.198   1.085
10220SOL    HW131559   3.969   1.106   1.059
10220SOL    HW231560   3.949   1.211   1.183
10221SOL     OW31561   1.828   3.740   4.554
10221SOL    HW131562   1.898   3.746   4.625
10221SOL    HW231563   1.815   3.831   4.513
10222SOL     OW31564   2.425   3.520   5.612
10222SOL    HW131565   2.511   3.565   5.590
10222SOL    HW231566   2.400   3.541   5.707
10223SOL     OW31567   2.419   5.465   0.099
10223SOL    HW131568   2.343   5.479   0.162
10223SOL    HW231569   2.464   5.553   0.081
10224SOL     OW31570   6.251   2.252   5.555
10224SOL    HW131571   6.214   2.202   5.634
10224SOL    HW231572   6.345   2.222   5.539
10225SOL     OW31573   2.316   6.129   6.112
10225SOL    HW131574   2.253   6.123   6.034
10225SOL    HW231575   2.358   6.040   6.128
10226SOL     OW31576   2.286   0.620   6.322
10226SOL    HW131577   2.227   0.553   6.277
10226SOL    HW231578   2.246   0.646   6.410
10227SOL     OW31579   4.841   4.324   0.843
10227SOL    HW131580   4.866   4.228   0.845
10227SOL    HW231581   4.788   4.343   0.760
10228SOL     OW31582   1.342   5.638   1.782
10228SOL    HW131583   1.261   5.584   1.759
10228SOL    HW231584   1.319   5.703   1.854
10229SOL     OW31585   1.684   2.148   4.548
10229SOL    HW131586   1.677   2.242   4.516
10229SOL    HW231587   1.736   2.094   4.482
10230SOL     OW31588   6.427   6.620   3.258
10230SOL    HW131589   6.437   6.537   3.313
10230SOL    HW231590   6.499   6.622   3.189
10231SOL     OW31591   6.130   5.219   5.560
10231SOL    HW131592   6.222   5.220   5.521
10231SOL    HW231593   6.062   5.212   5.486
10232SOL     OW31594   2.922   1.863   4.475
10232SOL    HW131595   2.823   1.858   4.489
10232SOL    HW231596   2.969   1.831   4.557
10233SOL     OW31597   4.541   3.954   5.336
10233SOL    HW131598   4.453   3.952   5.382
10233SOL    HW231599   4.599   3.881   5.373
10234SOL     OW31600   6.083   0.280   6.955
10234SOL    HW131601   6.013   0.287   0.004
10234SOL    HW231602   6.077   0.359   6.895
10235SOL     OW31603   3.576   2.233   0.558
10235SOL    HW131604   3.526   2.173   0.495
10235SOL    HW231605   3.673   2.211   0.557
10236SOL     OW31606   1.664   1.109   1.301
10236SOL    HW131607   1.755   1.072   1.316
10236SOL    HW231608   1.660   1.153   1.212
10237SOL     OW31609   0.067   4.207   6.892
10237SOL    HW131610   7.003   4.167   6.862
10237SOL    HW231611   0.079   4.297   6.850
10238SOL     OW31612   3.788   4.025   2.314
10238SOL    HW131613   3.749   3.987   2.399
10238SOL    HW231614   3.738   4.108   2.289
10239SOL     OW31615   2.173   4.076   5.957
10239SOL    HW131616   2.136   3.983   5.952
10239SOL    HW231617   2.239   4.081   6.032
10240SOL     OW31618   1.709   4.330   2.422
10240SOL    HW131619   1.644   4.314   2.497
10240SOL    HW231620   1.786   4.266   2.430
10241SOL     OW31621   6.562   6.754   2.909
10241SOL    HW131622   6.517   6.821   2.968
10241SOL    HW231623   6.594   6.799   2.826
10242SOL     OW31624   6.883   1.411   1.630
10242SOL    HW131625   6.883   1.463   1.544
10242SOL    HW231626   6.907   1.472   1.705
10243SOL     OW31627   1.309   4.809   1.965
10243SOL    HW131628   1.370   4.732   1.949
10243SOL    HW231629   1.226   4.800   1.910
10244SOL     OW31630   1.588   4.388   0.596
10244SOL    HW131631   1.522   4.463   0.601
10244SOL    HW231632   1.662   4.405   0.662
10245SOL     OW31633   3.172   4.692   0.430
10245SOL    HW131634   3.073   4.705   0.436
10245SOL    HW231635   3.216   4.733   0.510
10246SOL     OW31636   3.297   3.716   3.157
10246SOL    HW131637   3.211   3.689   3.200
10246SOL    HW231638   3.357   3.636   3.149
10247SOL     OW31639   6.936   4.734   5.909
10247SOL    HW131640   6.836   4.730   5.917
10247SOL    HW231641   6.962   4.811   5.851
10248SOL     OW31642   1.725   0.262   3.063
10248SOL    HW131643   1.631   0.233   3.082
10248SOL    HW231644   1.749   0.238   2.969
10249SOL     OW31645   2.824   6.739   6.968
10249SOL    HW131646   2.880   6.817   6.938
10249SOL    HW231647   2.869   6.654   6.943
10250SOL     OW31648   6.681   3.350   1.635
10250SOL    HW131649   6.606   3.382   1.692
10250SOL    HW231650   6.753   3.420   1.632
10251SOL     OW31651   2.334   1.249   4.843
10251SOL    HW131652   2.372   1.328   4.890
10251SOL    HW231653   2.390   1.227   4.763
10252SOL     OW31654   4.206   4.820   6.943
10252SOL    HW131655   4.271   4.784   6.875
10252SOL    HW231656   4.256   4.867   7.015
10253SOL     OW31657   2.861   6.211   0.373
10253SOL    HW131658   2.824   6.129   0.329
10253SOL    HW231659   2.956   6.194   0.401
10254SOL     OW31660   5.005   0.649   4.970
10254SOL    HW131661   4.944   0.574   4.944
10254SOL    HW231662   5.080   0.655   4.904
10255SOL     OW31663   1.442   6.280   1.269
10255SOL    HW131664   1.473   6.196   1.225
10255SOL    HW231665   1.349   6.268   1.303
10256SOL     OW31666   6.429   1.448   1.888
10256SOL    HW131667   6.439   1.539   1.849
10256SOL    HW231668   6.404   1.383   1.816
10257SOL     OW31669   2.604   4.933   4.993
10257SOL    HW131670   2.564   4.988   4.920
10257SOL    HW231671   2.565   4.841   4.990
10258SOL     OW31672   3.200   0.937   4.210
10258SOL    HW131673   3.108   0.956   4.177
10258SOL    HW231674   3.261   1.012   4.182
10259SOL     OW31675   0.975   4.423   3.325
10259SOL    HW131676   0.989   4.327   3.351
10259SOL    HW231677   0.955   4.477   3.407
10260SOL     OW31678   1.049   1.170   3.573
10260SOL    HW131679   1.123   1.218   3.618
10260SOL    HW231680   0.976   1.234   3.550
10261SOL     OW31681   0.015   5.737   3.653
10261SOL    HW131682   0.083   5.804   3.622
10261SOL    HW231683   0.058   5.671   3.714
10262SOL     OW31684   1.842   6.697   5.180
10262SOL    HW131685   1.836   6.753   5.098
10262SOL    HW231686   1.750   6.683   5.218
10263SOL     OW31687   5.668   1.021   6.247
10263SOL    HW131688   5.610   1.100   6.266
10263SOL    HW231689   5.629   0.968   6.171
10264SOL     OW31690   5.820   1.504   6.758
10264SOL    HW131691   5.733   1.461   6.734
10264SOL    HW231692   5.809   1.603   6.761
10265SOL     OW31693   2.465   2.541   2.291
10265SOL    HW131694   2.416   2.547   2.205
10265SOL    HW231695   2.561   2.520   2.274
10266SOL     OW31696   3.280   3.025   3.668
10266SOL    HW131697   3.346   2.961   3.627
10266SOL    HW231698   3.190   3.011   3.627
10267SOL     OW31699   6.310   2.316   6.678
10267SOL    HW131700   6.220   2.275   6.694
10267SOL    HW231701   6.379   2.261   6.724
10268SOL     OW31702   5.909   5.542   2.614
10268SOL    HW131703   5.897   5.637   2.584
10268SOL    HW231704   5.836   5.518   2.679
10269SOL     OW31705   0.538   3.370   0.002
10269SOL    HW131706   0.529   3.321   0.089
10269SOL    HW231707   0.619   3.428   0.004
10270SOL     OW31708   3.114   4.881   3.085
10270SOL    HW131709   3.128   4.883   3.184
10270SOL    HW231710   3.172   4.949   3.041
10271SOL     OW31711   3.525   2.558   6.419
10271SOL    HW131712   3.568   2.468   6.413
10271SOL    HW231713   3.457   2.567   6.346
10272SOL     OW31714   0.932   0.532   4.457
10272SOL    HW131715   0.983   0.449   4.437
10272SOL    HW231716   0.895   0.526   4.550
10273SOL     OW31717   3.227   5.698   2.739
10273SOL    HW131718   3.131   5.690   2.713
10273SOL    HW231719   3.253   5.621   2.796
10274SOL     OW31720   6.932   5.286   4.394
10274SOL    HW131721   6.997   5.345   4.347
10274SOL    HW231722   6.943   5.192   4.362
10275SOL     OW31723   0.846   6.868   1.579
10275SOL    HW131724   0.849   6.968   1.574
10275SOL    HW231725   0.887   6.830   1.496
10276SOL     OW31726   5.910   5.173   5.408
10276SOL    HW131727   5.885   5.100   5.345
10276SOL    HW231728   5.903   5.262   5.361
10277SOL     OW31729   2.147   5.238   3.631
10277SOL    HW131730   2.112   5.188   3.552
10277SOL    HW231731   2.217   5.184   3.677
10278SOL     OW31732   6.913   1.386   4.556
10278SOL    HW131733   6.836   1.436   4.596
10278SOL    HW231734   6.912   1.398   4.456
10279SOL     OW31735   2.818   4.777   3.770
10279SOL    HW131736   2.886   4.788   3.843
10279SOL    HW231737   2.845   4.830   3.690
10280SOL     OW31738   0.475   3.229   0.600
10280SOL    HW131739   0.528   3.157   0.644
10280SOL    HW231740   0.388   3.191   0.568
10281SOL     OW31741   5.882   1.316   2.563
10281SOL    HW131742   5.954   1.376   2.528
10281SOL    HW231743   5.874   1.328   2.662
10282SOL     OW31744   5.635   4.789   4.817
10282SOL    HW131745   5.623   4.794   4.916
10282SOL    HW231746   5.723   4.745   4.797
10283SOL     OW31747   0.765   3.509   0.806
10283SOL    HW131748   0.812   3.493   0.719
10283SOL    HW231749   0.672   3.471   0.801
10284SOL     OW31750   4.791   3.042   5.124
10284SOL    HW131751   4.845   3.123   5.147
10284SOL    HW231752   4.701   3.049   5.168
10285SOL     OW31753   5.412   0.519   2.057
10285SOL    HW131754   5.503   0.550   2.083
10285SOL    HW231755   5.391   0.433   2.105
10286SOL     OW31756   2.909   1.883   3.560
10286SOL    HW131757   2.916   1.882   3.660
10286SOL    HW231758   2.812   1.885   3.534
10287SOL     OW31759   2.477   6.557   1.079
10287SOL    HW131760   2.514   6.525   1.166
10287SOL    HW231761   2.515   6.502   1.004
10288SOL     OW31762   4.368   6.476   3.882
10288SOL    HW131763   4.273   6.506   3.891
10288SOL    HW231764   4.371   6.383   3.847
10289SOL     OW31765   1.619   6.859   1.472
10289SOL    HW131766   1.629   6.816   1.382
10289SOL    HW231767   1.523   6.863   1.497
10290SOL     OW31768   3.157   3.772   2.255
10290SOL    HW131769   3.104   3.768   2.340
10290SOL    HW231770   3.198   3.683   2.237
10291SOL     OW31771   3.856   1.437   3.005
10291SOL    HW131772   3.772   1.489   3.021
10291SOL    HW231773   3.865   1.417   2.908
10292SOL     OW31774   1.084   0.599   5.278
10292SOL    HW131775   0.996   0.554   5.294
10292SOL    HW231776   1.074   0.697   5.291
10293SOL     OW31777   2.059   4.485   3.796
10293SOL    HW131778   2.049   4.406   3.735
10293SOL    HW231779   2.149   4.482   3.839
10294SOL     OW31780   5.822   3.302   3.012
10294SOL    HW131781   5.776   3.252   2.939
10294SOL    HW231782   5.802   3.259   3.100
10295SOL     OW31783   6.198   5.182   6.037
10295SOL    HW131784   6.188   5.264   6.094
10295SOL    HW231785   6.282   5.134   6.061
10296SOL     OW31786   5.101   2.440   0.503
10296SOL    HW131787   5.200   2.452   0.492
10296SOL    HW231788   5.082   2.348   0.538
10297SOL     OW31789   2.305   6.910   6.902
10297SOL    HW131790   2.399   6.902   6.935
10297SOL    HW231791   2.301   6.982   6.833
10298SOL     OW31792   2.887   4.451   1.339
10298SOL    HW131793   2.862   4.354   1.345
10298SOL    HW231794   2.822   4.499   1.280
10299SOL     OW31795   4.791   5.151   2.950
10299SOL    HW131796   4.835   5.062   2.963
10299SOL    HW231797   4.729   5.145   2.871
10300SOL     OW31798   0.862   3.761   3.363
10300SOL    HW131799   0.870   3.676   3.415
10300SOL    HW231800   0.932   3.764   3.292
10301SOL     OW31801   5.492   2.694   4.542
10301SOL    HW131802   5.421   2.676   4.474
10301SOL    HW231803   5.530   2.786   4.527
10302SOL     OW31804   2.199   6.617   4.042
10302SOL    HW131805   2.229   6.598   3.949
10302SOL    HW231806   2.191   6.530   4.093
10303SOL     OW31807   1.739   6.299   2.665
10303SOL    HW131808   1.748   6.392   2.629
10303SOL    HW231809   1.656   6.291   2.720
10304SOL     OW31810   4.924   0.229   1.955
10304SOL    HW131811   4.997   0.251   2.020
10304SOL    HW231812   4.921   0.298   1.883
10305SOL     OW31813   0.824   4.287   0.123
10305SOL    HW131814   0.800   4.199   0.165
10305SOL    HW231815   0.903   4.274   0.064
10306SOL     OW31816   4.697   6.815   6.391
10306SOL    HW131817   4.686   6.794   6.487
10306SOL    HW231818   4.608   6.822   6.347
10307SOL     OW31819   2.151   2.047   5.499
10307SOL    HW131820   2.173   2.122   5.436
10307SOL    HW231821   2.077   2.075   5.559
10308SOL     OW31822   2.152   4.726   3.639
10308SOL    HW131823   2.151   4.626   3.633
10308SOL    HW231824   2.078   4.756   3.700
10309SOL     OW31825   6.401   1.772   4.815
10309SOL    HW131826   6.449   1.837   4.873
10309SOL    HW231827   6.306   1.765   4.845
10310SOL     OW31828   3.227   3.577   1.597
10310SOL    HW131829   3.278   3.495   1.569
10310SOL    HW231830   3.130   3.554   1.606
10311SOL     OW31831   0.521   6.412   0.259
10311SOL    HW131832   0.596   6.473   0.287
10311SOL    HW231833   0.457   6.462   0.200
10312SOL     OW31834   2.818   6.192   1.813
10312SOL    HW131835   2.821   6.117   1.879
10312SOL    HW231836   2.897   6.252   1.827
10313SOL     OW31837   4.995   6.783   1.882
10313SOL    HW131838   5.066   6.784   1.952
10313SOL    HW231839   4.905   6.789   1.925
10314SOL     OW31840   6.230   0.397   1.794
10314SOL    HW131841   6.216   0.345   1.878
10314SOL    HW231842   6.148   0.392   1.738
10315SOL     OW31843   5.371   5.987   4.489
10315SOL    HW131844   5.319   6.022   4.411
10315SOL    HW231845   5.334   6.025   4.573
10316SOL     OW31846   6.401   3.062   4.738
10316SOL    HW131847   6.420   3.153   4.776
10316SOL    HW231848   6.485   3.025   4.698
10317SOL     OW31849   3.059   6.072   5.140
10317SOL    HW131850   3.087   6.061   5.236
10317SOL    HW231851   2.961   6.091   5.136
10318SOL     OW31852   5.597   5.441   6.530
10318SOL    HW131853   5.666   5.371   6.511
10318SOL    HW231854   5.619   5.525   6.480
10319SOL     OW31855   1.383   2.175   5.614
10319SOL    HW131856   1.305   2.156   5.554
10319SOL    HW231857   1.432   2.255   5.579
10320SOL     OW31858   0.581   0.237   2.902
10320SOL    HW131859   0.527   0.168   2.949
10320SOL    HW231860   0.567   0.326   2.945
10321SOL     OW31861   4.597   0.469   2.440
10321SOL    HW131862   4.630   0.475   2.535
10321SOL    HW231863   4.508   0.424   2.438
10322SOL     OW31864   6.401   5.426   6.619
10322SOL    HW131865   6.340   5.346   6.620
10322SOL    HW231866   6.434   5.445   6.711
10323SOL     OW31867   6.423   3.943   5.757
10323SOL    HW131868   6.385   3.855   5.726
10323SOL    HW231869   6.462   3.992   5.679
10324SOL     OW31870   3.244   2.942   2.815
10324SOL    HW131871   3.258   2.935   2.914
10324SOL    HW231872   3.332   2.959   2.770
10325SOL     OW31873   0.277   3.407   3.032
10325SOL    HW131874   0.201   3.455   3.076
10325SOL    HW231875   0.364   3.446   3.063
10326SOL     OW31876   3.850   3.274   0.811
10326SOL    HW131877   3.759   3.233   0.813
10326SOL    HW231878   3.852   3.345   0.740
10327SOL     OW31879   2.633   2.405   1.880
10327SOL    HW131880   2.732   2.391   1.889
10327SOL    HW231881   2.585   2.351   1.949
10328SOL     OW31882   6.448   2.395   2.137
10328SOL    HW131883   6.422   2.403   2.041
10328SOL    HW231884   6.484   2.303   2.155
10329SOL     OW31885   3.372   0.338   3.096
10329SOL    HW131886   3.286   0.336   3.146
10329SOL    HW231887   3.418   0.249   3.104
10330SOL     OW31888   4.041   6.335   1.991
10330SOL    HW131889   4.098   6.307   2.069
10330SOL    HW231890   3.990   6.418   2.016
10331SOL     OW31891   6.747   1.112   4.369
10331SOL    HW131892   6.787   1.082   4.282
10331SOL    HW231893   6.809   1.089   4.443
10332SOL     OW31894   6.447   0.936   1.243
10332SOL    HW131895   6.409   1.010   1.298
10332SOL    HW231896   6.381   0.861   1.239
10333SOL     OW31897   6.517   4.842   4.498
10333SOL    HW131898   6.487   4.762   4.549
10333SOL    HW231899   6.581   4.895   4.554
10334SOL     OW31900   3.254   6.574   4.229
10334SOL    HW131901   3.283   6.506   4.162
10334SOL    HW231902   3.157   6.564   4.247
10335SOL     OW31903   2.836   4.571   6.485
10335SOL    HW131904   2.893   4.644   6.448
10335SOL    HW231905   2.894   4.494   6.512
10336SOL     OW31906   5.937   0.245   2.805
10336SOL    HW131907   5.970   0.327   2.850
10336SOL    HW231908   6.013   0.180   2.793
10337SOL     OW31909   6.861   6.571   5.519
10337SOL    HW131910   6.919   6.497   5.485
10337SOL    HW231911   6.769   6.560   5.482
10338SOL     OW31912   2.311   6.017   1.492
10338SOL    HW131913   2.365   5.987   1.414
10338SOL    HW231914   2.216   5.986   1.482
10339SOL     OW31915   2.758   5.420   6.977
10339SOL    HW131916   2.760   5.427   0.054
10339SOL    HW231917   2.741   5.325   6.951
10340SOL     OW31918   1.305   5.421   0.674
10340SOL    HW131919   1.211   5.439   0.647
10340SOL    HW231920   1.364   5.495   0.641
10341SOL     OW31921   2.033   3.396   2.152
10341SOL    HW131922   2.083   3.406   2.066
10341SOL    HW231923   1.935   3.407   2.135
10342SOL     OW31924   1.319   6.756   4.873
10342SOL    HW131925   1.396   6.692   4.870
10342SOL    HW231926   1.251   6.724   4.939
10343SOL     OW31927   2.286   5.254   0.469
10343SOL    HW131928   2.256   5.190   0.398
10343SOL    HW231929   2.206   5.303   0.505
10344SOL     OW31930   4.180   4.053   1.496
10344SOL    HW131931   4.242   4.128   1.470
10344SOL    HW231932   4.171   4.051   1.595
10345SOL     OW31933   1.986   0.856   6.932
10345SOL    HW131934   2.030   0.884   7.018
10345SOL    HW231935   1.976   0.936   6.873
10346SOL     OW31936   5.969   0.043   1.808
10346SOL    HW131937   6.039   0.041   1.736
10346SOL    HW231938   5.901   6.993   1.791
10347SOL     OW31939   5.388   2.618   2.414
10347SOL    HW131940   5.345   2.700   2.451
10347SOL    HW231941   5.342   2.592   2.329
10348SOL     OW31942   6.115   1.234   0.253
10348SOL    HW131943   6.023   1.258   0.284
10348SOL    HW231944   6.177   1.232   0.331
10349SOL     OW31945   6.526   1.458   1.569
10349SOL    HW131946   6.498   1.536   1.624
10349SOL    HW231947   6.524   1.375   1.625
10350SOL     OW31948   2.042   5.632   5.499
10350SOL    HW131949   2.116   5.672   5.554
10350SOL    HW231950   2.023   5.540   5.531
10351SOL     OW31951   4.756   4.914   6.722
10351SOL    HW131952   4.847   4.953   6.708
10351SOL    HW231953   4.697   4.939   6.646
10352SOL     OW31954   5.013   2.263   6.965
10352SOL    HW131955   5.090   2.223   7.016
10352SOL    HW231956   4.948   2.302   0.007
10353SOL     OW31957   6.619   2.902   5.758
10353SOL    HW131958   6.693   2.836   5.742
10353SOL    HW231959   6.596   2.948   5.673
10354SOL     OW31960   6.309   2.104   2.155
10354SOL    HW131961   6.301   2.095   2.056
10354SOL    HW231962   6.255   2.181   2.186
10355SOL     OW31963   1.865   0.136   1.848
10355SOL    HW131964   1.851   0.218   1.902
10355SOL    HW231965   1.816   0.144   1.761
10356SOL     OW31966   6.736   4.090   5.904
10356SOL    HW131967   6.802   4.121   5.836
10356SOL    HW231968   6.709   3.995   5.885
10357SOL     OW31969   3.261   3.020   6.728
10357SOL    HW131970   3.342   3.031   6.786
10357SOL    HW231971   3.243   3.105   6.679
10358SOL     OW31972   6.185   3.456   3.552
10358SOL    HW131973   6.196   3.459   3.651
10358SOL    HW231974   6.247   3.521   3.509
10359SOL     OW31975   5.742   1.529   1.814
10359SOL    HW131976   5.770   1.621   1.786
10359SOL    HW231977   5.794   1.461   1.763
10360SOL     OW31978   4.553   5.511   1.703
10360SOL    HW131979   4.595   5.423   1.682
10360SOL    HW231980   4.496   5.502   1.785
10361SOL     OW31981   3.104   1.580   2.860
10361SOL    HW131982   3.128   1.677   2.859
10361SOL    HW231983   3.186   1.525   2.846
10362SOL     OW31984   0.095   5.492   3.401
10362SOL    HW131985   0.075   5.525   3.493
10362SOL    HW231986   0.119   5.395   3.405
10363SOL     OW31987   4.548   2.765   0.875
10363SOL    HW131988   4.584   2.675   0.852
10363SOL    HW231989   4.585   2.793   0.964
10364SOL     OW31990   3.617   3.974   1.613
10364SOL    HW131991   3.573   3.904   1.558
10364SOL    HW231992   3.636   4.055   1.557
10365SOL     OW31993   4.882   4.395   5.847
10365SOL    HW131994   4.859   4.323   5.912
10365SOL    HW231995   4.959   4.364   5.790
10366SOL     OW31996   3.751   0.003   4.055
10366SOL    HW131997   3.673   6.965   4.037
10366SOL    HW231998   3.758   0.019   4.154
10367SOL     OW31999   6.972   2.300   2.036
10367SOL    HW132000   6.988   2.263   1.945
10367SOL    HW232001   7.006   2.394   2.041
10368SOL     OW32002   2.609   1.030   2.610
10368SOL    HW132003   2.524   1.030   2.662
10368SOL    HW232004   2.640   1.124   2.598
10369SOL     OW32005   2.397   0.762   5.370
10369SOL    HW132006   2.495   0.781   5.368
10369SOL    HW232007   2.369   0.720   5.283
10370SOL     OW32008   5.748   1.162   5.201
10370SOL    HW132009   5.798   1.197   5.122
10370SOL    HW232010   5.716   1.238   5.257
10371SOL     OW32011   2.041   6.075   4.448
10371SOL    HW132012   2.000   6.159   4.414
10371SOL    HW232013   2.138   6.089   4.466
10372SOL     OW32014   1.579   1.161   6.911
10372SOL    HW132015   1.510   1.095   6.880
10372SOL    HW232016   1.670   1.124   6.896
10373SOL     OW32017   1.589   6.660   5.238
10373SOL    HW132018   1.555   6.698   5.324
10373SOL    HW232019   1.538   6.577   5.217
10374SOL     OW32020   2.891   0.976   3.808
10374SOL    HW132021   2.843   0.916   3.872
10374SOL    HW232022   2.982   0.996   3.842
10375SOL     OW32023   2.376   1.716   6.312
10375SOL    HW132024   2.375   1.811   6.282
10375SOL    HW232025   2.455   1.669   6.272
10376SOL     OW32026   1.039   5.470   3.812
10376SOL    HW132027   0.970   5.450   3.743
10376SOL    HW232028   1.051   5.390   3.871
10377SOL     OW32029   6.823   0.592   3.275
10377SOL    HW132030   6.798   0.498   3.300
10377SOL    HW232031   6.764   0.624   3.202
10378SOL     OW32032   5.603   6.437   5.752
10378SOL    HW132033   5.611   6.536   5.766
10378SOL    HW232034   5.684   6.392   5.788
10379SOL     OW32035   3.488   6.899   3.996
10379SOL    HW132036   3.438   6.959   3.933
10379SOL    HW232037   3.509   6.813   3.951
10380SOL     OW32038   0.710   2.675   4.964
10380SOL    HW132039   0.636   2.610   4.983
10380SOL    HW232040   0.680   2.767   4.989
10381SOL     OW32041   4.029   4.639   0.606
10381SOL    HW132042   4.057   4.704   0.535
10381SOL    HW232043   4.087   4.558   0.601
10382SOL     OW32044   1.604   4.804   1.177
10382SOL    HW132045   1.697   4.816   1.144
10382SOL    HW232046   1.604   4.748   1.260
10383SOL     OW32047   0.736   4.113   1.137
10383SOL    HW132048   0.689   4.048   1.078
10383SOL    HW232049   0.747   4.075   1.229
10384SOL     OW32050   6.872   0.222   1.694
10384SOL    HW132051   6.782   0.179   1.697
10384SOL    HW232052   6.943   0.152   1.695
10385SOL     OW32053   3.835   5.957   5.750
10385SOL    HW132054   3.750   5.923   5.790
10385SOL    HW232055   3.814   6.021   5.676
10386SOL     OW32056   6.494   2.126   5.500
10386SOL    HW132057   6.510   2.153   5.595
10386SOL    HW232058   6.460   2.032   5.498
10387SOL     OW32059   4.229   1.454   2.616
10387SOL    HW132060   4.156   1.478   2.679
10387SOL    HW232061   4.268   1.537   2.576
10388SOL     OW32062   1.687   5.725   2.250
10388SOL    HW132063   1.779   5.703   2.282
10388SOL    HW232064   1.687   5.815   2.206
10389SOL     OW32065   6.620   5.931   1.277
10389SOL    HW132066   6.572   6.016   1.253
10389SOL    HW232067   6.554   5.856   1.284
10390SOL     OW32068   1.673   2.614   1.255
10390SOL    HW132069   1.672   2.711   1.232
10390SOL    HW232070   1.599   2.594   1.319
10391SOL     OW32071   0.267   6.660   3.858
10391SOL    HW132072   0.364   6.681   3.863
10391SOL    HW232073   0.252   6.565   3.885
10392SOL     OW32074   6.681   4.300   6.087
10392SOL    HW132075   6.688   4.225   6.022
10392SOL    HW232076   6.732   4.379   6.053
10393SOL     OW32077   2.496   2.345   3.181
10393SOL    HW132078   2.512   2.420   3.118
10393SOL    HW232079   2.418   2.291   3.149
10394SOL     OW32080   2.331   5.927   4.998
10394SOL    HW132081   2.283   5.842   4.972
10394SOL    HW232082   2.327   5.991   4.922
10395SOL     OW32083   6.862   0.846   3.197
10395SOL    HW132084   6.884   0.754   3.230
10395SOL    HW232085   6.928   0.873   3.126
10396SOL     OW32086   3.514   1.444   3.748
10396SOL    HW132087   3.543   1.412   3.658
10396SOL    HW232088   3.487   1.366   3.805
10397SOL     OW32089   2.297   1.429   4.434
10397SOL    HW132090   2.257   1.411   4.524
10397SOL    HW232091   2.296   1.346   4.380
10398SOL     OW32092   4.875   2.607   0.616
10398SOL    HW132093   4.954   2.546   0.607
10398SOL    HW232094   4.905   2.694   0.657
10399SOL     OW32095   4.631   1.890   4.150
10399SOL    HW132096   4.568   1.822   4.113
10399SOL    HW232097   4.673   1.941   4.075
10400SOL     OW32098   4.117   5.753   0.020
10400SOL    HW132099   4.051   5.749   0.095
10400SOL    HW232100   4.160   5.664   0.008
10401SOL     OW32101   0.223   6.689   2.457
10401SOL    HW132102   0.264   6.633   2.384
10401SOL    HW232103   0.180   6.628   2.524
10402SOL     OW32104   6.579   1.781   5.686
10402SOL    HW132105   6.577   1.694   5.737
10402SOL    HW232106   6.493   1.793   5.637
10403SOL     OW32107   4.312   1.712   3.151
10403SOL    HW132108   4.300   1.698   3.053
10403SOL    HW232109   4.330   1.624   3.195
10404SOL     OW32110   6.674   6.601   4.422
10404SOL    HW132111   6.709   6.521   4.471
10404SOL    HW232112   6.619   6.656   4.485
10405SOL     OW32113   1.029   6.096   4.234
10405SOL    HW132114   1.014   6.028   4.305
10405SOL    HW232115   0.942   6.140   4.210
10406SOL     OW32116   2.245   3.385   5.449
10406SOL    HW132117   2.214   3.467   5.401
10406SOL    HW232118   2.305   3.411   5.524
10407SOL     OW32119   2.733   0.716   0.030
10407SOL    HW132120   2.666   0.742   0.099
10407SOL    HW232121   2.818   0.767   0.044
10408SOL     OW32122   4.212   6.663   1.869
10408SOL    HW132123   4.288   6.687   1.930
10408SOL    HW232124   4.135   6.632   1.924
10409SOL     OW32125   0.351   3.567   0.229
10409SOL    HW132126   0.430   3.549   0.172
10409SOL    HW232127   0.366   3.530   0.321
10410SOL     OW32128   6.137   2.420   1.651
10410SOL    HW132129   6.150   2.514   1.680
10410SOL    HW232130   6.220   2.387   1.606
10411SOL     OW32131   3.331   6.302   4.527
10411SOL    HW132132   3.328   6.207   4.560
10411SOL    HW232133   3.409   6.313   4.465
10412SOL     OW32134   6.708   1.034   0.176
10412SOL    HW132135   6.640   0.960   0.171
10412SOL    HW232136   6.716   1.078   0.087
10413SOL     OW32137   6.689   2.344   1.794
10413SOL    HW132138   6.595   2.312   1.779
10413SOL    HW232139   6.701   2.365   1.891
10414SOL     OW32140   3.600   5.567   5.995
10414SOL    HW132141   3.508   5.605   5.982
10414SOL    HW232142   3.644   5.553   5.907
10415SOL     OW32143   2.006   4.303   4.145
10415SOL    HW132144   2.037   4.398   4.151
10415SOL    HW232145   1.928   4.297   4.082
10416SOL     OW32146   6.411   6.734   5.478
10416SOL    HW132147   6.476   6.808   5.497
10416SOL    HW232148   6.318   6.771   5.480
10417SOL     OW32149   4.968   5.443   4.888
10417SOL    HW132150   4.992   5.347   4.901
10417SOL    HW232151   4.915   5.475   4.966
10418SOL     OW32152   6.704   4.170   6.428
10418SOL    HW132153   6.607   4.175   6.404
10418SOL    HW232154   6.754   4.241   6.378
10419SOL     OW32155   3.452   6.832   5.798
10419SOL    HW132156   3.359   6.870   5.800
10419SOL    HW232157   3.503   6.875   5.724
10420SOL     OW32158   6.623   3.931   4.131
10420SOL    HW132159   6.601   3.882   4.216
10420SOL    HW232160   6.722   3.941   4.123
10421SOL     OW32161   1.829   3.743   4.214
10421SOL    HW132162   1.731   3.725   4.207
10421SOL    HW232163   1.866   3.694   4.293
10422SOL     OW32164   6.951   3.202   5.206
10422SOL    HW132165   6.998   3.286   5.180
10422SOL    HW232166   6.942   3.142   5.127
10423SOL     OW32167   5.225   5.335   5.529
10423SOL    HW132168   5.206   5.328   5.627
10423SOL    HW232169   5.294   5.266   5.504
10424SOL     OW32170   3.648   2.935   0.666
10424SOL    HW132171   3.722   2.939   0.599
10424SOL    HW232172   3.577   3.001   0.641
10425SOL     OW32173   0.681   6.037   2.649
10425SOL    HW132174   0.631   6.115   2.688
10425SOL    HW232175   0.769   6.069   2.614
10426SOL     OW32176   5.205   4.278   6.719
10426SOL    HW132177   5.288   4.260   6.665
10426SOL    HW232178   5.133   4.216   6.690
10427SOL     OW32179   5.112   0.668   0.389
10427SOL    HW132180   5.090   0.717   0.305
10427SOL    HW232181   5.102   0.569   0.374
10428SOL     OW32182   3.138   1.557   4.005
10428SOL    HW132183   3.198   1.632   4.035
10428SOL    HW232184   3.134   1.557   3.905
10429SOL     OW32185   0.473   3.997   2.989
10429SOL    HW132186   0.458   4.084   3.038
10429SOL    HW232187   0.519   4.016   2.902
10430SOL     OW32188   3.542   6.553   4.922
10430SOL    HW132189   3.466   6.499   4.884
10430SOL    HW232190   3.539   6.548   5.022
10431SOL     OW32191   2.550   6.543   4.172
10431SOL    HW132192   2.504   6.455   4.182
10431SOL    HW232193   2.529   6.601   4.251
10432SOL     OW32194   6.387   0.699   4.627
10432SOL    HW132195   6.348   0.633   4.692
10432SOL    HW232196   6.456   0.754   4.672
10433SOL     OW32197   0.599   6.591   2.635
10433SOL    HW132198   0.605   6.534   2.716
10433SOL    HW232199   0.545   6.673   2.655
10434SOL     OW32200   2.985   6.554   3.535
10434SOL    HW132201   2.990   6.630   3.601
10434SOL    HW232202   2.943   6.475   3.579
10435SOL     OW32203   2.065   2.027   5.150
10435SOL    HW132204   2.111   1.946   5.186
10435SOL    HW232205   2.093   2.107   5.202
10436SOL     OW32206   5.875   3.928   4.634
10436SOL    HW132207   5.960   3.894   4.673
10436SOL    HW232208   5.894   4.003   4.571
10437SOL     OW32209   6.049   4.775   6.038
10437SOL    HW132210   6.029   4.827   5.955
10437SOL    HW232211   6.019   4.681   6.027
10438SOL     OW32212   0.803   5.854   5.941
10438SOL    HW132213   0.901   5.870   5.949
10438SOL    HW232214   0.778   5.852   5.844
10439SOL     OW32215   4.969   0.951   4.820
10439SOL    HW132216   4.989   0.935   4.724
10439SOL    HW232217   5.050   0.989   4.865
10440SOL     OW32218   0.183   6.833   0.110
10440SOL    HW132219   0.271   6.841   0.064
10440SOL    HW232220   0.157   6.922   0.149
10441SOL     OW32221   3.150   1.707   1.339
10441SOL    HW132222   3.099   1.775   1.287
10441SOL    HW232223   3.090   1.629   1.359
10442SOL     OW32224   4.317   6.525   5.282
10442SOL    HW132225   4.325   6.624   5.276
10442SOL    HW232226   4.358   6.483   5.201
10443SOL     OW32227   5.164   2.639   3.296
10443SOL    HW132228   5.124   2.670   3.382
10443SOL    HW232229   5.151   2.710   3.226
10444SOL     OW32230   4.264   5.641   2.884
10444SOL    HW132231   4.253   5.542   2.876
10444SOL    HW232232   4.265   5.682   2.793
10445SOL     OW32233   0.508   3.822   3.215
10445SOL    HW132234   0.549   3.872   3.292
10445SOL    HW232235   0.480   3.886   3.144
10446SOL     OW32236   2.164   3.087   6.388
10446SOL    HW132237   2.227   3.157   6.356
10446SOL    HW232238   2.070   3.112   6.362
10447SOL     OW32239   0.145   0.072   2.729
10447SOL    HW132240   0.241   0.071   2.700
10447SOL    HW232241   0.139   0.107   2.822
10448SOL     OW32242   4.290   0.693   2.095
10448SOL    HW132243   4.251   0.785   2.093
10448SOL    HW232244   4.359   0.687   2.167
10449SOL     OW32245   1.898   5.749   6.261
10449SOL    HW132246   1.984   5.730   6.213
10449SOL    HW232247   1.821   5.723   6.203
10450SOL     OW32248   0.382   1.438   6.834
10450SOL    HW132249   0.368   1.340   6.845
10450SOL    HW232250   0.438   1.473   6.909
10451SOL     OW32251   2.212   5.913   2.291
10451SOL    HW132252   2.263   5.843   2.341
10451SOL    HW232253   2.268   5.948   2.216
10452SOL     OW32254   6.183   2.885   2.805
10452SOL    HW132255   6.259   2.938   2.765
10452SOL    HW232256   6.184   2.793   2.768
10453SOL     OW32257   5.988   6.514   1.923
10453SOL    HW132258   5.931   6.455   1.866
10453SOL    HW232259   6.020   6.592   1.870
10454SOL     OW32260   5.835   2.690   0.256
10454SOL    HW132261   5.849   2.746   0.175
10454SOL    HW232262   5.738   2.684   0.277
10455SOL     OW32263   0.187   6.413   3.798
10455SOL    HW132264   0.248   6.407   3.719
10455SOL    HW232265   0.177   6.323   3.839
10456SOL     OW32266   1.282   5.279   0.910
10456SOL    HW132267   1.281   5.337   0.828
10456SOL    HW232268   1.258   5.185   0.884
10457SOL     OW32269   3.674   2.786   0.301
10457SOL    HW132270   3.634   2.853   0.238
10457SOL    HW232271   3.607   2.716   0.323
10458SOL     OW32272   6.425   0.013   5.783
10458SOL    HW132273   6.342   0.003   5.838
10458SOL    HW232274   6.400   0.045   5.691
10459SOL     OW32275   4.423   6.018   1.264
10459SOL    HW132276   4.437   6.046   1.359
10459SOL    HW232277   4.329   5.986   1.253
10460SOL     OW32278   1.208   4.003   1.379
10460SOL    HW132279   1.296   3.963   1.405
10460SOL    HW232280   1.173   4.059   1.454
10461SOL     OW32281   6.015   5.287   5.136
10461SOL    HW132282   5.924   5.278   5.095
10461SOL    HW232283   6.081   5.314   5.066
10462SOL     OW32284   5.135   2.424   2.999
10462SOL    HW132285   5.212   2.369   2.967
10462SOL    HW232286   5.163   2.482   3.075
10463SOL     OW32287   4.527   2.622   6.151
10463SOL    HW132288   4.449   2.610   6.089
10463SOL    HW232289   4.496   2.668   6.234
10464SOL     OW32290   6.350   6.265   2.116
10464SOL    HW132291   6.329   6.300   2.207
10464SOL    HW232292   6.433   6.308   2.082
10465SOL     OW32293   6.100   5.678   0.795
10465SOL    HW132294   6.037   5.754   0.780
10465SOL    HW232295   6.190   5.702   0.759
10466SOL     OW32296   4.345   4.837   5.300
10466SOL    HW132297   4.310   4.917   5.348
10466SOL    HW232298   4.422   4.864   5.242
10467SOL     OW32299   2.093   1.912   0.158
10467SOL    HW132300   2.085   1.868   0.068
10467SOL    HW232301   2.182   1.957   0.165
10468SOL     OW32302   3.603   5.125   3.256
10468SOL    HW132303   3.565   5.170   3.338
10468SOL    HW232304   3.698   5.152   3.244
10469SOL     OW32305   4.031   3.775   5.555
10469SOL    HW132306   4.057   3.693   5.505
10469SOL    HW232307   3.934   3.794   5.540
10470SOL     OW32308   1.524   2.240   4.197
10470SOL    HW132309   1.463   2.251   4.275
10470SOL    HW232310   1.480   2.275   4.114
10471SOL     OW32311   2.517   0.517   0.584
10471SOL    HW132312   2.557   0.510   0.492
10471SOL    HW232313   2.454   0.594   0.587
10472SOL     OW32314   3.543   6.010   0.393
10472SOL    HW132315   3.548   5.912   0.413
10472SOL    HW232316   3.576   6.062   0.473
10473SOL     OW32317   6.356   0.279   6.965
10473SOL    HW132318   6.261   0.299   6.941
10473SOL    HW232319   6.381   0.329   0.025
10474SOL     OW32320   4.263   1.174   3.988
10474SOL    HW132321   4.240   1.105   3.919
10474SOL    HW232322   4.326   1.135   4.055
10475SOL     OW32323   4.417   6.623   1.305
10475SOL    HW132324   4.329   6.670   1.314
10475SOL    HW232325   4.418   6.542   1.364
10476SOL     OW32326   6.463   6.525   6.804
10476SOL    HW132327   6.539   6.541   6.741
10476SOL    HW232328   6.376   6.526   6.754
10477SOL     OW32329   6.488   1.003   4.290
10477SOL    HW132330   6.469   1.027   4.195
10477SOL    HW232331   6.566   1.056   4.324
10478SOL     OW32332   6.707   0.787   0.920
10478SOL    HW132333   6.784   0.825   0.868
10478SOL    HW232334   6.656   0.724   0.861
10479SOL     OW32335   6.637   1.494   2.866
10479SOL    HW132336   6.659   1.557   2.941
10479SOL    HW232337   6.556   1.527   2.817
10480SOL     OW32338   0.618   1.010   1.955
10480SOL    HW132339   0.634   1.083   2.022
10480SOL    HW232340   0.541   0.954   1.985
10481SOL     OW32341   1.927   6.386   3.945
10481SOL    HW132342   1.843   6.371   3.892
10481SOL    HW232343   1.993   6.436   3.889
10482SOL     OW32344   6.649   5.053   4.188
10482SOL    HW132345   6.665   5.064   4.090
10482SOL    HW232346   6.673   4.961   4.216
10483SOL     OW32347   6.440   5.104   0.598
10483SOL    HW132348   6.466   5.038   0.668
10483SOL    HW232349   6.515   5.114   0.532
10484SOL     OW32350   6.030   1.664   1.403
10484SOL    HW132351   6.093   1.667   1.325
10484SOL    HW232352   5.973   1.746   1.403
10485SOL     OW32353   3.397   4.064   0.547
10485SOL    HW132354   3.406   4.062   0.647
10485SOL    HW232355   3.389   3.971   0.512
10486SOL     OW32356   0.112   0.691   0.324
10486SOL    HW132357   0.103   0.703   0.226
10486SOL    HW232358   0.161   0.769   0.363
10487SOL     OW32359   4.625   0.773   0.982
10487SOL    HW132360   4.609   0.828   1.063
10487SOL    HW232361   4.721   0.778   0.955
10488SOL     OW32362   3.129   0.931   6.026
10488SOL    HW132363   3.071   0.887   5.957
10488SOL    HW232364   3.222   0.942   5.989
10489SOL     OW32365   0.667   6.870   5.539
10489SOL    HW132366   0.713   6.905   5.457
10489SOL    HW232367   0.721   6.894   5.620
10490SOL     OW32368   5.877   1.329   1.348
10490SOL    HW132369   5.825   1.403   1.306
10490SOL    HW232370   5.816   1.253   1.369
10491SOL     OW32371   1.684   2.377   7.018
10491SOL    HW132372   1.765   2.320   7.001
10491SOL    HW232373   1.640   2.347   0.080
10492SOL     OW32374   5.980   4.681   6.567
10492SOL    HW132375   5.973   4.583   6.549
10492SOL    HW232376   5.891   4.724   6.552
10493SOL     OW32377   3.673   0.667   1.985
10493SOL    HW132378   3.638   0.580   2.020
10493SOL    HW232379   3.757   0.691   2.034
10494SOL     OW32380   5.164   4.336   5.811
10494SOL    HW132381   5.220   4.269   5.761
10494SOL    HW232382   5.217   4.419   5.825
10495SOL     OW32383   1.504   0.088   0.502
10495SOL    HW132384   1.530   7.016   0.522
10495SOL    HW232385   1.407   0.101   0.524
10496SOL     OW32386   6.808   3.550   5.766
10496SOL    HW132387   6.781   3.561   5.671
10496SOL    HW232388   6.906   3.531   5.771
10497SOL     OW32389   2.174   6.461   2.367
10497SOL    HW132390   2.088   6.410   2.364
10497SOL    HW232391   2.155   6.559   2.369
10498SOL     OW32392   4.540   5.940   0.385
10498SOL    HW132393   4.548   6.007   0.311
10498SOL    HW232394   4.630   5.924   0.425
10499SOL     OW32395   3.847   6.786   1.622
10499SOL    HW132396   3.900   6.702   1.635
10499SOL    HW232397   3.847   6.812   1.526
10500SOL     OW32398   5.902   1.508   6.291
10500SOL    HW132399   5.956   1.473   6.215
10500SOL    HW232400   5.930   1.601   6.312
10501SOL     OW32401   2.128   5.440   2.309
10501SOL    HW132402   2.155   5.373   2.378
10501SOL    HW232403   2.199   5.509   2.299
10502SOL     OW32404   2.606   0.410   1.646
10502SOL    HW132405   2.681   0.462   1.606
10502SOL    HW232406   2.556   0.468   1.711
10503SOL     OW32407   4.214   2.544   0.797
10503SOL    HW132408   4.148   2.540   0.872
10503SOL    HW232409   4.168   2.574   0.713
10504SOL     OW32410   0.361   2.041   5.476
10504SOL    HW132411   0.373   1.978   5.553
10504SOL    HW232412   0.450   2.074   5.446
10505SOL     OW32413   5.494   5.316   0.636
10505SOL    HW132414   5.511   5.413   0.619
10505SOL    HW232415   5.580   5.271   0.661
10506SOL     OW32416   6.945   4.847   0.570
10506SOL    HW132417   6.994   4.902   0.639
10506SOL    HW232418   6.928   4.756   0.606
10507SOL     OW32419   2.387   0.044   0.397
10507SOL    HW132420   2.367   7.003   0.471
10507SOL    HW232421   2.363   0.001   0.309
10508SOL     OW32422   6.172   6.497   4.749
10508SOL    HW132423   6.090   6.455   4.708
10508SOL    HW232424   6.163   6.495   4.849
10509SOL     OW32425   0.856   5.455   4.297
10509SOL    HW132426   0.774   5.506   4.325
10509SOL    HW232427   0.876   5.384   4.364
10510SOL     OW32428   4.730   5.651   6.136
10510SOL    HW132429   4.756   5.739   6.099
10510SOL    HW232430   4.788   5.628   6.214
10511SOL     OW32431   3.819   0.995   2.138
10511SOL    HW132432   3.804   1.071   2.075
10511SOL    HW232433   3.857   0.917   2.088
10512SOL     OW32434   3.965   0.376   6.274
10512SOL    HW132435   3.951   0.289   6.322
10512SOL    HW232436   3.939   0.452   6.334
10513SOL     OW32437   5.901   2.491   4.578
10513SOL    HW132438   5.817   2.475   4.630
10513SOL    HW232439   5.936   2.582   4.599
10514SOL     OW32440   0.738   3.788   1.401
10514SOL    HW132441   0.769   3.879   1.430
10514SOL    HW232442   0.688   3.745   1.476
10515SOL     OW32443   0.840   3.508   3.440
10515SOL    HW132444   0.801   3.452   3.513
10515SOL    HW232445   0.858   3.450   3.360
10516SOL     OW32446   3.787   1.229   0.282
10516SOL    HW132447   3.740   1.284   0.350
10516SOL    HW232448   3.728   1.155   0.250
10517SOL     OW32449   1.159   2.669   2.604
10517SOL    HW132450   1.066   2.659   2.641
10517SOL    HW232451   1.217   2.715   2.672
10518SOL     OW32452   0.717   6.039   6.329
10518SOL    HW132453   0.705   5.944   6.358
10518SOL    HW232454   0.768   6.089   6.399
10519SOL     OW32455   2.642   3.815   6.879
10519SOL    HW132456   2.575   3.741   6.887
10519SOL    HW232457   2.669   3.825   6.783
10520SOL     OW32458   0.652   2.665   6.144
10520SOL    HW132459   0.644   2.762   6.167
10520SOL    HW232460   0.743   2.633   6.170
10521SOL     OW32461   6.296   5.990   2.097
10521SOL    HW132462   6.196   5.996   2.092
10521SOL    HW232463   6.335   6.082   2.091
10522SOL     OW32464   0.579   0.669   5.327
10522SOL    HW132465   0.627   0.612   5.260
10522SOL    HW232466   0.622   0.658   5.417
10523SOL     OW32467   0.446   5.035   3.737
10523SOL    HW132468   0.382   4.964   3.766
10523SOL    HW232469   0.415   5.124   3.771
10524SOL     OW32470   1.874   0.383   4.745
10524SOL    HW132471   1.789   0.430   4.770
10524SOL    HW232472   1.942   0.396   4.818
10525SOL     OW32473   3.591   6.437   6.655
10525SOL    HW132474   3.564   6.360   6.714
10525SOL    HW232475   3.544   6.430   6.567
10526SOL     OW32476   1.647   0.366   3.988
10526SOL    HW132477   1.581   0.294   4.008
10526SOL    HW232478   1.735   0.326   3.964
10527SOL     OW32479   0.212   1.359   5.279
10527SOL    HW132480   0.310   1.337   5.277
10527SOL    HW232481   0.192   1.425   5.207
10528SOL     OW32482   1.958   3.204   6.006
10528SOL    HW132483   2.014   3.128   6.039
10528SOL    HW232484   1.922   3.255   6.084
10529SOL     OW32485   3.265   5.748   3.598
10529SOL    HW132486   3.311   5.837   3.604
10529SOL    HW232487   3.312   5.683   3.658
10530SOL     OW32488   1.850   6.908   6.591
10530SOL    HW132489   1.922   6.903   6.659
10530SOL    HW232490   1.761   6.895   6.635
10531SOL     OW32491   1.331   2.630   4.439
10531SOL    HW132492   1.252   2.637   4.378
10531SOL    HW232493   1.328   2.543   4.487
10532SOL     OW32494   1.091   6.120   5.810
10532SOL    HW132495   1.101   6.053   5.883
10532SOL    HW232496   1.006   6.104   5.761
10533SOL     OW32497   3.285   0.243   4.471
10533SOL    HW132498   3.278   0.330   4.422
10533SOL    HW232499   3.317   0.172   4.408
10534SOL     OW32500   6.720   6.100   1.496
10534SOL    HW132501   6.816   6.128   1.497
10534SOL    HW232502   6.702   6.043   1.415
10535SOL     OW32503   1.171   2.207   1.736
10535SOL    HW132504   1.242   2.143   1.705
10535SOL    HW232505   1.215   2.282   1.786
10536SOL     OW32506   4.500   0.286   3.465
10536SOL    HW132507   4.400   0.292   3.465
10536SOL    HW232508   4.538   0.376   3.443
10537SOL     OW32509   3.914   5.773   3.830
10537SOL    HW132510   3.941   5.679   3.847
10537SOL    HW232511   3.982   5.818   3.772
10538SOL     OW32512   5.123   2.058   1.170
10538SOL    HW132513   5.054   2.124   1.200
10538SOL    HW232514   5.199   2.106   1.128
10539SOL     OW32515   0.602   4.542   0.084
10539SOL    HW132516   0.569   4.620   0.031
10539SOL    HW232517   0.598   4.459   0.029
10540SOL     OW32518   1.464   2.055   5.237
10540SOL    HW132519   1.474   2.045   5.138
10540SOL    HW232520   1.554   2.074   5.277
10541SOL     OW32521   3.550   4.173   2.306
10541SOL    HW132522   3.518   4.266   2.291
10541SOL    HW232523   3.473   4.115   2.332
10542SOL     OW32524   6.779   0.023   5.539
10542SOL    HW132525   6.873   7.012   5.541
10542SOL    HW232526   6.766   0.092   5.610
10543SOL     OW32527   0.446   0.988   4.375
10543SOL    HW132528   0.371   1.046   4.405
10543SOL    HW232529   0.533   1.035   4.392
10544SOL     OW32530   2.495   6.329   1.740
10544SOL    HW132531   2.435   6.393   1.789
10544SOL    HW232532   2.534   6.264   1.804
10545SOL     OW32533   6.735   2.005   2.015
10545SOL    HW132534   6.804   2.034   2.080
10545SOL    HW232535   6.763   2.029   1.922
10546SOL     OW32536   1.884   0.691   0.286
10546SOL    HW132537   1.804   0.646   0.246
10546SOL    HW232538   1.947   0.623   0.320
10547SOL     OW32539   5.719   2.907   2.570
10547SOL    HW132540   5.635   2.935   2.524
10547SOL    HW232541   5.798   2.943   2.519
10548SOL     OW32542   5.384   4.162   4.206
10548SOL    HW132543   5.468   4.139   4.254
10548SOL    HW232544   5.307   4.114   4.248
10549SOL     OW32545   0.687   7.020   2.129
10549SOL    HW132546   0.774   0.009   2.083
10549SOL    HW232547   0.644   6.935   2.099
10550SOL     OW32548   4.471   6.041   3.755
10550SOL    HW132549   4.380   6.018   3.787
10550SOL    HW232550   4.465   6.078   3.662
10551SOL     OW32551   1.052   2.238   6.532
10551SOL    HW132552   1.008   2.269   6.616
10551SOL    HW232553   1.107   2.312   6.493
10552SOL     OW32554   2.948   0.817   6.217
10552SOL    HW132555   2.980   0.836   6.309
10552SOL    HW232556   2.997   0.874   6.151
10553SOL     OW32557   0.584   4.583   2.191
10553SOL    HW132558   0.514   4.614   2.125
10553SOL    HW232559   0.554   4.604   2.284
10554SOL     OW32560   5.400   4.964   0.117
10554SOL    HW132561   5.305   4.985   0.092
10554SOL    HW232562   5.405   4.871   0.153
10555SOL     OW32563   1.929   2.765   0.433
10555SOL    HW132564   1.872   2.833   0.479
10555SOL    HW232565   1.989   2.721   0.499
10556SOL     OW32566   1.769   1.990   5.759
10556SOL    HW132567   1.847   1.939   5.725
10556SOL    HW232568   1.687   1.966   5.706
10557SOL     OW32569   2.222   2.803   3.181
10557SOL    HW132570   2.222   2.792   3.281
10557SOL    HW232571   2.128   2.798   3.147
10558SOL     OW32572   3.798   0.823   3.055
10558SOL    HW132573   3.802   0.766   3.138
10558SOL    HW232574   3.795   0.919   3.081
10559SOL     OW32575   4.697   0.587   1.314
10559SOL    HW132576   4.681   0.544   1.226
10559SOL    HW232577   4.625   0.654   1.334
10560SOL     OW32578   3.839   6.517   2.941
10560SOL    HW132579   3.854   6.615   2.959
10560SOL    HW232580   3.786   6.507   2.856
10561SOL     OW32581   3.317   3.878   1.082
10561SOL    HW132582   3.306   3.888   1.180
10561SOL    HW232583   3.227   3.880   1.038
10562SOL     OW32584   4.795   4.848   0.272
10562SOL    HW132585   4.839   4.773   0.222
10562SOL    HW232586   4.713   4.814   0.317
10563SOL     OW32587   0.193   1.566   3.221
10563SOL    HW132588   0.252   1.646   3.224
10563SOL    HW232589   0.126   1.570   3.295
10564SOL     OW32590   6.067   6.097   2.268
10564SOL    HW132591   6.069   6.179   2.211
10564SOL    HW232592   5.973   6.062   2.273
10565SOL     OW32593   0.876   0.422   5.894
10565SOL    HW132594   0.840   0.413   5.987
10565SOL    HW232595   0.853   0.512   5.858
10566SOL     OW32596   3.204   1.629   6.560
10566SOL    HW132597   3.264   1.670   6.629
10566SOL    HW232598   3.135   1.572   6.605
10567SOL     OW32599   3.358   2.111   4.395
10567SOL    HW132600   3.348   2.016   4.426
10567SOL    HW232601   3.362   2.172   4.474
10568SOL     OW32602   6.630   3.042   1.639
10568SOL    HW132603   6.572   3.113   1.599
10568SOL    HW232604   6.662   3.070   1.729
10569SOL     OW32605   5.335   2.086   1.710
10569SOL    HW132606   5.256   2.131   1.668
10569SOL    HW232607   5.373   2.020   1.646
10570SOL     OW32608   1.423   5.361   3.636
10570SOL    HW132609   1.404   5.263   3.637
10570SOL    HW232610   1.450   5.389   3.544
10571SOL     OW32611   6.992   4.109   5.644
10571SOL    HW132612   0.046   4.150   5.695
10571SOL    HW232613   6.990   4.147   5.551
10572SOL     OW32614   0.220   4.225   3.421
10572SOL    HW132615   0.171   4.202   3.506
10572SOL    HW232616   0.190   4.314   3.388
10573SOL     OW32617   4.536   0.117   5.059
10573SOL    HW132618   4.626   0.073   5.051
10573SOL    HW232619   4.467   0.058   5.017
10574SOL     OW32620   1.818   1.235   4.302
10574SOL    HW132621   1.881   1.313   4.307
10574SOL    HW232622   1.806   1.209   4.206
10575SOL     OW32623   0.306   1.236   3.077
10575SOL    HW132624   0.358   1.269   2.999
10575SOL    HW232625   0.296   1.136   3.071
10576SOL     OW32626   0.176   6.362   4.801
10576SOL    HW132627   0.256   6.403   4.845
10576SOL    HW232628   0.186   6.263   4.800
10577SOL     OW32629   1.781   4.251   0.076
10577SOL    HW132630   1.732   4.307   0.009
10577SOL    HW232631   1.812   4.309   0.151
10578SOL     OW32632   5.030   1.726   2.460
10578SOL    HW132633   5.127   1.746   2.462
10578SOL    HW232634   4.987   1.778   2.386
10579SOL     OW32635   4.240   2.664   1.696
10579SOL    HW132636   4.224   2.586   1.634
10579SOL    HW232637   4.317   2.717   1.662
10580SOL     OW32638   6.676   0.390   6.852
10580SOL    HW132639   6.619   0.453   6.904
10580SOL    HW232640   6.706   0.315   6.910
10581SOL     OW32641   6.614   6.876   3.322
10581SOL    HW132642   6.553   6.823   3.263
10581SOL    HW232643   6.705   6.836   3.321
10582SOL     OW32644   5.803   5.048   6.144
10582SOL    HW132645   5.875   5.111   6.174
10582SOL    HW232646   5.753   5.088   6.067
10583SOL     OW32647   3.969   1.348   4.640
10583SOL    HW132648   4.031   1.344   4.718
10583SOL    HW232649   4.011   1.402   4.567
10584SOL     OW32650   6.375   6.826   1.533
10584SOL    HW132651   6.432   6.781   1.602
10584SOL    HW232652   6.432   6.885   1.476
10585SOL     OW32653   1.943   2.390   5.470
10585SOL    HW132654   1.955   2.299   5.511
10585SOL    HW232655   1.899   2.451   5.536
10586SOL     OW32656   6.249   5.671   5.202
10586SOL    HW132657   6.217   5.598   5.262
10586SOL    HW232658   6.172   5.728   5.173
10587SOL     OW32659   6.130   4.772   0.434
10587SOL    HW132660   6.213   4.718   0.447
10587SOL    HW232661   6.056   4.732   0.488
10588SOL     OW32662   0.967   3.331   4.147
10588SOL    HW132663   0.997   3.303   4.056
10588SOL    HW232664   1.047   3.344   4.207
10589SOL     OW32665   5.893   1.775   4.411
10589SOL    HW132666   5.971   1.795   4.470
10589SOL    HW232667   5.820   1.841   4.428
10590SOL     OW32668   0.658   0.406   2.124
10590SOL    HW132669   0.642   0.318   2.080
10590SOL    HW232670   0.584   0.470   2.100
10591SOL     OW32671   1.656   2.005   6.792
10591SOL    HW132672   1.703   1.995   6.880
10591SOL    HW232673   1.607   2.093   6.791
10592SOL     OW32674   5.305   3.787   1.901
10592SOL    HW132675   5.346   3.701   1.933
10592SOL    HW232676   5.370   3.861   1.914
10593SOL     OW32677   2.465   5.804   0.403
10593SOL    HW132678   2.411   5.800   0.319
10593SOL    HW232679   2.526   5.725   0.406
10594SOL     OW32680   5.228   0.628   2.415
10594SOL    HW132681   5.193   0.618   2.322
10594SOL    HW232682   5.294   0.556   2.433
10595SOL     OW32683   4.706   6.182   6.200
10595SOL    HW132684   4.671   6.192   6.107
10595SOL    HW232685   4.664   6.102   6.243
10596SOL     OW32686   4.140   6.851   0.238
10596SOL    HW132687   4.067   6.891   0.293
10596SOL    HW232688   4.150   6.754   0.263
10597SOL     OW32689   3.680   0.684   5.416
10597SOL    HW132690   3.734   0.601   5.400
10597SOL    HW232691   3.601   0.685   5.355
10598SOL     OW32692   2.667   3.022   0.372
10598SOL    HW132693   2.604   2.946   0.386
10598SOL    HW232694   2.752   3.005   0.423
10599SOL     OW32695   4.890   3.351   5.640
10599SOL    HW132696   4.793   3.369   5.656
10599SOL    HW232697   4.924   3.411   5.568
10600SOL     OW32698   2.285   3.078   0.227
10600SOL    HW132699   2.313   3.117   0.139
10600SOL    HW232700   2.189   3.052   0.224
10601SOL     OW32701   2.000   4.667   5.303
10601SOL    HW132702   2.026   4.624   5.217
10601SOL    HW232703   1.987   4.597   5.373
10602SOL     OW32704   3.456   1.434   1.932
10602SOL    HW132705   3.491   1.503   1.868
10602SOL    HW232706   3.404   1.365   1.882
10603SOL     OW32707   3.386   6.079   2.919
10603SOL    HW132708   3.443   6.015   2.970
10603SOL    HW232709   3.333   6.030   2.850
10604SOL     OW32710   5.994   5.696   5.400
10604SOL    HW132711   6.048   5.613   5.384
10604SOL    HW232712   5.900   5.670   5.422
10605SOL     OW32713   1.387   6.214   0.525
10605SOL    HW132714   1.461   6.268   0.565
10605SOL    HW232715   1.311   6.275   0.499
10606SOL     OW32716   6.608   0.603   2.657
10606SOL    HW132717   6.648   0.571   2.571
10606SOL    HW232718   6.575   0.697   2.645
10607SOL     OW32719   4.019   4.825   5.221
10607SOL    HW132720   3.970   4.880   5.289
10607SOL    HW232721   4.016   4.873   5.132
10608SOL     OW32722   5.213   2.376   5.850
10608SOL    HW132723   5.266   2.376   5.765
10608SOL    HW232724   5.222   2.287   5.895
10609SOL     OW32725   2.668   6.682   0.256
10609SOL    HW132726   2.700   6.605   0.202
10609SOL    HW232727   2.676   6.660   0.353
10610SOL     OW32728   0.647   2.332   5.209
10610SOL    HW132729   0.627   2.238   5.237
10610SOL    HW232730   0.703   2.376   5.279
10611SOL     OW32731   3.557   4.098   6.176
10611SOL    HW132732   3.472   4.149   6.160
10611SOL    HW232733   3.542   4.002   6.155
10612SOL     OW32734   3.209   0.932   4.501
10612SOL    HW132735   3.215   0.843   4.546
10612SOL    HW232736   3.170   0.921   4.410
10613SOL     OW32737   6.089   6.738   4.661
10613SOL    HW132738   6.094   6.638   4.662
10613SOL    HW232739   6.168   6.776   4.709
10614SOL     OW32740   6.323   2.066   4.451
10614SOL    HW132741   6.345   2.056   4.353
10614SOL    HW232742   6.224   2.065   4.463
10615SOL     OW32743   3.824   6.788   5.682
10615SOL    HW132744   3.778   6.736   5.754
10615SOL    HW232745   3.755   6.830   5.622
10616SOL     OW32746   3.395   6.276   1.169
10616SOL    HW132747   3.436   6.218   1.099
10616SOL    HW232748   3.302   6.299   1.143
10617SOL     OW32749   2.363   2.715   1.563
10617SOL    HW132750   2.390   2.658   1.485
10617SOL    HW232751   2.436   2.780   1.583
10618SOL     OW32752   0.396   3.856   6.465
10618SOL    HW132753   0.435   3.860   6.373
10618SOL    HW232754   0.370   3.762   6.487
10619SOL     OW32755   0.095   4.334   2.576
10619SOL    HW132756   0.010   4.320   2.524
10619SOL    HW232757   0.135   4.421   2.552
10620SOL     OW32758   1.621   5.572   4.909
10620SOL    HW132759   1.550   5.611   4.967
10620SOL    HW232760   1.693   5.531   4.967
10621SOL     OW32761   1.066   5.867   1.728
10621SOL    HW132762   1.014   5.939   1.682
10621SOL    HW232763   1.010   5.825   1.800
10622SOL     OW32764   5.287   1.868   1.257
10622SOL    HW132765   5.247   1.948   1.211
10622SOL    HW232766   5.367   1.837   1.205
10623SOL     OW32767   6.800   4.675   5.047
10623SOL    HW132768   6.828   4.768   5.023
10623SOL    HW232769   6.735   4.641   4.980
10624SOL     OW32770   0.383   2.853   4.925
10624SOL    HW132771   0.366   2.757   4.904
10624SOL    HW232772   0.360   2.909   4.845
10625SOL     OW32773   0.468   4.411   0.405
10625SOL    HW132774   0.560   4.405   0.443
10625SOL    HW232775   0.455   4.338   0.337
10626SOL     OW32776   2.552   3.123   0.609
10626SOL    HW132777   2.458   3.136   0.640
10626SOL    HW232778   2.554   3.121   0.509
10627SOL     OW32779   5.382   0.330   0.866
10627SOL    HW132780   5.321   0.271   0.812
10627SOL    HW232781   5.408   0.410   0.812
10628SOL     OW32782   4.934   6.448   0.093
10628SOL    HW132783   5.030   6.431   0.070
10628SOL    HW232784   4.875   6.395   0.032
10629SOL     OW32785   2.511   4.969   5.325
10629SOL    HW132786   2.567   4.889   5.305
10629SOL    HW232787   2.425   4.963   5.274
10630SOL     OW32788   6.635   0.829   3.362
10630SOL    HW132789   6.726   0.838   3.321
10630SOL    HW232790   6.631   0.882   3.447
10631SOL     OW32791   2.414   4.838   4.447
10631SOL    HW132792   2.343   4.784   4.402
10631SOL    HW232793   2.439   4.796   4.533
10632SOL     OW32794   6.072   2.007   4.019
10632SOL    HW132795   6.043   1.947   4.093
10632SOL    HW232796   6.078   1.955   3.933
10633SOL     OW32797   2.773   2.822   1.004
10633SOL    HW132798   2.830   2.837   0.924
10633SOL    HW232799   2.694   2.884   1.002
10634SOL     OW32800   3.401   5.733   0.692
10634SOL    HW132801   3.332   5.791   0.649
10634SOL    HW232802   3.478   5.790   0.722
10635SOL     OW32803   2.989   2.031   0.821
10635SOL    HW132804   3.079   2.075   0.822
10635SOL    HW232805   2.924   2.086   0.873
10636SOL     OW32806   1.140   1.825   1.685
10636SOL    HW132807   1.110   1.770   1.607
10636SOL    HW232808   1.060   1.856   1.737
10637SOL     OW32809   2.646   5.078   6.051
10637SOL    HW132810   2.729   5.127   6.078
10637SOL    HW232811   2.573   5.099   6.116
10638SOL     OW32812   6.815   5.455   2.824
10638SOL    HW132813   6.900   5.422   2.864
10638SOL    HW232814   6.828   5.547   2.788
10639SOL     OW32815   0.790   3.278   3.578
10639SOL    HW132816   0.783   3.314   3.672
10639SOL    HW232817   0.719   3.210   3.563
10640SOL     OW32818   3.865   0.087   5.705
10640SOL    HW132819   3.916   0.080   5.619
10640SOL    HW232820   3.907   0.027   5.773
10641SOL     OW32821   2.577   1.815   1.392
10641SOL    HW132822   2.523   1.882   1.443
10641SOL    HW232823   2.650   1.779   1.449
10642SOL     OW32824   0.116   3.406   1.917
10642SOL    HW132825   0.123   3.413   1.818
10642SOL    HW232826   0.019   3.404   1.943
10643SOL     OW32827   1.711   5.051   5.413
10643SOL    HW132828   1.791   5.083   5.464
10643SOL    HW232829   1.740   4.977   5.351
10644SOL     OW32830   5.572   2.558   3.291
10644SOL    HW132831   5.575   2.568   3.391
10644SOL    HW232832   5.597   2.644   3.248
10645SOL     OW32833   1.426   2.099   4.933
10645SOL    HW132834   1.343   2.130   4.980
10645SOL    HW232835   1.447   2.162   4.858
10646SOL     OW32836   6.464   0.642   6.802
10646SOL    HW132837   6.392   0.702   6.836
10646SOL    HW232838   6.451   0.550   6.840
10647SOL     OW32839   2.782   5.406   5.250
10647SOL    HW132840   2.765   5.374   5.344
10647SOL    HW232841   2.713   5.473   5.225
10648SOL     OW32842   5.631   4.447   6.434
10648SOL    HW132843   5.534   4.423   6.422
10648SOL    HW232844   5.686   4.399   6.366
10649SOL     OW32845   0.074   4.368   3.050
10649SOL    HW132846   0.095   4.408   2.961
10649SOL    HW232847   0.144   4.300   3.074
10650SOL     OW32848   0.683   6.533   3.694
10650SOL    HW132849   0.603   6.556   3.750
10650SOL    HW232850   0.660   6.544   3.597
10651SOL     OW32851   4.859   6.398   6.336
10651SOL    HW132852   4.828   6.318   6.285
10651SOL    HW232853   4.801   6.477   6.313
10652SOL     OW32854   3.657   6.887   6.103
10652SOL    HW132855   3.684   6.825   6.177
10652SOL    HW232856   3.557   6.885   6.094
10653SOL     OW32857   4.429   4.537   4.602
10653SOL    HW132858   4.370   4.463   4.570
10653SOL    HW232859   4.509   4.499   4.647
10654SOL     OW32860   4.968   0.583   0.596
10654SOL    HW132861   4.923   0.516   0.537
10654SOL    HW232862   5.034   0.636   0.542
10655SOL     OW32863   2.793   5.615   0.506
10655SOL    HW132864   2.812   5.697   0.559
10655SOL    HW232865   2.838   5.621   0.417
10656SOL     OW32866   6.563   2.116   2.202
10656SOL    HW132867   6.612   2.060   2.134
10656SOL    HW232868   6.467   2.089   2.203
10657SOL     OW32869   6.677   0.052   6.144
10657SOL    HW132870   6.596   0.107   6.163
10657SOL    HW232871   6.752   0.083   6.201
10658SOL     OW32872   5.914   4.615   4.970
10658SOL    HW132873   6.010   4.613   4.997
10658SOL    HW232874   5.882   4.710   4.967
10659SOL     OW32875   6.461   5.670   1.193
10659SOL    HW132876   6.487   5.577   1.217
10659SOL    HW232877   6.515   5.701   1.114
10660SOL     OW32878   5.518   3.487   0.024
10660SOL    HW132879   5.614   3.468   0.041
10660SOL    HW232880   5.491   3.571   0.071
10661SOL     OW32881   1.144   7.008   2.408
10661SOL    HW132882   1.206   0.030   2.343
10661SOL    HW232883   1.085   0.055   2.450
10662SOL     OW32884   5.457   0.902   3.626
10662SOL    HW132885   5.409   0.983   3.595
10662SOL    HW232886   5.390   0.832   3.654
10663SOL     OW32887   0.982   1.103   1.543
10663SOL    HW132888   1.003   1.164   1.466
10663SOL    HW232889   1.067   1.082   1.592
10664SOL     OW32890   0.773   4.790   5.204
10664SOL    HW132891   0.742   4.851   5.131
10664SOL    HW232892   0.762   4.835   5.292
10665SOL     OW32893   1.059   1.251   0.891
10665SOL    HW132894   0.960   1.266   0.883
10665SOL    HW232895   1.106   1.306   0.822
10666SOL     OW32896   3.129   4.134   0.770
10666SOL    HW132897   3.217   4.086   0.775
10666SOL    HW232898   3.144   4.232   0.780
10667SOL     OW32899   3.964   3.314   5.411
10667SOL    HW132900   3.958   3.294   5.509
10667SOL    HW232901   3.974   3.228   5.360
10668SOL     OW32902   1.535   1.002   5.148
10668SOL    HW132903   1.477   0.954   5.214
10668SOL    HW232904   1.490   1.088   5.121
10669SOL     OW32905   5.858   6.162   0.922
10669SOL    HW132906   5.937   6.194   0.870
10669SOL    HW232907   5.865   6.193   1.017
10670SOL     OW32908   5.372   4.318   5.275
10670SOL    HW132909   5.383   4.325   5.375
10670SOL    HW232910   5.349   4.408   5.239
10671SOL     OW32911   2.827   2.314   3.440
10671SOL    HW132912   2.791   2.255   3.367
10671SOL    HW232913   2.926   2.321   3.431
10672SOL     OW32914   6.084   2.738   0.371
10672SOL    HW132915   6.096   2.649   0.415
10672SOL    HW232916   5.996   2.740   0.324
10673SOL     OW32917   1.110   1.422   0.120
10673SOL    HW132918   1.136   1.512   0.084
10673SOL    HW232919   1.010   1.414   0.120
10674SOL     OW32920   3.075   3.801   0.997
10674SOL    HW132921   3.061   3.768   1.090
10674SOL    HW232922   3.106   3.726   0.939
10675SOL     OW32923   2.057   6.869   6.782
10675SOL    HW132924   2.148   6.872   6.825
10675SOL    HW232925   1.987   6.883   6.852
10676SOL     OW32926   6.049   6.733   5.747
10676SOL    HW132927   6.092   6.746   5.657
10676SOL    HW232928   5.964   6.785   5.752
10677SOL     OW32929   0.369   0.751   2.481
10677SOL    HW132930   0.278   0.740   2.443
10677SOL    HW232931   0.430   0.681   2.443
10678SOL     OW32932   3.527   5.293   3.003
10678SOL    HW132933   3.613   5.315   3.050
10678SOL    HW232934   3.455   5.277   3.071
10679SOL     OW32935   5.257   5.120   6.683
10679SOL    HW132936   5.261   5.189   6.755
10679SOL    HW232937   5.348   5.106   6.644
10680SOL     OW32938   3.041   1.663   3.494
10680SOL    HW132939   2.997   1.744   3.534
10680SOL    HW232940   2.975   1.589   3.488
10681SOL     OW32941   0.569   4.045   7.014
10681SOL    HW132942   0.627   4.101   6.955
10681SOL    HW232943   0.477   4.040   6.975
10682SOL     OW32944   1.712   1.812   4.310
10682SOL    HW132945   1.753   1.778   4.395
10682SOL    HW232946   1.754   1.899   4.285
10683SOL     OW32947   3.261   1.757   4.105
10683SOL    HW132948   3.242   1.773   4.202
10683SOL    HW232949   3.359   1.746   4.091
10684SOL     OW32950   5.286   4.470   1.096
10684SOL    HW132951   5.230   4.401   1.052
10684SOL    HW232952   5.383   4.446   1.086
10685SOL     OW32953   0.605   5.507   2.966
10685SOL    HW132954   0.671   5.578   2.989
10685SOL    HW232955   0.529   5.548   2.915
10686SOL     OW32956   1.278   4.638   6.524
10686SOL    HW132957   1.190   4.615   6.481
10686SOL    HW232958   1.353   4.606   6.465
10687SOL     OW32959   0.018   5.390   1.809
10687SOL    HW132960   0.049   5.449   1.883
10687SOL    HW232961   0.022   5.441   1.723
10688SOL     OW32962   6.510   3.882   3.151
10688SOL    HW132963   6.441   3.953   3.164
10688SOL    HW232964   6.566   3.873   3.233
10689SOL     OW32965   0.710   6.855   3.744
10689SOL    HW132966   0.784   6.798   3.780
10689SOL    HW232967   0.737   6.890   3.654
10690SOL     OW32968   0.195   5.931   2.985
10690SOL    HW132969   0.121   5.948   2.920
10690SOL    HW232970   0.236   5.842   2.966
10691SOL     OW32971   1.183   1.236   2.283
10691SOL    HW132972   1.174   1.296   2.363
10691SOL    HW232973   1.276   1.243   2.247
10692SOL     OW32974   3.510   4.877   2.597
10692SOL    HW132975   3.440   4.819   2.556
10692SOL    HW232976   3.587   4.887   2.534
10693SOL     OW32977   2.342   6.862   1.309
10693SOL    HW132978   2.421   6.846   1.250
10693SOL    HW232979   2.328   6.961   1.319
10694SOL     OW32980   4.544   6.452   1.024
10694SOL    HW132981   4.547   6.551   1.014
10694SOL    HW232982   4.478   6.428   1.096
10695SOL     OW32983   5.443   2.398   2.830
10695SOL    HW132984   5.521   2.351   2.788
10695SOL    HW232985   5.359   2.345   2.812
10696SOL     OW32986   6.699   3.869   3.349
10696SOL    HW132987   6.742   3.781   3.327
10696SOL    HW232988   6.648   3.860   3.435
10697SOL     OW32989   0.198   5.711   4.953
10697SOL    HW132990   0.200   5.611   4.950
10697SOL    HW232991   0.288   5.744   4.983
10698SOL     OW32992   3.855   5.981   4.057
10698SOL    HW132993   3.927   5.955   4.122
10698SOL    HW232994   3.861   5.923   3.976
10699SOL     OW32995   4.209   2.385   1.913
10699SOL    HW132996   4.115   2.360   1.935
10699SOL    HW232997   4.213   2.420   1.819
10700SOL     OW32998   0.594   7.001   0.650
10700SOL    HW132999   0.660   0.009   0.719
10700SOL    HW233000   0.540   0.057   0.619
10701SOL     OW33001   3.568   5.743   0.401
10701SOL    HW133002   3.543   5.724   0.495
10701SOL    HW233003   3.663   5.717   0.385
10702SOL     OW33004   6.200   2.167   2.649
10702SOL    HW133005   6.205   2.236   2.721
10702SOL    HW233006   6.108   2.165   2.610
10703SOL     OW33007   2.982   3.269   4.239
10703SOL    HW133008   3.030   3.185   4.215
10703SOL    HW233009   2.957   3.268   4.336
10704SOL     OW33010   5.971   5.369   1.856
10704SOL    HW133011   5.916   5.372   1.772
10704SOL    HW233012   6.061   5.410   1.838
10705SOL     OW33013   6.891   4.265   2.455
10705SOL    HW133014   6.881   4.311   2.367
10705SOL    HW233015   6.842   4.178   2.453
10706SOL     OW33016   4.478   6.424   2.043
10706SOL    HW133017   4.486   6.515   2.003
10706SOL    HW233018   4.437   6.431   2.134
10707SOL     OW33019   0.799   6.899   4.223
10707SOL    HW133020   0.814   6.971   4.155
10707SOL    HW233021   0.883   6.885   4.275
10708SOL     OW33022   4.518   0.724   2.328
10708SOL    HW133023   4.564   0.804   2.368
10708SOL    HW233024   4.550   0.641   2.374
10709SOL     OW33025   6.035   0.211   5.007
10709SOL    HW133026   6.110   0.213   4.941
10709SOL    HW233027   5.955   0.256   4.968
10710SOL     OW33028   0.469   6.501   4.224
10710SOL    HW133029   0.453   6.447   4.141
10710SOL    HW233030   0.498   6.593   4.198
10711SOL     OW33031   1.697   6.998   3.852
10711SOL    HW133032   1.642   6.933   3.904
10711SOL    HW233033   1.699   6.971   3.756
10712SOL     OW33034   3.522   1.107   1.289
10712SOL    HW133035   3.434   1.107   1.337
10712SOL    HW233036   3.594   1.135   1.352
10713SOL     OW33037   1.071   4.323   2.228
10713SOL    HW133038   1.007   4.399   2.215
10713SOL    HW233039   1.161   4.359   2.253
10714SOL     OW33040   5.773   3.328   5.814
10714SOL    HW133041   5.752   3.323   5.716
10714SOL    HW233042   5.728   3.408   5.853
10715SOL     OW33043   4.853   6.607   2.916
10715SOL    HW133044   4.757   6.612   2.943
10715SOL    HW233045   4.866   6.657   2.831
10716SOL     OW33046   6.608   2.310   4.058
10716SOL    HW133047   6.580   2.386   4.116
10716SOL    HW233048   6.532   2.283   3.999
10717SOL     OW33049   0.581   2.628   0.637
10717SOL    HW133050   0.536   2.546   0.600
10717SOL    HW233051   0.586   2.621   0.737
10718SOL     OW33052   6.871   3.926   6.773
10718SOL    HW133053   6.969   3.934   6.758
10718SOL    HW233054   6.842   3.832   6.756
10719SOL     OW33055   4.862   6.102   0.631
10719SOL    HW133056   4.899   6.050   0.707
10719SOL    HW233057   4.916   6.185   0.617
10720SOL     OW33058   0.042   2.969   5.317
10720SOL    HW133059   0.093   2.946   5.234
10720SOL    HW233060   6.998   3.041   5.296
10721SOL     OW33061   5.857   3.417   5.259
10721SOL    HW133062   5.852   3.469   5.345
10721SOL    HW233063   5.765   3.388   5.232
10722SOL     OW33064   7.020   2.845   0.342
10722SOL    HW133065   6.984   2.752   0.335
10722SOL    HW233066   0.093   2.847   0.312
10723SOL     OW33067   6.805   4.181   6.855
10723SOL    HW133068   6.811   4.109   6.786
10723SOL    HW233069   6.735   4.247   6.829
10724SOL     OW33070   3.423   0.152   6.460
10724SOL    HW133071   3.341   0.098   6.441
10724SOL    HW233072   3.402   0.249   6.451
10725SOL     OW33073   0.109   5.246   3.992
10725SOL    HW133074   0.129   5.153   4.023
10725SOL    HW233075   0.172   5.271   3.919
10726SOL     OW33076   5.993   6.248   5.362
10726SOL    HW133077   5.967   6.247   5.265
10726SOL    HW233078   6.084   6.289   5.371
10727SOL     OW33079   1.376   4.787   3.985
10727SOL    HW133080   1.378   4.789   4.084
10727SOL    HW233081   1.445   4.849   3.948
10728SOL     OW33082   6.066   6.467   2.354
10728SOL    HW133083   6.066   6.557   2.310
10728SOL    HW233084   5.981   6.453   2.405
10729SOL     OW33085   6.372   0.817   3.398
10729SOL    HW133086   6.378   0.826   3.497
10729SOL    HW233087   6.464   0.814   3.359
10730SOL     OW33088   2.715   0.119   1.390
10730SOL    HW133089   2.807   0.148   1.366
10730SOL    HW233090   2.668   0.195   1.436
10731SOL     OW33091   2.148   6.076   6.534
10731SOL    HW133092   2.093   6.045   6.612
10731SOL    HW233093   2.153   6.003   6.466
10732SOL     OW33094   5.455   0.121   2.560
10732SOL    HW133095   5.405   0.078   2.635
10732SOL    HW233096   5.457   0.059   2.482
10733SOL     OW33097   5.636   2.468   6.832
10733SOL    HW133098   5.605   2.394   6.772
10733SOL    HW233099   5.685   2.429   6.910
10734SOL     OW33100   1.480   0.725   6.289
10734SOL    HW133101   1.433   0.674   6.218
10734SOL    HW233102   1.557   0.775   6.250
10735SOL     OW33103   1.097   4.559   2.470
10735SOL    HW133104   1.185   4.549   2.423
10735SOL    HW233105   1.063   4.652   2.457
10736SOL     OW33106   0.886   1.480   3.791
10736SOL    HW133107   0.933   1.568   3.797
10736SOL    HW233108   0.936   1.412   3.845
10737SOL     OW33109   0.919   2.165   0.034
10737SOL    HW133110   0.935   2.128   0.125
10737SOL    HW233111   0.983   2.125   6.991
10738SOL     OW33112   3.316   0.453   1.754
10738SOL    HW133113   3.252   0.397   1.701
10738SOL    HW233114   3.410   0.422   1.737
10739SOL     OW33115   0.785   1.035   2.648
10739SOL    HW133116   0.699   0.984   2.649
10739SOL    HW233117   0.766   1.133   2.650
10740SOL     OW33118   1.503   4.773   6.167
10740SOL    HW133119   1.472   4.688   6.209
10740SOL    HW233120   1.521   4.841   6.238
10741SOL     OW33121   1.412   1.376   3.399
10741SOL    HW133122   1.412   1.377   3.299
10741SOL    HW233123   1.324   1.409   3.433
10742SOL     OW33124   6.079   0.240   1.961
10742SOL    HW133125   6.053   0.160   1.907
10742SOL    HW233126   5.997   0.277   2.006
10743SOL     OW33127   2.462   2.659   3.605
10743SOL    HW133128   2.496   2.580   3.554
10743SOL    HW233129   2.412   2.720   3.544
10744SOL     OW33130   3.373   1.647   2.560
10744SOL    HW133131   3.471   1.638   2.580
10744SOL    HW233132   3.343   1.740   2.580
10745SOL     OW33133   1.304   4.884   0.566
10745SOL    HW133134   1.330   4.905   0.472
10745SOL    HW233135   1.365   4.815   0.603
10746SOL     OW33136   1.770   4.424   0.811
10746SOL    HW133137   1.713   4.501   0.837
10746SOL    HW233138   1.867   4.448   0.820
10747SOL     OW33139   5.043   1.429   3.289
10747SOL    HW133140   5.131   1.476   3.290
10747SOL    HW233141   5.046   1.354   3.223
10748SOL     OW33142   5.790   0.004   1.219
10748SOL    HW133143   5.726   6.997   1.149
10748SOL    HW233144   5.747   7.018   1.309
10749SOL     OW33145   0.296   4.953   3.019
10749SOL    HW133146   0.250   4.958   3.107
10749SOL    HW233147   0.329   4.860   3.004
10750SOL     OW33148   5.146   5.103   4.525
10750SOL    HW133149   5.140   5.201   4.543
10750SOL    HW233150   5.058   5.070   4.489
10751SOL     OW33151   0.897   3.811   5.197
10751SOL    HW133152   0.912   3.797   5.099
10751SOL    HW233153   0.801   3.831   5.214
10752SOL     OW33154   6.251   3.854   6.345
10752SOL    HW133155   6.309   3.785   6.304
10752SOL    HW233156   6.171   3.810   6.386
10753SOL     OW33157   5.981   0.422   3.795
10753SOL    HW133158   5.917   0.497   3.779
10753SOL    HW233159   5.940   0.356   3.858
10754SOL     OW33160   2.362   1.759   3.312
10754SOL    HW133161   2.310   1.682   3.348
10754SOL    HW233162   2.300   1.833   3.287
10755SOL     OW33163   0.130   1.303   0.995
10755SOL    HW133164   0.115   1.251   1.079
10755SOL    HW233165   0.053   1.365   0.981
10756SOL     OW33166   6.083   3.793   0.718
10756SOL    HW133167   6.096   3.716   0.780
10756SOL    HW233168   6.130   3.774   0.632
10757SOL     OW33169   6.782   3.783   0.475
10757SOL    HW133170   6.840   3.710   0.512
10757SOL    HW233171   6.752   3.758   0.383
10758SOL     OW33172   1.453   6.154   5.042
10758SOL    HW133173   1.543   6.196   5.052
10758SOL    HW233174   1.464   6.059   5.011
10759SOL     OW33175   1.832   3.350   6.657
10759SOL    HW133176   1.897   3.301   6.714
10759SOL    HW233177   1.763   3.394   6.715
10760SOL     OW33178   0.092   0.095   1.037
10760SOL    HW133179   0.069   0.193   1.037
10760SOL    HW233180   0.012   0.042   1.010
10761SOL     OW33181   0.698   1.741   6.234
10761SOL    HW133182   0.703   1.681   6.314
10761SOL    HW233183   0.780   1.798   6.231
10762SOL     OW33184   4.466   1.136   5.158
10762SOL    HW133185   4.388   1.195   5.136
10762SOL    HW233186   4.482   1.072   5.082
10763SOL     OW33187   4.819   6.349   1.033
10763SOL    HW133188   4.893   6.416   1.027
10763SOL    HW233189   4.735   6.390   0.997
10764SOL     OW33190   5.664   1.864   6.245
10764SOL    HW133191   5.586   1.914   6.208
10764SOL    HW233192   5.679   1.781   6.192
10765SOL     OW33193   5.701   2.413   1.075
10765SOL    HW133194   5.678   2.386   1.169
10765SOL    HW233195   5.786   2.466   1.076
10766SOL     OW33196   2.944   3.307   0.378
10766SOL    HW133197   3.005   3.381   0.348
10766SOL    HW233198   2.851   3.326   0.345
10767SOL     OW33199   1.222   0.795   0.767
10767SOL    HW133200   1.278   0.827   0.690
10767SOL    HW233201   1.278   0.794   0.850
10768SOL     OW33202   5.549   5.478   0.328
10768SOL    HW133203   5.600   5.416   0.269
10768SOL    HW233204   5.492   5.538   0.271
10769SOL     OW33205   2.645   5.300   4.840
10769SOL    HW133206   2.710   5.306   4.916
10769SOL    HW233207   2.689   5.259   4.761
10770SOL     OW33208   5.804   0.074   4.315
10770SOL    HW133209   5.859   0.092   4.233
10770SOL    HW233210   5.834   0.132   4.390
10771SOL     OW33211   4.831   0.160   5.425
10771SOL    HW133212   4.867   0.106   5.349
10771SOL    HW233213   4.731   0.148   5.429
10772SOL     OW33214   6.114   6.815   4.060
10772SOL    HW133215   6.048   6.786   4.130
10772SOL    HW233216   6.158   6.735   4.020
10773SOL     OW33217   6.815   4.872   6.837
10773SOL    HW133218   6.864   4.956   6.859
10773SOL    HW233219   6.719   4.893   6.816
10774SOL     OW33220   1.584   2.059   0.140
10774SOL    HW133221   1.647   2.068   0.216
10774SOL    HW233222   1.579   1.963   0.111
10775SOL     OW33223   1.036   3.651   0.432
10775SOL    HW133224   1.072   3.705   0.508
10775SOL    HW233225   1.108   3.637   0.364
10776SOL     OW33226   1.167   6.168   0.857
10776SOL    HW133227   1.116   6.103   0.800
10776SOL    HW233228   1.244   6.121   0.899
10777SOL     OW33229   4.060   0.180   3.816
10777SOL    HW133230   3.965   0.186   3.845
10777SOL    HW233231   4.092   0.270   3.787
10778SOL     OW33232   5.250   6.915   4.865
10778SOL    HW133233   5.293   6.905   4.775
10778SOL    HW233234   5.263   6.831   4.917
10779SOL     OW33235   6.649   4.597   3.196
10779SOL    HW133236   6.629   4.522   3.133
10779SOL    HW233237   6.595   4.586   3.279
10780SOL     OW33238   1.207   6.540   2.534
10780SOL    HW133239   1.143   6.599   2.485
10780SOL    HW233240   1.221   6.577   2.626
10781SOL     OW33241   3.677   1.648   3.822
10781SOL    HW133242   3.613   1.571   3.831
10781SOL    HW233243   3.705   1.678   3.913
10782SOL     OW33244   6.277   2.430   3.642
10782SOL    HW133245   6.230   2.513   3.671
10782SOL    HW233246   6.214   2.352   3.646
10783SOL     OW33247   1.478   3.289   3.039
10783SOL    HW133248   1.442   3.256   2.952
10783SOL    HW233249   1.465   3.218   3.109
10784SOL     OW33250   2.716   6.827   2.010
10784SOL    HW133251   2.618   6.814   2.026
10784SOL    HW233252   2.752   6.750   1.957
10785SOL     OW33253   1.107   4.811   1.790
10785SOL    HW133254   1.083   4.841   1.698
10785SOL    HW233255   1.031   4.757   1.828
10786SOL     OW33256   5.465   3.386   1.699
10786SOL    HW133257   5.405   3.453   1.656
10786SOL    HW233258   5.551   3.380   1.648
10787SOL     OW33259   3.418   2.114   4.696
10787SOL    HW133260   3.516   2.131   4.706
10787SOL    HW233261   3.373   2.126   4.784
10788SOL     OW33262   2.551   4.574   0.129
10788SOL    HW133263   2.638   4.536   0.160
10788SOL    HW233264   2.476   4.522   0.170
10789SOL     OW33265   5.565   1.967   1.020
10789SOL    HW133266   5.531   1.911   0.944
10789SOL    HW233267   5.612   2.047   0.983
10790SOL     OW33268   0.873   0.670   4.220
10790SOL    HW133269   0.870   0.658   4.319
10790SOL    HW233270   0.838   0.587   4.176
10791SOL     OW33271   0.562   1.065   1.548
10791SOL    HW133272   0.608   1.144   1.588
10791SOL    HW233273   0.622   1.021   1.482
10792SOL     OW33274   3.045   2.992   1.673
10792SOL    HW133275   3.075   2.922   1.737
10792SOL    HW233276   3.097   2.984   1.588
10793SOL     OW33277   5.369   2.255   4.153
10793SOL    HW133278   5.368   2.208   4.065
10793SOL    HW233279   5.422   2.201   4.219
10794SOL     OW33280   3.431   3.898   2.186
10794SOL    HW133281   3.349   3.883   2.241
10794SOL    HW233282   3.440   3.995   2.165
10795SOL     OW33283   6.053   4.002   4.011
10795SOL    HW133284   6.127   3.985   3.946
10795SOL    HW233285   5.986   4.064   3.969
10796SOL     OW33286   3.813   6.252   6.458
10796SOL    HW133287   3.801   6.254   6.557
10796SOL    HW233288   3.881   6.320   6.431
10797SOL     OW33289   4.398   2.398   0.696
10797SOL    HW133290   4.325   2.454   0.735
10797SOL    HW233291   4.485   2.419   0.742
10798SOL     OW33292   2.100   0.100   0.479
10798SOL    HW133293   2.122   0.180   0.423
10798SOL    HW233294   2.072   0.129   0.570
10799SOL     OW33295   3.612   1.791   1.702
10799SOL    HW133296   3.543   1.722   1.684
10799SOL    HW233297   3.594   1.873   1.646
10800SOL     OW33298   1.086   6.751   0.114
10800SOL    HW133299   1.095   6.850   0.116
10800SOL    HW233300   1.144   6.710   0.185
10801SOL     OW33301   1.019   6.983   4.827
10801SOL    HW133302   1.072   0.014   4.893
10801SOL    HW233303   1.080   6.946   4.757
10802SOL     OW33304   2.156   3.247   4.829
10802SOL    HW133305   2.208   3.290   4.902
10802SOL    HW233306   2.199   3.160   4.803
10803SOL     OW33307   4.716   4.440   5.107
10803SOL    HW133308   4.647   4.485   5.051
10803SOL    HW233309   4.804   4.440   5.058
10804SOL     OW33310   6.875   4.325   1.344
10804SOL    HW133311   6.924   4.330   1.431
10804SOL    HW233312   6.811   4.248   1.347
10805SOL     OW33313   3.280   6.494   6.784
10805SOL    HW133314   3.302   6.511   6.688
10805SOL    HW233315   3.322   6.408   6.814
10806SOL     OW33316   5.215   4.393   6.991
10806SOL    HW133317   5.189   4.335   6.914
10806SOL    HW233318   5.303   4.362   0.005
10807SOL     OW33319   3.168   0.003   3.227
10807SOL    HW133320   3.161   0.100   3.200
10807SOL    HW233321   3.206   6.973   3.151
10808SOL     OW33322   0.174   3.854   6.993
10808SOL    HW133323   0.264   3.828   6.961
10808SOL    HW233324   0.131   3.916   6.927
10809SOL     OW33325   2.858   6.839   3.656
10809SOL    HW133326   2.908   6.883   3.582
10809SOL    HW233327   2.804   6.908   3.706
10810SOL     OW33328   1.069   0.962   5.746
10810SOL    HW133329   0.993   0.937   5.806
10810SOL    HW233330   1.129   1.027   5.792
10811SOL     OW33331   4.629   4.815   5.151
10811SOL    HW133332   4.707   4.788   5.094
10811SOL    HW233333   4.656   4.813   5.247
10812SOL     OW33334   0.715   3.419   2.583
10812SOL    HW133335   0.705   3.430   2.485
10812SOL    HW233336   0.714   3.508   2.628
10813SOL     OW33337   1.877   6.093   7.015
10813SOL    HW133338   1.783   6.082   6.983
10813SOL    HW233339   1.878   6.098   0.092
10814SOL     OW33340   1.757   6.798   6.335
10814SOL    HW133341   1.658   6.788   6.340
10814SOL    HW233342   1.792   6.826   6.425
10815SOL     OW33343   5.045   5.035   3.286
10815SOL    HW133344   5.030   4.999   3.194
10815SOL    HW233345   5.109   5.111   3.282
10816SOL     OW33346   1.489   1.432   2.491
10816SOL    HW133347   1.420   1.496   2.525
10816SOL    HW233348   1.525   1.464   2.404
10817SOL     OW33349   5.200   0.071   2.794
10817SOL    HW133350   5.125   0.058   2.859
10817SOL    HW233351   5.287   0.059   2.842
10818SOL     OW33352   4.892   4.011   5.578
10818SOL    HW133353   4.866   3.949   5.504
10818SOL    HW233354   4.942   3.959   5.648
10819SOL     OW33355   6.834   4.612   6.881
10819SOL    HW133356   6.748   4.602   6.931
10819SOL    HW233357   6.855   4.709   6.870
10820SOL     OW33358   6.234   6.322   4.145
10820SOL    HW133359   6.203   6.239   4.192
10820SOL    HW233360   6.281   6.296   4.061
10821SOL     OW33361   5.139   6.125   1.991
10821SOL    HW133362   5.069   6.068   1.947
10821SOL    HW233363   5.109   6.220   1.991
10822SOL     OW33364   1.266   2.616   3.350
10822SOL    HW133365   1.200   2.586   3.419
10822SOL    HW233366   1.348   2.651   3.394
10823SOL     OW33367   1.443   5.171   1.524
10823SOL    HW133368   1.493   5.236   1.467
10823SOL    HW233369   1.508   5.123   1.584
10824SOL     OW33370   4.983   6.843   4.152
10824SOL    HW133371   5.064   6.897   4.175
10824SOL    HW233372   4.903   6.903   4.152
10825SOL     OW33373   2.831   0.597   0.714
10825SOL    HW133374   2.841   0.617   0.616
10825SOL    HW233375   2.745   0.636   0.747
10826SOL     OW33376   0.282   3.655   4.146
10826SOL    HW133377   0.361   3.714   4.128
10826SOL    HW233378   0.271   3.590   4.070
10827SOL     OW33379   5.642   3.949   4.774
10827SOL    HW133380   5.735   3.929   4.745
10827SOL    HW233381   5.596   4.002   4.703
10828SOL     OW33382   0.997   5.796   2.561
10828SOL    HW133383   0.906   5.797   2.604
10828SOL    HW233384   0.995   5.735   2.481
10829SOL     OW33385   3.733   2.501   0.057
10829SOL    HW133386   3.668   2.575   0.038
10829SOL    HW233387   3.806   2.535   0.116
10830SOL     OW33388   4.768   1.623   3.099
10830SOL    HW133389   4.858   1.665   3.111
10830SOL    HW233390   4.758   1.593   3.004
10831SOL     OW33391   4.044   5.559   1.932
10831SOL    HW133392   4.059   5.645   1.884
10831SOL    HW233393   4.059   5.572   2.030
10832SOL     OW33394   0.095   1.920   0.746
10832SOL    HW133395   0.115   1.822   0.756
10832SOL    HW233396   0.010   1.932   0.695
10833SOL     OW33397   1.572   0.774   4.216
10833SOL    HW133398   1.524   0.695   4.179
10833SOL    HW233399   1.670   0.764   4.197
10834SOL     OW33400   1.412   2.027   6.125
10834SOL    HW133401   1.354   2.060   6.051
10834SOL    HW233402   1.369   1.947   6.168
10835SOL     OW33403   5.854   1.872   1.332
10835SOL    HW133404   5.902   1.918   1.258
10835SOL    HW233405   5.757   1.898   1.331
10836SOL     OW33406   6.370   1.252   4.967
10836SOL    HW133407   6.440   1.183   4.985
10836SOL    HW233408   6.354   1.305   5.050
10837SOL     OW33409   0.603   4.865   0.017
10837SOL    HW133410   0.564   4.932   0.081
10837SOL    HW233411   0.584   4.894   6.945
10838SOL     OW33412   5.773   6.595   4.419
10838SOL    HW133413   5.684   6.639   4.428
10838SOL    HW233414   5.786   6.564   4.325
10839SOL     OW33415   3.038   3.027   0.346
10839SOL    HW133416   2.990   3.114   0.347
10839SOL    HW233417   3.002   2.968   0.419
10840SOL     OW33418   4.162   6.035   1.396
10840SOL    HW133419   4.165   6.132   1.371
10840SOL    HW233420   4.072   5.998   1.372
10841SOL     OW33421   3.789   6.578   6.776
10841SOL    HW133422   3.860   6.510   6.793
10841SOL    HW233423   3.705   6.532   6.748
10842SOL     OW33424   6.004   3.400   0.642
10842SOL    HW133425   6.054   3.455   0.575
10842SOL    HW233426   6.011   3.303   0.618
10843SOL     OW33427   0.856   1.675   1.849
10843SOL    HW133428   0.934   1.700   1.907
10843SOL    HW233429   0.826   1.582   1.872
10844SOL     OW33430   0.553   6.678   3.907
10844SOL    HW133431   0.565   6.772   3.875
10844SOL    HW233432   0.566   6.674   4.006
10845SOL     OW33433   2.293   1.278   0.688
10845SOL    HW133434   2.346   1.333   0.752
10845SOL    HW233435   2.253   1.200   0.737
10846SOL     OW33436   4.561   2.967   0.686
10846SOL    HW133437   4.587   2.890   0.745
10846SOL    HW233438   4.519   3.039   0.741
10847SOL     OW33439   3.028   2.022   6.480
10847SOL    HW133440   2.940   2.069   6.488
10847SOL    HW233441   3.102   2.089   6.484
10848SOL     OW33442   3.316   2.421   6.564
10848SOL    HW133443   3.355   2.390   6.651
10848SOL    HW233444   3.369   2.499   6.531
10849SOL     OW33445   3.183   4.907   3.332
10849SOL    HW133446   3.275   4.885   3.299
10849SOL    HW233447   3.177   4.885   3.429
10850SOL     OW33448   4.785   6.066   6.568
10850SOL    HW133449   4.727   6.144   6.543
10850SOL    HW233450   4.881   6.089   6.552
10851SOL     OW33451   2.866   3.073   6.612
10851SOL    HW133452   2.815   3.147   6.568
10851SOL    HW233453   2.810   2.990   6.613
10852SOL     OW33454   0.194   6.373   5.844
10852SOL    HW133455   0.220   6.417   5.759
10852SOL    HW233456   0.099   6.342   5.838
10853SOL     OW33457   3.803   1.896   5.730
10853SOL    HW133458   3.757   1.835   5.665
10853SOL    HW233459   3.777   1.872   5.823
10854SOL     OW33460   6.157   6.812   5.491
10854SOL    HW133461   6.109   6.749   5.430
10854SOL    HW233462   6.142   6.906   5.460
10855SOL     OW33463   2.972   6.297   2.570
10855SOL    HW133464   2.992   6.394   2.561
10855SOL    HW233465   3.057   6.245   2.579
10856SOL     OW33466   5.754   1.612   2.094
10856SOL    HW133467   5.794   1.579   2.009
10856SOL    HW233468   5.654   1.603   2.091
10857SOL     OW33469   5.367   2.946   3.808
10857SOL    HW133470   5.445   2.997   3.771
10857SOL    HW233471   5.398   2.858   3.843
10858SOL     OW33472   1.536   2.689   6.443
10858SOL    HW133473   1.471   2.641   6.383
10858SOL    HW233474   1.510   2.675   6.538
10859SOL     OW33475   2.316   4.275   4.487
10859SOL    HW133476   2.368   4.292   4.404
10859SOL    HW233477   2.304   4.176   4.499
10860SOL     OW33478   6.488   1.063   5.770
10860SOL    HW133479   6.437   1.141   5.734
10860SOL    HW233480   6.443   1.028   5.851
10861SOL     OW33481   3.720   3.008   2.198
10861SOL    HW133482   3.661   3.088   2.196
10861SOL    HW233483   3.815   3.036   2.183
10862SOL     OW33484   2.440   1.284   6.826
10862SOL    HW133485   2.395   1.350   6.885
10862SOL    HW233486   2.387   1.199   6.822
10863SOL     OW33487   3.953   0.383   2.153
10863SOL    HW133488   3.894   0.312   2.114
10863SOL    HW233489   3.926   0.401   2.247
10864SOL     OW33490   2.698   4.790   1.025
10864SOL    HW133491   2.794   4.774   1.047
10864SOL    HW233492   2.670   4.729   0.951
10865SOL     OW33493   5.451   2.150   3.856
10865SOL    HW133494   5.548   2.129   3.849
10865SOL    HW233495   5.419   2.186   3.768
10866SOL     OW33496   6.023   4.177   0.748
10866SOL    HW133497   6.074   4.125   0.679
10866SOL    HW233498   6.083   4.197   0.826
10867SOL     OW33499   2.872   3.917   0.495
10867SOL    HW133500   2.777   3.932   0.523
10867SOL    HW233501   2.874   3.876   0.404
10868SOL     OW33502   2.187   1.557   3.362
10868SOL    HW133503   2.091   1.584   3.357
10868SOL    HW233504   2.209   1.498   3.284
10869NA      NA33505   0.480   2.503   6.051
10870NA      NA33506   4.299   4.620   5.278
10871NA      NA33507   2.217   4.489   2.277
10872NA      NA33508   5.105   4.353   3.685
10873NA      NA33509   4.384   2.512   5.204
10874NA      NA33510   3.559   4.406   1.537
10875NA      NA33511   0.784   4.510   0.232
10876NA      NA33512   3.943   3.873   1.688
10877NA      NA33513   5.151   4.698   0.937
10878NA      NA33514   3.702   0.254   5.785
10879NA      NA33515   6.083   5.475   0.923
10880NA      NA33516   1.757   0.874   5.652
10881NA      NA33517   4.653   4.955   2.097
10882NA      NA33518   3.707   2.887   1.083
   7.02226   7.02226   7.02226
