Generated by trjconv : CNT in water t= 188.00000
33518
    1C        C    1   2.841   2.768   4.749
    1C        C    2   2.898   2.719   4.869
    1C        C    3   2.841   2.770   4.986
    1C        C    4   2.851   2.776   4.260
    1C        C    5   2.901   2.730   4.384
    1C        C    6   2.842   2.770   4.506
    1C        C    7   3.009   2.639   4.622
    1C        C    8   2.892   2.717   4.627
    1C        C    9   3.078   2.605   4.741
    1C        C   10   3.009   2.632   4.861
    1C        C   11   3.175   2.484   4.968
    1C        C   12   3.055   2.556   4.970
    1C        C   13   2.851   2.774   3.772
    1C        C   14   2.901   2.724   3.894
    1C        C   15   2.848   2.773   4.015
    1C        C   16   3.015   2.644   4.137
    1C        C   17   2.902   2.728   4.138
    1C        C   18   3.081   2.616   4.259
    1C        C   19   3.022   2.657   4.380
    1C        C   20   3.207   2.556   4.503
    1C        C   21   3.076   2.608   4.501
    1C        C   22   3.280   2.540   4.623
    1C        C   23   3.209   2.551   4.745
    1C        C   24   3.412   2.485   4.863
    1C        C   25   3.271   2.505   4.865
    1C        C   26   3.488   2.484   4.981
    1C        C   27   2.848   2.769   3.281
    1C        C   28   2.902   2.725   3.404
    1C        C   29   2.853   2.771   3.528
    1C        C   30   3.016   2.638   3.649
    1C        C   31   2.906   2.727   3.651
    1C        C   32   3.080   2.606   3.771
    1C        C   33   3.017   2.642   3.892
    1C        C   34   3.209   2.557   4.015
    1C        C   35   3.077   2.607   4.015
    1C        C   36   3.275   2.529   4.137
    1C        C   37   3.209   2.556   4.259
    1C        C   38   3.415   2.509   4.381
    1C        C   39   3.277   2.535   4.381
    1C        C   40   3.488   2.500   4.502
    1C        C   41   3.416   2.504   4.623
    1C        C   42   3.631   2.486   4.746
    1C        C   43   3.489   2.486   4.743
    1C        C   44   3.705   2.493   4.866
    1C        C   45   3.627   2.483   4.982
    1C        C   46   2.841   2.758   2.795
    1C        C   47   2.899   2.716   2.917
    1C        C   48   2.848   2.768   3.038
    1C        C   49   3.020   2.642   3.159
    1C        C   50   2.905   2.723   3.159
    1C        C   51   3.079   2.606   3.283
    1C        C   52   3.019   2.646   3.405
    1C        C   53   3.211   2.557   3.528
    1C        C   54   3.078   2.605   3.526
    1C        C   55   3.279   2.533   3.649
    1C        C   56   3.211   2.554   3.771
    1C        C   57   3.416   2.505   3.894
    1C        C   58   3.279   2.537   3.894
    1C        C   59   3.484   2.500   4.018
    1C        C   60   3.415   2.508   4.140
    1C        C   61   3.630   2.501   4.260
    1C        C   62   3.489   2.498   4.260
    1C        C   63   3.701   2.508   4.381
    1C        C   64   3.629   2.504   4.502
    1C        C   65   3.836   2.542   4.622
    1C        C   66   3.700   2.504   4.624
    1C        C   67   3.904   2.565   4.743
    1C        C   68   3.842   2.529   4.865
    1C        C   69   4.052   2.589   4.981
    1C        C   70   3.921   2.540   4.980
    1C        C   71   2.823   2.733   2.310
    1C        C   72   2.886   2.694   2.430
    1C        C   73   2.836   2.748   2.550
    1C        C   74   3.008   2.627   2.673
    1C        C   75   2.894   2.710   2.673
    1C        C   76   3.073   2.595   2.794
    1C        C   77   3.017   2.637   2.916
    1C        C   78   3.211   2.550   3.036
    1C        C   79   3.080   2.604   3.037
    1C        C   80   3.275   2.529   3.160
    1C        C   81   3.209   2.552   3.283
    1C        C   82   3.415   2.501   3.401
    1C        C   83   3.277   2.530   3.405
    1C        C   84   3.484   2.497   3.525
    1C        C   85   3.417   2.505   3.649
    1C        C   86   3.628   2.498   3.769
    1C        C   87   3.487   2.497   3.772
    1C        C   88   3.697   2.509   3.892
    1C        C   89   3.625   2.510   4.014
    1C        C   90   3.832   2.553   4.136
    1C        C   91   3.697   2.514   4.136
    1C        C   92   3.901   2.575   4.258
    1C        C   93   3.837   2.548   4.381
    1C        C   94   4.030   2.637   4.501
    1C        C   95   3.907   2.567   4.502
    1C        C   96   4.090   2.677   4.623
    1C        C   97   4.028   2.634   4.742
    1C        C   98   4.188   2.770   4.862
    1C        C   99   4.097   2.659   4.864
    1C        C  100   4.210   2.848   4.976
    1C        C  101   2.828   2.735   2.071
    1C        C  102   2.991   2.593   2.191
    1C        C  103   2.876   2.679   2.190
    1C        C  104   3.066   2.574   2.311
    1C        C  105   3.005   2.618   2.431
    1C        C  106   3.205   2.542   2.551
    1C        C  107   3.073   2.591   2.552
    1C        C  108   3.273   2.517   2.672
    1C        C  109   3.203   2.539   2.793
    1C        C  110   3.414   2.496   2.915
    1C        C  111   3.275   2.520   2.914
    1C        C  112   3.485   2.490   3.037
    1C        C  113   3.414   2.502   3.158
    1C        C  114   3.627   2.501   3.279
    1C        C  115   3.486   2.494   3.279
    1C        C  116   3.694   2.515   3.402
    1C        C  117   3.625   2.505   3.525
    1C        C  118   3.834   2.544   3.648
    1C        C  119   3.697   2.509   3.646
    1C        C  120   3.897   2.572   3.771
    1C        C  121   3.833   2.548   3.895
    1C        C  122   4.026   2.643   4.012
    1C        C  123   3.902   2.574   4.015
    1C        C  124   4.085   2.679   4.135
    1C        C  125   4.024   2.644   4.257
    1C        C  126   4.193   2.772   4.378
    1C        C  127   4.086   2.681   4.379
    1C        C  128   4.244   2.822   4.499
    1C        C  129   4.200   2.765   4.621
    1C        C  130   4.331   2.933   4.741
    1C        C  131   4.248   2.818   4.743
    1C        C  132   4.360   3.003   4.860
    1C        C  133   4.287   2.964   4.973
    1C        C  134   3.172   2.469   2.085
    1C        C  135   3.038   2.508   2.086
    1C        C  136   3.263   2.483   2.191
    1C        C  137   3.199   2.523   2.311
    1C        C  138   3.410   2.482   2.426
    1C        C  139   3.271   2.507   2.431
    1C        C  140   3.482   2.490   2.547
    1C        C  141   3.413   2.500   2.670
    1C        C  142   3.625   2.495   2.789
    1C        C  143   3.483   2.490   2.792
    1C        C  144   3.695   2.507   2.911
    1C        C  145   3.627   2.488   3.033
    1C        C  146   3.832   2.538   3.156
    1C        C  147   3.696   2.501   3.156
    1C        C  148   3.900   2.562   3.278
    1C        C  149   3.832   2.546   3.401
    1C        C  150   4.024   2.631   3.523
    1C        C  151   3.897   2.570   3.524
    1C        C  152   4.082   2.673   3.645
    1C        C  153   4.022   2.637   3.768
    1C        C  154   4.194   2.767   3.887
    1C        C  155   4.083   2.679   3.888
    1C        C  156   4.245   2.815   4.010
    1C        C  157   4.196   2.767   4.133
    1C        C  158   4.340   2.922   4.253
    1C        C  159   4.250   2.814   4.255
    1C        C  160   4.380   2.984   4.374
    1C        C  161   4.335   2.930   4.496
    1C        C  162   4.444   3.112   4.617
    1C        C  163   4.377   2.988   4.619
    1C        C  164   4.471   3.183   4.736
    1C        C  165   4.437   3.121   4.859
    1C        C  166   4.526   3.317   4.968
    1C        C  167   4.479   3.186   4.975
    1C        C  168   3.477   2.437   2.072
    1C        C  169   3.402   2.459   2.188
    1C        C  170   3.621   2.467   2.304
    1C        C  171   3.479   2.458   2.306
    1C        C  172   3.696   2.485   2.423
    1C        C  173   3.623   2.488   2.544
    1C        C  174   3.829   2.542   2.667
    1C        C  175   3.693   2.503   2.665
    1C        C  176   3.899   2.562   2.788
    1C        C  177   3.832   2.540   2.911
    1C        C  178   4.025   2.627   3.032
    1C        C  179   3.897   2.566   3.034
    1C        C  180   4.085   2.662   3.155
    1C        C  181   4.026   2.626   3.278
    1C        C  182   4.197   2.751   3.396
    1C        C  183   4.086   2.663   3.400
    1C        C  184   4.244   2.806   3.518
    1C        C  185   4.192   2.762   3.642
    1C        C  186   4.332   2.923   3.765
    1C        C  187   4.243   2.813   3.763
    1C        C  188   4.380   2.978   3.887
    1C        C  189   4.339   2.921   4.009
    1C        C  190   4.450   3.103   4.128
    1C        C  191   4.382   2.979   4.130
    1C        C  192   4.476   3.170   4.250
    1C        C  193   4.444   3.110   4.373
    1C        C  194   4.511   3.313   4.492
    1C        C  195   4.467   3.179   4.495
    1C        C  196   4.525   3.387   4.611
    1C        C  197   4.517   3.318   4.733
    1C        C  198   4.562   3.534   4.851
    1C        C  199   4.542   3.393   4.852
    1C        C  200   4.587   3.622   4.962
    1C        C  201   3.616   2.420   2.071
    1C        C  202   3.832   2.502   2.180
    1C        C  203   3.694   2.466   2.182
    1C        C  204   3.902   2.533   2.300
    1C        C  205   3.834   2.513   2.422
    1C        C  206   4.022   2.615   2.543
    1C        C  207   3.897   2.548   2.544
    1C        C  208   4.085   2.658   2.662
    1C        C  209   4.024   2.628   2.786
    1C        C  210   4.196   2.749   2.908
    1C        C  211   4.085   2.661   2.909
    1C        C  212   4.251   2.794   3.030
    1C        C  213   4.199   2.746   3.152
    1C        C  214   4.334   2.911   3.272
    1C        C  215   4.247   2.799   3.274
    1C        C  216   4.373   2.970   3.394
    1C        C  217   4.333   2.915   3.519
    1C        C  218   4.436   3.102   3.638
    1C        C  219   4.369   2.977   3.640
    1C        C  220   4.467   3.167   3.760
    1C        C  221   4.445   3.103   3.884
    1C        C  222   4.511   3.305   4.002
    1C        C  223   4.476   3.168   4.005
    1C        C  224   4.519   3.376   4.124
    1C        C  225   4.513   3.307   4.247
    1C        C  226   4.523   3.520   4.366
    1C        C  227   4.525   3.379   4.368
    1C        C  228   4.518   3.595   4.486
    1C        C  229   4.528   3.528   4.610
    1C        C  230   4.501   3.741   4.728
    1C        C  231   4.534   3.603   4.730
    1C        C  232   4.496   3.820   4.845
    1C        C  233   4.550   3.757   4.958
    1C        C  234   4.020   2.615   2.062
    1C        C  235   3.900   2.546   2.065
    1C        C  236   4.086   2.648   2.181
    1C        C  237   4.025   2.603   2.301
    1C        C  238   4.200   2.730   2.421
    1C        C  239   4.087   2.644   2.421
    1C        C  240   4.255   2.783   2.540
    1C        C  241   4.200   2.740   2.662
    1C        C  242   4.339   2.901   2.785
    1C        C  243   4.247   2.793   2.784
    1C        C  244   4.380   2.960   2.906
    1C        C  245   4.338   2.906   3.030
    1C        C  246   4.444   3.092   3.149
    1C        C  247   4.377   2.968   3.151
    1C        C  248   4.466   3.158   3.272
    1C        C  249   4.437   3.096   3.395
    1C        C  250   4.496   3.303   3.510
    1C        C  251   4.462   3.166   3.515
    1C        C  252   4.510   3.371   3.633
    1C        C  253   4.503   3.303   3.757
    1C        C  254   4.520   3.514   3.876
    1C        C  255   4.520   3.373   3.879
    1C        C  256   4.514   3.585   3.998
    1C        C  257   4.525   3.517   4.122
    1C        C  258   4.495   3.728   4.239
    1C        C  259   4.522   3.590   4.243
    1C        C  260   4.472   3.797   4.360
    1C        C  261   4.490   3.734   4.485
    1C        C  262   4.421   3.937   4.602
    1C        C  263   4.476   3.807   4.605
    1C        C  264   4.395   4.005   4.723
    1C        C  265   4.434   3.947   4.846
    1C        C  266   4.316   4.131   4.956
    1C        C  267   4.396   4.017   4.961
    1C        C  268   4.268   2.774   2.067
    1C        C  269   4.196   2.736   2.181
    1C        C  270   4.348   2.888   2.299
    1C        C  271   4.253   2.783   2.302
    1C        C  272   4.387   2.950   2.420
    1C        C  273   4.346   2.891   2.541
    1C        C  274   4.445   3.081   2.660
    1C        C  275   4.384   2.954   2.662
    1C        C  276   4.478   3.148   2.780
    1C        C  277   4.446   3.085   2.902
    1C        C  278   4.509   3.288   3.022
    1C        C  279   4.471   3.152   3.024
    1C        C  280   4.514   3.361   3.143
    1C        C  281   4.500   3.295   3.267
    1C        C  282   4.521   3.511   3.388
    1C        C  283   4.512   3.370   3.387
    1C        C  284   4.516   3.582   3.510
    1C        C  285   4.515   3.512   3.633
    1C        C  286   4.496   3.725   3.752
    1C        C  287   4.517   3.585   3.754
    1C        C  288   4.481   3.795   3.874
    1C        C  289   4.495   3.725   3.996
    1C        C  290   4.425   3.928   4.116
    1C        C  291   4.475   3.796   4.116
    1C        C  292   4.392   3.994   4.237
    1C        C  293   4.423   3.929   4.359
    1C        C  294   4.320   4.120   4.476
    1C        C  295   4.390   3.998   4.478
    1C        C  296   4.279   4.183   4.596
    1C        C  297   4.323   4.127   4.718
    1C        C  298   4.199   4.311   4.837
    1C        C  299   4.281   4.194   4.836
    1C        C  300   4.169   4.396   4.948
    1C        C  301   4.349   2.887   2.063
    1C        C  302   4.474   3.067   2.177
    1C        C  303   4.402   2.944   2.179
    1C        C  304   4.481   3.142   2.298
    1C        C  305   4.456   3.074   2.419
    1C        C  306   4.511   3.282   2.535
    1C        C  307   4.480   3.144   2.539
    1C        C  308   4.522   3.355   2.656
    1C        C  309   4.512   3.285   2.778
    1C        C  310   4.527   3.499   2.898
    1C        C  311   4.521   3.358   2.899
    1C        C  312   4.519   3.571   3.019
    1C        C  313   4.518   3.502   3.142
    1C        C  314   4.485   3.713   3.262
    1C        C  315   4.515   3.575   3.263
    1C        C  316   4.469   3.785   3.383
    1C        C  317   4.489   3.720   3.508
    1C        C  318   4.418   3.921   3.629
    1C        C  319   4.470   3.790   3.629
    1C        C  320   4.390   3.985   3.751
    1C        C  321   4.425   3.925   3.874
    1C        C  322   4.311   4.108   3.990
    1C        C  323   4.390   3.991   3.994
    1C        C  324   4.269   4.165   4.112
    1C        C  325   4.314   4.111   4.235
    1C        C  326   4.186   4.284   4.352
    1C        C  327   4.279   4.178   4.354
    1C        C  328   4.129   4.331   4.472
    1C        C  329   4.185   4.288   4.595
    1C        C  330   4.025   4.434   4.711
    1C        C  331   4.142   4.353   4.713
    1C        C  332   3.969   4.488   4.829
    1C        C  333   4.053   4.474   4.941
    1C        C  334   4.560   3.267   2.063
    1C        C  335   4.533   3.130   2.062
    1C        C  336   4.543   3.351   2.174
    1C        C  337   4.517   3.279   2.293
    1C        C  338   4.525   3.494   2.410
    1C        C  339   4.517   3.353   2.414
    1C        C  340   4.519   3.566   2.531
    1C        C  341   4.518   3.496   2.654
    1C        C  342   4.494   3.707   2.772
    1C        C  343   4.518   3.568   2.775
    1C        C  344   4.476   3.778   2.893
    1C        C  345   4.490   3.710   3.016
    1C        C  346   4.418   3.909   3.138
    1C        C  347   4.470   3.778   3.138
    1C        C  348   4.388   3.977   3.258
    1C        C  349   4.419   3.917   3.382
    1C        C  350   4.314   4.100   3.502
    1C        C  351   4.392   3.982   3.504
    1C        C  352   4.271   4.160   3.623
    1C        C  353   4.316   4.106   3.745
    1C        C  354   4.175   4.266   3.866
    1C        C  355   4.273   4.164   3.866
    1C        C  356   4.116   4.310   3.986
    1C        C  357   4.168   4.264   4.109
    1C        C  358   4.009   4.403   4.230
    1C        C  359   4.126   4.324   4.230
    1C        C  360   3.952   4.451   4.349
    1C        C  361   4.016   4.416   4.470
    1C        C  362   3.830   4.520   4.591
    1C        C  363   3.958   4.461   4.590
    1C        C  364   3.763   4.550   4.713
    1C        C  365   3.838   4.538   4.832
    1C        C  366   3.631   4.593   4.947
    1C        C  367   3.768   4.567   4.950
    1C        C  368   4.507   3.565   2.049
    1C        C  369   4.529   3.491   2.165
    1C        C  370   4.496   3.702   2.287
    1C        C  371   4.520   3.563   2.287
    1C        C  372   4.485   3.775   2.407
    1C        C  373   4.497   3.705   2.530
    1C        C  374   4.431   3.910   2.649
    1C        C  375   4.477   3.777   2.650
    1C        C  376   4.394   3.971   2.771
    1C        C  377   4.420   3.908   2.895
    1C        C  378   4.315   4.094   3.012
    1C        C  379   4.388   3.973   3.016
    1C        C  380   4.269   4.153   3.132
    1C        C  381   4.313   4.097   3.254
    1C        C  382   4.172   4.252   3.377
    1C        C  383   4.272   4.152   3.378
    1C        C  384   4.118   4.300   3.498
    1C        C  385   4.174   4.263   3.622
    1C        C  386   4.005   4.392   3.741
    1C        C  387   4.124   4.314   3.743
    1C        C  388   3.946   4.435   3.862
    1C        C  389   4.002   4.395   3.985
    1C        C  390   3.816   4.492   4.108
    1C        C  391   3.944   4.434   4.108
    1C        C  392   3.750   4.524   4.229
    1C        C  393   3.823   4.509   4.350
    1C        C  394   3.617   4.558   4.473
    1C        C  395   3.757   4.538   4.471
    1C        C  396   3.549   4.567   4.596
    1C        C  397   3.624   4.571   4.716
    1C        C  398   3.410   4.555   4.837
    1C        C  399   3.548   4.584   4.835
    1C        C  400   3.344   4.511   4.953
    1C        C  401   4.498   3.704   2.050
    1C        C  402   4.453   3.916   2.166
    1C        C  403   4.487   3.779   2.168
    1C        C  404   4.409   3.974   2.287
    1C        C  405   4.437   3.907   2.408
    1C        C  406   4.322   4.091   2.527
    1C        C  407   4.401   3.974   2.527
    1C        C  408   4.273   4.146   2.648
    1C        C  409   4.317   4.089   2.770
    1C        C  410   4.176   4.253   2.888
    1C        C  411   4.271   4.149   2.889
    1C        C  412   4.117   4.296   3.009
    1C        C  413   4.170   4.254   3.133
    1C        C  414   3.998   4.376   3.251
    1C        C  415   4.119   4.302   3.256
    1C        C  416   3.941   4.414   3.375
    1C        C  417   4.003   4.383   3.498
    1C        C  418   3.810   4.475   3.617
    1C        C  419   3.941   4.420   3.619
    1C        C  420   3.746   4.503   3.740
    1C        C  421   3.816   4.489   3.861
    1C        C  422   3.612   4.539   3.984
    1C        C  423   3.751   4.512   3.984
    1C        C  424   3.542   4.546   4.107
    1C        C  425   3.612   4.554   4.229
    1C        C  426   3.403   4.547   4.357
    1C        C  427   3.544   4.557   4.352
    1C        C  428   3.334   4.549   4.480
    1C        C  429   3.408   4.559   4.600
    1C        C  430   3.193   4.523   4.721
    1C        C  431   3.332   4.554   4.719
    1C        C  432   3.125   4.497   4.843
    1C        C  433   3.207   4.492   4.957
    1C        C  434   4.387   4.123   2.056
    1C        C  435   4.449   3.997   2.052
    1C        C  436   4.307   4.164   2.167
    1C        C  437   4.329   4.092   2.287
    1C        C  438   4.176   4.247   2.401
    1C        C  439   4.276   4.147   2.406
    1C        C  440   4.121   4.295   2.522
    1C        C  441   4.176   4.248   2.643
    1C        C  442   4.006   4.377   2.763
    1C        C  443   4.122   4.297   2.765
    1C        C  444   3.942   4.416   2.884
    1C        C  445   4.002   4.378   3.006
    1C        C  446   3.812   4.472   3.129
    1C        C  447   3.939   4.410   3.128
    1C        C  448   3.748   4.499   3.252
    1C        C  449   3.811   4.471   3.375
    1C        C  450   3.607   4.535   3.494
    1C        C  451   3.744   4.502   3.496
    1C        C  452   3.540   4.548   3.618
    1C        C  453   3.610   4.544   3.740
    1C        C  454   3.400   4.556   3.864
    1C        C  455   3.541   4.556   3.863
    1C        C  456   3.332   4.539   3.987
    1C        C  457   3.401   4.541   4.111
    1C        C  458   3.195   4.503   4.236
    1C        C  459   3.333   4.536   4.234
    1C        C  460   3.129   4.485   4.360
    1C        C  461   3.198   4.513   4.480
    1C        C  462   2.998   4.434   4.601
    1C        C  463   3.127   4.491   4.601
    1C        C  464   2.931   4.405   4.722
    1C        C  465   2.991   4.446   4.844
    1C        C  466   2.801   4.342   4.957
    1C        C  467   2.908   4.431   4.959
    1C        C  468   4.128   4.292   2.042
    1C        C  469   4.194   4.253   2.159
    1C        C  470   4.007   4.371   2.277
    1C        C  471   4.128   4.295   2.277
    1C        C  472   3.942   4.405   2.398
    1C        C  473   4.005   4.375   2.521
    1C        C  474   3.814   4.472   2.641
    1C        C  475   3.942   4.412   2.642
    1C        C  476   3.746   4.494   2.763
    1C        C  477   3.813   4.474   2.886
    1C        C  478   3.607   4.530   3.008
    1C        C  479   3.743   4.494   3.007
    1C        C  480   3.536   4.534   3.130
    1C        C  481   3.609   4.527   3.250
    1C        C  482   3.396   4.544   3.376
    1C        C  483   3.537   4.543   3.371
    1C        C  484   3.326   4.537   3.499
    1C        C  485   3.399   4.544   3.620
    1C        C  486   3.195   4.497   3.745
    1C        C  487   3.329   4.540   3.743
    1C        C  488   3.131   4.475   3.869
    1C        C  489   3.195   4.506   3.991
    1C        C  490   3.002   4.421   4.114
    1C        C  491   3.128   4.484   4.114
    1C        C  492   2.942   4.382   4.236
    1C        C  493   3.001   4.424   4.357
    1C        C  494   2.833   4.297   4.484
    1C        C  495   2.942   4.388   4.479
    1C        C  496   2.782   4.250   4.607
    1C        C  497   2.825   4.310   4.727
    1C        C  498   2.669   4.161   4.843
    1C        C  499   2.752   4.275   4.843
    1C        C  500   2.597   4.116   4.954
    1C        C  501   4.004   4.356   2.039
    1C        C  502   3.818   4.469   2.156
    1C        C  503   3.941   4.401   2.156
    1C        C  504   3.749   4.490   2.277
    1C        C  505   3.811   4.458   2.399
    1C        C  506   3.604   4.511   2.518
    1C        C  507   3.742   4.483   2.520
    1C        C  508   3.534   4.523   2.641
    1C        C  509   3.607   4.517   2.762
    1C        C  510   3.397   4.532   2.886
    1C        C  511   3.538   4.535   2.884
    1C        C  512   3.324   4.528   3.007
    1C        C  513   3.394   4.534   3.129
    1C        C  514   3.190   4.498   3.256
    1C        C  515   3.327   4.533   3.254
    1C        C  516   3.123   4.476   3.379
    1C        C  517   3.189   4.501   3.501
    1C        C  518   3.002   4.404   3.624
    1C        C  519   3.127   4.471   3.624
    1C        C  520   2.947   4.366   3.748
    1C        C  521   3.011   4.402   3.869
    1C        C  522   2.845   4.276   3.997
    1C        C  523   2.950   4.371   3.993
    1C        C  524   2.790   4.232   4.119
    1C        C  525   2.837   4.288   4.240
    1C        C  526   2.701   4.127   4.364
    1C        C  527   2.786   4.240   4.363
    1C        C  528   2.658   4.069   4.485
    1C        C  529   2.694   4.139   4.602
    1C        C  530   2.586   3.959   4.731
    1C        C  531   2.644   4.089   4.724
    1C        C  532   2.545   3.899   4.853
    1C        C  533   2.531   3.993   4.960
    1C        C  534   3.620   4.557   2.039
    1C        C  535   3.754   4.516   2.040
    1C        C  536   3.537   4.532   2.153
    1C        C  537   3.608   4.510   2.274
    1C        C  538   3.394   4.510   2.398
    1C        C  539   3.535   4.520   2.395
    1C        C  540   3.324   4.510   2.521
    1C        C  541   3.393   4.525   2.643
    1C        C  542   3.186   4.488   2.765
    1C        C  543   3.324   4.518   2.766
    1C        C  544   3.121   4.464   2.889
    1C        C  545   3.189   4.487   3.011
    1C        C  546   3.001   4.396   3.135
    1C        C  547   3.126   4.463   3.135
    1C        C  548   2.946   4.358   3.259
    1C        C  549   2.999   4.408   3.381
    1C        C  550   2.831   4.278   3.505
    1C        C  551   2.939   4.369   3.502
    1C        C  552   2.783   4.228   3.629
    1C        C  553   2.835   4.280   3.750
    1C        C  554   2.706   4.118   3.875
    1C        C  555   2.792   4.230   3.875
    1C        C  556   2.663   4.061   3.997
    1C        C  557   2.699   4.123   4.118
    1C        C  558   2.599   3.941   4.244
    1C        C  559   2.661   4.068   4.242
    1C        C  560   2.566   3.879   4.367
    1C        C  561   2.590   3.946   4.489
    1C        C  562   2.524   3.749   4.613
    1C        C  563   2.561   3.885   4.613
    1C        C  564   2.513   3.682   4.737
    1C        C  565   2.520   3.758   4.857
    1C        C  566   2.532   3.546   4.977
    1C        C  567   2.527   3.685   4.976
    1C        C  568   3.327   4.468   2.042
    1C        C  569   3.396   4.512   2.156
    1C        C  570   3.183   4.474   2.280
    1C        C  571   3.322   4.506   2.277
    1C        C  572   3.114   4.457   2.402
    1C        C  573   3.185   4.487   2.521
    1C        C  574   2.993   4.397   2.646
    1C        C  575   3.118   4.463   2.644
    1C        C  576   2.939   4.353   2.769
    1C        C  577   2.998   4.394   2.890
    1C        C  578   2.829   4.270   3.014
    1C        C  579   2.938   4.360   3.014
    1C        C  580   2.785   4.219   3.138
    1C        C  581   2.839   4.266   3.260
    1C        C  582   2.702   4.109   3.386
    1C        C  583   2.788   4.221   3.384
    1C        C  584   2.663   4.052   3.509
    1C        C  585   2.699   4.114   3.631
    1C        C  586   2.600   3.931   3.756
    1C        C  587   2.664   4.057   3.755
    1C        C  588   2.571   3.868   3.879
    1C        C  589   2.601   3.933   4.001
    1C        C  590   2.530   3.737   4.126
    1C        C  591   2.569   3.873   4.124
    1C        C  592   2.520   3.670   4.250
    1C        C  593   2.529   3.742   4.372
    1C        C  594   2.511   3.533   4.496
    1C        C  595   2.513   3.674   4.494
    1C        C  596   2.519   3.465   4.620
    1C        C  597   2.517   3.539   4.740
    1C        C  598   2.536   3.327   4.861
    1C        C  599   2.531   3.468   4.861
    1C        C  600   2.537   3.249   4.978
    1C        C  601   3.193   4.435   2.042
    1C        C  602   2.983   4.389   2.158
    1C        C  603   3.117   4.439   2.160
    1C        C  604   2.925   4.352   2.283
    1C        C  605   2.987   4.395   2.403
    1C        C  606   2.817   4.274   2.529
    1C        C  607   2.927   4.362   2.526
    1C        C  608   2.769   4.222   2.651
    1C        C  609   2.825   4.270   2.771
    1C        C  610   2.688   4.109   2.894
    1C        C  611   2.775   4.220   2.893
    1C        C  612   2.653   4.054   3.019
    1C        C  613   2.692   4.113   3.142
    1C        C  614   2.591   3.928   3.265
    1C        C  615   2.656   4.053   3.265
    1C        C  616   2.563   3.866   3.389
    1C        C  617   2.593   3.929   3.512
    1C        C  618   2.527   3.730   3.637
    1C        C  619   2.570   3.864   3.635
    1C        C  620   2.512   3.663   3.761
    1C        C  621   2.526   3.734   3.882
    1C        C  622   2.504   3.525   4.009
    1C        C  623   2.516   3.665   4.005
    1C        C  624   2.507   3.456   4.132
    1C        C  625   2.516   3.529   4.253
    1C        C  626   2.534   3.320   4.380
    1C        C  627   2.510   3.459   4.376
    1C        C  628   2.553   3.250   4.501
    1C        C  629   2.535   3.324   4.621
    1C        C  630   2.598   3.119   4.743
    1C        C  631   2.559   3.256   4.742
    1C        C  632   2.616   3.047   4.864
    1C        C  633   2.568   3.113   4.983
    1C        C  634   2.777   4.303   2.056
    1C        C  635   2.891   4.384   2.048
    1C        C  636   2.746   4.227   2.170
    1C        C  637   2.806   4.274   2.289
    1C        C  638   2.674   4.110   2.409
    1C        C  639   2.758   4.223   2.411
    1C        C  640   2.641   4.047   2.531
    1C        C  641   2.685   4.108   2.651
    1C        C  642   2.585   3.921   2.777
    1C        C  643   2.645   4.049   2.773
    1C        C  644   2.567   3.857   2.901
    1C        C  645   2.595   3.925   3.022
    1C        C  646   2.522   3.726   3.149
    1C        C  647   2.567   3.860   3.144
    1C        C  648   2.508   3.657   3.271
    1C        C  649   2.521   3.730   3.390
    1C        C  650   2.506   3.520   3.516
    1C        C  651   2.515   3.661   3.513
    1C        C  652   2.511   3.453   3.640
    1C        C  653   2.506   3.522   3.763
    1C        C  654   2.541   3.317   3.889
    1C        C  655   2.509   3.454   3.887
    1C        C  656   2.556   3.250   4.013
    1C        C  657   2.533   3.317   4.135
    1C        C  658   2.602   3.119   4.257
    1C        C  659   2.554   3.251   4.258
    1C        C  660   2.632   3.054   4.379
    1C        C  661   2.598   3.117   4.500
    1C        C  662   2.705   2.933   4.626
    1C        C  663   2.629   3.052   4.622
    1C        C  664   2.750   2.877   4.748
    1C        C  665   2.698   2.930   4.869
    1C        C  666   2.744   2.869   4.986
    1C        C  667   2.676   4.023   2.051
    1C        C  668   2.682   4.101   2.167
    1C        C  669   2.583   3.913   2.292
    1C        C  670   2.640   4.043   2.289
    1C        C  671   2.557   3.848   2.414
    1C        C  672   2.585   3.918   2.534
    1C        C  673   2.515   3.718   2.660
    1C        C  674   2.560   3.852   2.656
    1C        C  675   2.508   3.651   2.784
    1C        C  676   2.528   3.721   2.906
    1C        C  677   2.498   3.512   3.031
    1C        C  678   2.507   3.653   3.028
    1C        C  679   2.502   3.441   3.152
    1C        C  680   2.504   3.515   3.272
    1C        C  681   2.528   3.307   3.400
    1C        C  682   2.507   3.446   3.396
    1C        C  683   2.548   3.242   3.524
    1C        C  684   2.537   3.314   3.645
    1C        C  685   2.604   3.114   3.768
    1C        C  686   2.555   3.246   3.768
    1C        C  687   2.634   3.053   3.892
    1C        C  688   2.601   3.116   4.014
    1C        C  689   2.710   2.934   4.139
    1C        C  690   2.631   3.051   4.136
    1C        C  691   2.756   2.881   4.261
    1C        C  692   2.711   2.937   4.382
    1C        C  693   2.752   2.879   4.505
    1C        C  694   2.637   3.889   2.061
    1C        C  695   2.521   3.705   2.175
    1C        C  696   2.574   3.835   2.174
    1C        C  697   2.503   3.638   2.298
    1C        C  698   2.518   3.712   2.418
    1C        C  699   2.486   3.503   2.543
    1C        C  700   2.499   3.644   2.540
    1C        C  701   2.503   3.436   2.666
    1C        C  702   2.507   3.510   2.786
    1C        C  703   2.522   3.301   2.910
    1C        C  704   2.505   3.441   2.909
    1C        C  705   2.540   3.230   3.031
    1C        C  706   2.524   3.301   3.152
    1C        C  707   2.595   3.107   3.279
    1C        C  708   2.547   3.240   3.277
    1C        C  709   2.628   3.045   3.401
    1C        C  710   2.598   3.109   3.523
    1C        C  711   2.714   2.932   3.648
    1C        C  712   2.634   3.049   3.646
    1C        C  713   2.755   2.878   3.772
    1C        C  714   2.717   2.938   3.894
    1C        C  715   2.752   2.878   4.017
    1C        C  716   2.448   3.500   2.064
    1C        C  717   2.490   3.634   2.058
    1C        C  718   2.462   3.421   2.182
    1C        C  719   2.483   3.497   2.300
    1C        C  720   2.504   3.288   2.421
    1C        C  721   2.487   3.429   2.423
    1C        C  722   2.532   3.223   2.543
    1C        C  723   2.524   3.296   2.664
    1C        C  724   2.588   3.097   2.790
    1C        C  725   2.542   3.231   2.788
    1C        C  726   2.622   3.034   2.911
    1C        C  727   2.596   3.101   3.033
    1C        C  728   2.706   2.924   3.161
    1C        C  729   2.629   3.042   3.158
    1C        C  730   2.754   2.875   3.284
    1C        C  731   2.708   2.928   3.406
    1C        C  732   2.755   2.872   3.527
    1C        C  733   2.493   3.198   2.072
    1C        C  734   2.484   3.279   2.185
    1C        C  735   2.576   3.081   2.307
    1C        C  736   2.515   3.209   2.305
    1C        C  737   2.606   3.017   2.429
    1C        C  738   2.578   3.090   2.547
    1C        C  739   2.698   2.914   2.669
    1C        C  740   2.618   3.031   2.669
    1C        C  741   2.742   2.859   2.792
    1C        C  742   2.702   2.917   2.914
    1C        C  743   2.746   2.866   3.038
    1C        C  744   2.547   3.070   2.072
    1C        C  745   2.691   2.901   2.186
    1C        C  746   2.606   3.013   2.186
    1C        C  747   2.731   2.842   2.308
    1C        C  748   2.687   2.901   2.429
    1C        C  749   2.737   2.849   2.550
    1C        C  750   2.744   2.846   2.069
    1C        C  751   3.653   2.301   1.991
    1C        O  752   3.668   2.189   2.047
    1C        O  753   3.665   2.312   1.852
    1C        C  754   4.638   3.053   1.992
    1C        O  755   4.615   3.014   1.874
    1C        O  756   4.723   2.965   2.061
    1C        C  757   4.465   4.216   1.971
    1C        O  758   4.588   4.230   1.995
    1C        O  759   4.415   4.269   1.852
    1C        C  760   3.588   4.656   1.933
    1C        O  761   3.629   4.774   1.951
    1C        O  762   3.588   4.620   1.798
    1C        C  763   2.880   4.479   1.935
    1C        O  764   2.909   4.436   1.820
    1C        O  765   2.781   4.577   1.921
    1C        C  766   2.344   3.472   1.963
    1C        O  767   2.365   3.454   1.840
    1C        O  768   2.213   3.509   1.996
    1C        C  769   4.709   3.595   5.042
    1C        O  770   4.716   3.562   5.163
    1C        O  771   4.832   3.578   4.977
    1C        C  772   4.272   4.455   5.037
    1C        O  773   4.276   4.454   5.162
    1C        O  774   4.396   4.497   4.986
    1C        C  775   4.148   2.497   5.047
    1C        O  776   4.253   2.441   5.006
    1C        O  777   4.142   2.475   5.185
    1C        C  778   2.884   4.539   5.057
    1C        O  779   2.801   4.631   5.031
    1C        O  780   2.885   4.506   5.193
    1C        C  781   2.493   3.037   5.085
    1C        O  782   2.372   3.009   5.064
    1C        O  783   2.539   3.038   5.216
    1C        C  784   2.407   3.989   5.040
    1C        O  785   2.320   4.078   5.017
    1C        O  786   2.426   3.968   5.177
    1C        C  787   2.950   2.419   2.007
    1C        O  788   2.924   2.436   1.885
    1C        O  789   2.923   2.287   2.041
    1C        C  790   3.164   2.350   5.031
    1C        O  791   3.109   2.251   4.975
    1C        O  792   3.150   2.350   5.170
    1C        H  793   4.297   3.019   5.065
    1C        H  794   4.156   2.829   5.066
    1C        H  795   4.516   3.128   5.058
    1C        H  796   4.496   3.376   5.052
    1C        H  797   4.581   3.821   5.037
    1C        H  798   4.390   3.966   5.055
    1C        H  799   4.346   4.198   5.034
    1C        H  800   4.025   4.528   5.030
    1C        H  801   3.807   4.533   5.044
    1C        H  802   3.601   4.662   5.024
    1C        H  803   3.399   4.433   5.002
    1C        H  804   3.172   4.462   5.054
    1C        H  805   3.885   2.501   5.073
    1C        H  806   3.670   2.434   5.067
    1C        H  807   3.000   2.559   5.062
    1C        H  808   3.436   2.500   5.073
    1C        H  809   2.890   2.753   5.080
    1C        H  810   2.688   2.875   5.077
    1C        H  811   2.528   3.293   5.075
    1C        H  812   2.538   3.497   5.072
    1C        H  813   2.480   3.733   5.060
    1C        H  814   2.577   4.184   5.035
    1C        H  815   2.734   4.342   5.040
    1C        H  816   2.707   2.874   1.973
    1C        H  817   2.808   2.664   1.993
    1C        H  818   3.191   2.380   2.029
    1C        H  819   3.433   2.458   1.976
    1C        H  820   3.865   2.507   1.971
    1C        H  821   4.062   2.630   1.964
    1C        H  822   4.284   2.692   2.000
    1C        H  823   4.389   2.909   1.966
    1C        H  824   4.633   3.303   1.994
    1C        H  825   4.534   3.528   1.952
    1C        H  826   4.516   3.752   1.956
    1C        H  827   3.802   4.506   1.945
    1C        H  828   3.939   4.334   1.957
    1C        H  829   4.172   4.259   1.951
    1C        H  830   4.488   3.968   1.957
    1C        H  831   2.691   3.827   1.993
    1C        H  832   2.671   4.064   1.952
    1C        H  833   2.718   4.291   1.968
    1C        H  834   3.369   4.500   1.949
    1C        H  835   3.151   4.400   1.950
    1C        H  836   2.511   3.003   1.996
    1C        H  837   2.458   3.238   1.979
    1C        H  838   2.507   3.677   1.962
    2V3OU   H29  839   2.807   3.549   1.954
    2V3OU   C27  840   2.783   3.503   2.053
    2V3OU   H27  841   2.731   3.575   2.121
    2V3OU   H28  842   2.727   3.409   2.029
    2V3OU   O11  843   2.907   3.475   2.119
    2V3OU   C15  844   2.923   3.394   2.229
    2V3OU   C13  845   3.053   3.373   2.279
    2V3OU   C14  846   3.078   3.270   2.371
    2V3OU   C16  847   2.976   3.189   2.418
    2V3OU    H6  848   2.988   3.104   2.487
    2V3OU   C12  849   3.214   3.234   2.419
    2V3OU    O2  850   3.237   3.127   2.479
    2V3OU   C10  851   3.324   3.310   2.359
    2V3OU    C8  852   3.455   3.272   2.389
    2V3OU   O10  853   3.488   3.155   2.449
    2V3OU   H26  854   3.400   3.120   2.473
    2V3OU    C6  855   3.564   3.356   2.352
    2V3OU    C5  856   3.541   3.469   2.275
    2V3OU    C4  857   3.702   3.298   2.345
    2V3OU    H4  858   3.718   3.236   2.438
    2V3OU    H5  859   3.707   3.230   2.256
    2V3OU    C2  860   3.816   3.401   2.339
    2V3OU    O6  861   3.808   3.479   2.458
    2V3OU   H21  862   3.763   3.561   2.433
    2V3OU    C3  863   3.783   3.498   2.225
    2V3OU    H2  864   3.860   3.579   2.218
    2V3OU    H3  865   3.781   3.439   2.130
    2V3OU   C25  866   3.948   3.328   2.315
    2V3OU    O7  867   3.995   3.299   2.205
    2V3OU   C26  868   4.029   3.290   2.438
    2V3OU   H22  869   4.055   3.385   2.491
    2V3OU   H23  870   4.119   3.231   2.408
    2V3OU    O8  871   3.961   3.206   2.530
    2V3OU   H24  872   3.929   3.272   2.594
    2V3OU    C1  873   3.651   3.568   2.249
    2V3OU    H1  874   3.621   3.621   2.153
    2V3OU    O3  875   3.666   3.654   2.362
    2V3OU   C19  876   3.617   3.788   2.360
    2V3OU    H9  877   3.528   3.797   2.292
    2V3OU    O4  878   3.709   3.850   2.273
    2V3OU   C20  879   3.843   3.875   2.318
    2V3OU   H10  880   3.894   3.776   2.333
    2V3OU   C24  881   3.609   3.856   2.497
    2V3OU   H16  882   3.545   3.789   2.560
    2V3OU   H17  883   3.558   3.955   2.482
    2V3OU   C23  884   3.750   3.876   2.553
    2V3OU   H15  885   3.790   3.771   2.572
    2V3OU    N1  886   3.736   3.955   2.674
    2V3OU   H19  887   3.816   3.941   2.731
    2V3OU   H20  888   3.650   3.925   2.715
    2V3OU   C21  889   3.845   3.948   2.452
    2V3OU   H11  890   3.950   3.926   2.487
    2V3OU    O5  891   3.819   4.088   2.449
    2V3OU   H18  892   3.773   4.107   2.531
    2V3OU   C22  893   3.916   3.952   2.209
    2V3OU   H12  894   3.861   4.047   2.189
    2V3OU   H13  895   3.911   3.895   2.112
    2V3OU   H14  896   4.024   3.963   2.239
    2V3OU   C11  897   3.157   3.474   2.262
    2V3OU    O1  898   3.131   3.590   2.223
    2V3OU    C9  899   3.296   3.430   2.287
    2V3OU    C7  900   3.405   3.503   2.242
    2V3OU    O9  901   3.394   3.623   2.175
    2V3OU   H25  902   3.298   3.636   2.175
    2V3OU   C17  903   2.820   3.309   2.274
    2V3OU    H7  904   2.721   3.343   2.241
    2V3OU   C18  905   2.848   3.212   2.369
    2V3OU    H8  906   2.774   3.166   2.436
    3SOL     OW  907   3.179   4.739   0.672
    3SOL    HW1  908   3.274   4.764   0.652
    3SOL    HW2  909   3.167   4.640   0.662
    4SOL     OW  910   6.623   6.323   1.503
    4SOL    HW1  911   6.591   6.283   1.590
    4SOL    HW2  912   6.722   6.331   1.505
    5SOL     OW  913   4.200   1.882   3.142
    5SOL    HW1  914   4.132   1.812   3.123
    5SOL    HW2  915   4.193   1.912   3.237
    6SOL     OW  916   4.221   1.411   1.231
    6SOL    HW1  917   4.313   1.394   1.195
    6SOL    HW2  918   4.158   1.343   1.195
    7SOL     OW  919   6.400   3.889   2.233
    7SOL    HW1  920   6.458   3.830   2.291
    7SOL    HW2  921   6.459   3.943   2.173
    8SOL     OW  922   2.744   6.824   6.201
    8SOL    HW1  923   2.804   6.747   6.224
    8SOL    HW2  924   2.780   6.908   6.242
    9SOL     OW  925   6.628   5.479   5.826
    9SOL    HW1  926   6.551   5.451   5.883
    9SOL    HW2  927   6.707   5.498   5.883
   10SOL     OW  928   0.971   4.941   6.049
   10SOL    HW1  929   0.890   4.884   6.037
   10SOL    HW2  930   0.988   4.956   6.146
   11SOL     OW  931   2.925   0.102   6.951
   11SOL    HW1  932   2.833   0.065   6.937
   11SOL    HW2  933   2.991   0.044   6.903
   12SOL     OW  934   3.711   6.292   4.314
   12SOL    HW1  935   3.672   6.383   4.298
   12SOL    HW2  936   3.637   6.229   4.336
   13SOL     OW  937   3.566   5.512   3.794
   13SOL    HW1  938   3.617   5.570   3.856
   13SOL    HW2  939   3.476   5.491   3.834
   14SOL     OW  940   4.954   5.639   6.276
   14SOL    HW1  941   4.882   5.662   6.341
   14SOL    HW2  942   5.044   5.651   6.320
   15SOL     OW  943   0.911   5.712   0.808
   15SOL    HW1  944   0.849   5.698   0.730
   15SOL    HW2  945   0.858   5.714   0.892
   16SOL     OW  946   5.623   3.085   5.544
   16SOL    HW1  947   5.651   3.167   5.594
   16SOL    HW2  948   5.669   3.084   5.454
   17SOL     OW  949   5.416   6.279   5.568
   17SOL    HW1  950   5.388   6.340   5.495
   17SOL    HW2  951   5.348   6.207   5.580
   18SOL     OW  952   3.138   1.103   5.868
   18SOL    HW1  953   3.104   1.056   5.787
   18SOL    HW2  954   3.128   1.043   5.948
   19SOL     OW  955   0.455   0.010   3.243
   19SOL    HW1  956   0.461   6.935   3.261
   19SOL    HW2  957   0.396   0.052   3.312
   20SOL     OW  958   5.128   2.301   4.597
   20SOL    HW1  959   5.162   2.261   4.682
   20SOL    HW2  960   5.125   2.231   4.526
   21SOL     OW  961   3.198   2.077   2.348
   21SOL    HW1  962   3.103   2.107   2.339
   21SOL    HW2  963   3.237   2.063   2.257
   22SOL     OW  964   2.067   6.916   0.326
   22SOL    HW1  965   2.119   6.862   0.260
   22SOL    HW2  966   2.061   6.866   0.413
   23SOL     OW  967   4.716   6.476   3.440
   23SOL    HW1  968   4.697   6.498   3.344
   23SOL    HW2  969   4.652   6.526   3.499
   24SOL     OW  970   5.163   1.058   2.953
   24SOL    HW1  971   5.227   1.130   2.928
   24SOL    HW2  972   5.103   1.091   3.027
   25SOL     OW  973   3.025   6.761   5.107
   25SOL    HW1  974   3.057   6.681   5.057
   25SOL    HW2  975   2.930   6.746   5.136
   26SOL     OW  976   6.248   1.181   0.595
   26SOL    HW1  977   6.161   1.164   0.547
   26SOL    HW2  978   6.266   1.279   0.598
   27SOL     OW  979   0.425   1.858   1.650
   27SOL    HW1  980   0.429   1.909   1.564
   27SOL    HW2  981   0.466   1.912   1.723
   28SOL     OW  982   3.739   1.316   0.056
   28SOL    HW1  983   3.643   1.299   0.038
   28SOL    HW2  984   3.780   1.236   0.100
   29SOL     OW  985   5.133   3.261   1.587
   29SOL    HW1  986   5.068   3.186   1.598
   29SOL    HW2  987   5.102   3.340   1.640
   30SOL     OW  988   3.557   0.742   4.545
   30SOL    HW1  989   3.583   0.750   4.449
   30SOL    HW2  990   3.535   0.832   4.582
   31SOL     OW  991   0.806   2.243   5.645
   31SOL    HW1  992   0.886   2.196   5.683
   31SOL    HW2  993   0.828   2.277   5.554
   32SOL     OW  994   0.150   1.581   3.030
   32SOL    HW1  995   0.151   1.481   3.039
   32SOL    HW2  996   0.215   1.609   2.960
   33SOL     OW  997   2.207   4.027   6.913
   33SOL    HW1  998   2.240   4.085   6.839
   33SOL    HW2  999   2.108   4.041   6.925
   34SOL     OW 1000   2.215   1.724   2.981
   34SOL    HW1 1001   2.279   1.777   2.927
   34SOL    HW2 1002   2.241   1.728   3.078
   35SOL     OW 1003   3.361   2.829   6.751
   35SOL    HW1 1004   3.422   2.861   6.678
   35SOL    HW2 1005   3.292   2.768   6.712
   36SOL     OW 1006   6.302   0.655   5.773
   36SOL    HW1 1007   6.325   0.565   5.737
   36SOL    HW2 1008   6.254   0.708   5.703
   37SOL     OW 1009   1.351   0.119   0.527
   37SOL    HW1 1010   1.334   0.109   0.625
   37SOL    HW2 1011   1.270   0.158   0.484
   38SOL     OW 1012   7.007   4.547   2.320
   38SOL    HW1 1013   7.010   4.565   2.221
   38SOL    HW2 1014   6.919   4.576   2.356
   39SOL     OW 1015   6.662   5.256   6.770
   39SOL    HW1 1016   6.573   5.278   6.810
   39SOL    HW2 1017   6.651   5.185   6.701
   40SOL     OW 1018   5.306   1.974   1.305
   40SOL    HW1 1019   5.313   1.875   1.304
   40SOL    HW2 1020   5.397   2.014   1.317
   41SOL     OW 1021   6.686   0.121   4.070
   41SOL    HW1 1022   6.621   0.119   4.147
   41SOL    HW2 1023   6.773   0.081   4.100
   42SOL     OW 1024   2.608   5.509   5.623
   42SOL    HW1 1025   2.538   5.537   5.557
   42SOL    HW2 1026   2.578   5.534   5.715
   43SOL     OW 1027   5.339   6.467   5.367
   43SOL    HW1 1028   5.303   6.534   5.432
   43SOL    HW2 1029   5.421   6.503   5.324
   44SOL     OW 1030   5.912   1.793   6.265
   44SOL    HW1 1031   5.922   1.879   6.314
   44SOL    HW2 1032   5.858   1.729   6.320
   45SOL     OW 1033   3.379   6.856   3.203
   45SOL    HW1 1034   3.430   6.823   3.124
   45SOL    HW2 1035   3.419   6.943   3.233
   46SOL     OW 1036   1.315   3.293   3.647
   46SOL    HW1 1037   1.409   3.271   3.620
   46SOL    HW2 1038   1.282   3.371   3.594
   47SOL     OW 1039   4.992   4.811   1.319
   47SOL    HW1 1040   5.000   4.786   1.223
   47SOL    HW2 1041   4.954   4.734   1.371
   48SOL     OW 1042   6.758   2.876   5.983
   48SOL    HW1 1043   6.839   2.818   5.973
   48SOL    HW2 1044   6.778   2.967   5.949
   49SOL     OW 1045   4.849   4.194   2.003
   49SOL    HW1 1046   4.886   4.286   2.020
   49SOL    HW2 1047   4.750   4.197   2.012
   50SOL     OW 1048   6.351   2.596   5.538
   50SOL    HW1 1049   6.272   2.657   5.527
   50SOL    HW2 1050   6.418   2.615   5.467
   51SOL     OW 1051   3.314   6.292   2.363
   51SOL    HW1 1052   3.243   6.319   2.427
   51SOL    HW2 1053   3.291   6.325   2.271
   52SOL     OW 1054   5.118   2.366   3.319
   52SOL    HW1 1055   5.150   2.440   3.259
   52SOL    HW2 1056   5.020   2.376   3.335
   53SOL     OW 1057   3.940   7.014   4.838
   53SOL    HW1 1058   3.870   0.026   4.776
   53SOL    HW2 1059   3.945   6.914   4.828
   54SOL     OW 1060   3.912   4.684   1.085
   54SOL    HW1 1061   3.844   4.642   1.025
   54SOL    HW2 1062   3.905   4.642   1.176
   55SOL     OW 1063   3.312   1.342   6.331
   55SOL    HW1 1064   3.345   1.436   6.325
   55SOL    HW2 1065   3.264   1.318   6.246
   56SOL     OW 1066   0.236   0.367   1.112
   56SOL    HW1 1067   0.305   0.311   1.158
   56SOL    HW2 1068   0.188   0.311   1.044
   57SOL     OW 1069   5.151   0.399   0.521
   57SOL    HW1 1070   5.076   0.386   0.457
   57SOL    HW2 1071   5.130   0.354   0.607
   58SOL     OW 1072   6.527   6.845   5.847
   58SOL    HW1 1073   6.548   6.920   5.910
   58SOL    HW2 1074   6.543   6.875   5.753
   59SOL     OW 1075   1.241   1.230   5.653
   59SOL    HW1 1076   1.149   1.269   5.659
   59SOL    HW2 1077   1.276   1.243   5.560
   60SOL     OW 1078   5.254   1.287   5.883
   60SOL    HW1 1079   5.183   1.306   5.951
   60SOL    HW2 1080   5.213   1.241   5.805
   61SOL     OW 1081   5.146   1.905   5.180
   61SOL    HW1 1082   5.090   1.984   5.205
   61SOL    HW2 1083   5.173   1.912   5.083
   62SOL     OW 1084   6.971   0.985   3.274
   62SOL    HW1 1085   6.964   0.997   3.175
   62SOL    HW2 1086   0.042   0.960   3.297
   63SOL     OW 1087   5.584   1.811   4.062
   63SOL    HW1 1088   5.652   1.744   4.093
   63SOL    HW2 1089   5.582   1.812   3.962
   64SOL     OW 1090   0.531   3.836   6.035
   64SOL    HW1 1091   0.605   3.771   6.017
   64SOL    HW2 1092   0.539   3.870   6.129
   65SOL     OW 1093   6.583   4.547   5.348
   65SOL    HW1 1094   6.491   4.540   5.386
   65SOL    HW2 1095   6.634   4.617   5.398
   66SOL     OW 1096   3.716   0.833   5.936
   66SOL    HW1 1097   3.636   0.854   5.881
   66SOL    HW2 1098   3.688   0.795   6.024
   67SOL     OW 1099   5.294   4.409   5.599
   67SOL    HW1 1100   5.300   4.504   5.569
   67SOL    HW2 1101   5.358   4.394   5.674
   68SOL     OW 1102   5.521   0.809   6.670
   68SOL    HW1 1103   5.557   0.883   6.726
   68SOL    HW2 1104   5.551   0.721   6.708
   69SOL     OW 1105   0.960   3.386   6.573
   69SOL    HW1 1106   0.922   3.463   6.522
   69SOL    HW2 1107   1.060   3.389   6.568
   70SOL     OW 1108   5.761   5.092   4.099
   70SOL    HW1 1109   5.817   5.041   4.165
   70SOL    HW2 1110   5.771   5.190   4.116
   71SOL     OW 1111   4.387   1.571   3.139
   71SOL    HW1 1112   4.446   1.548   3.063
   71SOL    HW2 1113   4.372   1.670   3.141
   72SOL     OW 1114   2.624   6.037   4.740
   72SOL    HW1 1115   2.708   5.986   4.760
   72SOL    HW2 1116   2.630   6.076   4.648
   73SOL     OW 1117   3.396   0.865   0.817
   73SOL    HW1 1118   3.451   0.914   0.749
   73SOL    HW2 1119   3.305   0.847   0.780
   74SOL     OW 1120   5.419   6.410   6.108
   74SOL    HW1 1121   5.519   6.409   6.111
   74SOL    HW2 1122   5.387   6.500   6.079
   75SOL     OW 1123   3.979   0.076   6.722
   75SOL    HW1 1124   3.976   7.018   6.779
   75SOL    HW2 1125   3.965   0.051   6.627
   76SOL     OW 1126   2.529   2.534   0.981
   76SOL    HW1 1127   2.461   2.462   0.996
   76SOL    HW2 1128   2.511   2.610   1.042
   77SOL     OW 1129   6.172   6.382   3.652
   77SOL    HW1 1130   6.186   6.332   3.566
   77SOL    HW2 1131   6.125   6.324   3.718
   78SOL     OW 1132   5.708   0.692   6.020
   78SOL    HW1 1133   5.667   0.778   5.987
   78SOL    HW2 1134   5.663   0.615   5.976
   79SOL     OW 1135   3.057   6.693   0.311
   79SOL    HW1 1136   3.010   6.749   0.243
   79SOL    HW2 1137   3.134   6.645   0.268
   80SOL     OW 1138   5.289   2.259   3.978
   80SOL    HW1 1139   5.334   2.329   4.034
   80SOL    HW2 1140   5.317   2.168   4.010
   81SOL     OW 1141   2.015   0.378   3.323
   81SOL    HW1 1142   2.052   0.405   3.411
   81SOL    HW2 1143   2.074   0.309   3.281
   82SOL     OW 1144   6.619   4.896   0.797
   82SOL    HW1 1145   6.628   4.988   0.835
   82SOL    HW2 1146   6.641   4.829   0.867
   83SOL     OW 1147   0.609   0.654   0.799
   83SOL    HW1 1148   0.612   0.657   0.699
   83SOL    HW2 1149   0.606   0.748   0.835
   84SOL     OW 1150   5.477   2.843   3.598
   84SOL    HW1 1151   5.468   2.789   3.515
   84SOL    HW2 1152   5.466   2.940   3.576
   85SOL     OW 1153   2.077   1.859   4.556
   85SOL    HW1 1154   2.167   1.818   4.562
   85SOL    HW2 1155   2.016   1.816   4.623
   86SOL     OW 1156   6.863   0.614   5.153
   86SOL    HW1 1157   6.774   0.570   5.143
   86SOL    HW2 1158   6.932   0.565   5.099
   87SOL     OW 1159   5.168   3.600   0.687
   87SOL    HW1 1160   5.069   3.585   0.680
   87SOL    HW2 1161   5.199   3.576   0.779
   88SOL     OW 1162   3.689   1.649   6.312
   88SOL    HW1 1163   3.757   1.605   6.370
   88SOL    HW2 1164   3.735   1.695   6.235
   89SOL     OW 1165   0.827   2.298   5.369
   89SOL    HW1 1166   0.926   2.302   5.382
   89SOL    HW2 1167   0.807   2.246   5.286
   90SOL     OW 1168   3.922   5.974   2.696
   90SOL    HW1 1169   3.828   5.986   2.664
   90SOL    HW2 1170   3.969   6.063   2.698
   91SOL     OW 1171   4.798   4.422   5.069
   91SOL    HW1 1172   4.803   4.331   5.111
   91SOL    HW2 1173   4.756   4.414   4.978
   92SOL     OW 1174   3.474   3.893   0.190
   92SOL    HW1 1175   3.464   3.993   0.191
   92SOL    HW2 1176   3.570   3.869   0.196
   93SOL     OW 1177   2.644   3.698   6.461
   93SOL    HW1 1178   2.566   3.638   6.443
   93SOL    HW2 1179   2.698   3.709   6.377
   94SOL     OW 1180   2.654   6.106   5.970
   94SOL    HW1 1181   2.563   6.086   5.935
   94SOL    HW2 1182   2.700   6.170   5.908
   95SOL     OW 1183   1.141   0.714   3.074
   95SOL    HW1 1184   1.069   0.734   3.007
   95SOL    HW2 1185   1.099   0.679   3.158
   96SOL     OW 1186   3.257   0.321   4.911
   96SOL    HW1 1187   3.356   0.330   4.923
   96SOL    HW2 1188   3.218   0.271   4.988
   97SOL     OW 1189   1.848   3.003   5.854
   97SOL    HW1 1190   1.912   3.025   5.780
   97SOL    HW2 1191   1.755   2.997   5.817
   98SOL     OW 1192   6.512   3.631   1.076
   98SOL    HW1 1193   6.583   3.702   1.075
   98SOL    HW2 1194   6.450   3.647   1.153
   99SOL     OW 1195   4.305   3.370   1.213
   99SOL    HW1 1196   4.230   3.328   1.161
   99SOL    HW2 1197   4.391   3.353   1.166
  100SOL     OW 1198   0.068   6.967   4.905
  100SOL    HW1 1199   0.032   7.003   4.819
  100SOL    HW2 1200   0.020   6.882   4.929
  101SOL     OW 1201   1.551   5.468   2.103
  101SOL    HW1 1202   1.616   5.444   2.030
  101SOL    HW2 1203   1.502   5.386   2.132
  102SOL     OW 1204   4.211   0.161   2.772
  102SOL    HW1 1205   4.179   0.130   2.861
  102SOL    HW2 1206   4.134   0.169   2.709
  103SOL     OW 1207   3.159   0.972   2.199
  103SOL    HW1 1208   3.247   1.013   2.178
  103SOL    HW2 1209   3.145   0.972   2.298
  104SOL     OW 1210   0.535   5.308   2.733
  104SOL    HW1 1211   0.457   5.270   2.783
  104SOL    HW2 1212   0.613   5.317   2.796
  105SOL     OW 1213   6.835   2.760   6.725
  105SOL    HW1 1214   6.788   2.826   6.666
  105SOL    HW2 1215   6.793   2.761   6.815
  106SOL     OW 1216   3.716   6.164   4.931
  106SOL    HW1 1217   3.809   6.185   4.963
  106SOL    HW2 1218   3.673   6.247   4.896
  107SOL     OW 1219   2.198   1.523   1.992
  107SOL    HW1 1220   2.282   1.538   2.045
  107SOL    HW2 1221   2.222   1.484   1.903
  108SOL     OW 1222   3.756   5.301   5.769
  108SOL    HW1 1223   3.741   5.269   5.862
  108SOL    HW2 1224   3.669   5.298   5.718
  109SOL     OW 1225   0.017   0.782   1.356
  109SOL    HW1 1226   0.097   0.830   1.392
  109SOL    HW2 1227   0.045   0.692   1.322
  110SOL     OW 1228   3.298   5.595   5.423
  110SOL    HW1 1229   3.237   5.585   5.501
  110SOL    HW2 1230   3.307   5.508   5.376
  111SOL     OW 1231   3.014   1.346   4.335
  111SOL    HW1 1232   2.929   1.302   4.363
  111SOL    HW2 1233   2.999   1.396   4.250
  112SOL     OW 1234   4.782   6.971   6.055
  112SOL    HW1 1235   4.861   6.936   6.106
  112SOL    HW2 1236   4.811   7.000   5.964
  113SOL     OW 1237   6.071   5.804   3.178
  113SOL    HW1 1238   6.044   5.889   3.133
  113SOL    HW2 1239   6.158   5.818   3.226
  114SOL     OW 1240   1.208   0.871   1.020
  114SOL    HW1 1241   1.244   0.791   1.068
  114SOL    HW2 1242   1.205   0.852   0.922
  115SOL     OW 1243   3.986   1.432   3.616
  115SOL    HW1 1244   4.067   1.477   3.579
  115SOL    HW2 1245   3.912   1.498   3.626
  116SOL     OW 1246   5.772   4.904   1.400
  116SOL    HW1 1247   5.783   5.000   1.371
  116SOL    HW2 1248   5.707   4.858   1.340
  117SOL     OW 1249   1.254   1.653   0.562
  117SOL    HW1 1250   1.165   1.624   0.597
  117SOL    HW2 1251   1.287   1.732   0.614
  118SOL     OW 1252   1.758   1.087   3.330
  118SOL    HW1 1253   1.741   1.042   3.418
  118SOL    HW2 1254   1.716   1.177   3.329
  119SOL     OW 1255   0.587   0.974   6.981
  119SOL    HW1 1256   0.584   0.917   6.899
  119SOL    HW2 1257   0.639   0.927   0.029
  120SOL     OW 1258   6.595   6.932   0.489
  120SOL    HW1 1259   6.673   6.986   0.458
  120SOL    HW2 1260   6.523   6.934   0.419
  121SOL     OW 1261   2.208   3.514   6.244
  121SOL    HW1 1262   2.225   3.430   6.194
  121SOL    HW2 1263   2.115   3.514   6.280
  122SOL     OW 1264   1.897   4.381   6.202
  122SOL    HW1 1265   1.987   4.382   6.245
  122SOL    HW2 1266   1.887   4.298   6.147
  123SOL     OW 1267   0.115   1.453   1.988
  123SOL    HW1 1268   0.181   1.527   1.976
  123SOL    HW2 1269   0.124   1.388   1.913
  124SOL     OW 1270   4.862   3.164   0.787
  124SOL    HW1 1271   4.798   3.107   0.735
  124SOL    HW2 1272   4.928   3.205   0.725
  125SOL     OW 1273   3.598   1.844   1.445
  125SOL    HW1 1274   3.565   1.865   1.537
  125SOL    HW2 1275   3.697   1.832   1.447
  126SOL     OW 1276   2.765   3.451   1.096
  126SOL    HW1 1277   2.715   3.482   1.177
  126SOL    HW2 1278   2.763   3.351   1.092
  127SOL     OW 1279   0.946   5.311   6.493
  127SOL    HW1 1280   0.847   5.302   6.499
  127SOL    HW2 1281   0.969   5.405   6.466
  128SOL     OW 1282   4.905   3.089   1.334
  128SOL    HW1 1283   4.869   3.008   1.288
  128SOL    HW2 1284   4.864   3.171   1.294
  129SOL     OW 1285   2.465   2.959   5.944
  129SOL    HW1 1286   2.533   3.032   5.937
  129SOL    HW2 1287   2.378   2.997   5.974
  130SOL     OW 1288   0.937   1.740   4.028
  130SOL    HW1 1289   0.888   1.684   3.961
  130SOL    HW2 1290   0.886   1.741   4.114
  131SOL     OW 1291   5.328   2.150   3.745
  131SOL    HW1 1292   5.317   2.176   3.841
  131SOL    HW2 1293   5.240   2.158   3.698
  132SOL     OW 1294   2.403   2.299   1.333
  132SOL    HW1 1295   2.406   2.210   1.379
  132SOL    HW2 1296   2.408   2.372   1.402
  133SOL     OW 1297   4.679   6.254   4.311
  133SOL    HW1 1298   4.651   6.325   4.246
  133SOL    HW2 1299   4.765   6.280   4.354
  134SOL     OW 1300   6.529   1.885   2.352
  134SOL    HW1 1301   6.442   1.864   2.396
  134SOL    HW2 1302   6.561   1.806   2.300
  135SOL     OW 1303   5.809   3.759   3.401
  135SOL    HW1 1304   5.870   3.783   3.476
  135SOL    HW2 1305   5.861   3.751   3.316
  136SOL     OW 1306   3.389   3.746   5.682
  136SOL    HW1 1307   3.327   3.675   5.715
  136SOL    HW2 1308   3.463   3.759   5.748
  137SOL     OW 1309   5.488   1.593   4.611
  137SOL    HW1 1310   5.407   1.652   4.615
  137SOL    HW2 1311   5.461   1.497   4.622
  138SOL     OW 1312   0.983   4.520   3.300
  138SOL    HW1 1313   1.062   4.571   3.267
  138SOL    HW2 1314   0.905   4.581   3.311
  139SOL     OW 1315   2.150   6.920   4.669
  139SOL    HW1 1316   2.141   6.909   4.768
  139SOL    HW2 1317   2.120   6.837   4.623
  140SOL     OW 1318   0.662   5.550   2.686
  140SOL    HW1 1319   0.605   5.471   2.663
  140SOL    HW2 1320   0.737   5.521   2.746
  141SOL     OW 1321   6.328   3.322   5.017
  141SOL    HW1 1322   6.284   3.252   5.073
  141SOL    HW2 1323   6.350   3.402   5.074
  142SOL     OW 1324   1.851   4.219   0.470
  142SOL    HW1 1325   1.795   4.219   0.387
  142SOL    HW2 1326   1.946   4.196   0.447
  143SOL     OW 1327   5.916   4.432   1.135
  143SOL    HW1 1328   5.987   4.408   1.201
  143SOL    HW2 1329   5.828   4.441   1.182
  144SOL     OW 1330   1.182   6.403   5.956
  144SOL    HW1 1331   1.232   6.320   5.929
  144SOL    HW2 1332   1.211   6.432   6.047
  145SOL     OW 1333   0.067   5.928   0.055
  145SOL    HW1 1334   0.055   5.948   0.152
  145SOL    HW2 1335   7.022   5.861   0.026
  146SOL     OW 1336   4.870   0.451   6.504
  146SOL    HW1 1337   4.869   0.544   6.467
  146SOL    HW2 1338   4.864   0.386   6.428
  147SOL     OW 1339   6.521   4.074   6.992
  147SOL    HW1 1340   6.447   4.008   6.986
  147SOL    HW2 1341   6.531   4.105   0.063
  148SOL     OW 1342   0.182   5.237   6.356
  148SOL    HW1 1343   0.106   5.209   6.415
  148SOL    HW2 1344   0.159   5.216   6.261
  149SOL     OW 1345   2.952   1.671   4.380
  149SOL    HW1 1346   2.864   1.643   4.421
  149SOL    HW2 1347   2.977   1.761   4.414
  150SOL     OW 1348   5.560   5.823   6.845
  150SOL    HW1 1349   5.614   5.749   6.885
  150SOL    HW2 1350   5.524   5.794   6.757
  151SOL     OW 1351   2.998   2.234   0.998
  151SOL    HW1 1352   2.970   2.141   1.022
  151SOL    HW2 1353   2.952   2.262   0.913
  152SOL     OW 1354   1.212   0.989   2.896
  152SOL    HW1 1355   1.208   0.982   2.996
  152SOL    HW2 1356   1.307   0.979   2.866
  153SOL     OW 1357   2.986   0.563   1.618
  153SOL    HW1 1358   2.922   0.623   1.666
  153SOL    HW2 1359   3.017   0.491   1.679
  154SOL     OW 1360   0.898   2.106   2.564
  154SOL    HW1 1361   0.914   2.196   2.523
  154SOL    HW2 1362   0.812   2.108   2.615
  155SOL     OW 1363   6.597   1.698   2.848
  155SOL    HW1 1364   6.538   1.651   2.782
  155SOL    HW2 1365   6.662   1.634   2.886
  156SOL     OW 1366   0.509   2.161   0.803
  156SOL    HW1 1367   0.475   2.095   0.736
  156SOL    HW2 1368   0.569   2.226   0.758
  157SOL     OW 1369   5.600   3.046   1.206
  157SOL    HW1 1370   5.637   3.053   1.114
  157SOL    HW2 1371   5.600   3.136   1.249
  158SOL     OW 1372   1.972   5.957   2.481
  158SOL    HW1 1373   2.051   5.981   2.425
  158SOL    HW2 1374   1.922   5.883   2.437
  159SOL     OW 1375   4.336   4.679   2.070
  159SOL    HW1 1376   4.333   4.641   1.978
  159SOL    HW2 1377   4.394   4.621   2.128
  160SOL     OW 1378   6.025   5.271   0.224
  160SOL    HW1 1379   5.990   5.178   0.233
  160SOL    HW2 1380   6.101   5.285   0.288
  161SOL     OW 1381   1.865   5.862   4.222
  161SOL    HW1 1382   1.855   5.872   4.123
  161SOL    HW2 1383   1.956   5.893   4.249
  162SOL     OW 1384   4.167   6.272   6.874
  162SOL    HW1 1385   4.221   6.332   6.815
  162SOL    HW2 1386   4.078   6.254   6.831
  163SOL     OW 1387   5.447   5.670   0.670
  163SOL    HW1 1388   5.493   5.702   0.753
  163SOL    HW2 1389   5.350   5.652   0.691
  164SOL     OW 1390   6.162   4.326   0.161
  164SOL    HW1 1391   6.142   4.344   0.065
  164SOL    HW2 1392   6.226   4.249   0.168
  165SOL     OW 1393   5.155   3.066   1.240
  165SOL    HW1 1394   5.073   3.058   1.297
  165SOL    HW2 1395   5.225   3.004   1.275
  166SOL     OW 1396   7.001   5.045   3.398
  166SOL    HW1 1397   0.040   5.015   3.325
  166SOL    HW2 1398   6.940   4.970   3.422
  167SOL     OW 1399   5.288   3.050   0.005
  167SOL    HW1 1400   5.255   3.060   0.099
  167SOL    HW2 1401   5.287   2.953   7.003
  168SOL     OW 1402   2.526   2.966   1.360
  168SOL    HW1 1403   2.532   2.995   1.264
  168SOL    HW2 1404   2.450   2.901   1.370
  169SOL     OW 1405   4.739   0.980   1.836
  169SOL    HW1 1406   4.782   0.896   1.805
  169SOL    HW2 1407   4.641   0.976   1.818
  170SOL     OW 1408   1.070   1.174   3.482
  170SOL    HW1 1409   1.062   1.220   3.571
  170SOL    HW2 1410   1.042   1.078   3.492
  171SOL     OW 1411   3.874   4.319   6.951
  171SOL    HW1 1412   3.806   4.246   6.942
  171SOL    HW2 1413   3.851   4.393   6.888
  172SOL     OW 1414   6.009   1.696   3.823
  172SOL    HW1 1415   6.082   1.677   3.758
  172SOL    HW2 1416   6.042   1.760   3.892
  173SOL     OW 1417   0.019   1.903   4.514
  173SOL    HW1 1418   0.060   1.993   4.532
  173SOL    HW2 1419   6.948   1.902   4.546
  174SOL     OW 1420   3.270   5.141   3.926
  174SOL    HW1 1421   3.245   5.234   3.955
  174SOL    HW2 1422   3.208   5.110   3.855
  175SOL     OW 1423   2.244   0.103   1.844
  175SOL    HW1 1424   2.279   0.195   1.857
  175SOL    HW2 1425   2.274   0.068   1.755
  176SOL     OW 1426   1.422   4.453   0.814
  176SOL    HW1 1427   1.411   4.537   0.866
  176SOL    HW2 1428   1.343   4.439   0.755
  177SOL     OW 1429   5.910   3.509   2.745
  177SOL    HW1 1430   5.888   3.431   2.687
  177SOL    HW2 1431   5.834   3.526   2.808
  178SOL     OW 1432   2.625   2.444   6.864
  178SOL    HW1 1433   2.589   2.407   6.779
  178SOL    HW2 1434   2.627   2.372   6.933
  179SOL     OW 1435   2.547   1.447   6.023
  179SOL    HW1 1436   2.596   1.515   5.968
  179SOL    HW2 1437   2.578   1.452   6.118
  180SOL     OW 1438   1.401   6.615   0.043
  180SOL    HW1 1439   1.494   6.627   0.078
  180SOL    HW2 1440   1.341   6.584   0.117
  181SOL     OW 1441   3.138   2.506   6.416
  181SOL    HW1 1442   3.039   2.519   6.428
  181SOL    HW2 1443   3.162   2.412   6.439
  182SOL     OW 1444   3.325   1.420   4.163
  182SOL    HW1 1445   3.281   1.509   4.150
  182SOL    HW2 1446   3.380   1.422   4.246
  183SOL     OW 1447   3.564   1.975   3.516
  183SOL    HW1 1448   3.472   1.980   3.555
  183SOL    HW2 1449   3.625   2.033   3.569
  184SOL     OW 1450   2.082   6.134   4.387
  184SOL    HW1 1451   2.001   6.182   4.421
  184SOL    HW2 1452   2.063   6.096   4.296
  185SOL     OW 1453   0.443   1.579   6.187
  185SOL    HW1 1454   0.473   1.573   6.092
  185SOL    HW2 1455   0.477   1.499   6.237
  186SOL     OW 1456   5.337   1.108   4.257
  186SOL    HW1 1457   5.317   1.131   4.162
  186SOL    HW2 1458   5.396   1.178   4.296
  187SOL     OW 1459   4.009   0.249   3.406
  187SOL    HW1 1460   4.102   0.212   3.416
  187SOL    HW2 1461   4.001   0.294   3.317
  188SOL     OW 1462   0.305   1.657   2.469
  188SOL    HW1 1463   0.321   1.642   2.371
  188SOL    HW2 1464   0.358   1.590   2.521
  189SOL     OW 1465   2.291   5.532   1.517
  189SOL    HW1 1466   2.308   5.571   1.608
  189SOL    HW2 1467   2.329   5.592   1.447
  190SOL     OW 1468   4.854   1.895   4.556
  190SOL    HW1 1469   4.809   1.982   4.536
  190SOL    HW2 1470   4.931   1.910   4.618
  191SOL     OW 1471   5.565   6.297   6.848
  191SOL    HW1 1472   5.504   6.342   6.784
  191SOL    HW2 1473   5.601   6.213   6.808
  192SOL     OW 1474   0.772   5.907   1.901
  192SOL    HW1 1475   0.822   5.984   1.860
  192SOL    HW2 1476   0.705   5.942   1.966
  193SOL     OW 1477   4.750   2.803   5.600
  193SOL    HW1 1478   4.802   2.851   5.672
  193SOL    HW2 1479   4.814   2.760   5.536
  194SOL     OW 1480   3.886   0.994   3.025
  194SOL    HW1 1481   3.870   0.896   3.038
  194SOL    HW2 1482   3.838   1.045   3.095
  195SOL     OW 1483   1.817   0.283   4.862
  195SOL    HW1 1484   1.834   0.370   4.816
  195SOL    HW2 1485   1.826   0.208   4.797
  196SOL     OW 1486   2.726   0.479   0.334
  196SOL    HW1 1487   2.691   0.431   0.414
  196SOL    HW2 1488   2.822   0.503   0.348
  197SOL     OW 1489   2.997   0.088   1.422
  197SOL    HW1 1490   2.963   0.066   1.514
  197SOL    HW2 1491   3.064   0.020   1.394
  198SOL     OW 1492   4.915   0.767   2.718
  198SOL    HW1 1493   4.975   0.770   2.798
  198SOL    HW2 1494   4.930   0.680   2.670
  199SOL     OW 1495   6.839   2.268   3.572
  199SOL    HW1 1496   6.919   2.219   3.538
  199SOL    HW2 1497   6.844   2.278   3.671
  200SOL     OW 1498   1.623   3.694   0.672
  200SOL    HW1 1499   1.605   3.769   0.609
  200SOL    HW2 1500   1.706   3.646   0.644
  201SOL     OW 1501   0.166   7.013   6.247
  201SOL    HW1 1502   0.135   6.963   6.328
  201SOL    HW2 1503   0.226   0.065   6.275
  202SOL     OW 1504   3.815   1.082   0.166
  202SOL    HW1 1505   3.877   1.006   0.148
  202SOL    HW2 1506   3.851   1.138   0.240
  203SOL     OW 1507   5.953   2.570   5.573
  203SOL    HW1 1508   5.969   2.540   5.479
  203SOL    HW2 1509   5.999   2.508   5.636
  204SOL     OW 1510   1.133   0.254   4.760
  204SOL    HW1 1511   1.056   0.192   4.748
  204SOL    HW2 1512   1.211   0.220   4.707
  205SOL     OW 1513   0.475   2.332   3.045
  205SOL    HW1 1514   0.394   2.386   3.024
  205SOL    HW2 1515   0.555   2.392   3.050
  206SOL     OW 1516   0.483   4.421   0.902
  206SOL    HW1 1517   0.413   4.351   0.891
  206SOL    HW2 1518   0.466   4.472   0.987
  207SOL     OW 1519   6.430   1.923   3.697
  207SOL    HW1 1520   6.424   1.966   3.787
  207SOL    HW2 1521   6.508   1.861   3.696
  208SOL     OW 1522   6.820   4.235   5.591
  208SOL    HW1 1523   6.910   4.278   5.583
  208SOL    HW2 1524   6.804   4.176   5.512
  209SOL     OW 1525   0.280   5.459   4.217
  209SOL    HW1 1526   0.303   5.478   4.313
  209SOL    HW2 1527   0.341   5.511   4.158
  210SOL     OW 1528   4.750   1.257   0.485
  210SOL    HW1 1529   4.821   1.285   0.550
  210SOL    HW2 1530   4.770   1.164   0.452
  211SOL     OW 1531   1.561   6.638   2.505
  211SOL    HW1 1532   1.552   6.552   2.455
  211SOL    HW2 1533   1.654   6.674   2.493
  212SOL     OW 1534   1.459   3.735   1.564
  212SOL    HW1 1535   1.546   3.757   1.520
  212SOL    HW2 1536   1.477   3.688   1.651
  213SOL     OW 1537   2.813   6.937   0.630
  213SOL    HW1 1538   2.770   6.941   0.721
  213SOL    HW2 1539   2.844   6.844   0.612
  214SOL     OW 1540   3.893   5.214   2.705
  214SOL    HW1 1541   3.881   5.222   2.606
  214SOL    HW2 1542   3.803   5.203   2.748
  215SOL     OW 1543   2.711   3.697   0.570
  215SOL    HW1 1544   2.670   3.605   0.576
  215SOL    HW2 1545   2.808   3.689   0.548
  216SOL     OW 1546   1.139   5.684   3.199
  216SOL    HW1 1547   1.205   5.733   3.143
  216SOL    HW2 1548   1.061   5.744   3.218
  217SOL     OW 1549   1.218   2.745   4.184
  217SOL    HW1 1550   1.166   2.761   4.268
  217SOL    HW2 1551   1.167   2.683   4.125
  218SOL     OW 1552   1.055   2.994   4.284
  218SOL    HW1 1553   1.048   2.978   4.185
  218SOL    HW2 1554   1.115   3.072   4.301
  219SOL     OW 1555   4.045   0.388   0.284
  219SOL    HW1 1556   4.099   0.310   0.314
  219SOL    HW2 1557   3.977   0.358   0.218
  220SOL     OW 1558   2.937   6.998   1.679
  220SOL    HW1 1559   2.861   0.037   1.698
  220SOL    HW2 1560   2.902   6.915   1.636
  221SOL     OW 1561   5.767   4.191   1.054
  221SOL    HW1 1562   5.793   4.287   1.056
  221SOL    HW2 1563   5.671   4.182   1.083
  222SOL     OW 1564   1.251   4.765   5.480
  222SOL    HW1 1565   1.325   4.805   5.534
  222SOL    HW2 1566   1.248   4.666   5.496
  223SOL     OW 1567   6.562   3.061   6.235
  223SOL    HW1 1568   6.527   3.132   6.296
  223SOL    HW2 1569   6.609   3.103   6.157
  224SOL     OW 1570   2.904   1.891   5.745
  224SOL    HW1 1571   2.997   1.907   5.777
  224SOL    HW2 1572   2.879   1.796   5.761
  225SOL     OW 1573   5.142   3.935   6.644
  225SOL    HW1 1574   5.156   3.948   6.546
  225SOL    HW2 1575   5.051   3.897   6.660
  226SOL     OW 1576   0.926   1.531   5.722
  226SOL    HW1 1577   0.898   1.441   5.688
  226SOL    HW2 1578   1.015   1.555   5.683
  227SOL     OW 1579   0.719   4.092   1.456
  227SOL    HW1 1580   0.636   4.046   1.423
  227SOL    HW2 1581   0.706   4.123   1.550
  228SOL     OW 1582   2.283   0.149   3.514
  228SOL    HW1 1583   2.283   0.051   3.490
  228SOL    HW2 1584   2.346   0.198   3.455
  229SOL     OW 1585   6.240   6.282   5.887
  229SOL    HW1 1586   6.172   6.263   5.816
  229SOL    HW2 1587   6.291   6.198   5.907
  230SOL     OW 1588   3.437   4.968   3.679
  230SOL    HW1 1589   3.536   4.952   3.671
  230SOL    HW2 1590   3.392   4.939   3.595
  231SOL     OW 1591   6.093   1.612   6.864
  231SOL    HW1 1592   6.139   1.555   6.931
  231SOL    HW2 1593   6.152   1.623   6.784
  232SOL     OW 1594   0.475   3.481   6.572
  232SOL    HW1 1595   0.537   3.553   6.539
  232SOL    HW2 1596   0.380   3.510   6.557
  233SOL     OW 1597   3.217   1.138   2.980
  233SOL    HW1 1598   3.306   1.124   2.939
  233SOL    HW2 1599   3.196   1.063   3.043
  234SOL     OW 1600   5.188   0.722   6.291
  234SOL    HW1 1601   5.200   0.820   6.276
  234SOL    HW2 1602   5.210   0.673   6.207
  235SOL     OW 1603   4.672   2.729   1.954
  235SOL    HW1 1604   4.670   2.828   1.967
  235SOL    HW2 1605   4.611   2.685   2.020
  236SOL     OW 1606   5.759   2.452   6.834
  236SOL    HW1 1607   5.687   2.396   6.792
  236SOL    HW2 1608   5.782   2.415   6.924
  237SOL     OW 1609   6.935   4.572   2.042
  237SOL    HW1 1610   6.836   4.559   2.042
  237SOL    HW2 1611   6.973   4.528   1.960
  238SOL     OW 1612   5.576   1.014   0.531
  238SOL    HW1 1613   5.599   1.006   0.434
  238SOL    HW2 1614   5.492   1.067   0.541
  239SOL     OW 1615   1.009   4.560   6.507
  239SOL    HW1 1616   0.943   4.628   6.540
  239SOL    HW2 1617   0.999   4.549   6.408
  240SOL     OW 1618   6.581   2.704   3.332
  240SOL    HW1 1619   6.536   2.773   3.390
  240SOL    HW2 1620   6.662   2.670   3.379
  241SOL     OW 1621   2.857   2.212   5.022
  241SOL    HW1 1622   2.957   2.207   5.015
  241SOL    HW2 1623   2.831   2.297   5.068
  242SOL     OW 1624   3.516   3.970   4.261
  242SOL    HW1 1625   3.432   4.002   4.217
  242SOL    HW2 1626   3.527   4.016   4.349
  243SOL     OW 1627   4.448   0.933   6.370
  243SOL    HW1 1628   4.365   0.979   6.339
  243SOL    HW2 1629   4.424   0.852   6.422
  244SOL     OW 1630   6.339   3.415   5.532
  244SOL    HW1 1631   6.366   3.373   5.446
  244SOL    HW2 1632   6.356   3.351   5.607
  245SOL     OW 1633   5.123   2.478   4.111
  245SOL    HW1 1634   5.193   2.549   4.104
  245SOL    HW2 1635   5.166   2.388   4.098
  246SOL     OW 1636   5.232   2.088   3.288
  246SOL    HW1 1637   5.187   2.172   3.317
  246SOL    HW2 1638   5.229   2.021   3.362
  247SOL     OW 1639   2.816   1.432   0.089
  247SOL    HW1 1640   2.825   1.509   0.152
  247SOL    HW2 1641   2.733   1.381   0.110
  248SOL     OW 1642   4.045   1.552   2.832
  248SOL    HW1 1643   4.086   1.462   2.837
  248SOL    HW2 1644   3.946   1.545   2.844
  249SOL     OW 1645   4.632   0.534   4.635
  249SOL    HW1 1646   4.602   0.613   4.687
  249SOL    HW2 1647   4.709   0.490   4.681
  250SOL     OW 1648   5.142   3.453   0.344
  250SOL    HW1 1649   5.160   3.485   0.437
  250SOL    HW2 1650   5.219   3.478   0.285
  251SOL     OW 1651   4.759   3.585   5.584
  251SOL    HW1 1652   4.718   3.500   5.618
  251SOL    HW2 1653   4.778   3.645   5.661
  252SOL     OW 1654   7.001   6.113   5.040
  252SOL    HW1 1655   6.943   6.038   5.074
  252SOL    HW2 1656   7.020   6.176   5.115
  253SOL     OW 1657   2.871   5.114   6.314
  253SOL    HW1 1658   2.957   5.070   6.286
  253SOL    HW2 1659   2.889   5.174   6.392
  254SOL     OW 1660   6.087   2.136   3.953
  254SOL    HW1 1661   6.138   2.190   4.020
  254SOL    HW2 1662   6.022   2.196   3.906
  255SOL     OW 1663   1.361   4.634   5.242
  255SOL    HW1 1664   1.372   4.733   5.234
  255SOL    HW2 1665   1.432   4.588   5.189
  256SOL     OW 1666   6.220   3.939   6.283
  256SOL    HW1 1667   6.207   4.022   6.338
  256SOL    HW2 1668   6.300   3.889   6.317
  257SOL     OW 1669   5.036   0.382   3.725
  257SOL    HW1 1670   4.954   0.340   3.688
  257SOL    HW2 1671   5.061   0.338   3.811
  258SOL     OW 1672   2.351   5.299   5.089
  258SOL    HW1 1673   2.374   5.347   5.005
  258SOL    HW2 1674   2.267   5.247   5.075
  259SOL     OW 1675   6.257   2.254   2.905
  259SOL    HW1 1676   6.300   2.327   2.850
  259SOL    HW2 1677   6.199   2.199   2.846
  260SOL     OW 1678   4.309   6.866   1.901
  260SOL    HW1 1679   4.288   6.963   1.889
  260SOL    HW2 1680   4.239   6.823   1.958
  261SOL     OW 1681   6.815   3.154   0.343
  261SOL    HW1 1682   6.863   3.241   0.331
  261SOL    HW2 1683   6.727   3.157   0.296
  262SOL     OW 1684   0.451   3.620   6.920
  262SOL    HW1 1685   0.532   3.563   6.907
  262SOL    HW2 1686   0.455   3.698   6.858
  263SOL     OW 1687   2.137   0.675   4.657
  263SOL    HW1 1688   2.158   0.767   4.624
  263SOL    HW2 1689   2.208   0.646   4.721
  264SOL     OW 1690   5.660   3.061   6.870
  264SOL    HW1 1691   5.671   3.158   6.845
  264SOL    HW2 1692   5.669   3.051   6.969
  265SOL     OW 1693   5.378   6.464   2.692
  265SOL    HW1 1694   5.393   6.497   2.785
  265SOL    HW2 1695   5.407   6.369   2.685
  266SOL     OW 1696   3.337   2.745   5.968
  266SOL    HW1 1697   3.394   2.783   5.896
  266SOL    HW2 1698   3.390   2.740   6.053
  267SOL     OW 1699   0.801   1.432   6.324
  267SOL    HW1 1700   0.715   1.483   6.327
  267SOL    HW2 1701   0.782   1.334   6.321
  268SOL     OW 1702   3.800   1.331   6.458
  268SOL    HW1 1703   3.885   1.351   6.408
  268SOL    HW2 1704   3.811   1.245   6.508
  269SOL     OW 1705   1.581   3.508   1.440
  269SOL    HW1 1706   1.517   3.562   1.495
  269SOL    HW2 1707   1.550   3.506   1.345
  270SOL     OW 1708   1.256   6.370   0.431
  270SOL    HW1 1709   1.240   6.311   0.511
  270SOL    HW2 1710   1.341   6.420   0.444
  271SOL     OW 1711   6.862   1.991   6.916
  271SOL    HW1 1712   6.775   2.030   6.947
  271SOL    HW2 1713   6.908   1.947   6.993
  272SOL     OW 1714   3.599   5.241   4.076
  272SOL    HW1 1715   3.568   5.157   4.031
  272SOL    HW2 1716   3.614   5.223   4.173
  273SOL     OW 1717   2.507   4.555   4.190
  273SOL    HW1 1718   2.578   4.618   4.160
  273SOL    HW2 1719   2.530   4.519   4.281
  274SOL     OW 1720   3.959   1.768   3.402
  274SOL    HW1 1721   3.943   1.709   3.322
  274SOL    HW2 1722   4.057   1.782   3.415
  275SOL     OW 1723   6.313   5.251   3.760
  275SOL    HW1 1724   6.337   5.210   3.672
  275SOL    HW2 1725   6.315   5.351   3.752
  276SOL     OW 1726   6.438   6.572   2.614
  276SOL    HW1 1727   6.440   6.663   2.654
  276SOL    HW2 1728   6.375   6.514   2.665
  277SOL     OW 1729   1.777   4.418   0.257
  277SOL    HW1 1730   1.851   4.482   0.277
  277SOL    HW2 1731   1.764   4.410   0.158
  278SOL     OW 1732   7.009   4.814   1.965
  278SOL    HW1 1733   0.010   4.872   2.043
  278SOL    HW2 1734   6.972   4.727   1.998
  279SOL     OW 1735   5.641   3.304   4.457
  279SOL    HW1 1736   5.594   3.245   4.391
  279SOL    HW2 1737   5.677   3.385   4.410
  280SOL     OW 1738   2.981   6.733   3.435
  280SOL    HW1 1739   3.041   6.737   3.356
  280SOL    HW2 1740   3.033   6.750   3.518
  281SOL     OW 1741   2.686   4.061   1.543
  281SOL    HW1 1742   2.745   3.990   1.581
  281SOL    HW2 1743   2.591   4.040   1.565
  282SOL     OW 1744   3.124   1.300   6.092
  282SOL    HW1 1745   3.118   1.259   6.001
  282SOL    HW2 1746   3.045   1.359   6.108
  283SOL     OW 1747   6.374   2.046   6.356
  283SOL    HW1 1748   6.402   2.100   6.435
  283SOL    HW2 1749   6.328   1.963   6.387
  284SOL     OW 1750   1.521   4.315   3.735
  284SOL    HW1 1751   1.426   4.330   3.710
  284SOL    HW2 1752   1.544   4.371   3.815
  285SOL     OW 1753   5.946   4.971   4.636
  285SOL    HW1 1754   6.033   4.947   4.679
  285SOL    HW2 1755   5.873   4.913   4.672
  286SOL     OW 1756   3.551   5.800   6.057
  286SOL    HW1 1757   3.573   5.766   6.149
  286SOL    HW2 1758   3.627   5.857   6.025
  287SOL     OW 1759   0.862   3.860   0.847
  287SOL    HW1 1760   0.936   3.803   0.809
  287SOL    HW2 1761   0.865   3.855   0.946
  288SOL     OW 1762   3.662   1.506   6.717
  288SOL    HW1 1763   3.587   1.570   6.727
  288SOL    HW2 1764   3.639   1.438   6.647
  289SOL     OW 1765   0.778   4.119   5.293
  289SOL    HW1 1766   0.809   4.083   5.382
  289SOL    HW2 1767   0.774   4.045   5.227
  290SOL     OW 1768   6.097   2.355   4.684
  290SOL    HW1 1769   6.038   2.279   4.713
  290SOL    HW2 1770   6.191   2.336   4.712
  291SOL     OW 1771   1.653   2.407   4.546
  291SOL    HW1 1772   1.669   2.371   4.454
  291SOL    HW2 1773   1.720   2.479   4.566
  292SOL     OW 1774   1.354   2.882   3.431
  292SOL    HW1 1775   1.313   2.885   3.340
  292SOL    HW2 1776   1.321   2.960   3.485
  293SOL     OW 1777   4.321   6.129   2.747
  293SOL    HW1 1778   4.227   6.161   2.739
  293SOL    HW2 1779   4.383   6.206   2.731
  294SOL     OW 1780   1.171   5.653   6.576
  294SOL    HW1 1781   1.210   5.727   6.522
  294SOL    HW2 1782   1.071   5.656   6.569
  295SOL     OW 1783   3.260   1.669   3.546
  295SOL    HW1 1784   3.349   1.703   3.517
  295SOL    HW2 1785   3.238   1.704   3.637
  296SOL     OW 1786   3.798   2.101   3.338
  296SOL    HW1 1787   3.838   2.157   3.265
  296SOL    HW2 1788   3.833   2.007   3.330
  297SOL     OW 1789   2.800   4.764   3.627
  297SOL    HW1 1790   2.750   4.820   3.562
  297SOL    HW2 1791   2.898   4.787   3.622
  298SOL     OW 1792   3.377   5.933   1.460
  298SOL    HW1 1793   3.366   6.021   1.507
  298SOL    HW2 1794   3.428   5.870   1.519
  299SOL     OW 1795   5.476   3.263   6.193
  299SOL    HW1 1796   5.391   3.219   6.221
  299SOL    HW2 1797   5.471   3.285   6.095
  300SOL     OW 1798   6.672   0.694   2.920
  300SOL    HW1 1799   6.644   0.775   2.971
  300SOL    HW2 1800   6.722   0.721   2.838
  301SOL     OW 1801   4.787   3.303   1.244
  301SOL    HW1 1802   4.729   3.308   1.163
  301SOL    HW2 1803   4.739   3.343   1.322
  302SOL     OW 1804   1.013   0.616   3.295
  302SOL    HW1 1805   0.930   0.671   3.294
  302SOL    HW2 1806   0.991   0.522   3.323
  303SOL     OW 1807   5.997   1.069   2.178
  303SOL    HW1 1808   5.944   1.078   2.093
  303SOL    HW2 1809   6.087   1.110   2.164
  304SOL     OW 1810   2.607   0.412   3.772
  304SOL    HW1 1811   2.688   0.420   3.715
  304SOL    HW2 1812   2.627   0.446   3.864
  305SOL     OW 1813   0.394   3.496   0.317
  305SOL    HW1 1814   0.366   3.400   0.324
  305SOL    HW2 1815   0.471   3.505   0.254
  306SOL     OW 1816   1.599   1.273   3.572
  306SOL    HW1 1817   1.551   1.201   3.622
  306SOL    HW2 1818   1.697   1.257   3.575
  307SOL     OW 1819   4.853   6.783   0.840
  307SOL    HW1 1820   4.815   6.784   0.748
  307SOL    HW2 1821   4.829   6.868   0.887
  308SOL     OW 1822   6.389   3.816   5.190
  308SOL    HW1 1823   6.440   3.834   5.106
  308SOL    HW2 1824   6.394   3.897   5.249
  309SOL     OW 1825   3.998   4.604   6.271
  309SOL    HW1 1826   3.930   4.580   6.342
  309SOL    HW2 1827   3.951   4.641   6.191
  310SOL     OW 1828   6.621   6.607   5.714
  310SOL    HW1 1829   6.578   6.679   5.768
  310SOL    HW2 1830   6.550   6.545   5.680
  311SOL     OW 1831   6.272   5.546   1.313
  311SOL    HW1 1832   6.225   5.489   1.245
  311SOL    HW2 1833   6.369   5.553   1.287
  312SOL     OW 1834   4.550   1.689   5.609
  312SOL    HW1 1835   4.547   1.789   5.605
  312SOL    HW2 1836   4.564   1.660   5.703
  313SOL     OW 1837   2.949   4.160   1.772
  313SOL    HW1 1838   3.038   4.162   1.727
  313SOL    HW2 1839   2.929   4.250   1.810
  314SOL     OW 1840   3.213   5.059   6.781
  314SOL    HW1 1841   3.203   5.101   6.871
  314SOL    HW2 1842   3.134   5.000   6.762
  315SOL     OW 1843   0.605   3.051   3.182
  315SOL    HW1 1844   0.609   2.964   3.230
  315SOL    HW2 1845   0.509   3.071   3.159
  316SOL     OW 1846   2.436   2.286   3.910
  316SOL    HW1 1847   2.418   2.244   3.821
  316SOL    HW2 1848   2.469   2.216   3.974
  317SOL     OW 1849   1.136   0.465   1.257
  317SOL    HW1 1850   1.117   0.440   1.352
  317SOL    HW2 1851   1.049   0.470   1.206
  318SOL     OW 1852   0.972   6.213   6.791
  318SOL    HW1 1853   0.985   6.217   6.890
  318SOL    HW2 1854   0.875   6.223   6.769
  319SOL     OW 1855   0.217   0.765   3.129
  319SOL    HW1 1856   0.262   0.689   3.081
  319SOL    HW2 1857   0.118   0.750   3.130
  320SOL     OW 1858   5.274   2.308   6.731
  320SOL    HW1 1859   5.232   2.374   6.668
  320SOL    HW2 1860   5.213   2.292   6.809
  321SOL     OW 1861   2.881   1.385   1.740
  321SOL    HW1 1862   2.907   1.456   1.805
  321SOL    HW2 1863   2.881   1.423   1.647
  322SOL     OW 1864   3.344   3.560   4.852
  322SOL    HW1 1865   3.284   3.508   4.791
  322SOL    HW2 1866   3.398   3.497   4.908
  323SOL     OW 1867   0.479   3.348   6.881
  323SOL    HW1 1868   0.457   3.252   6.901
  323SOL    HW2 1869   0.427   3.377   6.800
  324SOL     OW 1870   2.379   2.714   4.030
  324SOL    HW1 1871   2.294   2.692   3.982
  324SOL    HW2 1872   2.457   2.679   3.979
  325SOL     OW 1873   2.148   3.145   2.037
  325SOL    HW1 1874   2.190   3.159   1.947
  325SOL    HW2 1875   2.095   3.225   2.062
  326SOL     OW 1876   1.715   5.493   6.440
  326SOL    HW1 1877   1.782   5.536   6.379
  326SOL    HW2 1878   1.705   5.397   6.416
  327SOL     OW 1879   1.596   5.289   3.826
  327SOL    HW1 1880   1.609   5.218   3.757
  327SOL    HW2 1881   1.548   5.251   3.905
  328SOL     OW 1882   3.203   5.027   2.345
  328SOL    HW1 1883   3.263   4.964   2.394
  328SOL    HW2 1884   3.190   4.994   2.251
  329SOL     OW 1885   2.995   3.783   4.405
  329SOL    HW1 1886   3.043   3.834   4.334
  329SOL    HW2 1887   2.985   3.840   4.487
  330SOL     OW 1888   3.410   6.189   1.856
  330SOL    HW1 1889   3.426   6.280   1.894
  330SOL    HW2 1890   3.498   6.144   1.839
  331SOL     OW 1891   4.500   4.936   6.658
  331SOL    HW1 1892   4.439   5.009   6.690
  331SOL    HW2 1893   4.587   4.942   6.708
  332SOL     OW 1894   3.487   2.069   4.466
  332SOL    HW1 1895   3.407   2.125   4.487
  332SOL    HW2 1896   3.542   2.057   4.548
  333SOL     OW 1897   3.337   6.838   6.558
  333SOL    HW1 1898   3.272   6.778   6.604
  333SOL    HW2 1899   3.395   6.883   6.626
  334SOL     OW 1900   2.579   0.246   0.792
  334SOL    HW1 1901   2.557   0.152   0.817
  334SOL    HW2 1902   2.508   0.307   0.827
  335SOL     OW 1903   3.616   6.663   4.155
  335SOL    HW1 1904   3.591   6.749   4.110
  335SOL    HW2 1905   3.711   6.668   4.187
  336SOL     OW 1906   2.199   1.009   4.167
  336SOL    HW1 1907   2.293   0.984   4.188
  336SOL    HW2 1908   2.187   1.108   4.178
  337SOL     OW 1909   0.205   3.658   0.821
  337SOL    HW1 1910   0.247   3.630   0.735
  337SOL    HW2 1911   0.229   3.753   0.840
  338SOL     OW 1912   2.929   2.309   0.745
  338SOL    HW1 1913   2.975   2.248   0.681
  338SOL    HW2 1914   2.831   2.312   0.723
  339SOL     OW 1915   3.838   6.674   4.320
  339SOL    HW1 1916   3.873   6.618   4.395
  339SOL    HW2 1917   3.826   6.768   4.351
  340SOL     OW 1918   5.058   4.075   4.544
  340SOL    HW1 1919   4.977   4.105   4.493
  340SOL    HW2 1920   5.069   3.976   4.534
  341SOL     OW 1921   6.372   6.938   4.158
  341SOL    HW1 1922   6.410   7.013   4.212
  341SOL    HW2 1923   6.310   6.976   4.088
  342SOL     OW 1924   5.533   3.952   0.233
  342SOL    HW1 1925   5.579   3.870   0.200
  342SOL    HW2 1926   5.512   3.942   0.330
  343SOL     OW 1927   2.036   6.022   0.924
  343SOL    HW1 1928   1.965   5.988   0.985
  343SOL    HW2 1929   2.010   6.003   0.829
  344SOL     OW 1930   1.814   5.335   1.687
  344SOL    HW1 1931   1.799   5.433   1.691
  344SOL    HW2 1932   1.912   5.316   1.685
  345SOL     OW 1933   6.715   1.212   5.843
  345SOL    HW1 1934   6.691   1.116   5.859
  345SOL    HW2 1935   6.656   1.250   5.772
  346SOL     OW 1936   2.047   0.742   1.719
  346SOL    HW1 1937   2.039   0.650   1.755
  346SOL    HW2 1938   2.132   0.783   1.751
  347SOL     OW 1939   4.192   6.512   6.407
  347SOL    HW1 1940   4.120   6.564   6.362
  347SOL    HW2 1941   4.259   6.574   6.447
  348SOL     OW 1942   4.865   5.265   1.319
  348SOL    HW1 1943   4.835   5.171   1.334
  348SOL    HW2 1944   4.852   5.318   1.403
  349SOL     OW 1945   6.709   4.307   2.120
  349SOL    HW1 1946   6.804   4.277   2.126
  349SOL    HW2 1947   6.701   4.378   2.050
  350SOL     OW 1948   3.614   3.308   1.695
  350SOL    HW1 1949   3.600   3.237   1.626
  350SOL    HW2 1950   3.645   3.266   1.780
  351SOL     OW 1951   2.523   2.366   0.445
  351SOL    HW1 1952   2.441   2.308   0.441
  351SOL    HW2 1953   2.589   2.333   0.377
  352SOL     OW 1954   3.707   0.017   4.684
  352SOL    HW1 1955   3.662   0.095   4.640
  352SOL    HW2 1956   3.653   7.012   4.764
  353SOL     OW 1957   2.826   0.218   0.982
  353SOL    HW1 1958   2.763   0.220   0.905
  353SOL    HW2 1959   2.846   0.123   1.007
  354SOL     OW 1960   4.417   2.123   0.125
  354SOL    HW1 1961   4.425   2.189   0.200
  354SOL    HW2 1962   4.429   2.170   0.038
  355SOL     OW 1963   6.704   2.999   3.001
  355SOL    HW1 1964   6.658   3.047   3.076
  355SOL    HW2 1965   6.800   2.984   3.024
  356SOL     OW 1966   4.351   5.771   4.547
  356SOL    HW1 1967   4.430   5.743   4.493
  356SOL    HW2 1968   4.296   5.690   4.568
  357SOL     OW 1969   6.876   6.970   5.593
  357SOL    HW1 1970   6.960   6.937   5.550
  357SOL    HW2 1971   6.899   7.020   5.677
  358SOL     OW 1972   5.491   0.129   1.910
  358SOL    HW1 1973   5.591   0.126   1.903
  358SOL    HW2 1974   5.456   0.036   1.922
  359SOL     OW 1975   1.915   2.107   2.394
  359SOL    HW1 1976   1.942   2.012   2.378
  359SOL    HW2 1977   1.864   2.113   2.480
  360SOL     OW 1978   2.496   6.363   6.257
  360SOL    HW1 1979   2.575   6.383   6.199
  360SOL    HW2 1980   2.478   6.264   6.256
  361SOL     OW 1981   5.540   5.526   2.778
  361SOL    HW1 1982   5.483   5.479   2.846
  361SOL    HW2 1983   5.497   5.521   2.688
  362SOL     OW 1984   3.495   3.786   0.827
  362SOL    HW1 1985   3.583   3.781   0.781
  362SOL    HW2 1986   3.447   3.870   0.801
  363SOL     OW 1987   4.108   5.062   3.787
  363SOL    HW1 1988   4.158   5.066   3.873
  363SOL    HW2 1989   4.095   5.155   3.752
  364SOL     OW 1990   0.414   5.654   5.577
  364SOL    HW1 1991   0.376   5.622   5.490
  364SOL    HW2 1992   0.355   5.624   5.651
  365SOL     OW 1993   4.796   6.007   2.151
  365SOL    HW1 1994   4.847   6.091   2.134
  365SOL    HW2 1995   4.719   6.027   2.212
  366SOL     OW 1996   5.678   1.414   0.450
  366SOL    HW1 1997   5.642   1.407   0.357
  366SOL    HW2 1998   5.777   1.406   0.448
  367SOL     OW 1999   5.203   2.794   0.689
  367SOL    HW1 2000   5.103   2.793   0.679
  367SOL    HW2 2001   5.230   2.728   0.758
  368SOL     OW 2002   0.824   4.117   4.885
  368SOL    HW1 2003   0.803   4.214   4.896
  368SOL    HW2 2004   0.788   4.065   4.963
  369SOL     OW 2005   6.600   4.529   1.655
  369SOL    HW1 2006   6.648   4.600   1.605
  369SOL    HW2 2007   6.570   4.458   1.592
  370SOL     OW 2008   3.297   1.926   5.599
  370SOL    HW1 2009   3.295   1.851   5.534
  370SOL    HW2 2010   3.388   1.969   5.598
  371SOL     OW 2011   2.424   3.531   6.437
  371SOL    HW1 2012   2.366   3.518   6.357
  371SOL    HW2 2013   2.405   3.459   6.504
  372SOL     OW 2014   6.440   0.590   4.919
  372SOL    HW1 2015   6.371   0.607   4.849
  372SOL    HW2 2016   6.489   0.675   4.939
  373SOL     OW 2017   6.574   6.349   5.548
  373SOL    HW1 2018   6.660   6.392   5.520
  373SOL    HW2 2019   6.581   6.250   5.534
  374SOL     OW 2020   4.452   6.859   2.509
  374SOL    HW1 2021   4.448   6.805   2.592
  374SOL    HW2 2022   4.517   6.934   2.521
  375SOL     OW 2023   6.971   4.860   3.817
  375SOL    HW1 2024   7.011   4.847   3.908
  375SOL    HW2 2025   7.023   4.931   3.768
  376SOL     OW 2026   1.929   3.514   3.874
  376SOL    HW1 2027   2.008   3.454   3.864
  376SOL    HW2 2028   1.896   3.542   3.784
  377SOL     OW 2029   6.140   2.610   1.992
  377SOL    HW1 2030   6.109   2.595   1.898
  377SOL    HW2 2031   6.232   2.651   1.991
  378SOL     OW 2032   3.601   2.528   5.632
  378SOL    HW1 2033   3.670   2.455   5.636
  378SOL    HW2 2034   3.510   2.488   5.641
  379SOL     OW 2035   6.350   4.038   1.683
  379SOL    HW1 2036   6.419   4.010   1.749
  379SOL    HW2 2037   6.342   3.969   1.611
  380SOL     OW 2038   2.493   1.597   1.879
  380SOL    HW1 2039   2.504   1.530   1.953
  380SOL    HW2 2040   2.434   1.557   1.808
  381SOL     OW 2041   2.055   4.655   1.625
  381SOL    HW1 2042   2.017   4.595   1.555
  381SOL    HW2 2043   2.062   4.606   1.712
  382SOL     OW 2044   4.724   5.775   6.413
  382SOL    HW1 2045   4.742   5.866   6.449
  382SOL    HW2 2046   4.697   5.781   6.317
  383SOL     OW 2047   6.262   3.190   6.107
  383SOL    HW1 2048   6.273   3.099   6.066
  383SOL    HW2 2049   6.332   3.204   6.177
  384SOL     OW 2050   0.952   3.846   4.901
  384SOL    HW1 2051   0.973   3.929   4.850
  384SOL    HW2 2052   0.897   3.785   4.845
  385SOL     OW 2053   4.577   6.207   0.011
  385SOL    HW1 2054   4.517   6.165   6.966
  385SOL    HW2 2055   4.523   6.254   0.080
  386SOL     OW 2056   3.712   6.962   5.262
  386SOL    HW1 2057   3.750   7.008   5.182
  386SOL    HW2 2058   3.759   6.875   5.275
  387SOL     OW 2059   0.400   6.298   3.540
  387SOL    HW1 2060   0.442   6.381   3.502
  387SOL    HW2 2061   0.301   6.302   3.527
  388SOL     OW 2062   0.666   1.965   4.554
  388SOL    HW1 2063   0.581   1.913   4.549
  388SOL    HW2 2064   0.707   1.953   4.644
  389SOL     OW 2065   4.278   4.142   1.666
  389SOL    HW1 2066   4.315   4.049   1.657
  389SOL    HW2 2067   4.333   4.193   1.732
  390SOL     OW 2068   3.405   1.125   0.233
  390SOL    HW1 2069   3.462   1.043   0.233
  390SOL    HW2 2070   3.434   1.186   0.306
  391SOL     OW 2071   2.505   4.189   5.337
  391SOL    HW1 2072   2.431   4.255   5.324
  391SOL    HW2 2073   2.487   4.108   5.281
  392SOL     OW 2074   1.763   3.312   2.340
  392SOL    HW1 2075   1.735   3.287   2.247
  392SOL    HW2 2076   1.849   3.363   2.336
  393SOL     OW 2077   1.453   5.392   0.561
  393SOL    HW1 2078   1.531   5.428   0.611
  393SOL    HW2 2079   1.484   5.347   0.478
  394SOL     OW 2080   0.709   2.803   6.754
  394SOL    HW1 2081   0.677   2.846   6.670
  394SOL    HW2 2082   0.750   2.872   6.813
  395SOL     OW 2083   5.233   4.478   1.915
  395SOL    HW1 2084   5.215   4.383   1.940
  395SOL    HW2 2085   5.290   4.480   1.832
  396SOL     OW 2086   2.392   1.835   2.159
  396SOL    HW1 2087   2.443   1.884   2.088
  396SOL    HW2 2088   2.369   1.898   2.233
  397SOL     OW 2089   5.403   1.316   5.477
  397SOL    HW1 2090   5.493   1.359   5.484
  397SOL    HW2 2091   5.359   1.342   5.391
  398SOL     OW 2092   1.084   6.274   4.588
  398SOL    HW1 2093   1.012   6.211   4.559
  398SOL    HW2 2094   1.162   6.266   4.526
  399SOL     OW 2095   6.533   5.832   4.248
  399SOL    HW1 2096   6.461   5.882   4.295
  399SOL    HW2 2097   6.532   5.736   4.277
  400SOL     OW 2098   6.946   6.716   4.963
  400SOL    HW1 2099   6.878   6.675   4.902
  400SOL    HW2 2100   6.902   6.784   5.021
  401SOL     OW 2101   6.256   0.443   6.329
  401SOL    HW1 2102   6.335   0.460   6.270
  401SOL    HW2 2103   6.259   0.504   6.408
  402SOL     OW 2104   6.302   0.457   2.375
  402SOL    HW1 2105   6.301   0.514   2.457
  402SOL    HW2 2106   6.360   0.377   2.391
  403SOL     OW 2107   3.346   0.194   6.565
  403SOL    HW1 2108   3.255   0.163   6.536
  403SOL    HW2 2109   3.337   0.248   6.649
  404SOL     OW 2110   3.294   6.156   5.530
  404SOL    HW1 2111   3.255   6.139   5.620
  404SOL    HW2 2112   3.308   6.255   5.517
  405SOL     OW 2113   2.369   4.400   3.645
  405SOL    HW1 2114   2.462   4.431   3.625
  405SOL    HW2 2115   2.309   4.421   3.568
  406SOL     OW 2116   0.906   5.128   5.164
  406SOL    HW1 2117   0.919   5.046   5.219
  406SOL    HW2 2118   0.835   5.112   5.096
  407SOL     OW 2119   1.577   2.939   3.772
  407SOL    HW1 2120   1.639   2.900   3.839
  407SOL    HW2 2121   1.534   3.022   3.809
  408SOL     OW 2122   3.540   2.071   3.165
  408SOL    HW1 2123   3.589   2.053   3.251
  408SOL    HW2 2124   3.606   2.093   3.093
  409SOL     OW 2125   6.966   3.538   1.959
  409SOL    HW1 2126   6.887   3.477   1.953
  409SOL    HW2 2127   6.941   3.629   1.926
  410SOL     OW 2128   1.611   2.053   1.332
  410SOL    HW1 2129   1.643   2.107   1.254
  410SOL    HW2 2130   1.604   1.957   1.305
  411SOL     OW 2131   6.990   2.118   1.992
  411SOL    HW1 2132   6.919   2.051   2.013
  411SOL    HW2 2133   0.032   2.123   2.068
  412SOL     OW 2134   3.004   5.114   2.489
  412SOL    HW1 2135   2.904   5.109   2.482
  412SOL    HW2 2136   3.045   5.066   2.411
  413SOL     OW 2137   3.729   4.956   2.149
  413SOL    HW1 2138   3.688   4.886   2.090
  413SOL    HW2 2139   3.658   5.017   2.183
  414SOL     OW 2140   3.223   0.310   3.821
  414SOL    HW1 2141   3.135   0.345   3.855
  414SOL    HW2 2142   3.270   0.383   3.772
  415SOL     OW 2143   0.256   1.804   0.306
  415SOL    HW1 2144   0.216   1.882   0.258
  415SOL    HW2 2145   0.356   1.807   0.296
  416SOL     OW 2146   5.280   4.211   4.476
  416SOL    HW1 2147   5.335   4.142   4.429
  416SOL    HW2 2148   5.192   4.171   4.503
  417SOL     OW 2149   2.218   1.107   6.662
  417SOL    HW1 2150   2.128   1.066   6.651
  417SOL    HW2 2151   2.235   1.170   6.585
  418SOL     OW 2152   3.103   0.013   5.024
  418SOL    HW1 2153   3.116   6.947   5.066
  418SOL    HW2 2154   3.176   0.029   4.957
  419SOL     OW 2155   6.951   6.726   2.514
  419SOL    HW1 2156   6.866   6.762   2.552
  419SOL    HW2 2157   6.931   6.675   2.430
  420SOL     OW 2158   5.591   1.015   6.465
  420SOL    HW1 2159   5.684   1.049   6.481
  420SOL    HW2 2160   5.566   0.952   6.539
  421SOL     OW 2161   5.652   4.380   5.539
  421SOL    HW1 2162   5.747   4.390   5.508
  421SOL    HW2 2163   5.616   4.469   5.565
  422SOL     OW 2164   5.033   1.535   0.876
  422SOL    HW1 2165   5.110   1.471   0.880
  422SOL    HW2 2166   5.004   1.557   0.969
  423SOL     OW 2167   2.521   0.330   6.381
  423SOL    HW1 2168   2.578   0.271   6.438
  423SOL    HW2 2169   2.580   0.389   6.326
  424SOL     OW 2170   1.790   5.440   3.128
  424SOL    HW1 2171   1.848   5.369   3.166
  424SOL    HW2 2172   1.846   5.518   3.099
  425SOL     OW 2173   4.700   0.998   4.942
  425SOL    HW1 2174   4.779   1.056   4.961
  425SOL    HW2 2175   4.642   1.044   4.875
  426SOL     OW 2176   2.500   2.558   5.189
  426SOL    HW1 2177   2.450   2.637   5.224
  426SOL    HW2 2178   2.440   2.505   5.129
  427SOL     OW 2179   4.925   1.161   4.035
  427SOL    HW1 2180   4.919   1.257   4.007
  427SOL    HW2 2181   4.902   1.153   4.132
  428SOL     OW 2182   2.467   0.974   4.600
  428SOL    HW1 2183   2.404   0.952   4.674
  428SOL    HW2 2184   2.541   0.906   4.598
  429SOL     OW 2185   0.677   5.452   4.353
  429SOL    HW1 2186   0.722   5.479   4.438
  429SOL    HW2 2187   0.578   5.463   4.363
  430SOL     OW 2188   1.587   0.021   3.639
  430SOL    HW1 2189   1.602   6.946   3.652
  430SOL    HW2 2190   1.536   0.058   3.717
  431SOL     OW 2191   2.809   1.841   0.879
  431SOL    HW1 2192   2.809   1.744   0.905
  431SOL    HW2 2193   2.818   1.897   0.962
  432SOL     OW 2194   5.277   1.771   0.925
  432SOL    HW1 2195   5.189   1.744   0.885
  432SOL    HW2 2196   5.344   1.697   0.912
  433SOL     OW 2197   3.578   6.342   6.218
  433SOL    HW1 2198   3.625   6.265   6.176
  433SOL    HW2 2199   3.645   6.399   6.267
  434SOL     OW 2200   3.917   6.224   3.692
  434SOL    HW1 2201   3.910   6.270   3.603
  434SOL    HW2 2202   3.886   6.130   3.683
  435SOL     OW 2203   3.898   1.649   5.551
  435SOL    HW1 2204   3.815   1.604   5.584
  435SOL    HW2 2205   3.877   1.703   5.470
  436SOL     OW 2206   3.395   5.818   3.270
  436SOL    HW1 2207   3.488   5.785   3.254
  436SOL    HW2 2208   3.388   5.913   3.242
  437SOL     OW 2209   0.053   1.198   4.736
  437SOL    HW1 2210   0.062   1.162   4.643
  437SOL    HW2 2211   6.985   1.176   4.772
  438SOL     OW 2212   1.278   4.923   3.054
  438SOL    HW1 2213   1.300   5.015   3.022
  438SOL    HW2 2214   1.353   4.861   3.031
  439SOL     OW 2215   5.976   0.891   2.897
  439SOL    HW1 2216   5.978   0.985   2.929
  439SOL    HW2 2217   6.048   0.838   2.941
  440SOL     OW 2218   3.626   0.993   6.828
  440SOL    HW1 2219   3.575   0.912   6.799
  440SOL    HW2 2220   3.677   0.972   6.911
  441SOL     OW 2221   6.659   4.202   2.743
  441SOL    HW1 2222   6.718   4.153   2.808
  441SOL    HW2 2223   6.690   4.297   2.736
  442SOL     OW 2224   4.795   4.297   5.900
  442SOL    HW1 2225   4.793   4.203   5.934
  442SOL    HW2 2226   4.711   4.315   5.848
  443SOL     OW 2227   4.968   4.374   2.998
  443SOL    HW1 2228   4.916   4.419   3.072
  443SOL    HW2 2229   4.933   4.405   2.910
  444SOL     OW 2230   3.962   1.513   0.267
  444SOL    HW1 2231   3.881   1.568   0.244
  444SOL    HW2 2232   4.040   1.545   0.214
  445SOL     OW 2233   2.711   6.408   2.732
  445SOL    HW1 2234   2.705   6.370   2.640
  445SOL    HW2 2235   2.621   6.400   2.777
  446SOL     OW 2236   5.117   5.921   2.728
  446SOL    HW1 2237   5.208   5.918   2.768
  446SOL    HW2 2238   5.063   5.843   2.761
  447SOL     OW 2239   6.296   3.831   6.003
  447SOL    HW1 2240   6.281   3.898   6.075
  447SOL    HW2 2241   6.382   3.852   5.956
  448SOL     OW 2242   2.563   1.367   2.606
  448SOL    HW1 2243   2.606   1.307   2.673
  448SOL    HW2 2244   2.605   1.457   2.608
  449SOL     OW 2245   1.899   2.739   3.504
  449SOL    HW1 2246   1.989   2.782   3.494
  449SOL    HW2 2247   1.831   2.810   3.520
  450SOL     OW 2248   0.348   4.689   3.326
  450SOL    HW1 2249   0.273   4.702   3.391
  450SOL    HW2 2250   0.364   4.591   3.313
  451SOL     OW 2251   0.033   2.109   3.499
  451SOL    HW1 2252   0.071   2.023   3.531
  451SOL    HW2 2253   0.079   2.137   3.415
  452SOL     OW 2254   3.945   6.511   2.892
  452SOL    HW1 2255   3.875   6.479   2.957
  452SOL    HW2 2256   3.952   6.610   2.898
  453SOL     OW 2257   4.258   0.473   6.908
  453SOL    HW1 2258   4.274   0.487   7.006
  453SOL    HW2 2259   4.332   0.418   6.870
  454SOL     OW 2260   6.656   4.303   6.099
  454SOL    HW1 2261   6.614   4.272   6.184
  454SOL    HW2 2262   6.753   4.321   6.115
  455SOL     OW 2263   0.160   3.997   5.702
  455SOL    HW1 2264   0.246   3.965   5.662
  455SOL    HW2 2265   0.172   4.008   5.801
  456SOL     OW 2266   1.667   1.077   3.802
  456SOL    HW1 2267   1.693   1.011   3.872
  456SOL    HW2 2268   1.707   1.166   3.825
  457SOL     OW 2269   1.549   6.014   6.013
  457SOL    HW1 2270   1.608   6.008   5.933
  457SOL    HW2 2271   1.597   5.978   6.093
  458SOL     OW 2272   2.681   1.863   2.964
  458SOL    HW1 2273   2.779   1.868   2.982
  458SOL    HW2 2274   2.648   1.770   2.985
  459SOL     OW 2275   2.073   0.387   5.193
  459SOL    HW1 2276   2.168   0.389   5.223
  459SOL    HW2 2277   2.052   0.471   5.143
  460SOL     OW 2278   1.225   1.617   5.336
  460SOL    HW1 2279   1.236   1.714   5.316
  460SOL    HW2 2280   1.229   1.564   5.252
  461SOL     OW 2281   6.695   4.748   5.478
  461SOL    HW1 2282   6.602   4.784   5.472
  461SOL    HW2 2283   6.760   4.816   5.441
  462SOL     OW 2284   3.176   3.471   4.640
  462SOL    HW1 2285   3.156   3.386   4.592
  462SOL    HW2 2286   3.094   3.503   4.687
  463SOL     OW 2287   5.811   6.797   2.501
  463SOL    HW1 2288   5.817   6.890   2.539
  463SOL    HW2 2289   5.773   6.735   2.569
  464SOL     OW 2290   3.541   6.066   5.885
  464SOL    HW1 2291   3.459   6.086   5.939
  464SOL    HW2 2292   3.517   6.009   5.806
  465SOL     OW 2293   1.355   1.894   0.705
  465SOL    HW1 2294   1.276   1.945   0.740
  465SOL    HW2 2295   1.375   1.818   0.766
  466SOL     OW 2296   3.350   6.268   4.856
  466SOL    HW1 2297   3.258   6.269   4.894
  466SOL    HW2 2298   3.416   6.297   4.926
  467SOL     OW 2299   0.643   2.037   2.677
  467SOL    HW1 2300   0.606   2.063   2.766
  467SOL    HW2 2301   0.580   1.976   2.630
  468SOL     OW 2302   4.674   0.154   6.586
  468SOL    HW1 2303   4.745   0.128   6.521
  468SOL    HW2 2304   4.688   0.249   6.615
  469SOL     OW 2305   2.779   4.437   5.621
  469SOL    HW1 2306   2.837   4.516   5.601
  469SOL    HW2 2307   2.765   4.383   5.538
  470SOL     OW 2308   2.864   5.600   3.083
  470SOL    HW1 2309   2.923   5.672   3.120
  470SOL    HW2 2310   2.769   5.621   3.105
  471SOL     OW 2311   2.747   2.168   3.860
  471SOL    HW1 2312   2.666   2.115   3.832
  471SOL    HW2 2313   2.760   2.244   3.796
  472SOL     OW 2314   5.896   4.477   6.604
  472SOL    HW1 2315   5.823   4.415   6.575
  472SOL    HW2 2316   5.909   4.469   6.703
  473SOL     OW 2317   6.799   2.546   2.578
  473SOL    HW1 2318   6.891   2.520   2.609
  473SOL    HW2 2319   6.733   2.478   2.611
  474SOL     OW 2320   6.056   6.134   4.744
  474SOL    HW1 2321   5.987   6.140   4.673
  474SOL    HW2 2322   6.059   6.041   4.781
  475SOL     OW 2323   5.356   2.499   0.598
  475SOL    HW1 2324   5.257   2.497   0.594
  475SOL    HW2 2325   5.394   2.493   0.506
  476SOL     OW 2326   0.612   4.411   2.062
  476SOL    HW1 2327   0.573   4.324   2.034
  476SOL    HW2 2328   0.707   4.418   2.029
  477SOL     OW 2329   2.717   6.009   3.852
  477SOL    HW1 2330   2.654   5.932   3.848
  477SOL    HW2 2331   2.802   5.985   3.806
  478SOL     OW 2332   4.437   5.674   2.720
  478SOL    HW1 2333   4.412   5.623   2.802
  478SOL    HW2 2334   4.363   5.737   2.695
  479SOL     OW 2335   3.983   3.458   4.132
  479SOL    HW1 2336   4.005   3.379   4.076
  479SOL    HW2 2337   3.939   3.528   4.076
  480SOL     OW 2338   1.257   0.004   2.918
  480SOL    HW1 2339   1.188   7.006   2.848
  480SOL    HW2 2340   1.331   0.057   2.877
  481SOL     OW 2341   0.707   5.956   1.026
  481SOL    HW1 2342   0.796   5.966   1.071
  481SOL    HW2 2343   0.634   5.959   1.094
  482SOL     OW 2344   5.780   4.267   2.760
  482SOL    HW1 2345   5.738   4.262   2.670
  482SOL    HW2 2346   5.724   4.323   2.821
  483SOL     OW 2347   5.777   2.120   2.763
  483SOL    HW1 2348   5.718   2.173   2.824
  483SOL    HW2 2349   5.789   2.171   2.677
  484SOL     OW 2350   2.159   4.361   4.302
  484SOL    HW1 2351   2.076   4.313   4.330
  484SOL    HW2 2352   2.233   4.341   4.367
  485SOL     OW 2353   5.587   3.370   2.343
  485SOL    HW1 2354   5.584   3.303   2.417
  485SOL    HW2 2355   5.541   3.333   2.262
  486SOL     OW 2356   6.030   0.172   6.587
  486SOL    HW1 2357   6.027   0.166   6.686
  486SOL    HW2 2358   6.075   0.091   6.549
  487SOL     OW 2359   0.153   6.879   3.424
  487SOL    HW1 2360   0.178   6.783   3.423
  487SOL    HW2 2361   0.218   6.931   3.479
  488SOL     OW 2362   1.872   6.962   3.652
  488SOL    HW1 2363   1.796   7.010   3.608
  488SOL    HW2 2364   1.951   7.023   3.658
  489SOL     OW 2365   6.712   6.051   4.460
  489SOL    HW1 2366   6.622   6.022   4.494
  489SOL    HW2 2367   6.700   6.118   4.388
  490SOL     OW 2368   1.487   5.380   5.970
  490SOL    HW1 2369   1.467   5.460   6.027
  490SOL    HW2 2370   1.581   5.350   5.986
  491SOL     OW 2371   6.960   2.826   0.126
  491SOL    HW1 2372   6.956   2.806   0.224
  491SOL    HW2 2373   6.978   2.742   0.075
  492SOL     OW 2374   1.317   1.623   5.839
  492SOL    HW1 2375   1.235   1.642   5.892
  492SOL    HW2 2376   1.393   1.603   5.902
  493SOL     OW 2377   2.443   6.685   4.938
  493SOL    HW1 2378   2.495   6.600   4.946
  493SOL    HW2 2379   2.461   6.727   4.849
  494SOL     OW 2380   2.251   0.355   5.684
  494SOL    HW1 2381   2.176   0.350   5.750
  494SOL    HW2 2382   2.303   0.439   5.700
  495SOL     OW 2383   4.310   6.234   5.577
  495SOL    HW1 2384   4.213   6.245   5.554
  495SOL    HW2 2385   4.337   6.139   5.562
  496SOL     OW 2386   6.074   2.109   2.734
  496SOL    HW1 2387   5.976   2.131   2.734
  496SOL    HW2 2388   6.087   2.017   2.773
  497SOL     OW 2389   3.535   1.035   6.090
  497SOL    HW1 2390   3.477   1.024   6.009
  497SOL    HW2 2391   3.631   1.040   6.061
  498SOL     OW 2392   0.137   5.661   2.219
  498SOL    HW1 2393   0.101   5.725   2.151
  498SOL    HW2 2394   0.237   5.654   2.210
  499SOL     OW 2395   3.168   4.744   6.521
  499SOL    HW1 2396   3.175   4.804   6.601
  499SOL    HW2 2397   3.191   4.650   6.547
  500SOL     OW 2398   5.528   2.584   6.625
  500SOL    HW1 2399   5.450   2.639   6.596
  500SOL    HW2 2400   5.598   2.643   6.665
  501SOL     OW 2401   1.676   0.121   3.007
  501SOL    HW1 2402   1.674   0.203   2.951
  501SOL    HW2 2403   1.649   0.042   2.952
  502SOL     OW 2404   1.840   4.703   5.767
  502SOL    HW1 2405   1.893   4.621   5.745
  502SOL    HW2 2406   1.899   4.771   5.810
  503SOL     OW 2407   3.192   4.253   6.671
  503SOL    HW1 2408   3.290   4.235   6.666
  503SOL    HW2 2409   3.143   4.194   6.606
  504SOL     OW 2410   6.833   6.555   2.015
  504SOL    HW1 2411   6.770   6.621   1.975
  504SOL    HW2 2412   6.782   6.474   2.046
  505SOL     OW 2413   4.398   6.865   5.144
  505SOL    HW1 2414   4.438   6.785   5.099
  505SOL    HW2 2415   4.316   6.837   5.194
  506SOL     OW 2416   3.127   5.728   3.205
  506SOL    HW1 2417   3.219   5.754   3.233
  506SOL    HW2 2418   3.064   5.805   3.219
  507SOL     OW 2419   4.272   0.918   1.875
  507SOL    HW1 2420   4.252   0.857   1.952
  507SOL    HW2 2421   4.187   0.945   1.830
  508SOL     OW 2422   6.865   3.823   4.197
  508SOL    HW1 2423   6.922   3.809   4.116
  508SOL    HW2 2424   6.783   3.767   4.191
  509SOL     OW 2425   4.775   0.645   6.805
  509SOL    HW1 2426   4.683   0.673   6.834
  509SOL    HW2 2427   4.806   0.704   6.730
  510SOL     OW 2428   6.571   4.568   6.020
  510SOL    HW1 2429   6.524   4.611   6.098
  510SOL    HW2 2430   6.586   4.471   6.039
  511SOL     OW 2431   1.529   1.377   6.866
  511SOL    HW1 2432   1.544   1.436   6.944
  511SOL    HW2 2433   1.469   1.301   6.892
  512SOL     OW 2434   5.079   2.515   6.924
  512SOL    HW1 2435   5.079   2.520   6.824
  512SOL    HW2 2436   5.108   2.423   6.953
  513SOL     OW 2437   5.788   0.429   2.170
  513SOL    HW1 2438   5.844   0.369   2.112
  513SOL    HW2 2439   5.694   0.395   2.173
  514SOL     OW 2440   6.868   6.630   4.283
  514SOL    HW1 2441   6.938   6.684   4.237
  514SOL    HW2 2442   6.778   6.669   4.264
  515SOL     OW 2443   2.636   0.579   6.290
  515SOL    HW1 2444   2.698   0.658   6.284
  515SOL    HW2 2445   2.554   0.605   6.340
  516SOL     OW 2446   2.478   4.269   1.305
  516SOL    HW1 2447   2.407   4.209   1.342
  516SOL    HW2 2448   2.440   4.320   1.228
  517SOL     OW 2449   3.074   5.539   2.631
  517SOL    HW1 2450   3.043   5.619   2.579
  517SOL    HW2 2451   3.005   5.516   2.700
  518SOL     OW 2452   2.149   3.381   3.778
  518SOL    HW1 2453   2.163   3.381   3.877
  518SOL    HW2 2454   2.126   3.289   3.748
  519SOL     OW 2455   6.468   6.401   4.006
  519SOL    HW1 2456   6.551   6.453   3.986
  519SOL    HW2 2457   6.491   6.304   4.017
  520SOL     OW 2458   0.989   3.219   0.048
  520SOL    HW1 2459   1.000   3.220   6.971
  520SOL    HW2 2460   0.929   3.143   0.074
  521SOL     OW 2461   4.953   5.012   4.169
  521SOL    HW1 2462   4.857   5.000   4.145
  521SOL    HW2 2463   4.964   5.097   4.222
  522SOL     OW 2464   4.148   3.621   1.455
  522SOL    HW1 2465   4.148   3.652   1.550
  522SOL    HW2 2466   4.078   3.551   1.443
  523SOL     OW 2467   0.189   6.352   1.725
  523SOL    HW1 2468   0.274   6.405   1.720
  523SOL    HW2 2469   0.169   6.313   1.635
  524SOL     OW 2470   0.459   3.149   2.022
  524SOL    HW1 2471   0.454   3.092   1.940
  524SOL    HW2 2472   0.538   3.121   2.077
  525SOL     OW 2473   0.860   2.927   6.973
  525SOL    HW1 2474   0.914   2.915   0.033
  525SOL    HW2 2475   0.837   3.023   6.961
  526SOL     OW 2476   3.495   0.025   4.414
  526SOL    HW1 2477   3.478   6.952   4.392
  526SOL    HW2 2478   3.476   0.082   4.334
  527SOL     OW 2479   1.436   1.922   7.008
  527SOL    HW1 2480   1.442   1.857   6.932
  527SOL    HW2 2481   1.429   1.872   0.071
  528SOL     OW 2482   0.191   3.736   3.743
  528SOL    HW1 2483   0.208   3.835   3.746
  528SOL    HW2 2484   0.106   3.719   3.693
  529SOL     OW 2485   3.025   0.294   5.666
  529SOL    HW1 2486   2.940   0.344   5.678
  529SOL    HW2 2487   3.016   0.232   5.588
  530SOL     OW 2488   3.463   3.220   2.074
  530SOL    HW1 2489   3.390   3.287   2.080
  530SOL    HW2 2490   3.445   3.145   2.138
  531SOL     OW 2491   2.577   0.746   2.694
  531SOL    HW1 2492   2.646   0.817   2.712
  531SOL    HW2 2493   2.547   0.707   2.781
  532SOL     OW 2494   2.069   3.447   0.371
  532SOL    HW1 2495   2.157   3.417   0.334
  532SOL    HW2 2496   2.002   3.453   0.297
  533SOL     OW 2497   4.751   0.043   3.659
  533SOL    HW1 2498   4.722   0.124   3.609
  533SOL    HW2 2499   4.788   0.069   3.748
  534SOL     OW 2500   1.247   5.812   1.356
  534SOL    HW1 2501   1.148   5.803   1.365
  534SOL    HW2 2502   1.292   5.743   1.414
  535SOL     OW 2503   6.291   4.121   3.408
  535SOL    HW1 2504   6.343   4.146   3.327
  535SOL    HW2 2505   6.247   4.032   3.394
  536SOL     OW 2506   6.563   6.263   3.070
  536SOL    HW1 2507   6.534   6.301   3.158
  536SOL    HW2 2508   6.661   6.242   3.074
  537SOL     OW 2509   3.944   6.998   4.182
  537SOL    HW1 2510   3.855   7.003   4.138
  537SOL    HW2 2511   3.937   0.003   4.277
  538SOL     OW 2512   1.574   5.043   5.393
  538SOL    HW1 2513   1.648   5.110   5.387
  538SOL    HW2 2514   1.591   4.982   5.470
  539SOL     OW 2515   1.384   5.619   1.499
  539SOL    HW1 2516   1.353   5.582   1.586
  539SOL    HW2 2517   1.484   5.612   1.494
  540SOL     OW 2518   1.765   1.264   4.166
  540SOL    HW1 2519   1.732   1.174   4.193
  540SOL    HW2 2520   1.763   1.272   4.066
  541SOL     OW 2521   4.142   5.653   3.624
  541SOL    HW1 2522   4.049   5.677   3.597
  541SOL    HW2 2523   4.150   5.553   3.631
  542SOL     OW 2524   3.760   5.667   6.723
  542SOL    HW1 2525   3.733   5.718   6.804
  542SOL    HW2 2526   3.690   5.679   6.652
  543SOL     OW 2527   5.573   3.624   4.102
  543SOL    HW1 2528   5.599   3.559   4.031
  543SOL    HW2 2529   5.507   3.690   4.065
  544SOL     OW 2530   0.731   4.822   6.996
  544SOL    HW1 2531   0.659   4.886   7.020
  544SOL    HW2 2532   0.820   4.865   7.010
  545SOL     OW 2533   5.231   1.353   1.177
  545SOL    HW1 2534   5.319   1.373   1.220
  545SOL    HW2 2535   5.163   1.420   1.206
  546SOL     OW 2536   0.488   4.616   1.887
  546SOL    HW1 2537   0.388   4.622   1.883
  546SOL    HW2 2538   0.515   4.568   1.971
  547SOL     OW 2539   3.570   2.227   0.375
  547SOL    HW1 2540   3.612   2.260   0.291
  547SOL    HW2 2541   3.641   2.209   0.443
  548SOL     OW 2542   3.545   3.286   0.661
  548SOL    HW1 2543   3.513   3.363   0.717
  548SOL    HW2 2544   3.535   3.201   0.712
  549SOL     OW 2545   4.864   2.451   0.673
  549SOL    HW1 2546   4.802   2.378   0.644
  549SOL    HW2 2547   4.864   2.457   0.773
  550SOL     OW 2548   6.770   4.217   3.526
  550SOL    HW1 2549   6.809   4.272   3.600
  550SOL    HW2 2550   6.809   4.125   3.530
  551SOL     OW 2551   6.712   1.134   1.004
  551SOL    HW1 2552   6.709   1.034   1.009
  551SOL    HW2 2553   6.775   1.162   0.932
  552SOL     OW 2554   5.110   5.377   5.249
  552SOL    HW1 2555   5.066   5.303   5.197
  552SOL    HW2 2556   5.203   5.389   5.217
  553SOL     OW 2557   3.269   0.746   4.279
  553SOL    HW1 2558   3.344   0.688   4.249
  553SOL    HW2 2559   3.187   0.727   4.225
  554SOL     OW 2560   5.701   5.642   0.010
  554SOL    HW1 2561   5.670   5.549   7.014
  554SOL    HW2 2562   5.688   5.662   0.107
  555SOL     OW 2563   3.594   5.688   5.196
  555SOL    HW1 2564   3.533   5.625   5.147
  555SOL    HW2 2565   3.688   5.654   5.189
  556SOL     OW 2566   5.258   1.754   4.655
  556SOL    HW1 2567   5.223   1.682   4.715
  556SOL    HW2 2568   5.209   1.752   4.567
  557SOL     OW 2569   0.101   4.683   6.082
  557SOL    HW1 2570   0.004   4.700   6.066
  557SOL    HW2 2571   0.148   4.669   5.995
  558SOL     OW 2572   4.146   3.589   3.702
  558SOL    HW1 2573   4.205   3.509   3.714
  558SOL    HW2 2574   4.133   3.606   3.604
  559SOL     OW 2575   6.337   6.015   5.522
  559SOL    HW1 2576   6.250   5.966   5.512
  559SOL    HW2 2577   6.384   5.982   5.604
  560SOL     OW 2578   6.750   3.257   3.925
  560SOL    HW1 2579   6.656   3.291   3.928
  560SOL    HW2 2580   6.763   3.200   3.844
  561SOL     OW 2581   6.813   3.204   6.331
  561SOL    HW1 2582   6.845   3.288   6.289
  561SOL    HW2 2583   6.737   3.166   6.278
  562SOL     OW 2584   4.642   0.063   5.645
  562SOL    HW1 2585   4.597   0.037   5.559
  562SOL    HW2 2586   4.729   0.108   5.625
  563SOL     OW 2587   1.796   1.714   4.166
  563SOL    HW1 2588   1.855   1.721   4.085
  563SOL    HW2 2589   1.720   1.778   4.157
  564SOL     OW 2590   6.994   1.445   6.689
  564SOL    HW1 2591   0.066   1.469   6.668
  564SOL    HW2 2592   6.949   1.414   6.605
  565SOL     OW 2593   3.016   3.126   3.790
  565SOL    HW1 2594   2.951   3.114   3.715
  565SOL    HW2 2595   3.038   3.224   3.799
  566SOL     OW 2596   2.379   4.802   2.746
  566SOL    HW1 2597   2.423   4.717   2.716
  566SOL    HW2 2598   2.391   4.872   2.675
  567SOL     OW 2599   2.744   2.536   0.463
  567SOL    HW1 2600   2.734   2.569   0.369
  567SOL    HW2 2601   2.665   2.479   0.487
  568SOL     OW 2602   5.560   6.814   0.840
  568SOL    HW1 2603   5.488   6.838   0.775
  568SOL    HW2 2604   5.560   6.878   0.917
  569SOL     OW 2605   1.360   2.707   0.910
  569SOL    HW1 2606   1.421   2.747   0.841
  569SOL    HW2 2607   1.354   2.609   0.896
  570SOL     OW 2608   3.108   0.225   6.252
  570SOL    HW1 2609   3.182   0.187   6.308
  570SOL    HW2 2610   3.095   0.169   6.170
  571SOL     OW 2611   2.932   4.984   3.500
  571SOL    HW1 2612   2.841   4.989   3.459
  571SOL    HW2 2613   2.999   4.964   3.429
  572SOL     OW 2614   2.064   5.856   4.786
  572SOL    HW1 2615   2.146   5.909   4.761
  572SOL    HW2 2616   2.070   5.766   4.743
  573SOL     OW 2617   6.257   1.449   5.424
  573SOL    HW1 2618   6.183   1.382   5.417
  573SOL    HW2 2619   6.265   1.480   5.518
  574SOL     OW 2620   3.303   0.878   5.331
  574SOL    HW1 2621   3.399   0.893   5.353
  574SOL    HW2 2622   3.287   0.781   5.315
  575SOL     OW 2623   4.596   2.681   0.995
  575SOL    HW1 2624   4.577   2.588   1.027
  575SOL    HW2 2625   4.557   2.746   1.060
  576SOL     OW 2626   1.763   3.037   3.004
  576SOL    HW1 2627   1.697   2.999   3.069
  576SOL    HW2 2628   1.763   3.137   3.012
  577SOL     OW 2629   0.849   0.671   2.493
  577SOL    HW1 2630   0.830   0.749   2.433
  577SOL    HW2 2631   0.798   0.680   2.578
  578SOL     OW 2632   2.001   5.529   6.834
  578SOL    HW1 2633   2.071   5.549   6.765
  578SOL    HW2 2634   2.032   5.562   6.923
  579SOL     OW 2635   1.714   4.769   2.575
  579SOL    HW1 2636   1.685   4.704   2.504
  579SOL    HW2 2637   1.801   4.740   2.613
  580SOL     OW 2638   4.633   4.921   5.301
  580SOL    HW1 2639   4.645   4.850   5.370
  580SOL    HW2 2640   4.592   4.880   5.219
  581SOL     OW 2641   0.853   3.232   3.583
  581SOL    HW1 2642   0.882   3.137   3.570
  581SOL    HW2 2643   0.910   3.275   3.653
  582SOL     OW 2644   4.804   5.522   3.460
  582SOL    HW1 2645   4.901   5.533   3.440
  582SOL    HW2 2646   4.772   5.434   3.424
  583SOL     OW 2647   2.931   5.375   5.396
  583SOL    HW1 2648   2.864   5.330   5.456
  583SOL    HW2 2649   2.917   5.474   5.400
  584SOL     OW 2650   3.230   6.830   6.078
  584SOL    HW1 2651   3.200   6.925   6.083
  584SOL    HW2 2652   3.272   6.803   6.165
  585SOL     OW 2653   4.206   0.252   1.196
  585SOL    HW1 2654   4.171   0.331   1.146
  585SOL    HW2 2655   4.224   0.177   1.132
  586SOL     OW 2656   3.600   0.389   1.237
  586SOL    HW1 2657   3.512   0.403   1.192
  586SOL    HW2 2658   3.670   0.443   1.191
  587SOL     OW 2659   5.380   2.259   2.280
  587SOL    HW1 2660   5.332   2.281   2.194
  587SOL    HW2 2661   5.314   2.231   2.349
  588SOL     OW 2662   1.793   5.251   1.061
  588SOL    HW1 2663   1.801   5.162   1.107
  588SOL    HW2 2664   1.795   5.238   0.962
  589SOL     OW 2665   3.003   5.688   1.364
  589SOL    HW1 2666   3.065   5.664   1.289
  589SOL    HW2 2667   2.931   5.748   1.329
  590SOL     OW 2668   5.509   1.382   0.665
  590SOL    HW1 2669   5.592   1.378   0.610
  590SOL    HW2 2670   5.439   1.323   0.625
  591SOL     OW 2671   4.556   5.861   3.546
  591SOL    HW1 2672   4.587   5.951   3.578
  591SOL    HW2 2673   4.484   5.827   3.606
  592SOL     OW 2674   4.692   0.592   3.511
  592SOL    HW1 2675   4.674   0.638   3.424
  592SOL    HW2 2676   4.644   0.641   3.584
  593SOL     OW 2677   4.174   1.925   4.877
  593SOL    HW1 2678   4.115   1.863   4.929
  593SOL    HW2 2679   4.198   2.003   4.934
  594SOL     OW 2680   5.941   1.168   0.655
  594SOL    HW1 2681   5.963   1.070   0.645
  594SOL    HW2 2682   5.846   1.178   0.684
  595SOL     OW 2683   5.157   6.136   3.340
  595SOL    HW1 2684   5.109   6.161   3.424
  595SOL    HW2 2685   5.174   6.037   3.340
  596SOL     OW 2686   0.250   4.867   3.556
  596SOL    HW1 2687   0.192   4.933   3.605
  596SOL    HW2 2688   0.266   4.901   3.463
  597SOL     OW 2689   2.794   0.216   6.041
  597SOL    HW1 2690   2.747   0.142   5.992
  597SOL    HW2 2691   2.739   0.299   6.036
  598SOL     OW 2692   3.097   3.876   4.890
  598SOL    HW1 2693   3.051   3.948   4.942
  598SOL    HW2 2694   3.196   3.890   4.892
  599SOL     OW 2695   2.042   6.325   1.886
  599SOL    HW1 2696   2.108   6.255   1.915
  599SOL    HW2 2697   2.092   6.407   1.856
  600SOL     OW 2698   0.254   3.392   5.795
  600SOL    HW1 2699   0.219   3.479   5.830
  600SOL    HW2 2700   0.204   3.366   5.713
  601SOL     OW 2701   1.643   1.018   5.017
  601SOL    HW1 2702   1.716   1.085   5.034
  601SOL    HW2 2703   1.671   0.956   4.944
  602SOL     OW 2704   3.016   0.443   6.003
  602SOL    HW1 2705   2.963   0.398   6.074
  602SOL    HW2 2706   2.956   0.465   5.926
  603SOL     OW 2707   1.683   1.663   5.573
  603SOL    HW1 2708   1.681   1.685   5.475
  603SOL    HW2 2709   1.741   1.729   5.621
  604SOL     OW 2710   0.608   2.623   1.736
  604SOL    HW1 2711   0.665   2.576   1.668
  604SOL    HW2 2712   0.619   2.722   1.726
  605SOL     OW 2713   0.052   4.975   2.194
  605SOL    HW1 2714   6.985   4.965   2.235
  605SOL    HW2 2715   0.123   4.967   2.264
  606SOL     OW 2716   4.228   6.859   5.385
  606SOL    HW1 2717   4.154   6.812   5.433
  606SOL    HW2 2718   4.196   6.948   5.353
  607SOL     OW 2719   0.581   5.008   5.718
  607SOL    HW1 2720   0.555   4.944   5.645
  607SOL    HW2 2721   0.517   5.085   5.719
  608SOL     OW 2722   3.529   6.933   6.784
  608SOL    HW1 2723   3.562   7.022   6.814
  608SOL    HW2 2724   3.515   6.874   6.863
  609SOL     OW 2725   3.698   2.508   1.678
  609SOL    HW1 2726   3.604   2.539   1.663
  609SOL    HW2 2727   3.696   2.427   1.737
  610SOL     OW 2728   4.193   2.375   0.294
  610SOL    HW1 2729   4.187   2.467   0.255
  610SOL    HW2 2730   4.288   2.348   0.304
  611SOL     OW 2731   4.053   6.860   2.887
  611SOL    HW1 2732   4.074   6.865   2.790
  611SOL    HW2 2733   4.047   6.952   2.925
  612SOL     OW 2734   2.795   5.235   4.881
  612SOL    HW1 2735   2.768   5.304   4.948
  612SOL    HW2 2736   2.805   5.147   4.927
  613SOL     OW 2737   5.517   4.757   4.884
  613SOL    HW1 2738   5.543   4.670   4.925
  613SOL    HW2 2739   5.462   4.740   4.802
  614SOL     OW 2740   5.147   4.762   4.813
  614SOL    HW1 2741   5.222   4.697   4.819
  614SOL    HW2 2742   5.064   4.721   4.852
  615SOL     OW 2743   0.023   3.482   0.922
  615SOL    HW1 2744   0.057   3.401   0.874
  615SOL    HW2 2745   0.075   3.562   0.894
  616SOL     OW 2746   6.000   2.561   2.808
  616SOL    HW1 2747   5.911   2.601   2.829
  616SOL    HW2 2748   6.003   2.466   2.842
  617SOL     OW 2749   1.620   4.748   6.801
  617SOL    HW1 2750   1.660   4.750   6.710
  617SOL    HW2 2751   1.609   4.841   6.835
  618SOL     OW 2752   2.015   2.383   1.600
  618SOL    HW1 2753   2.002   2.359   1.696
  618SOL    HW2 2754   1.928   2.376   1.552
  619SOL     OW 2755   2.009   2.166   0.852
  619SOL    HW1 2756   2.086   2.186   0.792
  619SOL    HW2 2757   2.017   2.073   0.888
  620SOL     OW 2758   4.376   1.658   0.297
  620SOL    HW1 2759   4.350   1.734   0.237
  620SOL    HW2 2760   4.298   1.633   0.354
  621SOL     OW 2761   5.765   5.119   6.369
  621SOL    HW1 2762   5.809   5.091   6.284
  621SOL    HW2 2763   5.822   5.187   6.416
  622SOL     OW 2764   1.575   1.162   0.196
  622SOL    HW1 2765   1.639   1.151   0.272
  622SOL    HW2 2766   1.614   1.122   0.113
  623SOL     OW 2767   0.562   6.074   5.721
  623SOL    HW1 2768   0.582   5.999   5.659
  623SOL    HW2 2769   0.631   6.146   5.711
  624SOL     OW 2770   0.707   3.105   2.130
  624SOL    HW1 2771   0.705   3.149   2.220
  624SOL    HW2 2772   0.768   3.026   2.133
  625SOL     OW 2773   3.046   2.035   1.606
  625SOL    HW1 2774   3.026   2.071   1.514
  625SOL    HW2 2775   3.084   2.108   1.662
  626SOL     OW 2776   2.205   5.897   3.544
  626SOL    HW1 2777   2.258   5.910   3.460
  626SOL    HW2 2778   2.175   5.802   3.550
  627SOL     OW 2779   5.140   7.018   0.591
  627SOL    HW1 2780   5.095   6.964   0.663
  627SOL    HW2 2781   5.120   0.091   0.605
  628SOL     OW 2782   4.761   5.030   4.711
  628SOL    HW1 2783   4.773   5.026   4.612
  628SOL    HW2 2784   4.804   5.113   4.747
  629SOL     OW 2785   0.418   0.170   1.208
  629SOL    HW1 2786   0.361   0.097   1.245
  629SOL    HW2 2787   0.461   0.221   1.283
  630SOL     OW 2788   5.523   2.446   2.027
  630SOL    HW1 2789   5.433   2.408   2.046
  630SOL    HW2 2790   5.578   2.380   1.976
  631SOL     OW 2791   3.002   0.642   5.317
  631SOL    HW1 2792   2.994   0.731   5.270
  631SOL    HW2 2793   3.098   0.616   5.323
  632SOL     OW 2794   2.276   1.213   0.332
  632SOL    HW1 2795   2.259   1.206   0.233
  632SOL    HW2 2796   2.346   1.147   0.358
  633SOL     OW 2797   3.323   5.382   0.411
  633SOL    HW1 2798   3.396   5.427   0.462
  633SOL    HW2 2799   3.284   5.447   0.345
  634SOL     OW 2800   4.177   4.854   1.763
  634SOL    HW1 2801   4.167   4.768   1.713
  634SOL    HW2 2802   4.142   4.843   1.856
  635SOL     OW 2803   4.670   6.598   3.126
  635SOL    HW1 2804   4.594   6.543   3.160
  635SOL    HW2 2805   4.691   6.670   3.191
  636SOL     OW 2806   5.008   5.713   6.556
  636SOL    HW1 2807   5.058   5.631   6.583
  636SOL    HW2 2808   5.057   5.794   6.588
  637SOL     OW 2809   5.556   4.808   2.106
  637SOL    HW1 2810   5.520   4.872   2.038
  637SOL    HW2 2811   5.490   4.734   2.121
  638SOL     OW 2812   4.901   1.521   2.369
  638SOL    HW1 2813   4.891   1.614   2.405
  638SOL    HW2 2814   4.901   1.524   2.269
  639SOL     OW 2815   4.895   4.990   2.243
  639SOL    HW1 2816   4.871   4.934   2.322
  639SOL    HW2 2817   4.877   5.086   2.264
  640SOL     OW 2818   2.436   4.423   5.593
  640SOL    HW1 2819   2.457   4.327   5.611
  640SOL    HW2 2820   2.478   4.451   5.507
  641SOL     OW 2821   0.810   5.554   4.562
  641SOL    HW1 2822   0.797   5.521   4.656
  641SOL    HW2 2823   0.907   5.545   4.537
  642SOL     OW 2824   0.516   3.890   4.148
  642SOL    HW1 2825   0.599   3.843   4.119
  642SOL    HW2 2826   0.498   3.967   4.086
  643SOL     OW 2827   6.027   5.486   5.029
  643SOL    HW1 2828   5.983   5.575   5.020
  643SOL    HW2 2829   6.009   5.431   4.948
  644SOL     OW 2830   0.682   5.819   2.865
  644SOL    HW1 2831   0.666   5.902   2.811
  644SOL    HW2 2832   0.652   5.739   2.813
  645SOL     OW 2833   4.724   2.661   4.637
  645SOL    HW1 2834   4.709   2.682   4.540
  645SOL    HW2 2835   4.710   2.564   4.653
  646SOL     OW 2836   1.965   2.063   3.494
  646SOL    HW1 2837   1.971   2.135   3.425
  646SOL    HW2 2838   1.900   1.994   3.465
  647SOL     OW 2839   5.999   2.655   6.366
  647SOL    HW1 2840   6.087   2.702   6.363
  647SOL    HW2 2841   5.933   2.712   6.416
  648SOL     OW 2842   5.917   3.811   2.927
  648SOL    HW1 2843   6.017   3.801   2.927
  648SOL    HW2 2844   5.893   3.897   2.881
  649SOL     OW 2845   4.202   4.382   0.556
  649SOL    HW1 2846   4.260   4.325   0.498
  649SOL    HW2 2847   4.168   4.460   0.504
  650SOL     OW 2848   4.728   4.562   0.471
  650SOL    HW1 2849   4.673   4.489   0.512
  650SOL    HW2 2850   4.825   4.541   0.482
  651SOL     OW 2851   0.501   6.428   0.550
  651SOL    HW1 2852   0.566   6.450   0.477
  651SOL    HW2 2853   0.443   6.352   0.521
  652SOL     OW 2854   4.817   6.473   3.777
  652SOL    HW1 2855   4.845   6.538   3.705
  652SOL    HW2 2856   4.735   6.508   3.823
  653SOL     OW 2857   3.691   5.316   5.378
  653SOL    HW1 2858   3.708   5.385   5.449
  653SOL    HW2 2859   3.777   5.272   5.354
  654SOL     OW 2860   0.356   4.833   5.946
  654SOL    HW1 2861   0.287   4.775   5.901
  654SOL    HW2 2862   0.312   4.915   5.982
  655SOL     OW 2863   0.890   0.219   2.197
  655SOL    HW1 2864   0.937   0.145   2.246
  655SOL    HW2 2865   0.948   0.301   2.197
  656SOL     OW 2866   2.105   5.972   1.830
  656SOL    HW1 2867   2.159   6.043   1.786
  656SOL    HW2 2868   2.167   5.905   1.873
  657SOL     OW 2869   2.385   2.078   1.535
  657SOL    HW1 2870   2.349   2.116   1.620
  657SOL    HW2 2871   2.479   2.046   1.549
  658SOL     OW 2872   3.324   3.202   0.078
  658SOL    HW1 2873   3.366   3.173   7.015
  658SOL    HW2 2874   3.366   3.287   0.108
  659SOL     OW 2875   3.139   6.249   6.252
  659SOL    HW1 2876   3.204   6.315   6.291
  659SOL    HW2 2877   3.096   6.288   6.171
  660SOL     OW 2878   3.868   5.910   1.608
  660SOL    HW1 2879   3.877   5.850   1.528
  660SOL    HW2 2880   3.922   5.873   1.683
  661SOL     OW 2881   4.205   6.155   3.634
  661SOL    HW1 2882   4.205   6.180   3.731
  661SOL    HW2 2883   4.171   6.231   3.580
  662SOL     OW 2884   3.563   0.878   5.378
  662SOL    HW1 2885   3.584   0.925   5.464
  662SOL    HW2 2886   3.604   0.786   5.379
  663SOL     OW 2887   2.239   3.663   5.558
  663SOL    HW1 2888   2.207   3.646   5.464
  663SOL    HW2 2889   2.195   3.746   5.594
  664SOL     OW 2890   0.036   6.423   6.162
  664SOL    HW1 2891   6.970   6.464   6.145
  664SOL    HW2 2892   0.074   6.459   6.248
  665SOL     OW 2893   3.568   5.328   2.809
  665SOL    HW1 2894   3.532   5.263   2.875
  665SOL    HW2 2895   3.608   5.406   2.856
  666SOL     OW 2896   4.618   0.596   1.960
  666SOL    HW1 2897   4.523   0.567   1.965
  666SOL    HW2 2898   4.626   0.669   1.892
  667SOL     OW 2899   1.179   5.246   1.725
  667SOL    HW1 2900   1.153   5.159   1.765
  667SOL    HW2 2901   1.125   5.261   1.642
  668SOL     OW 2902   5.283   5.840   5.710
  668SOL    HW1 2903   5.255   5.901   5.784
  668SOL    HW2 2904   5.267   5.745   5.737
  669SOL     OW 2905   5.951   1.067   3.272
  669SOL    HW1 2906   5.952   1.020   3.360
  669SOL    HW2 2907   5.866   1.119   3.263
  670SOL     OW 2908   2.735   1.722   2.069
  670SOL    HW1 2909   2.706   1.766   1.984
  670SOL    HW2 2910   2.770   1.792   2.132
  671SOL     OW 2911   3.171   5.713   1.158
  671SOL    HW1 2912   3.172   5.811   1.178
  671SOL    HW2 2913   3.189   5.699   1.061
  672SOL     OW 2914   6.890   5.414   1.716
  672SOL    HW1 2915   6.825   5.459   1.656
  672SOL    HW2 2916   6.841   5.352   1.778
  673SOL     OW 2917   5.984   0.241   1.224
  673SOL    HW1 2918   6.066   0.208   1.272
  673SOL    HW2 2919   6.010   0.314   1.161
  674SOL     OW 2920   0.574   1.467   4.838
  674SOL    HW1 2921   0.552   1.549   4.785
  674SOL    HW2 2922   0.490   1.431   4.880
  675SOL     OW 2923   5.640   2.357   2.300
  675SOL    HW1 2924   5.636   2.421   2.223
  675SOL    HW2 2925   5.551   2.313   2.313
  676SOL     OW 2926   2.045   5.089   4.560
  676SOL    HW1 2927   2.050   4.991   4.582
  676SOL    HW2 2928   2.135   5.131   4.575
  677SOL     OW 2929   5.145   0.482   1.506
  677SOL    HW1 2930   5.063   0.539   1.501
  677SOL    HW2 2931   5.165   0.462   1.602
  678SOL     OW 2932   2.552   5.081   4.829
  678SOL    HW1 2933   2.510   5.110   4.915
  678SOL    HW2 2934   2.627   5.142   4.806
  679SOL     OW 2935   5.197   1.329   5.207
  679SOL    HW1 2936   5.120   1.381   5.171
  679SOL    HW2 2937   5.185   1.232   5.187
  680SOL     OW 2938   4.542   5.958   4.231
  680SOL    HW1 2939   4.543   5.899   4.312
  680SOL    HW2 2940   4.531   5.903   4.149
  681SOL     OW 2941   4.150   5.970   1.952
  681SOL    HW1 2942   4.086   6.009   1.885
  681SOL    HW2 2943   4.139   5.870   1.953
  682SOL     OW 2944   6.482   1.196   1.962
  682SOL    HW1 2945   6.450   1.287   1.987
  682SOL    HW2 2946   6.408   1.144   1.920
  683SOL     OW 2947   4.723   3.004   0.610
  683SOL    HW1 2948   4.717   2.978   0.514
  683SOL    HW2 2949   4.679   2.933   0.666
  684SOL     OW 2950   6.139   0.674   0.160
  684SOL    HW1 2951   6.085   0.637   0.083
  684SOL    HW2 2952   6.077   0.702   0.233
  685SOL     OW 2953   2.995   2.057   3.769
  685SOL    HW1 2954   3.002   2.140   3.713
  685SOL    HW2 2955   2.902   2.048   3.804
  686SOL     OW 2956   4.760   1.606   4.723
  686SOL    HW1 2957   4.829   1.542   4.688
  686SOL    HW2 2958   4.758   1.687   4.664
  687SOL     OW 2959   0.775   1.816   4.769
  687SOL    HW1 2960   0.769   1.815   4.869
  687SOL    HW2 2961   0.803   1.726   4.736
  688SOL     OW 2962   6.973   1.609   6.136
  688SOL    HW1 2963   6.892   1.550   6.126
  688SOL    HW2 2964   0.021   1.578   6.073
  689SOL     OW 2965   2.064   4.539   5.880
  689SOL    HW1 2966   2.037   4.443   5.882
  689SOL    HW2 2967   2.161   4.546   5.857
  690SOL     OW 2968   6.704   3.599   3.356
  690SOL    HW1 2969   6.757   3.586   3.272
  690SOL    HW2 2970   6.658   3.688   3.353
  691SOL     OW 2971   3.351   1.521   1.183
  691SOL    HW1 2972   3.428   1.497   1.242
  691SOL    HW2 2973   3.371   1.607   1.136
  692SOL     OW 2974   3.990   1.727   5.017
  692SOL    HW1 2975   4.039   1.780   5.087
  692SOL    HW2 2976   3.892   1.727   5.036
  693SOL     OW 2977   5.059   6.529   3.967
  693SOL    HW1 2978   5.006   6.509   3.884
  693SOL    HW2 2979   5.060   6.449   4.026
  694SOL     OW 2980   4.134   6.067   4.201
  694SOL    HW1 2981   4.105   5.984   4.248
  694SOL    HW2 2982   4.228   6.056   4.169
  695SOL     OW 2983   3.850   5.771   4.147
  695SOL    HW1 2984   3.890   5.720   4.223
  695SOL    HW2 2985   3.777   5.830   4.182
  696SOL     OW 2986   4.860   4.398   3.363
  696SOL    HW1 2987   4.920   4.442   3.430
  696SOL    HW2 2988   4.820   4.316   3.403
  697SOL     OW 2989   1.606   3.689   2.592
  697SOL    HW1 2990   1.528   3.745   2.565
  697SOL    HW2 2991   1.681   3.703   2.527
  698SOL     OW 2992   4.887   6.453   0.741
  698SOL    HW1 2993   4.794   6.464   0.777
  698SOL    HW2 2994   4.932   6.377   0.788
  699SOL     OW 2995   2.172   3.046   6.628
  699SOL    HW1 2996   2.248   3.027   6.566
  699SOL    HW2 2997   2.095   3.084   6.576
  700SOL     OW 2998   3.519   0.193   2.102
  700SOL    HW1 2999   3.455   0.128   2.144
  700SOL    HW2 3000   3.612   0.174   2.135
  701SOL     OW 3001   0.251   4.452   0.284
  701SOL    HW1 3002   0.293   4.414   0.366
  701SOL    HW2 3003   0.250   4.382   0.212
  702SOL     OW 3004   2.017   0.050   4.162
  702SOL    HW1 3005   1.966   0.024   4.080
  702SOL    HW2 3006   2.087   0.118   4.137
  703SOL     OW 3007   3.286   3.247   5.679
  703SOL    HW1 3008   3.373   3.293   5.660
  703SOL    HW2 3009   3.216   3.282   5.618
  704SOL     OW 3010   2.342   2.233   6.115
  704SOL    HW1 3011   2.342   2.331   6.137
  704SOL    HW2 3012   2.336   2.180   6.199
  705SOL     OW 3013   6.364   6.038   3.043
  705SOL    HW1 3014   6.321   6.125   3.063
  705SOL    HW2 3015   6.449   6.053   2.993
  706SOL     OW 3016   4.367   1.674   5.290
  706SOL    HW1 3017   4.434   1.604   5.314
  706SOL    HW2 3018   4.319   1.704   5.372
  707SOL     OW 3019   3.876   4.965   3.466
  707SOL    HW1 3020   3.959   4.911   3.479
  707SOL    HW2 3021   3.830   4.936   3.382
  708SOL     OW 3022   2.694   1.732   3.408
  708SOL    HW1 3023   2.788   1.705   3.386
  708SOL    HW2 3024   2.679   1.826   3.379
  709SOL     OW 3025   1.261   6.560   1.225
  709SOL    HW1 3026   1.334   6.592   1.165
  709SOL    HW2 3027   1.195   6.634   1.240
  710SOL     OW 3028   4.890   2.438   1.658
  710SOL    HW1 3029   4.863   2.429   1.754
  710SOL    HW2 3030   4.846   2.519   1.619
  711SOL     OW 3031   0.034   2.946   6.392
  711SOL    HW1 3032   0.005   2.855   6.424
  711SOL    HW2 3033   7.009   3.016   6.444
  712SOL     OW 3034   4.922   1.777   0.763
  712SOL    HW1 3035   5.001   1.814   0.713
  712SOL    HW2 3036   4.945   1.686   0.798
  713SOL     OW 3037   4.228   2.666   5.349
  713SOL    HW1 3038   4.157   2.736   5.359
  713SOL    HW2 3039   4.192   2.590   5.295
  714SOL     OW 3040   5.815   5.369   4.013
  714SOL    HW1 3041   5.894   5.424   3.985
  714SOL    HW2 3042   5.745   5.429   4.051
  715SOL     OW 3043   6.212   5.355   6.164
  715SOL    HW1 3044   6.227   5.261   6.196
  715SOL    HW2 3045   6.185   5.412   6.242
  716SOL     OW 3046   1.328   1.266   3.415
  716SOL    HW1 3047   1.238   1.227   3.432
  716SOL    HW2 3048   1.385   1.257   3.496
  717SOL     OW 3049   6.578   4.621   4.213
  717SOL    HW1 3050   6.547   4.608   4.307
  717SOL    HW2 3051   6.556   4.715   4.184
  718SOL     OW 3052   4.781   2.837   5.187
  718SOL    HW1 3053   4.845   2.911   5.169
  718SOL    HW2 3054   4.728   2.817   5.105
  719SOL     OW 3055   5.644   0.511   2.601
  719SOL    HW1 3056   5.652   0.506   2.700
  719SOL    HW2 3057   5.550   0.535   2.576
  720SOL     OW 3058   2.331   0.010   6.003
  720SOL    HW1 3059   2.355   0.087   5.944
  720SOL    HW2 3060   2.391   6.955   5.983
  721SOL     OW 3061   1.888   1.128   2.283
  721SOL    HW1 3062   1.959   1.061   2.257
  721SOL    HW2 3063   1.931   1.217   2.297
  722SOL     OW 3064   2.881   0.548   5.772
  722SOL    HW1 3065   2.971   0.566   5.733
  722SOL    HW2 3066   2.832   0.634   5.784
  723SOL     OW 3067   1.756   5.907   3.692
  723SOL    HW1 3068   1.814   5.915   3.611
  723SOL    HW2 3069   1.663   5.883   3.664
  724SOL     OW 3070   0.243   1.178   3.839
  724SOL    HW1 3071   0.338   1.206   3.829
  724SOL    HW2 3072   0.201   1.230   3.914
  725SOL     OW 3073   1.964   4.598   2.636
  725SOL    HW1 3074   1.955   4.507   2.676
  725SOL    HW2 3075   1.992   4.589   2.540
  726SOL     OW 3076   2.437   5.088   0.926
  726SOL    HW1 3077   2.346   5.072   0.964
  726SOL    HW2 3078   2.450   5.030   0.846
  727SOL     OW 3079   5.008   4.909   6.234
  727SOL    HW1 3080   4.918   4.895   6.275
  727SOL    HW2 3081   5.013   4.999   6.192
  728SOL     OW 3082   6.524   3.312   4.259
  728SOL    HW1 3083   6.549   3.226   4.301
  728SOL    HW2 3084   6.452   3.297   4.192
  729SOL     OW 3085   0.457   2.760   1.117
  729SOL    HW1 3086   0.376   2.769   1.060
  729SOL    HW2 3087   0.535   2.802   1.070
  730SOL     OW 3088   5.499   1.107   3.465
  730SOL    HW1 3089   5.445   1.129   3.383
  730SOL    HW2 3090   5.437   1.082   3.539
  731SOL     OW 3091   5.303   4.789   6.686
  731SOL    HW1 3092   5.359   4.797   6.603
  731SOL    HW2 3093   5.222   4.733   6.667
  732SOL     OW 3094   5.469   2.831   2.491
  732SOL    HW1 3095   5.438   2.755   2.433
  732SOL    HW2 3096   5.568   2.841   2.483
  733SOL     OW 3097   5.772   0.601   4.218
  733SOL    HW1 3098   5.826   0.674   4.259
  733SOL    HW2 3099   5.759   0.620   4.120
  734SOL     OW 3100   5.990   5.045   3.029
  734SOL    HW1 3101   6.075   5.093   3.005
  734SOL    HW2 3102   6.009   4.978   3.100
  735SOL     OW 3103   4.460   1.013   1.174
  735SOL    HW1 3104   4.491   0.954   1.249
  735SOL    HW2 3105   4.366   1.043   1.192
  736SOL     OW 3106   1.305   1.827   3.766
  736SOL    HW1 3107   1.286   1.782   3.679
  736SOL    HW2 3108   1.279   1.924   3.759
  737SOL     OW 3109   6.181   1.729   6.256
  737SOL    HW1 3110   6.081   1.722   6.257
  737SOL    HW2 3111   6.219   1.654   6.203
  738SOL     OW 3112   2.673   3.704   1.667
  738SOL    HW1 3113   2.726   3.786   1.690
  738SOL    HW2 3114   2.577   3.729   1.657
  739SOL     OW 3115   3.634   0.593   5.082
  739SOL    HW1 3116   3.680   0.679   5.103
  739SOL    HW2 3117   3.637   0.533   5.162
  740SOL     OW 3118   5.962   1.896   2.866
  740SOL    HW1 3119   5.950   1.840   2.948
  740SOL    HW2 3120   5.880   1.950   2.849
  741SOL     OW 3121   1.615   0.993   4.592
  741SOL    HW1 3122   1.613   1.079   4.644
  741SOL    HW2 3123   1.695   0.940   4.620
  742SOL     OW 3124   2.399   5.919   1.240
  742SOL    HW1 3125   2.364   5.910   1.333
  742SOL    HW2 3126   2.356   5.999   1.196
  743SOL     OW 3127   0.098   6.122   3.079
  743SOL    HW1 3128   0.173   6.104   3.016
  743SOL    HW2 3129   0.047   6.037   3.096
  744SOL     OW 3130   6.184   0.801   0.767
  744SOL    HW1 3131   6.225   0.891   0.752
  744SOL    HW2 3132   6.248   0.730   0.736
  745SOL     OW 3133   2.430   5.498   5.362
  745SOL    HW1 3134   2.408   5.468   5.269
  745SOL    HW2 3135   2.442   5.597   5.364
  746SOL     OW 3136   5.900   4.562   5.683
  746SOL    HW1 3137   5.920   4.468   5.710
  746SOL    HW2 3138   5.813   4.590   5.725
  747SOL     OW 3139   4.404   6.154   4.093
  747SOL    HW1 3140   4.485   6.137   4.150
  747SOL    HW2 3141   4.364   6.242   4.118
  748SOL     OW 3142   5.139   5.350   2.187
  748SOL    HW1 3143   5.070   5.284   2.214
  748SOL    HW2 3144   5.212   5.304   2.136
  749SOL     OW 3145   5.573   3.728   3.686
  749SOL    HW1 3146   5.498   3.779   3.728
  749SOL    HW2 3147   5.626   3.790   3.627
  750SOL     OW 3148   2.979   0.923   1.090
  750SOL    HW1 3149   3.044   0.979   1.140
  750SOL    HW2 3150   2.984   0.945   0.993
  751SOL     OW 3151   4.994   1.103   1.366
  751SOL    HW1 3152   5.042   1.122   1.280
  751SOL    HW2 3153   4.984   1.188   1.418
  752SOL     OW 3154   3.109   2.075   6.512
  752SOL    HW1 3155   3.110   2.018   6.594
  752SOL    HW2 3156   3.166   2.156   6.527
  753SOL     OW 3157   2.877   3.529   5.565
  753SOL    HW1 3158   2.825   3.522   5.479
  753SOL    HW2 3159   2.828   3.480   5.637
  754SOL     OW 3160   4.164   1.101   0.306
  754SOL    HW1 3161   4.197   1.060   0.391
  754SOL    HW2 3162   4.226   1.174   0.277
  755SOL     OW 3163   2.779   4.653   5.389
  755SOL    HW1 3164   2.682   4.629   5.392
  755SOL    HW2 3165   2.825   4.600   5.317
  756SOL     OW 3166   3.384   4.440   0.085
  756SOL    HW1 3167   3.400   4.538   0.077
  756SOL    HW2 3168   3.470   4.393   0.100
  757SOL     OW 3169   2.173   6.459   2.244
  757SOL    HW1 3170   2.145   6.530   2.179
  757SOL    HW2 3171   2.122   6.471   2.330
  758SOL     OW 3172   3.671   1.478   4.207
  758SOL    HW1 3173   3.590   1.532   4.230
  758SOL    HW2 3174   3.693   1.491   4.110
  759SOL     OW 3175   6.839   2.693   3.059
  759SOL    HW1 3176   6.777   2.761   3.097
  759SOL    HW2 3177   6.798   2.651   2.978
  760SOL     OW 3178   6.229   6.802   4.358
  760SOL    HW1 3179   6.133   6.830   4.362
  760SOL    HW2 3180   6.268   6.829   4.270
  761SOL     OW 3181   5.665   4.642   5.857
  761SOL    HW1 3182   5.610   4.624   5.776
  761SOL    HW2 3183   5.605   4.664   5.934
  762SOL     OW 3184   2.684   6.995   5.231
  762SOL    HW1 3185   2.629   7.021   5.311
  762SOL    HW2 3186   2.626   6.995   5.150
  763SOL     OW 3187   4.946   6.812   6.545
  763SOL    HW1 3188   4.931   6.761   6.460
  763SOL    HW2 3189   5.001   6.757   6.608
  764SOL     OW 3190   5.929   1.164   5.302
  764SOL    HW1 3191   5.869   1.100   5.254
  764SOL    HW2 3192   5.990   1.208   5.236
  765SOL     OW 3193   1.485   6.500   0.521
  765SOL    HW1 3194   1.539   6.466   0.598
  765SOL    HW2 3195   1.536   6.487   0.436
  766SOL     OW 3196   2.971   2.250   5.299
  766SOL    HW1 3197   3.006   2.194   5.374
  766SOL    HW2 3198   3.047   2.277   5.239
  767SOL     OW 3199   6.087   6.235   3.879
  767SOL    HW1 3200   6.152   6.276   3.943
  767SOL    HW2 3201   6.029   6.170   3.927
  768SOL     OW 3202   1.874   6.660   3.401
  768SOL    HW1 3203   1.947   6.709   3.354
  768SOL    HW2 3204   1.793   6.658   3.342
  769SOL     OW 3205   3.252   1.579   5.179
  769SOL    HW1 3206   3.164   1.570   5.225
  769SOL    HW2 3207   3.280   1.490   5.141
  770SOL     OW 3208   2.023   4.760   4.319
  770SOL    HW1 3209   1.995   4.775   4.413
  770SOL    HW2 3210   2.042   4.849   4.275
  771SOL     OW 3211   1.489   5.212   3.305
  771SOL    HW1 3212   1.397   5.224   3.343
  771SOL    HW2 3213   1.552   5.184   3.378
  772SOL     OW 3214   5.791   5.011   5.853
  772SOL    HW1 3215   5.849   4.929   5.851
  772SOL    HW2 3216   5.778   5.045   5.761
  773SOL     OW 3217   1.090   3.962   3.256
  773SOL    HW1 3218   1.106   4.056   3.286
  773SOL    HW2 3219   1.028   3.916   3.320
  774SOL     OW 3220   2.561   1.242   3.038
  774SOL    HW1 3221   2.501   1.319   3.016
  774SOL    HW2 3222   2.505   1.162   3.060
  775SOL     OW 3223   1.685   2.336   4.286
  775SOL    HW1 3224   1.744   2.260   4.317
  775SOL    HW2 3225   1.739   2.400   4.232
  776SOL     OW 3226   6.960   0.155   6.948
  776SOL    HW1 3227   0.020   0.188   6.992
  776SOL    HW2 3228   6.936   0.065   6.985
  777SOL     OW 3229   1.550   3.546   1.163
  777SOL    HW1 3230   1.541   3.452   1.132
  777SOL    HW2 3231   1.542   3.608   1.085
  778SOL     OW 3232   2.432   0.237   1.433
  778SOL    HW1 3233   2.506   0.301   1.452
  778SOL    HW2 3234   2.456   0.181   1.354
  779SOL     OW 3235   6.967   2.660   1.696
  779SOL    HW1 3236   0.019   2.677   1.632
  779SOL    HW2 3237   6.882   2.695   1.657
  780SOL     OW 3238   0.842   2.776   4.258
  780SOL    HW1 3239   0.937   2.805   4.270
  780SOL    HW2 3240   0.824   2.697   4.318
  781SOL     OW 3241   6.837   4.969   0.093
  781SOL    HW1 3242   6.797   4.900   0.153
  781SOL    HW2 3243   6.809   4.952   7.022
  782SOL     OW 3244   2.220   3.919   5.337
  782SOL    HW1 3245   2.281   3.950   5.264
  782SOL    HW2 3246   2.269   3.853   5.395
  783SOL     OW 3247   5.725   5.101   0.846
  783SOL    HW1 3248   5.734   5.180   0.907
  783SOL    HW2 3249   5.735   5.131   0.751
  784SOL     OW 3250   2.688   5.794   2.310
  784SOL    HW1 3251   2.607   5.750   2.272
  784SOL    HW2 3252   2.729   5.735   2.379
  785SOL     OW 3253   0.262   1.480   3.799
  785SOL    HW1 3254   0.170   1.480   3.837
  785SOL    HW2 3255   0.256   1.487   3.699
  786SOL     OW 3256   6.848   1.210   2.978
  786SOL    HW1 3257   6.872   1.233   2.884
  786SOL    HW2 3258   6.859   1.111   2.992
  787SOL     OW 3259   2.205   0.117   0.173
  787SOL    HW1 3260   2.131   0.093   0.236
  787SOL    HW2 3261   2.231   0.213   0.188
  788SOL     OW 3262   3.967   2.579   1.700
  788SOL    HW1 3263   4.029   2.501   1.709
  788SOL    HW2 3264   3.873   2.548   1.713
  789SOL     OW 3265   4.226   5.575   2.460
  789SOL    HW1 3266   4.299   5.554   2.526
  789SOL    HW2 3267   4.262   5.637   2.390
  790SOL     OW 3268   1.845   1.447   1.955
  790SOL    HW1 3269   1.887   1.517   2.013
  790SOL    HW2 3270   1.783   1.492   1.890
  791SOL     OW 3271   2.550   6.307   5.271
  791SOL    HW1 3272   2.641   6.266   5.261
  791SOL    HW2 3273   2.536   6.335   5.366
  792SOL     OW 3274   0.339   1.426   1.156
  792SOL    HW1 3275   0.325   1.422   1.057
  792SOL    HW2 3276   0.264   1.479   1.198
  793SOL     OW 3277   4.853   6.025   4.940
  793SOL    HW1 3278   4.766   6.025   4.988
  793SOL    HW2 3279   4.837   6.019   4.842
  794SOL     OW 3280   3.641   3.461   5.405
  794SOL    HW1 3281   3.652   3.556   5.433
  794SOL    HW2 3282   3.675   3.449   5.312
  795SOL     OW 3283   3.726   0.530   5.907
  795SOL    HW1 3284   3.810   0.583   5.916
  795SOL    HW2 3285   3.647   0.590   5.925
  796SOL     OW 3286   2.124   2.698   0.059
  796SOL    HW1 3287   2.178   2.652   7.012
  796SOL    HW2 3288   2.034   2.655   0.064
  797SOL     OW 3289   4.058   6.999   0.787
  797SOL    HW1 3290   4.067   0.040   0.710
  797SOL    HW2 3291   4.029   6.910   0.752
  798SOL     OW 3292   3.105   6.314   1.515
  798SOL    HW1 3293   3.037   6.241   1.507
  798SOL    HW2 3294   3.195   6.273   1.530
  799SOL     OW 3295   0.129   1.686   6.306
  799SOL    HW1 3296   0.041   1.671   6.260
  799SOL    HW2 3297   0.117   1.755   6.377
  800SOL     OW 3298   0.073   2.130   2.562
  800SOL    HW1 3299   0.066   2.230   2.567
  800SOL    HW2 3300   0.054   2.100   2.469
  801SOL     OW 3301   1.710   4.674   5.210
  801SOL    HW1 3302   1.701   4.768   5.176
  801SOL    HW2 3303   1.656   4.613   5.152
  802SOL     OW 3304   4.089   2.535   6.678
  802SOL    HW1 3305   4.149   2.463   6.712
  802SOL    HW2 3306   3.999   2.527   6.721
  803SOL     OW 3307   2.465   6.875   5.734
  803SOL    HW1 3308   2.383   6.817   5.737
  803SOL    HW2 3309   2.511   6.873   5.823
  804SOL     OW 3310   6.434   6.471   1.374
  804SOL    HW1 3311   6.343   6.449   1.410
  804SOL    HW2 3312   6.502   6.416   1.424
  805SOL     OW 3313   1.453   0.143   3.848
  805SOL    HW1 3314   1.531   0.122   3.907
  805SOL    HW2 3315   1.415   0.232   3.872
  806SOL     OW 3316   6.686   0.347   5.945
  806SOL    HW1 3317   6.608   0.331   6.005
  806SOL    HW2 3318   6.658   0.338   5.850
  807SOL     OW 3319   0.648   6.800   4.095
  807SOL    HW1 3320   0.607   6.710   4.079
  807SOL    HW2 3321   0.629   6.859   4.016
  808SOL     OW 3322   5.469   2.825   0.154
  808SOL    HW1 3323   5.445   2.861   0.244
  808SOL    HW2 3324   5.551   2.872   0.120
  809SOL     OW 3325   1.001   5.016   0.317
  809SOL    HW1 3326   1.043   4.928   0.343
  809SOL    HW2 3327   1.051   5.055   0.240
  810SOL     OW 3328   2.740   3.286   0.499
  810SOL    HW1 3329   2.801   3.313   0.573
  810SOL    HW2 3330   2.681   3.212   0.530
  811SOL     OW 3331   5.693   5.258   4.927
  811SOL    HW1 3332   5.619   5.270   4.993
  811SOL    HW2 3333   5.653   5.242   4.836
  812SOL     OW 3334   0.397   2.279   2.552
  812SOL    HW1 3335   0.481   2.320   2.589
  812SOL    HW2 3336   0.382   2.190   2.595
  813SOL     OW 3337   2.966   0.111   4.335
  813SOL    HW1 3338   2.975   0.031   4.275
  813SOL    HW2 3339   3.018   0.095   4.419
  814SOL     OW 3340   6.535   5.530   2.017
  814SOL    HW1 3341   6.482   5.463   2.070
  814SOL    HW2 3342   6.493   5.542   1.927
  815SOL     OW 3343   5.483   2.687   3.833
  815SOL    HW1 3344   5.490   2.591   3.807
  815SOL    HW2 3345   5.463   2.743   3.752
  816SOL     OW 3346   4.730   4.521   0.209
  816SOL    HW1 3347   4.639   4.533   0.169
  816SOL    HW2 3348   4.724   4.529   0.308
  817SOL     OW 3349   1.241   5.504   1.730
  817SOL    HW1 3350   1.275   5.536   1.818
  817SOL    HW2 3351   1.231   5.404   1.732
  818SOL     OW 3352   5.620   2.604   4.273
  818SOL    HW1 3353   5.647   2.680   4.213
  818SOL    HW2 3354   5.550   2.636   4.337
  819SOL     OW 3355   5.753   2.815   1.845
  819SOL    HW1 3356   5.664   2.769   1.852
  819SOL    HW2 3357   5.742   2.900   1.794
  820SOL     OW 3358   3.229   2.146   4.486
  820SOL    HW1 3359   3.190   2.193   4.407
  820SOL    HW2 3360   3.188   2.183   4.570
  821SOL     OW 3361   5.889   5.118   5.349
  821SOL    HW1 3362   5.948   5.077   5.419
  821SOL    HW2 3363   5.935   5.196   5.307
  822SOL     OW 3364   0.422   4.419   3.222
  822SOL    HW1 3365   0.386   4.326   3.225
  822SOL    HW2 3366   0.520   4.418   3.241
  823SOL     OW 3367   6.913   3.975   5.665
  823SOL    HW1 3368   7.011   3.965   5.678
  823SOL    HW2 3369   6.884   4.065   5.698
  824SOL     OW 3370   5.501   0.822   5.474
  824SOL    HW1 3371   5.487   0.734   5.429
  824SOL    HW2 3372   5.499   0.895   5.405
  825SOL     OW 3373   6.229   5.709   0.469
  825SOL    HW1 3374   6.321   5.693   0.434
  825SOL    HW2 3375   6.162   5.664   0.409
  826SOL     OW 3376   4.131   2.194   6.050
  826SOL    HW1 3377   4.065   2.267   6.035
  826SOL    HW2 3378   4.086   2.119   6.100
  827SOL     OW 3379   3.056   4.294   5.319
  827SOL    HW1 3380   2.975   4.248   5.357
  827SOL    HW2 3381   3.027   4.381   5.278
  828SOL     OW 3382   6.107   5.500   5.482
  828SOL    HW1 3383   6.170   5.559   5.432
  828SOL    HW2 3384   6.039   5.462   5.420
  829SOL     OW 3385   3.352   2.981   2.156
  829SOL    HW1 3386   3.307   3.006   2.071
  829SOL    HW2 3387   3.288   2.932   2.215
  830SOL     OW 3388   6.010   4.982   6.710
  830SOL    HW1 3389   6.068   4.902   6.700
  830SOL    HW2 3390   5.956   4.995   6.626
  831SOL     OW 3391   6.010   0.045   1.032
  831SOL    HW1 3392   5.996   0.093   1.119
  831SOL    HW2 3393   6.102   0.006   1.030
  832SOL     OW 3394   4.464   1.143   4.046
  832SOL    HW1 3395   4.405   1.191   4.111
  832SOL    HW2 3396   4.529   1.206   4.006
  833SOL     OW 3397   1.478   3.716   6.581
  833SOL    HW1 3398   1.392   3.731   6.532
  833SOL    HW2 3399   1.468   3.741   6.677
  834SOL     OW 3400   4.870   3.424   0.261
  834SOL    HW1 3401   4.969   3.419   0.273
  834SOL    HW2 3402   4.826   3.428   0.351
  835SOL     OW 3403   1.744   0.590   5.206
  835SOL    HW1 3404   1.679   0.557   5.137
  835SOL    HW2 3405   1.731   0.538   5.290
  836SOL     OW 3406   3.238   1.521   5.531
  836SOL    HW1 3407   3.201   1.598   5.479
  836SOL    HW2 3408   3.324   1.491   5.490
  837SOL     OW 3409   1.344   0.277   1.333
  837SOL    HW1 3410   1.312   0.186   1.303
  837SOL    HW2 3411   1.277   0.346   1.305
  838SOL     OW 3412   2.266   5.974   4.502
  838SOL    HW1 3413   2.233   5.891   4.456
  838SOL    HW2 3414   2.214   6.052   4.469
  839SOL     OW 3415   2.567   1.429   1.194
  839SOL    HW1 3416   2.577   1.462   1.287
  839SOL    HW2 3417   2.608   1.494   1.130
  840SOL     OW 3418   6.171   5.593   6.981
  840SOL    HW1 3419   6.154   5.498   6.952
  840SOL    HW2 3420   6.084   5.639   6.995
  841SOL     OW 3421   3.895   5.881   6.420
  841SOL    HW1 3422   3.916   5.929   6.506
  841SOL    HW2 3423   3.899   5.782   6.436
  842SOL     OW 3424   3.150   6.327   0.004
  842SOL    HW1 3425   3.069   6.345   0.060
  842SOL    HW2 3426   3.170   6.229   0.006
  843SOL     OW 3427   2.579   2.048   1.987
  843SOL    HW1 3428   2.489   2.043   1.943
  843SOL    HW2 3429   2.645   1.998   1.931
  844SOL     OW 3430   0.375   6.809   1.187
  844SOL    HW1 3431   0.379   6.831   1.090
  844SOL    HW2 3432   0.300   6.860   1.230
  845SOL     OW 3433   4.864   2.442   3.362
  845SOL    HW1 3434   4.846   2.536   3.394
  845SOL    HW2 3435   4.787   2.410   3.308
  846SOL     OW 3436   2.839   0.763   6.333
  846SOL    HW1 3437   2.917   0.719   6.379
  846SOL    HW2 3438   2.870   0.847   6.289
  847SOL     OW 3439   1.993   3.377   2.088
  847SOL    HW1 3440   2.070   3.428   2.049
  847SOL    HW2 3441   1.909   3.401   2.040
  848SOL     OW 3442   6.757   6.713   5.526
  848SOL    HW1 3443   6.692   6.676   5.592
  848SOL    HW2 3444   6.783   6.806   5.551
  849SOL     OW 3445   6.222   3.936   6.985
  849SOL    HW1 3446   6.196   3.897   6.896
  849SOL    HW2 3447   6.167   3.893   0.034
  850SOL     OW 3448   0.525   0.047   4.937
  850SOL    HW1 3449   0.504   0.133   4.982
  850SOL    HW2 3450   0.579   0.065   4.854
  851SOL     OW 3451   6.526   2.785   0.110
  851SOL    HW1 3452   6.596   2.813   0.044
  851SOL    HW2 3453   6.460   2.724   0.066
  852SOL     OW 3454   0.411   4.919   0.589
  852SOL    HW1 3455   0.334   4.982   0.584
  852SOL    HW2 3456   0.379   4.831   0.623
  853SOL     OW 3457   1.870   4.104   6.134
  853SOL    HW1 3458   1.806   4.032   6.109
  853SOL    HW2 3459   1.933   4.071   6.204
  854SOL     OW 3460   5.498   6.774   0.269
  854SOL    HW1 3461   5.551   6.691   0.252
  854SOL    HW2 3462   5.557   6.843   0.312
  855SOL     OW 3463   5.937   0.197   0.443
  855SOL    HW1 3464   5.941   0.118   0.504
  855SOL    HW2 3465   5.853   0.248   0.460
  856SOL     OW 3466   1.303   6.652   5.687
  856SOL    HW1 3467   1.212   6.618   5.663
  856SOL    HW2 3468   1.355   6.578   5.730
  857SOL     OW 3469   6.828   5.299   2.142
  857SOL    HW1 3470   6.779   5.266   2.223
  857SOL    HW2 3471   6.846   5.397   2.151
  858SOL     OW 3472   3.129   3.607   0.935
  858SOL    HW1 3473   3.162   3.691   0.892
  858SOL    HW2 3474   3.042   3.580   0.894
  859SOL     OW 3475   5.369   5.995   5.419
  859SOL    HW1 3476   5.316   5.971   5.501
  859SOL    HW2 3477   5.350   5.929   5.346
  860SOL     OW 3478   5.577   2.884   6.547
  860SOL    HW1 3479   5.512   2.905   6.620
  860SOL    HW2 3480   5.536   2.903   6.458
  861SOL     OW 3481   2.363   5.681   3.267
  861SOL    HW1 3482   2.409   5.771   3.270
  861SOL    HW2 3483   2.269   5.693   3.236
  862SOL     OW 3484   2.056   5.149   3.574
  862SOL    HW1 3485   2.142   5.124   3.620
  862SOL    HW2 3486   2.036   5.245   3.592
  863SOL     OW 3487   6.206   0.903   5.966
  863SOL    HW1 3488   6.120   0.852   5.959
  863SOL    HW2 3489   6.252   0.879   6.051
  864SOL     OW 3490   4.321   0.076   5.031
  864SOL    HW1 3491   4.341   7.006   5.060
  864SOL    HW2 3492   4.258   0.075   4.954
  865SOL     OW 3493   1.743   6.998   5.650
  865SOL    HW1 3494   1.753   6.898   5.650
  865SOL    HW2 3495   1.646   7.021   5.640
  866SOL     OW 3496   3.655   6.879   1.111
  866SOL    HW1 3497   3.674   6.977   1.106
  866SOL    HW2 3498   3.620   6.857   1.202
  867SOL     OW 3499   5.457   3.025   0.362
  867SOL    HW1 3500   5.447   2.992   0.456
  867SOL    HW2 3501   5.418   3.116   0.355
  868SOL     OW 3502   0.305   2.059   2.692
  868SOL    HW1 3503   0.292   2.097   2.783
  868SOL    HW2 3504   0.222   2.075   2.637
  869SOL     OW 3505   6.633   3.407   3.586
  869SOL    HW1 3506   6.716   3.352   3.585
  869SOL    HW2 3507   6.644   3.486   3.525
  870SOL     OW 3508   3.852   4.266   1.201
  870SOL    HW1 3509   3.873   4.272   1.103
  870SOL    HW2 3510   3.927   4.222   1.249
  871SOL     OW 3511   5.445   2.399   4.207
  871SOL    HW1 3512   5.444   2.330   4.279
  871SOL    HW2 3513   5.508   2.473   4.231
  872SOL     OW 3514   0.440   2.110   4.678
  872SOL    HW1 3515   0.467   2.092   4.772
  872SOL    HW2 3516   0.460   2.205   4.655
  873SOL     OW 3517   3.939   6.299   5.633
  873SOL    HW1 3518   3.910   6.238   5.559
  873SOL    HW2 3519   3.971   6.244   5.710
  874SOL     OW 3520   5.997   4.103   0.288
  874SOL    HW1 3521   6.052   4.173   0.243
  874SOL    HW2 3522   5.952   4.141   0.369
  875SOL     OW 3523   4.910   5.457   0.686
  875SOL    HW1 3524   4.855   5.426   0.608
  875SOL    HW2 3525   4.874   5.417   0.770
  876SOL     OW 3526   0.533   5.249   1.935
  876SOL    HW1 3527   0.482   5.172   1.972
  876SOL    HW2 3528   0.471   5.326   1.920
  877SOL     OW 3529   3.499   4.113   5.920
  877SOL    HW1 3530   3.513   4.014   5.923
  877SOL    HW2 3531   3.401   4.132   5.915
  878SOL     OW 3532   4.564   7.022   4.161
  878SOL    HW1 3533   4.604   0.091   4.163
  878SOL    HW2 3534   4.635   6.956   4.135
  879SOL     OW 3535   3.597   0.710   1.506
  879SOL    HW1 3536   3.657   0.723   1.585
  879SOL    HW2 3537   3.523   0.648   1.530
  880SOL     OW 3538   3.762   4.049   4.091
  880SOL    HW1 3539   3.759   4.057   4.191
  880SOL    HW2 3540   3.751   3.953   4.064
  881SOL     OW 3541   4.957   3.072   5.126
  881SOL    HW1 3542   5.022   3.048   5.199
  881SOL    HW2 3543   4.931   3.168   5.135
  882SOL     OW 3544   0.837   3.186   3.963
  882SOL    HW1 3545   0.749   3.142   3.982
  882SOL    HW2 3546   0.911   3.120   3.975
  883SOL     OW 3547   3.328   0.972   1.704
  883SOL    HW1 3548   3.233   0.940   1.697
  883SOL    HW2 3549   3.349   1.031   1.626
  884SOL     OW 3550   5.452   3.737   5.877
  884SOL    HW1 3551   5.379   3.688   5.925
  884SOL    HW2 3552   5.412   3.812   5.825
  885SOL     OW 3553   3.161   1.095   5.239
  885SOL    HW1 3554   3.187   1.018   5.297
  885SOL    HW2 3555   3.229   1.167   5.246
  886SOL     OW 3556   3.498   0.053   0.273
  886SOL    HW1 3557   3.551   6.993   0.259
  886SOL    HW2 3558   3.498   0.076   0.371
  887SOL     OW 3559   3.828   6.877   3.572
  887SOL    HW1 3560   3.922   6.875   3.606
  887SOL    HW2 3561   3.782   6.959   3.605
  888SOL     OW 3562   6.666   6.631   3.417
  888SOL    HW1 3563   6.701   6.677   3.336
  888SOL    HW2 3564   6.736   6.570   3.454
  889SOL     OW 3565   6.830   3.196   0.787
  889SOL    HW1 3566   6.829   3.125   0.716
  889SOL    HW2 3567   6.845   3.285   0.745
  890SOL     OW 3568   1.282   5.175   2.912
  890SOL    HW1 3569   1.332   5.244   2.965
  890SOL    HW2 3570   1.312   5.179   2.816
  891SOL     OW 3571   5.699   4.650   0.689
  891SOL    HW1 3572   5.798   4.640   0.677
  891SOL    HW2 3573   5.675   4.636   0.785
  892SOL     OW 3574   2.635   3.713   5.572
  892SOL    HW1 3575   2.548   3.676   5.539
  892SOL    HW2 3576   2.665   3.786   5.511
  893SOL     OW 3577   1.948   6.391   3.033
  893SOL    HW1 3578   1.933   6.350   3.122
  893SOL    HW2 3579   1.862   6.429   2.998
  894SOL     OW 3580   0.945   2.983   1.831
  894SOL    HW1 3581   0.992   2.934   1.757
  894SOL    HW2 3582   0.967   3.081   1.825
  895SOL     OW 3583   0.961   5.059   3.792
  895SOL    HW1 3584   0.897   4.998   3.839
  895SOL    HW2 3585   1.004   5.010   3.716
  896SOL     OW 3586   5.226   5.099   1.047
  896SOL    HW1 3587   5.284   5.034   1.096
  896SOL    HW2 3588   5.176   5.156   1.113
  897SOL     OW 3589   3.973   1.399   6.951
  897SOL    HW1 3590   3.883   1.389   6.994
  897SOL    HW2 3591   4.012   1.308   6.933
  898SOL     OW 3592   3.258   6.345   2.900
  898SOL    HW1 3593   3.237   6.428   2.952
  898SOL    HW2 3594   3.348   6.353   2.858
  899SOL     OW 3595   0.305   6.738   0.174
  899SOL    HW1 3596   0.397   6.705   0.195
  899SOL    HW2 3597   0.279   6.808   0.241
  900SOL     OW 3598   5.932   7.019   0.647
  900SOL    HW1 3599   6.008   6.953   0.648
  900SOL    HW2 3600   5.869   6.997   0.721
  901SOL     OW 3601   2.364   6.885   3.182
  901SOL    HW1 3602   2.373   6.889   3.083
  901SOL    HW2 3603   2.441   6.933   3.225
  902SOL     OW 3604   0.440   2.025   0.603
  902SOL    HW1 3605   0.501   2.008   0.526
  902SOL    HW2 3606   0.403   1.938   0.636
  903SOL     OW 3607   0.174   2.436   6.974
  903SOL    HW1 3608   0.238   2.419   6.899
  903SOL    HW2 3609   0.163   2.353   0.005
  904SOL     OW 3610   2.397   2.263   2.783
  904SOL    HW1 3611   2.460   2.334   2.753
  904SOL    HW2 3612   2.444   2.175   2.784
  905SOL     OW 3613   5.031   1.773   6.602
  905SOL    HW1 3614   4.972   1.778   6.682
  905SOL    HW2 3615   5.082   1.859   6.593
  906SOL     OW 3616   0.116   1.888   6.487
  906SOL    HW1 3617   0.049   1.932   6.427
  906SOL    HW2 3618   0.081   1.888   6.580
  907SOL     OW 3619   5.552   3.377   0.589
  907SOL    HW1 3620   5.652   3.376   0.588
  907SOL    HW2 3621   5.518   3.297   0.638
  908SOL     OW 3622   2.816   4.813   2.738
  908SOL    HW1 3623   2.895   4.830   2.679
  908SOL    HW2 3624   2.831   4.857   2.827
  909SOL     OW 3625   4.454   5.881   1.454
  909SOL    HW1 3626   4.472   5.933   1.538
  909SOL    HW2 3627   4.541   5.858   1.410
  910SOL     OW 3628   3.167   1.985   0.969
  910SOL    HW1 3629   3.195   2.064   1.025
  910SOL    HW2 3630   3.244   1.953   0.915
  911SOL     OW 3631   0.497   6.312   6.520
  911SOL    HW1 3632   0.473   6.260   6.438
  911SOL    HW2 3633   0.487   6.253   6.600
  912SOL     OW 3634   6.017   2.363   2.985
  912SOL    HW1 3635   6.062   2.409   3.062
  912SOL    HW2 3636   6.074   2.286   2.955
  913SOL     OW 3637   4.409   6.835   3.091
  913SOL    HW1 3638   4.484   6.833   3.025
  913SOL    HW2 3639   4.436   6.889   3.171
  914SOL     OW 3640   2.495   6.806   6.017
  914SOL    HW1 3641   2.453   6.744   6.084
  914SOL    HW2 3642   2.575   6.849   6.059
  915SOL     OW 3643   6.110   4.404   6.794
  915SOL    HW1 3644   6.104   4.317   6.746
  915SOL    HW2 3645   6.023   4.424   6.839
  916SOL     OW 3646   1.758   2.573   1.775
  916SOL    HW1 3647   1.777   2.583   1.677
  916SOL    HW2 3648   1.707   2.489   1.791
  917SOL     OW 3649   0.499   6.771   0.654
  917SOL    HW1 3650   0.512   6.688   0.708
  917SOL    HW2 3651   0.504   6.749   0.556
  918SOL     OW 3652   3.353   0.735   0.284
  918SOL    HW1 3653   3.431   0.797   0.295
  918SOL    HW2 3654   3.372   0.670   0.210
  919SOL     OW 3655   5.635   1.764   2.568
  919SOL    HW1 3656   5.637   1.678   2.619
  919SOL    HW2 3657   5.678   1.751   2.479
  920SOL     OW 3658   2.412   4.001   1.661
  920SOL    HW1 3659   2.405   3.901   1.663
  920SOL    HW2 3660   2.357   4.036   1.585
  921SOL     OW 3661   4.826   6.021   4.256
  921SOL    HW1 3662   4.727   6.024   4.242
  921SOL    HW2 3663   4.858   6.111   4.287
  922SOL     OW 3664   4.066   3.818   4.556
  922SOL    HW1 3665   4.086   3.811   4.459
  922SOL    HW2 3666   4.075   3.728   4.599
  923SOL     OW 3667   2.070   3.364   6.804
  923SOL    HW1 3668   2.169   3.368   6.793
  923SOL    HW2 3669   2.026   3.381   6.715
  924SOL     OW 3670   6.604   3.800   1.556
  924SOL    HW1 3671   6.674   3.814   1.486
  924SOL    HW2 3672   6.516   3.832   1.522
  925SOL     OW 3673   6.942   2.242   0.092
  925SOL    HW1 3674   0.013   2.265   0.114
  925SOL    HW2 3675   6.908   2.175   0.160
  926SOL     OW 3676   6.672   0.504   1.368
  926SOL    HW1 3677   6.715   0.592   1.388
  926SOL    HW2 3678   6.642   0.502   1.272
  927SOL     OW 3679   5.412   3.543   3.576
  927SOL    HW1 3680   5.448   3.475   3.512
  927SOL    HW2 3681   5.487   3.597   3.613
  928SOL     OW 3682   2.036   6.014   0.392
  928SOL    HW1 3683   2.035   6.114   0.395
  928SOL    HW2 3684   2.035   5.978   0.486
  929SOL     OW 3685   0.070   0.892   7.019
  929SOL    HW1 3686   6.997   0.872   7.001
  929SOL    HW2 3687   0.077   0.966   0.062
  930SOL     OW 3688   5.086   6.234   6.388
  930SOL    HW1 3689   5.081   6.196   6.480
  930SOL    HW2 3690   5.072   6.161   6.321
  931SOL     OW 3691   6.764   1.479   4.832
  931SOL    HW1 3692   6.681   1.436   4.869
  931SOL    HW2 3693   6.798   1.425   4.755
  932SOL     OW 3694   2.218   1.970   2.768
  932SOL    HW1 3695   2.185   1.935   2.680
  932SOL    HW2 3696   2.316   1.954   2.776
  933SOL     OW 3697   1.426   5.370   3.111
  933SOL    HW1 3698   1.420   5.461   3.152
  933SOL    HW2 3699   1.475   5.308   3.172
  934SOL     OW 3700   2.671   5.665   6.111
  934SOL    HW1 3701   2.710   5.616   6.189
  934SOL    HW2 3702   2.745   5.707   6.058
  935SOL     OW 3703   5.402   4.355   3.859
  935SOL    HW1 3704   5.456   4.435   3.833
  935SOL    HW2 3705   5.360   4.316   3.777
  936SOL     OW 3706   0.605   6.429   6.040
  936SOL    HW1 3707   0.506   6.418   6.048
  936SOL    HW2 3708   0.625   6.517   5.997
  937SOL     OW 3709   5.743   1.668   5.776
  937SOL    HW1 3710   5.739   1.664   5.876
  937SOL    HW2 3711   5.708   1.756   5.745
  938SOL     OW 3712   6.579   5.391   4.600
  938SOL    HW1 3713   6.500   5.336   4.625
  938SOL    HW2 3714   6.573   5.416   4.503
  939SOL     OW 3715   7.023   6.743   3.850
  939SOL    HW1 3716   0.081   6.695   3.818
  939SOL    HW2 3717   7.015   6.830   3.803
  940SOL     OW 3718   0.532   3.779   0.589
  940SOL    HW1 3719   0.572   3.805   0.502
  940SOL    HW2 3720   0.583   3.821   0.664
  941SOL     OW 3721   5.146   0.265   6.934
  941SOL    HW1 3722   5.216   0.263   6.862
  941SOL    HW2 3723   5.176   0.325   7.008
  942SOL     OW 3724   6.049   6.705   1.798
  942SOL    HW1 3725   6.042   6.804   1.811
  942SOL    HW2 3726   6.104   6.666   1.872
  943SOL     OW 3727   1.452   4.741   2.670
  943SOL    HW1 3728   1.475   4.652   2.631
  943SOL    HW2 3729   1.509   4.812   2.629
  944SOL     OW 3730   0.799   5.679   4.948
  944SOL    HW1 3731   0.784   5.750   5.017
  944SOL    HW2 3732   0.848   5.718   4.870
  945SOL     OW 3733   0.264   4.962   5.434
  945SOL    HW1 3734   0.256   4.944   5.336
  945SOL    HW2 3735   0.346   4.918   5.470
  946SOL     OW 3736   4.628   4.847   4.373
  946SOL    HW1 3737   4.676   4.896   4.300
  946SOL    HW2 3738   4.550   4.901   4.404
  947SOL     OW 3739   3.411   3.154   3.921
  947SOL    HW1 3740   3.343   3.081   3.926
  947SOL    HW2 3741   3.456   3.164   4.009
  948SOL     OW 3742   4.619   1.204   2.943
  948SOL    HW1 3743   4.668   1.227   2.859
  948SOL    HW2 3744   4.595   1.107   2.942
  949SOL     OW 3745   2.928   6.139   0.471
  949SOL    HW1 3746   2.993   6.072   0.507
  949SOL    HW2 3747   2.978   6.220   0.441
  950SOL     OW 3748   6.049   5.576   2.503
  950SOL    HW1 3749   5.999   5.649   2.549
  950SOL    HW2 3750   6.019   5.570   2.408
  951SOL     OW 3751   1.178   0.264   3.500
  951SOL    HW1 3752   1.242   0.336   3.473
  951SOL    HW2 3753   1.226   0.195   3.555
  952SOL     OW 3754   4.045   2.225   2.687
  952SOL    HW1 3755   4.080   2.319   2.680
  952SOL    HW2 3756   4.002   2.199   2.600
  953SOL     OW 3757   5.928   5.706   4.929
  953SOL    HW1 3758   5.876   5.737   5.009
  953SOL    HW2 3759   5.876   5.636   4.881
  954SOL     OW 3760   3.639   6.159   2.088
  954SOL    HW1 3761   3.550   6.132   2.124
  954SOL    HW2 3762   3.647   6.128   1.993
  955SOL     OW 3763   2.095   4.389   6.935
  955SOL    HW1 3764   2.020   4.324   6.945
  955SOL    HW2 3765   2.058   4.481   6.924
  956SOL     OW 3766   6.754   0.838   1.647
  956SOL    HW1 3767   6.748   0.793   1.558
  956SOL    HW2 3768   6.846   0.875   1.660
  957SOL     OW 3769   6.034   2.137   1.561
  957SOL    HW1 3770   5.940   2.149   1.591
  957SOL    HW2 3771   6.071   2.052   1.599
  958SOL     OW 3772   4.044   6.319   1.938
  958SOL    HW1 3773   4.129   6.372   1.932
  958SOL    HW2 3774   4.057   6.232   1.890
  959SOL     OW 3775   3.263   6.733   4.795
  959SOL    HW1 3776   3.291   6.824   4.825
  959SOL    HW2 3777   3.324   6.701   4.723
  960SOL     OW 3778   1.613   0.151   1.368
  960SOL    HW1 3779   1.659   0.223   1.421
  960SOL    HW2 3780   1.527   0.186   1.332
  961SOL     OW 3781   4.110   6.676   3.188
  961SOL    HW1 3782   4.030   6.620   3.208
  961SOL    HW2 3783   4.146   6.654   3.098
  962SOL     OW 3784   6.559   0.923   4.505
  962SOL    HW1 3785   6.567   1.016   4.468
  962SOL    HW2 3786   6.627   0.864   4.460
  963SOL     OW 3787   4.173   0.870   0.486
  963SOL    HW1 3788   4.094   0.846   0.543
  963SOL    HW2 3789   4.245   0.909   0.544
  964SOL     OW 3790   4.601   5.142   5.447
  964SOL    HW1 3791   4.595   5.049   5.412
  964SOL    HW2 3792   4.681   5.187   5.409
  965SOL     OW 3793   6.291   1.751   2.267
  965SOL    HW1 3794   6.224   1.823   2.284
  965SOL    HW2 3795   6.354   1.780   2.195
  966SOL     OW 3796   5.201   3.002   3.521
  966SOL    HW1 3797   5.171   3.078   3.464
  966SOL    HW2 3798   5.236   3.038   3.608
  967SOL     OW 3799   3.013   4.944   0.107
  967SOL    HW1 3800   3.009   4.865   0.167
  967SOL    HW2 3801   3.102   4.989   0.117
  968SOL     OW 3802   3.803   6.525   1.428
  968SOL    HW1 3803   3.860   6.461   1.481
  968SOL    HW2 3804   3.811   6.617   1.467
  969SOL     OW 3805   2.526   4.938   5.432
  969SOL    HW1 3806   2.435   4.928   5.391
  969SOL    HW2 3807   2.574   5.015   5.389
  970SOL     OW 3808   5.566   0.511   5.900
  970SOL    HW1 3809   5.470   0.538   5.893
  970SOL    HW2 3810   5.580   0.424   5.852
  971SOL     OW 3811   0.128   3.340   2.221
  971SOL    HW1 3812   0.092   3.418   2.271
  971SOL    HW2 3813   0.184   3.372   2.144
  972SOL     OW 3814   6.882   2.634   1.966
  972SOL    HW1 3815   6.782   2.637   1.963
  972SOL    HW2 3816   6.919   2.663   1.878
  973SOL     OW 3817   0.938   4.993   7.001
  973SOL    HW1 3818   0.965   5.013   6.907
  973SOL    HW2 3819   0.898   5.075   0.019
  974SOL     OW 3820   0.535   5.429   2.301
  974SOL    HW1 3821   0.535   5.391   2.393
  974SOL    HW2 3822   0.624   5.415   2.258
  975SOL     OW 3823   2.553   6.969   0.255
  975SOL    HW1 3824   2.546   6.949   0.352
  975SOL    HW2 3825   2.479   0.008   0.228
  976SOL     OW 3826   0.083   3.697   1.219
  976SOL    HW1 3827   0.167   3.648   1.196
  976SOL    HW2 3828   0.072   3.699   1.319
  977SOL     OW 3829   0.411   1.216   2.070
  977SOL    HW1 3830   0.457   1.231   1.983
  977SOL    HW2 3831   0.314   1.235   2.060
  978SOL     OW 3832   5.269   1.387   0.882
  978SOL    HW1 3833   5.311   1.347   0.963
  978SOL    HW2 3834   5.337   1.442   0.833
  979SOL     OW 3835   0.629   2.900   6.519
  979SOL    HW1 3836   0.611   2.856   6.431
  979SOL    HW2 3837   0.567   2.978   6.529
  980SOL     OW 3838   4.896   1.245   4.911
  980SOL    HW1 3839   4.823   1.283   4.855
  980SOL    HW2 3840   4.959   1.193   4.854
  981SOL     OW 3841   0.664   0.741   4.561
  981SOL    HW1 3842   0.682   0.751   4.463
  981SOL    HW2 3843   0.649   0.830   4.602
  982SOL     OW 3844   0.956   1.712   5.324
  982SOL    HW1 3845   0.977   1.804   5.358
  982SOL    HW2 3846   1.015   1.645   5.369
  983SOL     OW 3847   6.855   3.363   2.643
  983SOL    HW1 3848   6.942   3.328   2.678
  983SOL    HW2 3849   6.781   3.335   2.704
  984SOL     OW 3850   1.603   2.365   3.130
  984SOL    HW1 3851   1.612   2.375   3.229
  984SOL    HW2 3852   1.611   2.269   3.105
  985SOL     OW 3853   6.548   4.054   4.566
  985SOL    HW1 3854   6.575   3.964   4.600
  985SOL    HW2 3855   6.626   4.099   4.523
  986SOL     OW 3856   4.382   5.490   1.353
  986SOL    HW1 3857   4.368   5.437   1.437
  986SOL    HW2 3858   4.308   5.557   1.343
  987SOL     OW 3859   5.734   6.283   2.369
  987SOL    HW1 3860   5.692   6.354   2.313
  987SOL    HW2 3861   5.673   6.204   2.374
  988SOL     OW 3862   3.296   4.106   2.174
  988SOL    HW1 3863   3.210   4.128   2.129
  988SOL    HW2 3864   3.282   4.098   2.273
  989SOL     OW 3865   6.598   1.764   0.382
  989SOL    HW1 3866   6.512   1.726   0.347
  989SOL    HW2 3867   6.579   1.853   0.425
  990SOL     OW 3868   3.455   0.109   2.665
  990SOL    HW1 3869   3.491   0.197   2.694
  990SOL    HW2 3870   3.503   0.079   2.582
  991SOL     OW 3871   0.343   4.357   3.798
  991SOL    HW1 3872   0.265   4.341   3.858
  991SOL    HW2 3873   0.346   4.454   3.771
  992SOL     OW 3874   0.950   3.314   1.345
  992SOL    HW1 3875   1.030   3.329   1.404
  992SOL    HW2 3876   0.945   3.387   1.277
  993SOL     OW 3877   0.552   3.911   0.838
  993SOL    HW1 3878   0.589   4.003   0.822
  993SOL    HW2 3879   0.601   3.869   0.915
  994SOL     OW 3880   3.735   5.319   1.428
  994SOL    HW1 3881   3.670   5.255   1.468
  994SOL    HW2 3882   3.703   5.347   1.338
  995SOL     OW 3883   4.149   3.134   5.836
  995SOL    HW1 3884   4.160   3.038   5.810
  995SOL    HW2 3885   4.133   3.189   5.754
  996SOL     OW 3886   3.672   5.377   5.087
  996SOL    HW1 3887   3.578   5.402   5.064
  996SOL    HW2 3888   3.681   5.371   5.186
  997SOL     OW 3889   1.282   6.988   3.324
  997SOL    HW1 3890   1.311   0.058   3.344
  997SOL    HW2 3891   1.322   6.925   3.390
  998SOL     OW 3892   6.630   7.016   6.415
  998SOL    HW1 3893   6.610   0.085   6.381
  998SOL    HW2 3894   6.716   7.018   6.467
  999SOL     OW 3895   4.874   3.894   1.603
  999SOL    HW1 3896   4.823   3.815   1.637
  999SOL    HW2 3897   4.936   3.865   1.530
 1000SOL     OW 3898   4.237   1.388   1.520
 1000SOL    HW1 3899   4.238   1.416   1.424
 1000SOL    HW2 3900   4.165   1.319   1.534
 1001SOL     OW 3901   3.574   5.852   2.383
 1001SOL    HW1 3902   3.621   5.772   2.345
 1001SOL    HW2 3903   3.477   5.848   2.358
 1002SOL     OW 3904   5.439   1.748   1.154
 1002SOL    HW1 3905   5.380   1.775   1.078
 1002SOL    HW2 3906   5.532   1.778   1.136
 1003SOL     OW 3907   1.892   6.084   2.715
 1003SOL    HW1 3908   1.935   6.039   2.637
 1003SOL    HW2 3909   1.795   6.057   2.719
 1004SOL     OW 3910   0.060   1.274   2.521
 1004SOL    HW1 3911   6.994   1.233   2.505
 1004SOL    HW2 3912   0.102   1.299   2.434
 1005SOL     OW 3913   1.507   4.276   4.172
 1005SOL    HW1 3914   1.559   4.191   4.176
 1005SOL    HW2 3915   1.548   4.337   4.104
 1006SOL     OW 3916   2.106   4.165   0.363
 1006SOL    HW1 3917   2.051   4.090   0.327
 1006SOL    HW2 3918   2.109   4.240   0.297
 1007SOL     OW 3919   4.652   1.306   6.079
 1007SOL    HW1 3920   4.726   1.293   6.013
 1007SOL    HW2 3921   4.689   1.342   6.165
 1008SOL     OW 3922   0.077   3.540   5.272
 1008SOL    HW1 3923   0.141   3.557   5.197
 1008SOL    HW2 3924   0.074   3.442   5.293
 1009SOL     OW 3925   6.258   4.504   5.863
 1009SOL    HW1 3926   6.328   4.570   5.835
 1009SOL    HW2 3927   6.222   4.529   5.952
 1010SOL     OW 3928   2.912   2.412   1.237
 1010SOL    HW1 3929   2.891   2.504   1.202
 1010SOL    HW2 3930   2.930   2.350   1.161
 1011SOL     OW 3931   0.533   5.732   3.515
 1011SOL    HW1 3932   0.482   5.801   3.464
 1011SOL    HW2 3933   0.470   5.675   3.567
 1012SOL     OW 3934   6.722   6.899   2.615
 1012SOL    HW1 3935   6.655   6.973   2.624
 1012SOL    HW2 3936   6.716   6.839   2.695
 1013SOL     OW 3937   0.035   1.292   6.404
 1013SOL    HW1 3938   0.092   1.313   6.484
 1013SOL    HW2 3939   0.057   1.355   6.330
 1014SOL     OW 3940   0.794   3.740   4.682
 1014SOL    HW1 3941   0.791   3.660   4.742
 1014SOL    HW2 3942   0.788   3.711   4.587
 1015SOL     OW 3943   2.709   0.466   6.041
 1015SOL    HW1 3944   2.665   0.524   5.971
 1015SOL    HW2 3945   2.696   0.507   6.131
 1016SOL     OW 3946   4.557   4.896   1.485
 1016SOL    HW1 3947   4.492   4.821   1.473
 1016SOL    HW2 3948   4.637   4.864   1.537
 1017SOL     OW 3949   2.986   1.577   1.077
 1017SOL    HW1 3950   3.058   1.627   1.124
 1017SOL    HW2 3951   2.973   1.487   1.121
 1018SOL     OW 3952   0.394   4.826   3.836
 1018SOL    HW1 3953   0.379   4.731   3.807
 1018SOL    HW2 3954   0.418   4.881   3.756
 1019SOL     OW 3955   6.969   5.148   0.498
 1019SOL    HW1 3956   6.979   5.108   0.407
 1019SOL    HW2 3957   6.904   5.095   0.551
 1020SOL     OW 3958   6.000   0.980   1.271
 1020SOL    HW1 3959   6.026   1.059   1.215
 1020SOL    HW2 3960   6.080   0.947   1.321
 1021SOL     OW 3961   6.702   6.314   2.099
 1021SOL    HW1 3962   6.706   6.281   2.005
 1021SOL    HW2 3963   6.647   6.251   2.154
 1022SOL     OW 3964   2.418   5.835   6.024
 1022SOL    HW1 3965   2.508   5.799   6.048
 1022SOL    HW2 3966   2.365   5.849   6.108
 1023SOL     OW 3967   0.307   0.816   2.709
 1023SOL    HW1 3968   0.220   0.857   2.738
 1023SOL    HW2 3969   0.294   0.717   2.698
 1024SOL     OW 3970   0.655   1.677   4.197
 1024SOL    HW1 3971   0.656   1.614   4.274
 1024SOL    HW2 3972   0.655   1.625   4.112
 1025SOL     OW 3973   4.691   2.994   0.320
 1025SOL    HW1 3974   4.631   3.068   0.351
 1025SOL    HW2 3975   4.749   3.027   0.246
 1026SOL     OW 3976   2.683   2.571   1.588
 1026SOL    HW1 3977   2.775   2.603   1.610
 1026SOL    HW2 3978   2.646   2.520   1.666
 1027SOL     OW 3979   1.920   6.913   1.920
 1027SOL    HW1 3980   1.913   6.904   2.020
 1027SOL    HW2 3981   1.848   6.973   1.887
 1028SOL     OW 3982   1.115   6.391   2.988
 1028SOL    HW1 3983   1.196   6.429   3.032
 1028SOL    HW2 3984   1.078   6.456   2.922
 1029SOL     OW 3985   1.275   1.956   6.002
 1029SOL    HW1 3986   1.365   1.930   6.037
 1029SOL    HW2 3987   1.284   1.990   5.908
 1030SOL     OW 3988   3.562   3.065   1.599
 1030SOL    HW1 3989   3.622   3.015   1.537
 1030SOL    HW2 3990   3.581   3.038   1.694
 1031SOL     OW 3991   4.496   3.144   1.335
 1031SOL    HW1 3992   4.409   3.096   1.351
 1031SOL    HW2 3993   4.553   3.136   1.417
 1032SOL     OW 3994   2.095   1.263   5.465
 1032SOL    HW1 3995   2.138   1.177   5.490
 1032SOL    HW2 3996   2.052   1.303   5.546
 1033SOL     OW 3997   1.690   5.724   2.125
 1033SOL    HW1 3998   1.635   5.648   2.158
 1033SOL    HW2 3999   1.630   5.793   2.083
 1034SOL     OW 4000   1.554   6.240   4.307
 1034SOL    HW1 4001   1.546   6.146   4.272
 1034SOL    HW2 4002   1.512   6.303   4.242
 1035SOL     OW 4003   0.123   2.242   6.387
 1035SOL    HW1 4004   0.128   2.224   6.485
 1035SOL    HW2 4005   0.087   2.334   6.372
 1036SOL     OW 4006   4.063   0.961   1.719
 1036SOL    HW1 4007   4.050   0.870   1.678
 1036SOL    HW2 4008   4.056   1.030   1.648
 1037SOL     OW 4009   1.469   2.235   3.381
 1037SOL    HW1 4010   1.501   2.153   3.333
 1037SOL    HW2 4011   1.372   2.249   3.362
 1038SOL     OW 4012   1.574   1.068   5.735
 1038SOL    HW1 4013   1.508   1.141   5.754
 1038SOL    HW2 4014   1.598   1.069   5.638
 1039SOL     OW 4015   3.403   3.458   4.199
 1039SOL    HW1 4016   3.463   3.505   4.134
 1039SOL    HW2 4017   3.432   3.363   4.208
 1040SOL     OW 4018   5.250   1.105   2.296
 1040SOL    HW1 4019   5.309   1.157   2.233
 1040SOL    HW2 4020   5.292   1.102   2.386
 1041SOL     OW 4021   6.986   6.533   3.273
 1041SOL    HW1 4022   0.012   6.558   3.357
 1041SOL    HW2 4023   6.968   6.435   3.273
 1042SOL     OW 4024   4.716   5.096   2.968
 1042SOL    HW1 4025   4.756   5.160   3.033
 1042SOL    HW2 4026   4.619   5.083   2.989
 1043SOL     OW 4027   4.128   2.210   3.606
 1043SOL    HW1 4028   4.185   2.273   3.658
 1043SOL    HW2 4029   4.129   2.237   3.509
 1044SOL     OW 4030   6.089   5.695   1.447
 1044SOL    HW1 4031   6.151   5.627   1.408
 1044SOL    HW2 4032   6.097   5.781   1.397
 1045SOL     OW 4033   3.444   0.530   3.020
 1045SOL    HW1 4034   3.459   0.582   3.104
 1045SOL    HW2 4035   3.378   0.578   2.962
 1046SOL     OW 4036   1.631   1.512   0.371
 1046SOL    HW1 4037   1.690   1.574   0.422
 1046SOL    HW2 4038   1.685   1.463   0.302
 1047SOL     OW 4039   3.059   0.698   4.101
 1047SOL    HW1 4040   3.113   0.669   4.022
 1047SOL    HW2 4041   2.988   0.761   4.070
 1048SOL     OW 4042   3.552   5.468   2.495
 1048SOL    HW1 4043   3.638   5.437   2.535
 1048SOL    HW2 4044   3.492   5.502   2.567
 1049SOL     OW 4045   5.094   6.976   3.863
 1049SOL    HW1 4046   5.138   0.009   3.793
 1049SOL    HW2 4047   5.041   0.011   3.925
 1050SOL     OW 4048   3.657   5.851   2.668
 1050SOL    HW1 4049   3.612   5.863   2.579
 1050SOL    HW2 4050   3.600   5.890   2.740
 1051SOL     OW 4051   0.299   6.006   6.949
 1051SOL    HW1 4052   0.222   6.022   7.010
 1051SOL    HW2 4053   0.383   5.995   7.002
 1052SOL     OW 4054   5.050   0.971   5.135
 1052SOL    HW1 4055   5.081   1.007   5.223
 1052SOL    HW2 4056   5.007   0.882   5.149
 1053SOL     OW 4057   5.665   3.957   2.802
 1053SOL    HW1 4058   5.708   4.047   2.792
 1053SOL    HW2 4059   5.669   3.908   2.715
 1054SOL     OW 4060   3.032   2.964   0.585
 1054SOL    HW1 4061   3.129   2.945   0.576
 1054SOL    HW2 4062   3.019   3.048   0.637
 1055SOL     OW 4063   4.472   6.232   5.826
 1055SOL    HW1 4064   4.424   6.223   5.739
 1055SOL    HW2 4065   4.477   6.328   5.852
 1056SOL     OW 4066   0.689   3.805   0.356
 1056SOL    HW1 4067   0.670   3.776   0.262
 1056SOL    HW2 4068   0.783   3.838   0.363
 1057SOL     OW 4069   4.067   2.239   1.502
 1057SOL    HW1 4070   3.984   2.184   1.509
 1057SOL    HW2 4071   4.082   2.287   1.588
 1058SOL     OW 4072   4.887   2.747   3.409
 1058SOL    HW1 4073   4.834   2.816   3.359
 1058SOL    HW2 4074   4.827   2.699   3.473
 1059SOL     OW 4075   2.164   6.807   2.341
 1059SOL    HW1 4076   2.172   6.893   2.291
 1059SOL    HW2 4077   2.067   6.780   2.345
 1060SOL     OW 4078   0.438   5.037   4.357
 1060SOL    HW1 4079   0.408   5.074   4.269
 1060SOL    HW2 4080   0.361   4.993   4.404
 1061SOL     OW 4081   6.484   3.775   6.882
 1061SOL    HW1 4082   6.566   3.818   6.919
 1061SOL    HW2 4083   6.455   3.824   6.800
 1062SOL     OW 4084   3.774   6.152   5.302
 1062SOL    HW1 4085   3.724   6.096   5.236
 1062SOL    HW2 4086   3.792   6.242   5.262
 1063SOL     OW 4087   0.147   6.993   0.342
 1063SOL    HW1 4088   0.187   0.045   0.395
 1063SOL    HW2 4089   0.153   7.015   0.244
 1064SOL     OW 4090   0.550   4.434   1.655
 1064SOL    HW1 4091   0.459   4.394   1.651
 1064SOL    HW2 4092   0.561   4.485   1.740
 1065SOL     OW 4093   3.251   0.632   3.903
 1065SOL    HW1 4094   3.242   0.715   3.847
 1065SOL    HW2 4095   3.338   0.588   3.884
 1066SOL     OW 4096   4.770   6.859   2.392
 1066SOL    HW1 4097   4.752   6.949   2.432
 1066SOL    HW2 4098   4.796   6.870   2.296
 1067SOL     OW 4099   2.354   0.894   6.738
 1067SOL    HW1 4100   2.438   0.894   6.683
 1067SOL    HW2 4101   2.320   0.988   6.748
 1068SOL     OW 4102   5.782   3.834   1.182
 1068SOL    HW1 4103   5.803   3.840   1.279
 1068SOL    HW2 4104   5.823   3.751   1.144
 1069SOL     OW 4105   5.189   5.421   0.816
 1069SOL    HW1 4106   5.100   5.383   0.791
 1069SOL    HW2 4107   5.251   5.413   0.738
 1070SOL     OW 4108   2.389   6.910   2.595
 1070SOL    HW1 4109   2.426   6.976   2.529
 1070SOL    HW2 4110   2.359   6.828   2.546
 1071SOL     OW 4111   1.441   2.014   4.483
 1071SOL    HW1 4112   1.382   2.074   4.430
 1071SOL    HW2 4113   1.392   1.983   4.564
 1072SOL     OW 4114   2.264   1.115   1.960
 1072SOL    HW1 4115   2.360   1.141   1.954
 1072SOL    HW2 4116   2.221   1.161   2.038
 1073SOL     OW 4117   5.544   1.804   3.050
 1073SOL    HW1 4118   5.598   1.857   3.116
 1073SOL    HW2 4119   5.544   1.851   2.962
 1074SOL     OW 4120   2.728   4.995   1.950
 1074SOL    HW1 4121   2.693   4.925   1.887
 1074SOL    HW2 4122   2.763   4.951   2.033
 1075SOL     OW 4123   6.242   1.378   3.791
 1075SOL    HW1 4124   6.143   1.367   3.803
 1075SOL    HW2 4125   6.278   1.439   3.862
 1076SOL     OW 4126   1.002   2.959   5.242
 1076SOL    HW1 4127   1.063   2.968   5.320
 1076SOL    HW2 4128   0.942   2.880   5.255
 1077SOL     OW 4129   0.046   6.739   0.433
 1077SOL    HW1 4130   0.114   6.682   0.478
 1077SOL    HW2 4131   0.089   6.824   0.403
 1078SOL     OW 4132   6.211   0.439   3.157
 1078SOL    HW1 4133   6.234   0.425   3.253
 1078SOL    HW2 4134   6.295   0.452   3.104
 1079SOL     OW 4135   1.729   4.731   2.059
 1079SOL    HW1 4136   1.769   4.661   1.999
 1079SOL    HW2 4137   1.642   4.761   2.020
 1080SOL     OW 4138   2.715   5.766   4.412
 1080SOL    HW1 4139   2.786   5.709   4.371
 1080SOL    HW2 4140   2.681   5.722   4.495
 1081SOL     OW 4141   6.904   5.485   4.955
 1081SOL    HW1 4142   6.839   5.418   4.993
 1081SOL    HW2 4143   6.879   5.505   4.861
 1082SOL     OW 4144   5.915   2.099   5.704
 1082SOL    HW1 4145   6.004   2.090   5.750
 1082SOL    HW2 4146   5.855   2.157   5.758
 1083SOL     OW 4147   4.815   3.202   6.891
 1083SOL    HW1 4148   4.747   3.176   6.822
 1083SOL    HW2 4149   4.770   3.217   6.979
 1084SOL     OW 4150   6.709   6.680   6.656
 1084SOL    HW1 4151   6.794   6.723   6.624
 1084SOL    HW2 4152   6.634   6.707   6.596
 1085SOL     OW 4153   2.125   3.376   4.057
 1085SOL    HW1 4154   2.159   3.430   4.134
 1085SOL    HW2 4155   2.037   3.335   4.082
 1086SOL     OW 4156   6.984   5.218   6.524
 1086SOL    HW1 4157   7.009   5.186   6.616
 1086SOL    HW2 4158   6.952   5.313   6.529
 1087SOL     OW 4159   1.160   1.554   5.603
 1087SOL    HW1 4160   1.239   1.552   5.663
 1087SOL    HW2 4161   1.190   1.567   5.508
 1088SOL     OW 4162   0.217   4.958   3.283
 1088SOL    HW1 4163   0.262   5.042   3.313
 1088SOL    HW2 4164   0.281   4.904   3.228
 1089SOL     OW 4165   1.028   6.090   5.101
 1089SOL    HW1 4166   1.032   6.100   5.002
 1089SOL    HW2 4167   1.103   6.031   5.131
 1090SOL     OW 4168   4.427   2.082   3.236
 1090SOL    HW1 4169   4.406   2.047   3.145
 1090SOL    HW2 4170   4.504   2.031   3.274
 1091SOL     OW 4171   2.132   3.581   3.580
 1091SOL    HW1 4172   2.180   3.668   3.593
 1091SOL    HW2 4173   2.162   3.516   3.649
 1092SOL     OW 4174   0.932   5.291   0.395
 1092SOL    HW1 4175   0.966   5.197   0.387
 1092SOL    HW2 4176   0.986   5.351   0.335
 1093SOL     OW 4177   2.558   6.760   1.588
 1093SOL    HW1 4178   2.653   6.790   1.588
 1093SOL    HW2 4179   2.539   6.708   1.671
 1094SOL     OW 4180   0.831   6.913   2.466
 1094SOL    HW1 4181   0.886   6.972   2.407
 1094SOL    HW2 4182   0.737   6.947   2.469
 1095SOL     OW 4183   0.436   2.264   7.003
 1095SOL    HW1 4184   0.451   2.247   6.905
 1095SOL    HW2 4185   0.516   2.232   0.031
 1096SOL     OW 4186   3.651   4.266   1.368
 1096SOL    HW1 4187   3.732   4.275   1.309
 1096SOL    HW2 4188   3.626   4.357   1.403
 1097SOL     OW 4189   2.128   5.148   2.908
 1097SOL    HW1 4190   2.109   5.076   2.975
 1097SOL    HW2 4191   2.109   5.114   2.816
 1098SOL     OW 4192   6.211   4.141   6.719
 1098SOL    HW1 4193   6.275   4.145   6.796
 1098SOL    HW2 4194   6.149   4.064   6.731
 1099SOL     OW 4195   4.509   1.081   6.861
 1099SOL    HW1 4196   4.598   1.082   6.908
 1099SOL    HW2 4197   4.523   1.061   6.764
 1100SOL     OW 4198   4.028   1.107   3.959
 1100SOL    HW1 4199   4.121   1.091   3.927
 1100SOL    HW2 4200   3.980   1.165   3.893
 1101SOL     OW 4201   5.554   4.188   5.025
 1101SOL    HW1 4202   5.579   4.212   5.120
 1101SOL    HW2 4203   5.458   4.210   5.010
 1102SOL     OW 4204   2.440   1.386   4.730
 1102SOL    HW1 4205   2.487   1.355   4.647
 1102SOL    HW2 4206   2.455   1.320   4.804
 1103SOL     OW 4207   2.420   1.549   0.075
 1103SOL    HW1 4208   2.399   1.607   0.154
 1103SOL    HW2 4209   2.335   1.510   0.038
 1104SOL     OW 4210   1.802   3.950   3.806
 1104SOL    HW1 4211   1.791   3.863   3.759
 1104SOL    HW2 4212   1.880   4.000   3.767
 1105SOL     OW 4213   5.245   2.869   4.812
 1105SOL    HW1 4214   5.287   2.954   4.844
 1105SOL    HW2 4215   5.151   2.863   4.846
 1106SOL     OW 4216   0.246   1.334   0.912
 1106SOL    HW1 4217   0.277   1.277   0.837
 1106SOL    HW2 4218   0.161   1.297   0.950
 1107SOL     OW 4219   0.641   0.693   0.519
 1107SOL    HW1 4220   0.741   0.697   0.524
 1107SOL    HW2 4221   0.614   0.651   0.433
 1108SOL     OW 4222   3.754   6.621   4.858
 1108SOL    HW1 4223   3.690   6.564   4.807
 1108SOL    HW2 4224   3.703   6.677   4.924
 1109SOL     OW 4225   5.512   1.354   4.321
 1109SOL    HW1 4226   5.583   1.417   4.354
 1109SOL    HW2 4227   5.533   1.327   4.227
 1110SOL     OW 4228   3.831   0.955   3.676
 1110SOL    HW1 4229   3.930   0.946   3.677
 1110SOL    HW2 4230   3.792   0.896   3.747
 1111SOL     OW 4231   5.539   4.279   6.334
 1111SOL    HW1 4232   5.634   4.268   6.303
 1111SOL    HW2 4233   5.526   4.225   6.418
 1112SOL     OW 4234   6.659   0.350   3.426
 1112SOL    HW1 4235   6.671   0.329   3.523
 1112SOL    HW2 4236   6.612   0.439   3.417
 1113SOL     OW 4237   6.273   4.452   1.300
 1113SOL    HW1 4238   6.351   4.436   1.361
 1113SOL    HW2 4239   6.220   4.367   1.290
 1114SOL     OW 4240   3.403   1.857   6.162
 1114SOL    HW1 4241   3.374   1.948   6.194
 1114SOL    HW2 4242   3.502   1.852   6.160
 1115SOL     OW 4243   4.185   4.062   5.335
 1115SOL    HW1 4244   4.269   4.009   5.327
 1115SOL    HW2 4245   4.207   4.158   5.354
 1116SOL     OW 4246   5.950   6.842   0.009
 1116SOL    HW1 4247   5.856   6.815   7.011
 1116SOL    HW2 4248   5.954   6.940   0.027
 1117SOL     OW 4249   0.908   1.928   1.524
 1117SOL    HW1 4250   0.990   1.981   1.501
 1117SOL    HW2 4251   0.935   1.835   1.547
 1118SOL     OW 4252   2.392   5.365   0.291
 1118SOL    HW1 4253   2.456   5.377   0.216
 1118SOL    HW2 4254   2.431   5.404   0.375
 1119SOL     OW 4255   4.396   4.547   1.815
 1119SOL    HW1 4256   4.307   4.570   1.774
 1119SOL    HW2 4257   4.396   4.451   1.841
 1120SOL     OW 4258   6.160   6.081   1.023
 1120SOL    HW1 4259   6.196   6.174   1.024
 1120SOL    HW2 4260   6.200   6.031   0.946
 1121SOL     OW 4261   0.074   4.346   5.089
 1121SOL    HW1 4262   0.068   4.416   5.161
 1121SOL    HW2 4263   0.002   4.361   5.022
 1122SOL     OW 4264   6.070   3.014   1.998
 1122SOL    HW1 4265   6.007   2.955   2.049
 1122SOL    HW2 4266   6.122   2.958   1.933
 1123SOL     OW 4267   4.842   2.271   3.928
 1123SOL    HW1 4268   4.753   2.233   3.952
 1123SOL    HW2 4269   4.901   2.198   3.895
 1124SOL     OW 4270   0.743   3.680   5.905
 1124SOL    HW1 4271   0.707   3.687   5.812
 1124SOL    HW2 4272   0.839   3.710   5.906
 1125SOL     OW 4273   1.733   2.854   3.983
 1125SOL    HW1 4274   1.752   2.893   4.073
 1125SOL    HW2 4275   1.755   2.757   3.982
 1126SOL     OW 4276   5.636   6.119   5.427
 1126SOL    HW1 4277   5.663   6.113   5.523
 1126SOL    HW2 4278   5.537   6.121   5.420
 1127SOL     OW 4279   5.914   6.691   4.700
 1127SOL    HW1 4280   6.013   6.699   4.688
 1127SOL    HW2 4281   5.874   6.654   4.616
 1128SOL     OW 4282   6.230   1.772   4.768
 1128SOL    HW1 4283   6.152   1.770   4.831
 1128SOL    HW2 4284   6.312   1.740   4.815
 1129SOL     OW 4285   1.780   6.609   0.639
 1129SOL    HW1 4286   1.779   6.676   0.713
 1129SOL    HW2 4287   1.747   6.521   0.673
 1130SOL     OW 4288   2.091   5.163   1.746
 1130SOL    HW1 4289   2.083   5.239   1.681
 1130SOL    HW2 4290   2.035   5.086   1.715
 1131SOL     OW 4291   1.600   0.489   4.976
 1131SOL    HW1 4292   1.515   0.473   4.926
 1131SOL    HW2 4293   1.668   0.421   4.949
 1132SOL     OW 4294   4.028   0.318   3.106
 1132SOL    HW1 4295   4.085   0.398   3.125
 1132SOL    HW2 4296   3.954   0.344   3.044
 1133SOL     OW 4297   0.540   0.940   0.555
 1133SOL    HW1 4298   0.544   0.987   0.466
 1133SOL    HW2 4299   0.588   0.852   0.548
 1134SOL     OW 4300   5.430   6.979   2.599
 1134SOL    HW1 4301   5.481   0.040   2.584
 1134SOL    HW2 4302   5.349   6.999   2.656
 1135SOL     OW 4303   2.467   6.655   3.688
 1135SOL    HW1 4304   2.552   6.605   3.702
 1135SOL    HW2 4305   2.459   6.727   3.756
 1136SOL     OW 4306   3.494   4.921   2.932
 1136SOL    HW1 4307   3.520   4.956   2.841
 1136SOL    HW2 4308   3.398   4.894   2.931
 1137SOL     OW 4309   0.911   5.923   6.800
 1137SOL    HW1 4310   0.951   6.015   6.798
 1137SOL    HW2 4311   0.813   5.930   6.815
 1138SOL     OW 4312   1.106   1.784   5.028
 1138SOL    HW1 4313   1.171   1.817   4.960
 1138SOL    HW2 4314   1.143   1.703   5.073
 1139SOL     OW 4315   2.548   5.041   3.842
 1139SOL    HW1 4316   2.479   5.067   3.910
 1139SOL    HW2 4317   2.544   4.943   3.826
 1140SOL     OW 4318   2.415   0.309   2.588
 1140SOL    HW1 4319   2.413   0.296   2.489
 1140SOL    HW2 4320   2.503   0.279   2.624
 1141SOL     OW 4321   6.627   5.621   6.734
 1141SOL    HW1 4322   6.639   5.567   6.651
 1141SOL    HW2 4323   6.629   5.561   6.814
 1142SOL     OW 4324   2.623   6.972   3.609
 1142SOL    HW1 4325   2.688   6.923   3.668
 1142SOL    HW2 4326   2.544   6.999   3.664
 1143SOL     OW 4327   1.442   3.243   2.732
 1143SOL    HW1 4328   1.494   3.252   2.817
 1143SOL    HW2 4329   1.492   3.287   2.658
 1144SOL     OW 4330   5.475   4.307   2.953
 1144SOL    HW1 4331   5.384   4.346   2.939
 1144SOL    HW2 4332   5.543   4.380   2.954
 1145SOL     OW 4333   1.422   2.744   0.603
 1145SOL    HW1 4334   1.409   2.836   0.640
 1145SOL    HW2 4335   1.344   2.721   0.545
 1146SOL     OW 4336   0.460   1.979   1.313
 1146SOL    HW1 4337   0.543   2.026   1.285
 1146SOL    HW2 4338   0.470   1.881   1.298
 1147SOL     OW 4339   2.689   5.702   0.840
 1147SOL    HW1 4340   2.723   5.608   0.833
 1147SOL    HW2 4341   2.697   5.747   0.750
 1148SOL     OW 4342   3.891   6.312   1.172
 1148SOL    HW1 4343   3.950   6.316   1.253
 1148SOL    HW2 4344   3.842   6.398   1.162
 1149SOL     OW 4345   5.366   2.920   1.536
 1149SOL    HW1 4346   5.276   2.896   1.574
 1149SOL    HW2 4347   5.374   2.884   1.443
 1150SOL     OW 4348   0.406   4.047   0.253
 1150SOL    HW1 4349   0.460   4.113   0.305
 1150SOL    HW2 4350   0.467   3.996   0.191
 1151SOL     OW 4351   6.095   4.654   4.713
 1151SOL    HW1 4352   6.173   4.716   4.707
 1151SOL    HW2 4353   6.066   4.645   4.808
 1152SOL     OW 4354   4.786   6.014   6.154
 1152SOL    HW1 4355   4.755   5.925   6.118
 1152SOL    HW2 4356   4.716   6.083   6.135
 1153SOL     OW 4357   6.954   6.965   1.442
 1153SOL    HW1 4358   6.931   0.006   1.516
 1153SOL    HW2 4359   6.899   6.882   1.452
 1154SOL     OW 4360   0.715   4.119   0.929
 1154SOL    HW1 4361   0.796   4.120   0.870
 1154SOL    HW2 4362   0.717   4.200   0.988
 1155SOL     OW 4363   2.625   5.947   5.669
 1155SOL    HW1 4364   2.696   5.924   5.735
 1155SOL    HW2 4365   2.667   5.978   5.583
 1156SOL     OW 4366   4.542   1.924   4.931
 1156SOL    HW1 4367   4.510   1.830   4.932
 1156SOL    HW2 4368   4.493   1.976   4.861
 1157SOL     OW 4369   5.137   0.996   5.931
 1157SOL    HW1 4370   5.066   1.005   6.001
 1157SOL    HW2 4371   5.214   0.945   5.969
 1158SOL     OW 4372   6.433   5.956   4.511
 1158SOL    HW1 4373   6.338   5.968   4.481
 1158SOL    HW2 4374   6.445   5.864   4.549
 1159SOL     OW 4375   5.718   6.694   3.099
 1159SOL    HW1 4376   5.784   6.768   3.105
 1159SOL    HW2 4377   5.627   6.728   3.125
 1160SOL     OW 4378   3.905   5.574   2.066
 1160SOL    HW1 4379   3.900   5.474   2.066
 1160SOL    HW2 4380   3.858   5.610   2.147
 1161SOL     OW 4381   0.210   5.503   6.555
 1161SOL    HW1 4382   0.271   5.476   6.480
 1161SOL    HW2 4383   0.236   5.454   6.638
 1162SOL     OW 4384   2.383   2.747   5.594
 1162SOL    HW1 4385   2.462   2.808   5.590
 1162SOL    HW2 4386   2.401   2.666   5.539
 1163SOL     OW 4387   5.952   4.619   1.856
 1163SOL    HW1 4388   6.022   4.681   1.890
 1163SOL    HW2 4389   5.894   4.666   1.790
 1164SOL     OW 4390   5.144   3.000   5.585
 1164SOL    HW1 4391   5.160   3.031   5.492
 1164SOL    HW2 4392   5.200   3.054   5.649
 1165SOL     OW 4393   4.096   5.829   3.299
 1165SOL    HW1 4394   4.012   5.800   3.253
 1165SOL    HW2 4395   4.159   5.751   3.305
 1166SOL     OW 4396   2.124   5.897   6.716
 1166SOL    HW1 4397   2.027   5.882   6.697
 1166SOL    HW2 4398   2.150   5.989   6.686
 1167SOL     OW 4399   4.847   4.991   1.099
 1167SOL    HW1 4400   4.823   4.975   1.194
 1167SOL    HW2 4401   4.789   5.063   1.062
 1168SOL     OW 4402   6.458   2.609   1.163
 1168SOL    HW1 4403   6.521   2.536   1.188
 1168SOL    HW2 4404   6.508   2.683   1.119
 1169SOL     OW 4405   5.662   2.093   5.105
 1169SOL    HW1 4406   5.566   2.077   5.131
 1169SOL    HW2 4407   5.714   2.120   5.186
 1170SOL     OW 4408   5.604   0.017   3.032
 1170SOL    HW1 4409   5.692   0.056   3.004
 1170SOL    HW2 4410   5.532   0.084   3.016
 1171SOL     OW 4411   2.634   6.848   0.009
 1171SOL    HW1 4412   2.608   6.754   7.012
 1171SOL    HW2 4413   2.614   6.868   0.105
 1172SOL     OW 4414   5.166   4.247   1.035
 1172SOL    HW1 4415   5.103   4.323   1.043
 1172SOL    HW2 4416   5.216   4.236   1.122
 1173SOL     OW 4417   2.981   1.394   1.428
 1173SOL    HW1 4418   3.064   1.364   1.474
 1173SOL    HW2 4419   2.989   1.375   1.330
 1174SOL     OW 4420   3.543   3.997   2.088
 1174SOL    HW1 4421   3.599   3.941   2.149
 1174SOL    HW2 4422   3.463   4.031   2.137
 1175SOL     OW 4423   4.853   3.579   6.187
 1175SOL    HW1 4424   4.766   3.528   6.188
 1175SOL    HW2 4425   4.863   3.629   6.272
 1176SOL     OW 4426   5.109   3.658   0.142
 1176SOL    HW1 4427   5.095   3.634   0.237
 1176SOL    HW2 4428   5.027   3.704   0.107
 1177SOL     OW 4429   6.798   3.754   5.009
 1177SOL    HW1 4430   6.894   3.745   5.034
 1177SOL    HW2 4431   6.788   3.747   4.910
 1178SOL     OW 4432   2.532   3.806   0.365
 1178SOL    HW1 4433   2.545   3.784   0.268
 1178SOL    HW2 4434   2.571   3.733   0.421
 1179SOL     OW 4435   2.362   5.950   0.514
 1179SOL    HW1 4436   2.296   6.001   0.459
 1179SOL    HW2 4437   2.453   5.961   0.475
 1180SOL     OW 4438   2.948   6.352   3.790
 1180SOL    HW1 4439   2.983   6.291   3.719
 1180SOL    HW2 4440   2.866   6.312   3.831
 1181SOL     OW 4441   0.225   5.056   6.061
 1181SOL    HW1 4442   0.139   5.033   6.108
 1181SOL    HW2 4443   0.292   5.088   6.128
 1182SOL     OW 4444   3.711   4.952   3.670
 1182SOL    HW1 4445   3.757   4.888   3.732
 1182SOL    HW2 4446   3.762   4.956   3.584
 1183SOL     OW 4447   2.117   3.924   6.686
 1183SOL    HW1 4448   2.159   3.944   6.774
 1183SOL    HW2 4449   2.085   4.009   6.644
 1184SOL     OW 4450   6.843   1.143   4.878
 1184SOL    HW1 4451   6.764   1.086   4.854
 1184SOL    HW2 4452   6.824   1.193   4.962
 1185SOL     OW 4453   0.606   1.697   0.865
 1185SOL    HW1 4454   0.660   1.779   0.884
 1185SOL    HW2 4455   0.617   1.632   0.940
 1186SOL     OW 4456   5.933   6.883   5.920
 1186SOL    HW1 4457   5.837   6.869   5.946
 1186SOL    HW2 4458   5.946   6.979   5.892
 1187SOL     OW 4459   6.327   6.755   6.946
 1187SOL    HW1 4460   6.303   6.704   0.005
 1187SOL    HW2 4461   6.416   6.725   6.912
 1188SOL     OW 4462   3.791   6.017   5.550
 1188SOL    HW1 4463   3.776   6.062   5.462
 1188SOL    HW2 4464   3.704   6.006   5.598
 1189SOL     OW 4465   6.196   2.394   1.770
 1189SOL    HW1 4466   6.263   2.404   1.844
 1189SOL    HW2 4467   6.234   2.336   1.698
 1190SOL     OW 4468   3.039   5.400   3.919
 1190SOL    HW1 4469   3.079   5.438   4.002
 1190SOL    HW2 4470   3.005   5.474   3.862
 1191SOL     OW 4471   4.783   5.298   3.873
 1191SOL    HW1 4472   4.816   5.206   3.857
 1191SOL    HW2 4473   4.690   5.307   3.837
 1192SOL     OW 4474   3.973   5.396   3.325
 1192SOL    HW1 4475   3.900   5.414   3.259
 1192SOL    HW2 4476   3.962   5.304   3.363
 1193SOL     OW 4477   6.417   3.159   5.352
 1193SOL    HW1 4478   6.319   3.146   5.337
 1193SOL    HW2 4479   6.448   3.096   5.424
 1194SOL     OW 4480   5.960   7.004   1.486
 1194SOL    HW1 4481   5.983   0.073   1.516
 1194SOL    HW2 4482   6.037   6.965   1.436
 1195SOL     OW 4483   6.989   4.194   0.669
 1195SOL    HW1 4484   6.963   4.117   0.611
 1195SOL    HW2 4485   6.926   4.201   0.746
 1196SOL     OW 4486   0.281   5.798   2.788
 1196SOL    HW1 4487   0.344   5.796   2.711
 1196SOL    HW2 4488   0.233   5.711   2.795
 1197SOL     OW 4489   4.491   0.707   5.172
 1197SOL    HW1 4490   4.446   0.754   5.095
 1197SOL    HW2 4491   4.521   0.775   5.238
 1198SOL     OW 4492   1.290   2.689   2.139
 1198SOL    HW1 4493   1.243   2.776   2.125
 1198SOL    HW2 4494   1.359   2.699   2.210
 1199SOL     OW 4495   3.927   4.038   1.620
 1199SOL    HW1 4496   3.990   3.999   1.687
 1199SOL    HW2 4497   3.844   3.984   1.616
 1200SOL     OW 4498   3.211   3.616   4.406
 1200SOL    HW1 4499   3.204   3.555   4.486
 1200SOL    HW2 4500   3.136   3.682   4.408
 1201SOL     OW 4501   0.857   0.939   4.131
 1201SOL    HW1 4502   0.913   0.874   4.182
 1201SOL    HW2 4503   0.776   0.963   4.186
 1202SOL     OW 4504   0.604   5.588   5.778
 1202SOL    HW1 4505   0.522   5.589   5.720
 1202SOL    HW2 4506   0.676   5.641   5.734
 1203SOL     OW 4507   6.221   5.856   6.795
 1203SOL    HW1 4508   6.273   5.778   6.761
 1203SOL    HW2 4509   6.234   5.934   6.734
 1204SOL     OW 4510   3.358   6.185   1.587
 1204SOL    HW1 4511   3.367   6.178   1.686
 1204SOL    HW2 4512   3.416   6.259   1.554
 1205SOL     OW 4513   4.302   3.659   1.122
 1205SOL    HW1 4514   4.270   3.571   1.157
 1205SOL    HW2 4515   4.322   3.720   1.199
 1206SOL     OW 4516   2.897   2.862   5.412
 1206SOL    HW1 4517   2.934   2.816   5.492
 1206SOL    HW2 4518   2.970   2.913   5.366
 1207SOL     OW 4519   2.026   6.280   1.206
 1207SOL    HW1 4520   2.000   6.318   1.117
 1207SOL    HW2 4521   2.119   6.245   1.201
 1208SOL     OW 4522   3.201   3.841   1.329
 1208SOL    HW1 4523   3.189   3.815   1.425
 1208SOL    HW2 4524   3.138   3.789   1.272
 1209SOL     OW 4525   4.742   1.257   4.649
 1209SOL    HW1 4526   4.745   1.188   4.577
 1209SOL    HW2 4527   4.828   1.308   4.650
 1210SOL     OW 4528   3.206   0.839   3.703
 1210SOL    HW1 4529   3.121   0.840   3.652
 1210SOL    HW2 4530   3.266   0.913   3.671
 1211SOL     OW 4531   0.975   3.827   1.709
 1211SOL    HW1 4532   0.971   3.854   1.805
 1211SOL    HW2 4533   0.963   3.728   1.702
 1212SOL     OW 4534   6.315   0.516   6.993
 1212SOL    HW1 4535   6.357   0.601   6.961
 1212SOL    HW2 4536   6.291   0.525   0.066
 1213SOL     OW 4537   6.904   1.803   0.369
 1213SOL    HW1 4538   6.807   1.779   0.361
 1213SOL    HW2 4539   6.912   1.888   0.421
 1214SOL     OW 4540   0.739   2.395   6.755
 1214SOL    HW1 4541   0.740   2.295   6.762
 1214SOL    HW2 4542   0.669   2.424   6.690
 1215SOL     OW 4543   1.051   4.667   3.683
 1215SOL    HW1 4544   1.143   4.693   3.654
 1215SOL    HW2 4545   1.020   4.589   3.629
 1216SOL     OW 4546   4.743   0.577   0.922
 1216SOL    HW1 4547   4.647   0.576   0.894
 1216SOL    HW2 4548   4.797   0.523   0.858
 1217SOL     OW 4549   2.325   4.822   0.136
 1217SOL    HW1 4550   2.233   4.786   0.123
 1217SOL    HW2 4551   2.326   4.921   0.118
 1218SOL     OW 4552   2.375   4.292   4.456
 1218SOL    HW1 4553   2.456   4.350   4.445
 1218SOL    HW2 4554   2.373   4.254   4.548
 1219SOL     OW 4555   5.817   6.138   1.706
 1219SOL    HW1 4556   5.744   6.166   1.768
 1219SOL    HW2 4557   5.882   6.078   1.754
 1220SOL     OW 4558   1.084   5.064   3.252
 1220SOL    HW1 4559   1.056   5.116   3.171
 1220SOL    HW2 4560   1.107   4.970   3.226
 1221SOL     OW 4561   5.954   3.891   5.928
 1221SOL    HW1 4562   5.864   3.894   5.884
 1221SOL    HW2 4563   6.015   3.831   5.876
 1222SOL     OW 4564   6.469   6.798   6.563
 1222SOL    HW1 4565   6.499   6.870   6.500
 1222SOL    HW2 4566   6.427   6.840   6.644
 1223SOL     OW 4567   3.880   0.601   0.940
 1223SOL    HW1 4568   3.817   0.618   1.015
 1223SOL    HW2 4569   3.837   0.628   0.854
 1224SOL     OW 4570   3.115   5.647   6.912
 1224SOL    HW1 4571   3.119   5.570   6.848
 1224SOL    HW2 4572   3.070   5.618   6.996
 1225SOL     OW 4573   3.481   3.356   6.817
 1225SOL    HW1 4574   3.516   3.442   6.781
 1225SOL    HW2 4575   3.383   3.365   6.836
 1226SOL     OW 4576   2.368   5.310   1.232
 1226SOL    HW1 4577   2.356   5.251   1.312
 1226SOL    HW2 4578   2.369   5.406   1.261
 1227SOL     OW 4579   6.585   4.055   0.251
 1227SOL    HW1 4580   6.543   4.144   0.268
 1227SOL    HW2 4581   6.547   3.988   0.315
 1228SOL     OW 4582   4.661   2.636   6.561
 1228SOL    HW1 4583   4.661   2.585   6.647
 1228SOL    HW2 4584   4.578   2.691   6.555
 1229SOL     OW 4585   3.792   5.276   6.258
 1229SOL    HW1 4586   3.877   5.308   6.299
 1229SOL    HW2 4587   3.740   5.224   6.326
 1230SOL     OW 4588   5.091   0.402   3.324
 1230SOL    HW1 4589   5.041   0.428   3.242
 1230SOL    HW2 4590   5.105   0.482   3.383
 1231SOL     OW 4591   1.478   3.558   4.074
 1231SOL    HW1 4592   1.460   3.652   4.103
 1231SOL    HW2 4593   1.517   3.506   4.150
 1232SOL     OW 4594   0.438   2.527   6.061
 1232SOL    HW1 4595   0.519   2.492   6.109
 1232SOL    HW2 4596   0.391   2.451   6.017
 1233SOL     OW 4597   1.170   3.775   3.945
 1233SOL    HW1 4598   1.100   3.796   4.013
 1233SOL    HW2 4599   1.136   3.704   3.883
 1234SOL     OW 4600   6.354   4.205   4.649
 1234SOL    HW1 4601   6.265   4.161   4.641
 1234SOL    HW2 4602   6.425   4.141   4.621
 1235SOL     OW 4603   6.895   5.595   2.209
 1235SOL    HW1 4604   6.994   5.600   2.216
 1235SOL    HW2 4605   6.854   5.667   2.266
 1236SOL     OW 4606   5.089   1.198   0.414
 1236SOL    HW1 4607   5.023   1.131   0.447
 1236SOL    HW2 4608   5.151   1.156   0.348
 1237SOL     OW 4609   2.141   4.799   5.654
 1237SOL    HW1 4610   2.171   4.704   5.644
 1237SOL    HW2 4611   2.068   4.803   5.723
 1238SOL     OW 4612   2.310   0.629   0.432
 1238SOL    HW1 4613   2.219   0.604   0.465
 1238SOL    HW2 4614   2.305   0.718   0.385
 1239SOL     OW 4615   6.918   6.725   6.468
 1239SOL    HW1 4616   6.978   6.646   6.454
 1239SOL    HW2 4617   6.885   6.758   6.379
 1240SOL     OW 4618   5.585   5.938   1.685
 1240SOL    HW1 4619   5.625   6.016   1.637
 1240SOL    HW2 4620   5.567   5.865   1.620
 1241SOL     OW 4621   6.134   4.246   4.044
 1241SOL    HW1 4622   6.193   4.319   4.079
 1241SOL    HW2 4623   6.183   4.159   4.046
 1242SOL     OW 4624   0.264   3.742   1.782
 1242SOL    HW1 4625   0.204   3.663   1.793
 1242SOL    HW2 4626   0.246   3.785   1.694
 1243SOL     OW 4627   0.581   6.741   5.075
 1243SOL    HW1 4628   0.640   6.677   5.024
 1243SOL    HW2 4629   0.614   6.747   5.170
 1244SOL     OW 4630   6.642   6.644   3.703
 1244SOL    HW1 4631   6.649   6.739   3.732
 1244SOL    HW2 4632   6.652   6.638   3.604
 1245SOL     OW 4633   5.069   4.121   6.443
 1245SOL    HW1 4634   5.030   4.204   6.482
 1245SOL    HW2 4635   5.035   4.108   6.349
 1246SOL     OW 4636   2.072   6.276   1.474
 1246SOL    HW1 4637   1.983   6.264   1.517
 1246SOL    HW2 4638   2.061   6.288   1.376
 1247SOL     OW 4639   2.679   0.158   6.525
 1247SOL    HW1 4640   2.701   0.088   6.593
 1247SOL    HW2 4641   2.735   0.144   6.443
 1248SOL     OW 4642   2.411   0.030   4.412
 1248SOL    HW1 4643   2.503   0.047   4.378
 1248SOL    HW2 4644   2.407   0.048   4.511
 1249SOL     OW 4645   5.894   2.187   2.125
 1249SOL    HW1 4646   5.829   2.206   2.051
 1249SOL    HW2 4647   5.941   2.272   2.151
 1250SOL     OW 4648   6.525   4.887   4.390
 1250SOL    HW1 4649   6.579   4.812   4.428
 1250SOL    HW2 4650   6.569   4.922   4.307
 1251SOL     OW 4651   2.826   6.665   4.349
 1251SOL    HW1 4652   2.778   6.578   4.352
 1251SOL    HW2 4653   2.817   6.706   4.258
 1252SOL     OW 4654   3.657   3.612   5.905
 1252SOL    HW1 4655   3.618   3.523   5.931
 1252SOL    HW2 4656   3.748   3.598   5.867
 1253SOL     OW 4657   3.297   5.106   1.443
 1253SOL    HW1 4658   3.244   5.054   1.510
 1253SOL    HW2 4659   3.289   5.203   1.462
 1254SOL     OW 4660   6.653   3.337   2.322
 1254SOL    HW1 4661   6.702   3.257   2.287
 1254SOL    HW2 4662   6.629   3.398   2.247
 1255SOL     OW 4663   6.414   1.949   4.650
 1255SOL    HW1 4664   6.469   1.919   4.572
 1255SOL    HW2 4665   6.363   1.872   4.686
 1256SOL     OW 4666   6.484   6.881   3.448
 1256SOL    HW1 4667   6.474   6.900   3.351
 1256SOL    HW2 4668   6.510   6.786   3.462
 1257SOL     OW 4669   6.257   6.854   3.853
 1257SOL    HW1 4670   6.324   6.780   3.845
 1257SOL    HW2 4671   6.252   6.904   3.766
 1258SOL     OW 4672   1.333   5.311   3.667
 1258SOL    HW1 4673   1.296   5.266   3.585
 1258SOL    HW2 4674   1.389   5.246   3.718
 1259SOL     OW 4675   3.426   2.103   4.207
 1259SOL    HW1 4676   3.462   2.072   4.295
 1259SOL    HW2 4677   3.328   2.122   4.216
 1260SOL     OW 4678   1.584   1.449   6.552
 1260SOL    HW1 4679   1.531   1.378   6.507
 1260SOL    HW2 4680   1.567   1.445   6.651
 1261SOL     OW 4681   6.890   5.789   6.376
 1261SOL    HW1 4682   6.976   5.819   6.417
 1261SOL    HW2 4683   6.813   5.815   6.434
 1262SOL     OW 4684   5.107   5.288   1.218
 1262SOL    HW1 4685   5.011   5.308   1.235
 1262SOL    HW2 4686   5.139   5.221   1.285
 1263SOL     OW 4687   0.323   1.051   2.575
 1263SOL    HW1 4688   0.322   0.969   2.634
 1263SOL    HW2 4689   0.266   1.034   2.494
 1264SOL     OW 4690   0.556   4.100   6.271
 1264SOL    HW1 4691   0.544   4.191   6.231
 1264SOL    HW2 4692   0.467   4.055   6.277
 1265SOL     OW 4693   6.155   5.090   4.480
 1265SOL    HW1 4694   6.202   5.023   4.422
 1265SOL    HW2 4695   6.083   5.045   4.531
 1266SOL     OW 4696   0.451   0.562   4.109
 1266SOL    HW1 4697   0.475   0.644   4.056
 1266SOL    HW2 4698   0.452   0.482   4.048
 1267SOL     OW 4699   4.790   1.223   1.692
 1267SOL    HW1 4700   4.728   1.237   1.769
 1267SOL    HW2 4701   4.822   1.128   1.692
 1268SOL     OW 4702   2.795   2.923   6.622
 1268SOL    HW1 4703   2.856   2.892   6.549
 1268SOL    HW2 4704   2.748   2.845   6.663
 1269SOL     OW 4705   5.772   2.814   3.679
 1269SOL    HW1 4706   5.674   2.806   3.659
 1269SOL    HW2 4707   5.784   2.874   3.758
 1270SOL     OW 4708   2.346   4.788   2.345
 1270SOL    HW1 4709   2.333   4.834   2.433
 1270SOL    HW2 4710   2.431   4.819   2.303
 1271SOL     OW 4711   3.400   1.266   2.110
 1271SOL    HW1 4712   3.335   1.238   2.039
 1271SOL    HW2 4713   3.437   1.185   2.155
 1272SOL     OW 4714   6.171   4.731   6.785
 1272SOL    HW1 4715   6.156   4.780   6.871
 1272SOL    HW2 4716   6.137   4.637   6.793
 1273SOL     OW 4717   1.318   3.815   5.197
 1273SOL    HW1 4718   1.350   3.741   5.257
 1273SOL    HW2 4719   1.267   3.775   5.121
 1274SOL     OW 4720   0.427   4.548   1.164
 1274SOL    HW1 4721   0.338   4.592   1.155
 1274SOL    HW2 4722   0.461   4.558   1.257
 1275SOL     OW 4723   3.448   0.665   3.265
 1275SOL    HW1 4724   3.466   0.651   3.362
 1275SOL    HW2 4725   3.454   0.762   3.243
 1276SOL     OW 4726   5.517   5.222   4.711
 1276SOL    HW1 4727   5.463   5.141   4.736
 1276SOL    HW2 4728   5.460   5.304   4.717
 1277SOL     OW 4729   1.624   5.279   0.233
 1277SOL    HW1 4730   1.617   5.183   0.205
 1277SOL    HW2 4731   1.688   5.327   0.173
 1278SOL     OW 4732   1.377   6.969   4.226
 1278SOL    HW1 4733   1.285   7.008   4.218
 1278SOL    HW2 4734   1.393   6.906   4.150
 1279SOL     OW 4735   2.455   4.310   6.025
 1279SOL    HW1 4736   2.543   4.276   5.993
 1279SOL    HW2 4737   2.430   4.392   5.973
 1280SOL     OW 4738   4.351   0.138   4.022
 1280SOL    HW1 4739   4.373   0.210   3.956
 1280SOL    HW2 4740   4.435   0.094   4.053
 1281SOL     OW 4741   2.933   5.928   3.717
 1281SOL    HW1 4742   3.013   5.868   3.720
 1281SOL    HW2 4743   2.957   6.014   3.673
 1282SOL     OW 4744   7.006   2.636   6.964
 1282SOL    HW1 4745   0.040   2.555   6.958
 1282SOL    HW2 4746   6.985   2.670   6.873
 1283SOL     OW 4747   6.448   3.627   5.754
 1283SOL    HW1 4748   6.521   3.594   5.693
 1283SOL    HW2 4749   6.432   3.559   5.826
 1284SOL     OW 4750   3.692   0.638   1.149
 1284SOL    HW1 4751   3.673   0.626   1.247
 1284SOL    HW2 4752   3.665   0.731   1.122
 1285SOL     OW 4753   4.580   1.262   5.242
 1285SOL    HW1 4754   4.565   1.339   5.304
 1285SOL    HW2 4755   4.678   1.243   5.236
 1286SOL     OW 4756   4.409   2.312   0.798
 1286SOL    HW1 4757   4.462   2.227   0.805
 1286SOL    HW2 4758   4.444   2.368   0.724
 1287SOL     OW 4759   5.152   4.831   5.103
 1287SOL    HW1 4760   5.142   4.793   5.011
 1287SOL    HW2 4761   5.063   4.865   5.135
 1288SOL     OW 4762   4.322   4.949   5.392
 1288SOL    HW1 4763   4.345   5.013   5.319
 1288SOL    HW2 4764   4.312   5.000   5.478
 1289SOL     OW 4765   0.229   0.854   2.086
 1289SOL    HW1 4766   0.218   0.757   2.065
 1289SOL    HW2 4767   0.141   0.900   2.079
 1290SOL     OW 4768   1.674   7.010   1.173
 1290SOL    HW1 4769   1.652   0.050   1.248
 1290SOL    HW2 4770   1.748   0.025   1.118
 1291SOL     OW 4771   6.969   4.919   4.437
 1291SOL    HW1 4772   6.951   4.869   4.352
 1291SOL    HW2 4773   0.004   4.998   4.417
 1292SOL     OW 4774   0.845   5.508   2.207
 1292SOL    HW1 4775   0.841   5.568   2.127
 1292SOL    HW2 4776   0.892   5.424   2.184
 1293SOL     OW 4777   2.692   1.999   0.264
 1293SOL    HW1 4778   2.735   2.028   0.349
 1293SOL    HW2 4779   2.602   1.959   0.283
 1294SOL     OW 4780   1.418   4.063   6.095
 1294SOL    HW1 4781   1.344   4.062   6.028
 1294SOL    HW2 4782   1.461   4.153   6.097
 1295SOL     OW 4783   0.609   3.147   1.190
 1295SOL    HW1 4784   0.618   3.241   1.156
 1295SOL    HW2 4785   0.517   3.113   1.171
 1296SOL     OW 4786   4.721   6.875   5.176
 1296SOL    HW1 4787   4.667   6.922   5.246
 1296SOL    HW2 4788   4.684   6.783   5.162
 1297SOL     OW 4789   0.965   6.487   1.601
 1297SOL    HW1 4790   1.052   6.477   1.552
 1297SOL    HW2 4791   0.958   6.580   1.637
 1298SOL     OW 4792   4.857   5.932   3.290
 1298SOL    HW1 4793   4.778   5.986   3.261
 1298SOL    HW2 4794   4.847   5.907   3.386
 1299SOL     OW 4795   2.154   2.666   3.901
 1299SOL    HW1 4796   2.191   2.662   3.808
 1299SOL    HW2 4797   2.070   2.613   3.906
 1300SOL     OW 4798   1.940   3.331   1.768
 1300SOL    HW1 4799   2.018   3.391   1.751
 1300SOL    HW2 4800   1.896   3.307   1.681
 1301SOL     OW 4801   1.053   6.719   2.016
 1301SOL    HW1 4802   1.079   6.812   2.042
 1301SOL    HW2 4803   0.954   6.716   1.997
 1302SOL     OW 4804   5.236   0.616   5.314
 1302SOL    HW1 4805   5.322   0.642   5.271
 1302SOL    HW2 4806   5.194   0.696   5.355
 1303SOL     OW 4807   4.167   0.759   2.077
 1303SOL    HW1 4808   4.099   0.766   2.150
 1303SOL    HW2 4809   4.234   0.689   2.101
 1304SOL     OW 4810   2.088   1.260   1.464
 1304SOL    HW1 4811   2.159   1.229   1.526
 1304SOL    HW2 4812   2.056   1.183   1.408
 1305SOL     OW 4813   5.836   4.241   6.334
 1305SOL    HW1 4814   5.845   4.143   6.353
 1305SOL    HW2 4815   5.878   4.261   6.245
 1306SOL     OW 4816   1.622   5.841   4.664
 1306SOL    HW1 4817   1.683   5.762   4.651
 1306SOL    HW2 4818   1.626   5.900   4.584
 1307SOL     OW 4819   2.106   3.559   4.244
 1307SOL    HW1 4820   2.087   3.640   4.300
 1307SOL    HW2 4821   2.033   3.492   4.257
 1308SOL     OW 4822   6.804   6.964   5.982
 1308SOL    HW1 4823   6.804   6.939   6.079
 1308SOL    HW2 4824   6.724   7.020   5.962
 1309SOL     OW 4825   5.322   4.653   5.455
 1309SOL    HW1 4826   5.338   4.666   5.357
 1309SOL    HW2 4827   5.237   4.699   5.481
 1310SOL     OW 4828   0.408   4.598   3.654
 1310SOL    HW1 4829   0.402   4.693   3.625
 1310SOL    HW2 4830   0.501   4.564   3.639
 1311SOL     OW 4831   6.492   5.951   6.217
 1311SOL    HW1 4832   6.566   5.984   6.275
 1311SOL    HW2 4833   6.419   5.914   6.274
 1312SOL     OW 4834   1.925   0.239   6.888
 1312SOL    HW1 4835   1.905   0.142   6.901
 1312SOL    HW2 4836   1.874   0.293   6.955
 1313SOL     OW 4837   6.601   5.085   2.640
 1313SOL    HW1 4838   6.542   5.009   2.611
 1313SOL    HW2 4839   6.629   5.070   2.735
 1314SOL     OW 4840   3.332   1.861   4.428
 1314SOL    HW1 4841   3.404   1.929   4.442
 1314SOL    HW2 4842   3.246   1.908   4.410
 1315SOL     OW 4843   6.843   0.684   3.663
 1315SOL    HW1 4844   6.922   0.625   3.644
 1315SOL    HW2 4845   6.848   0.766   3.606
 1316SOL     OW 4846   3.620   0.039   4.966
 1316SOL    HW1 4847   3.663   0.128   4.952
 1316SOL    HW2 4848   3.557   0.043   5.043
 1317SOL     OW 4849   1.442   4.214   5.159
 1317SOL    HW1 4850   1.351   4.256   5.160
 1317SOL    HW2 4851   1.444   4.136   5.222
 1318SOL     OW 4852   1.544   2.367   6.794
 1318SOL    HW1 4853   1.585   2.306   6.727
 1318SOL    HW2 4854   1.615   2.423   6.836
 1319SOL     OW 4855   0.340   5.535   6.943
 1319SOL    HW1 4856   0.429   5.556   6.903
 1319SOL    HW2 4857   0.298   5.460   6.892
 1320SOL     OW 4858   2.893   2.663   0.039
 1320SOL    HW1 4859   2.841   2.579   0.050
 1320SOL    HW2 4860   2.832   2.736   0.009
 1321SOL     OW 4861   4.838   2.656   6.358
 1321SOL    HW1 4862   4.774   2.649   6.435
 1321SOL    HW2 4863   4.896   2.575   6.356
 1322SOL     OW 4864   3.847   1.468   4.435
 1322SOL    HW1 4865   3.793   1.438   4.356
 1322SOL    HW2 4866   3.786   1.508   4.503
 1323SOL     OW 4867   3.414   6.152   0.541
 1323SOL    HW1 4868   3.377   6.077   0.595
 1323SOL    HW2 4869   3.417   6.125   0.445
 1324SOL     OW 4870   0.584   3.510   0.584
 1324SOL    HW1 4871   0.556   3.472   0.496
 1324SOL    HW2 4872   0.581   3.610   0.580
 1325SOL     OW 4873   3.947   6.230   5.027
 1325SOL    HW1 4874   3.915   6.309   5.079
 1325SOL    HW2 4875   4.028   6.191   5.072
 1326SOL     OW 4876   4.906   4.020   5.298
 1326SOL    HW1 4877   5.004   4.026   5.312
 1326SOL    HW2 4878   4.878   3.924   5.294
 1327SOL     OW 4879   0.896   6.481   1.125
 1327SOL    HW1 4880   0.984   6.503   1.165
 1327SOL    HW2 4881   0.837   6.562   1.126
 1328SOL     OW 4882   2.298   2.974   6.894
 1328SOL    HW1 4883   2.257   2.969   6.986
 1328SOL    HW2 4884   2.232   3.013   6.830
 1329SOL     OW 4885   6.835   2.293   2.919
 1329SOL    HW1 4886   6.881   2.263   3.003
 1329SOL    HW2 4887   6.849   2.225   2.847
 1330SOL     OW 4888   0.884   2.141   1.117
 1330SOL    HW1 4889   0.921   2.231   1.095
 1330SOL    HW2 4890   0.801   2.126   1.064
 1331SOL     OW 4891   4.696   2.660   2.922
 1331SOL    HW1 4892   4.682   2.675   3.020
 1331SOL    HW2 4893   4.742   2.740   2.882
 1332SOL     OW 4894   2.551   6.872   0.522
 1332SOL    HW1 4895   2.573   6.904   0.614
 1332SOL    HW2 4896   2.487   6.795   0.528
 1333SOL     OW 4897   2.915   3.564   3.388
 1333SOL    HW1 4898   2.985   3.518   3.443
 1333SOL    HW2 4899   2.865   3.496   3.334
 1334SOL     OW 4900   6.228   1.741   3.676
 1334SOL    HW1 4901   6.216   1.741   3.577
 1334SOL    HW2 4902   6.273   1.826   3.704
 1335SOL     OW 4903   2.101   2.154   2.055
 1335SOL    HW1 4904   2.117   2.226   1.988
 1335SOL    HW2 4905   2.154   2.173   2.138
 1336SOL     OW 4906   4.033   1.392   5.509
 1336SOL    HW1 4907   3.995   1.472   5.557
 1336SOL    HW2 4908   4.129   1.380   5.536
 1337SOL     OW 4909   6.895   1.655   2.967
 1337SOL    HW1 4910   6.930   1.748   2.958
 1337SOL    HW2 4911   6.931   1.599   2.892
 1338SOL     OW 4912   0.224   3.798   4.194
 1338SOL    HW1 4913   0.308   3.852   4.202
 1338SOL    HW2 4914   0.206   3.752   4.281
 1339SOL     OW 4915   6.397   0.784   0.207
 1339SOL    HW1 4916   6.413   0.819   0.300
 1339SOL    HW2 4917   6.321   0.719   0.209
 1340SOL     OW 4918   5.681   1.496   2.618
 1340SOL    HW1 4919   5.747   1.523   2.547
 1340SOL    HW2 4920   5.655   1.400   2.604
 1341SOL     OW 4921   3.998   6.340   0.406
 1341SOL    HW1 4922   3.959   6.412   0.463
 1341SOL    HW2 4923   4.096   6.356   0.393
 1342SOL     OW 4924   2.949   5.352   6.466
 1342SOL    HW1 4925   3.018   5.305   6.519
 1342SOL    HW2 4926   2.912   5.429   6.518
 1343SOL     OW 4927   5.460   5.331   2.979
 1343SOL    HW1 4928   5.361   5.333   2.970
 1343SOL    HW2 4929   5.490   5.239   3.003
 1344SOL     OW 4930   0.466   6.438   4.176
 1344SOL    HW1 4931   0.538   6.379   4.212
 1344SOL    HW2 4932   0.384   6.383   4.159
 1345SOL     OW 4933   0.716   4.920   1.981
 1345SOL    HW1 4934   0.798   4.942   2.034
 1345SOL    HW2 4935   0.635   4.927   2.040
 1346SOL     OW 4936   1.858   5.648   6.277
 1346SOL    HW1 4937   1.851   5.725   6.213
 1346SOL    HW2 4938   1.948   5.651   6.322
 1347SOL     OW 4939   0.836   6.929   6.693
 1347SOL    HW1 4940   0.885   7.000   6.743
 1347SOL    HW2 4941   0.830   6.953   6.596
 1348SOL     OW 4942   6.840   6.480   5.380
 1348SOL    HW1 4943   6.835   6.468   5.281
 1348SOL    HW2 4944   6.821   6.575   5.404
 1349SOL     OW 4945   5.040   2.523   4.477
 1349SOL    HW1 4946   5.092   2.588   4.532
 1349SOL    HW2 4947   5.033   2.436   4.526
 1350SOL     OW 4948   4.483   5.121   5.875
 1350SOL    HW1 4949   4.576   5.130   5.912
 1350SOL    HW2 4950   4.442   5.036   5.908
 1351SOL     OW 4951   5.945   2.436   4.195
 1351SOL    HW1 4952   5.938   2.336   4.192
 1351SOL    HW2 4953   5.853   2.475   4.201
 1352SOL     OW 4954   6.866   6.486   3.558
 1352SOL    HW1 4955   6.809   6.406   3.543
 1352SOL    HW2 4956   6.896   6.489   3.653
 1353SOL     OW 4957   1.138   1.775   0.337
 1353SOL    HW1 4958   1.038   1.767   0.334
 1353SOL    HW2 4959   1.175   1.711   0.404
 1354SOL     OW 4960   6.881   4.149   1.911
 1354SOL    HW1 4961   6.875   4.246   1.887
 1354SOL    HW2 4962   6.967   4.132   1.960
 1355SOL     OW 4963   5.870   3.720   4.234
 1355SOL    HW1 4964   5.849   3.711   4.332
 1355SOL    HW2 4965   5.791   3.690   4.180
 1356SOL     OW 4966   3.593   3.064   1.867
 1356SOL    HW1 4967   3.677   3.047   1.920
 1356SOL    HW2 4968   3.539   3.134   1.913
 1357SOL     OW 4969   0.158   4.559   6.325
 1357SOL    HW1 4970   0.162   4.613   6.241
 1357SOL    HW2 4971   0.070   4.511   6.330
 1358SOL     OW 4972   6.181   6.389   0.165
 1358SOL    HW1 4973   6.147   6.307   0.121
 1358SOL    HW2 4974   6.271   6.412   0.128
 1359SOL     OW 4975   6.272   4.565   2.285
 1359SOL    HW1 4976   6.344   4.601   2.344
 1359SOL    HW2 4977   6.210   4.508   2.340
 1360SOL     OW 4978   2.730   3.070   0.183
 1360SOL    HW1 4979   2.683   2.995   0.136
 1360SOL    HW2 4980   2.691   3.081   0.275
 1361SOL     OW 4981   6.689   4.453   4.683
 1361SOL    HW1 4982   6.764   4.418   4.738
 1361SOL    HW2 4983   6.602   4.424   4.723
 1362SOL     OW 4984   3.698   3.726   2.856
 1362SOL    HW1 4985   3.695   3.648   2.795
 1362SOL    HW2 4986   3.778   3.783   2.836
 1363SOL     OW 4987   0.409   5.485   4.463
 1363SOL    HW1 4988   0.426   5.416   4.532
 1363SOL    HW2 4989   0.377   5.569   4.507
 1364SOL     OW 4990   4.611   4.174   0.234
 1364SOL    HW1 4991   4.523   4.215   0.261
 1364SOL    HW2 4992   4.686   4.233   0.263
 1365SOL     OW 4993   0.713   4.341   6.507
 1365SOL    HW1 4994   0.745   4.325   6.413
 1365SOL    HW2 4995   0.789   4.324   6.570
 1366SOL     OW 4996   1.775   6.513   6.116
 1366SOL    HW1 4997   1.791   6.561   6.202
 1366SOL    HW2 4998   1.861   6.475   6.082
 1367SOL     OW 4999   2.039   0.650   2.352
 1367SOL    HW1 5000   1.990   0.650   2.265
 1367SOL    HW2 5001   2.107   0.576   2.353
 1368SOL     OW 5002   5.377   6.821   5.035
 1368SOL    HW1 5003   5.455   6.760   5.050
 1368SOL    HW2 5004   5.411   6.913   5.015
 1369SOL     OW 5005   1.902   6.303   3.305
 1369SOL    HW1 5006   1.806   6.329   3.318
 1369SOL    HW2 5007   1.950   6.310   3.393
 1370SOL     OW 5008   3.672   0.539   2.303
 1370SOL    HW1 5009   3.720   0.465   2.350
 1370SOL    HW2 5010   3.688   0.625   2.351
 1371SOL     OW 5011   4.576   1.392   4.842
 1371SOL    HW1 5012   4.562   1.485   4.807
 1371SOL    HW2 5013   4.634   1.341   4.778
 1372SOL     OW 5014   2.129   2.935   1.230
 1372SOL    HW1 5015   2.199   3.006   1.225
 1372SOL    HW2 5016   2.059   2.952   1.161
 1373SOL     OW 5017   6.532   4.495   0.613
 1373SOL    HW1 5018   6.607   4.453   0.664
 1373SOL    HW2 5019   6.465   4.425   0.589
 1374SOL     OW 5020   4.511   2.066   0.773
 1374SOL    HW1 5021   4.562   1.989   0.736
 1374SOL    HW2 5022   4.520   2.069   0.872
 1375SOL     OW 5023   6.855   5.022   6.094
 1375SOL    HW1 5024   6.803   5.098   6.133
 1375SOL    HW2 5025   6.932   5.000   6.154
 1376SOL     OW 5026   4.661   2.724   3.858
 1376SOL    HW1 5027   4.662   2.700   3.955
 1376SOL    HW2 5028   4.722   2.801   3.842
 1377SOL     OW 5029   0.295   4.333   6.285
 1377SOL    HW1 5030   0.391   4.341   6.256
 1377SOL    HW2 5031   0.257   4.424   6.300
 1378SOL     OW 5032   0.654   2.529   5.306
 1378SOL    HW1 5033   0.700   2.464   5.367
 1378SOL    HW2 5034   0.629   2.482   5.221
 1379SOL     OW 5035   3.517   6.342   2.768
 1379SOL    HW1 5036   3.594   6.336   2.830
 1379SOL    HW2 5037   3.544   6.308   2.678
 1380SOL     OW 5038   6.429   0.161   2.831
 1380SOL    HW1 5039   6.446   0.115   2.918
 1380SOL    HW2 5040   6.331   0.159   2.810
 1381SOL     OW 5041   4.977   2.674   0.085
 1381SOL    HW1 5042   5.017   2.621   0.009
 1381SOL    HW2 5043   5.020   2.647   0.171
 1382SOL     OW 5044   5.964   4.656   6.030
 1382SOL    HW1 5045   6.048   4.607   6.055
 1382SOL    HW2 5046   5.975   4.698   5.940
 1383SOL     OW 5047   0.655   1.231   0.446
 1383SOL    HW1 5048   0.619   1.265   0.533
 1383SOL    HW2 5049   0.676   1.308   0.386
 1384SOL     OW 5050   2.953   1.629   3.690
 1384SOL    HW1 5051   2.993   1.541   3.714
 1384SOL    HW2 5052   2.872   1.644   3.747
 1385SOL     OW 5053   6.387   2.688   3.172
 1385SOL    HW1 5054   6.464   2.680   3.235
 1385SOL    HW2 5055   6.412   2.749   3.097
 1386SOL     OW 5056   2.355   2.818   4.667
 1386SOL    HW1 5057   2.292   2.823   4.589
 1386SOL    HW2 5058   2.366   2.910   4.706
 1387SOL     OW 5059   3.432   0.363   4.386
 1387SOL    HW1 5060   3.382   0.413   4.457
 1387SOL    HW2 5061   3.395   0.386   4.296
 1388SOL     OW 5062   6.555   0.196   4.281
 1388SOL    HW1 5063   6.507   0.273   4.238
 1388SOL    HW2 5064   6.538   0.197   4.380
 1389SOL     OW 5065   6.913   0.111   4.251
 1389SOL    HW1 5066   6.896   0.048   4.327
 1389SOL    HW2 5067   6.878   0.202   4.274
 1390SOL     OW 5068   4.168   1.603   0.441
 1390SOL    HW1 5069   4.077   1.577   0.407
 1390SOL    HW2 5070   4.158   1.668   0.517
 1391SOL     OW 5071   6.250   0.945   5.699
 1391SOL    HW1 5072   6.224   0.937   5.795
 1391SOL    HW2 5073   6.189   1.009   5.652
 1392SOL     OW 5074   4.634   5.994   5.750
 1392SOL    HW1 5075   4.588   6.081   5.767
 1392SOL    HW2 5076   4.582   5.920   5.791
 1393SOL     OW 5077   6.742   1.941   6.657
 1393SOL    HW1 5078   6.752   1.847   6.689
 1393SOL    HW2 5079   6.715   1.999   6.734
 1394SOL     OW 5080   4.238   6.335   3.368
 1394SOL    HW1 5081   4.142   6.365   3.366
 1394SOL    HW2 5082   4.242   6.236   3.383
 1395SOL     OW 5083   0.735   4.087   2.927
 1395SOL    HW1 5084   0.765   4.162   2.869
 1395SOL    HW2 5085   0.704   4.124   3.015
 1396SOL     OW 5086   2.036   1.302   4.606
 1396SOL    HW1 5087   2.055   1.227   4.669
 1396SOL    HW2 5088   2.112   1.313   4.542
 1397SOL     OW 5089   0.315   5.411   4.938
 1397SOL    HW1 5090   0.269   5.489   4.895
 1397SOL    HW2 5091   0.378   5.443   5.008
 1398SOL     OW 5092   1.784   1.083   0.307
 1398SOL    HW1 5093   1.784   1.060   0.405
 1398SOL    HW2 5094   1.872   1.123   0.282
 1399SOL     OW 5095   3.914   6.745   0.727
 1399SOL    HW1 5096   3.879   6.665   0.680
 1399SOL    HW2 5097   3.845   6.817   0.727
 1400SOL     OW 5098   6.847   0.359   4.341
 1400SOL    HW1 5099   6.831   0.320   4.431
 1400SOL    HW2 5100   6.785   0.436   4.326
 1401SOL     OW 5101   5.391   0.187   4.210
 1401SOL    HW1 5102   5.452   0.266   4.204
 1401SOL    HW2 5103   5.444   0.105   4.232
 1402SOL     OW 5104   5.544   3.990   1.543
 1402SOL    HW1 5105   5.553   3.987   1.642
 1402SOL    HW2 5106   5.451   3.965   1.516
 1403SOL     OW 5107   3.606   3.567   0.095
 1403SOL    HW1 5108   3.629   3.581   7.022
 1403SOL    HW2 5109   3.670   3.501   0.135
 1404SOL     OW 5110   4.864   0.308   1.306
 1404SOL    HW1 5111   4.777   0.286   1.260
 1404SOL    HW2 5112   4.898   0.396   1.273
 1405SOL     OW 5113   2.241   3.518   0.883
 1405SOL    HW1 5114   2.200   3.534   0.973
 1405SOL    HW2 5115   2.212   3.591   0.820
 1406SOL     OW 5116   2.297   3.459   1.443
 1406SOL    HW1 5117   2.240   3.384   1.410
 1406SOL    HW2 5118   2.393   3.438   1.427
 1407SOL     OW 5119   0.910   3.526   1.864
 1407SOL    HW1 5120   0.866   3.567   1.944
 1407SOL    HW2 5121   0.854   3.542   1.783
 1408SOL     OW 5122   6.002   5.916   6.431
 1408SOL    HW1 5123   5.965   5.994   6.483
 1408SOL    HW2 5124   5.931   5.878   6.373
 1409SOL     OW 5125   7.003   0.996   5.818
 1409SOL    HW1 5126   0.074   0.964   5.828
 1409SOL    HW2 5127   6.996   1.052   5.735
 1410SOL     OW 5128   2.627   2.659   6.039
 1410SOL    HW1 5129   2.530   2.676   6.058
 1410SOL    HW2 5130   2.639   2.646   5.941
 1411SOL     OW 5131   4.064   5.660   0.284
 1411SOL    HW1 5132   4.098   5.620   0.198
 1411SOL    HW2 5133   4.085   5.598   0.359
 1412SOL     OW 5134   1.732   2.869   0.609
 1412SOL    HW1 5135   1.672   2.908   0.538
 1412SOL    HW2 5136   1.679   2.808   0.667
 1413SOL     OW 5137   2.136   1.684   5.228
 1413SOL    HW1 5138   2.154   1.589   5.254
 1413SOL    HW2 5139   2.051   1.715   5.270
 1414SOL     OW 5140   0.697   3.744   2.535
 1414SOL    HW1 5141   0.643   3.663   2.512
 1414SOL    HW2 5142   0.684   3.766   2.631
 1415SOL     OW 5143   2.355   2.332   4.383
 1415SOL    HW1 5144   2.339   2.234   4.396
 1415SOL    HW2 5145   2.293   2.366   4.313
 1416SOL     OW 5146   4.068   0.061   6.117
 1416SOL    HW1 5147   3.997   0.105   6.062
 1416SOL    HW2 5148   4.064   6.985   6.102
 1417SOL     OW 5149   3.021   3.133   6.468
 1417SOL    HW1 5150   3.013   3.084   6.382
 1417SOL    HW2 5151   2.930   3.152   6.505
 1418SOL     OW 5152   3.392   3.756   6.963
 1418SOL    HW1 5153   3.379   3.820   6.887
 1418SOL    HW2 5154   3.430   3.805   0.018
 1419SOL     OW 5155   1.959   4.904   3.469
 1419SOL    HW1 5156   1.972   5.000   3.494
 1419SOL    HW2 5157   1.944   4.849   3.552
 1420SOL     OW 5158   3.821   5.179   2.432
 1420SOL    HW1 5159   3.731   5.167   2.390
 1420SOL    HW2 5160   3.887   5.119   2.387
 1421SOL     OW 5161   0.921   4.936   5.352
 1421SOL    HW1 5162   0.900   4.840   5.333
 1421SOL    HW2 5163   0.942   4.947   5.450
 1422SOL     OW 5164   2.773   3.944   6.004
 1422SOL    HW1 5165   2.757   3.949   5.905
 1422SOL    HW2 5166   2.846   3.878   6.022
 1423SOL     OW 5167   4.069   1.323   4.601
 1423SOL    HW1 5168   4.039   1.301   4.693
 1423SOL    HW2 5169   3.990   1.341   4.543
 1424SOL     OW 5170   5.955   2.676   6.756
 1424SOL    HW1 5171   5.889   2.603   6.773
 1424SOL    HW2 5172   6.023   2.645   6.690
 1425SOL     OW 5173   3.510   6.148   4.401
 1425SOL    HW1 5174   3.438   6.095   4.357
 1425SOL    HW2 5175   3.538   6.102   4.486
 1426SOL     OW 5176   2.360   1.804   6.077
 1426SOL    HW1 5177   2.357   1.706   6.094
 1426SOL    HW2 5178   2.439   1.843   6.125
 1427SOL     OW 5179   1.133   1.300   3.092
 1427SOL    HW1 5180   1.218   1.326   3.138
 1427SOL    HW2 5181   1.115   1.363   3.017
 1428SOL     OW 5182   6.978   2.966   2.843
 1428SOL    HW1 5183   6.930   2.949   2.757
 1428SOL    HW2 5184   0.049   2.932   2.836
 1429SOL     OW 5185   6.192   1.740   0.457
 1429SOL    HW1 5186   6.226   1.670   0.393
 1429SOL    HW2 5187   6.093   1.729   0.467
 1430SOL     OW 5188   2.287   4.156   3.641
 1430SOL    HW1 5189   2.308   4.125   3.734
 1430SOL    HW2 5190   2.304   4.255   3.635
 1431SOL     OW 5191   2.392   1.249   5.924
 1431SOL    HW1 5192   2.321   1.236   5.993
 1431SOL    HW2 5193   2.468   1.300   5.963
 1432SOL     OW 5194   2.408   1.274   0.841
 1432SOL    HW1 5195   2.345   1.287   0.918
 1432SOL    HW2 5196   2.362   1.298   0.756
 1433SOL     OW 5197   2.870   0.400   4.420
 1433SOL    HW1 5198   2.834   0.311   4.446
 1433SOL    HW2 5199   2.795   0.461   4.394
 1434SOL     OW 5200   6.850   2.665   6.283
 1434SOL    HW1 5201   6.871   2.628   6.374
 1434SOL    HW2 5202   6.757   2.637   6.257
 1435SOL     OW 5203   0.148   0.203   3.675
 1435SOL    HW1 5204   0.179   0.173   3.585
 1435SOL    HW2 5205   0.209   0.275   3.709
 1436SOL     OW 5206   5.850   2.663   0.715
 1436SOL    HW1 5207   5.815   2.667   0.621
 1436SOL    HW2 5208   5.869   2.568   0.740
 1437SOL     OW 5209   4.479   1.460   6.412
 1437SOL    HW1 5210   4.452   1.522   6.487
 1437SOL    HW2 5211   4.419   1.380   6.412
 1438SOL     OW 5212   2.762   0.684   1.717
 1438SOL    HW1 5213   2.750   0.662   1.814
 1438SOL    HW2 5214   2.758   0.784   1.706
 1439SOL     OW 5215   6.926   5.525   6.875
 1439SOL    HW1 5216   6.884   5.435   6.884
 1439SOL    HW2 5217   6.970   5.533   6.786
 1440SOL     OW 5218   3.675   3.038   3.791
 1440SOL    HW1 5219   3.611   3.106   3.827
 1440SOL    HW2 5220   3.642   3.005   3.702
 1441SOL     OW 5221   6.604   3.018   4.338
 1441SOL    HW1 5222   6.633   2.996   4.245
 1441SOL    HW2 5223   6.580   2.933   4.386
 1442SOL     OW 5224   5.007   4.503   0.509
 1442SOL    HW1 5225   5.071   4.432   0.480
 1442SOL    HW2 5226   5.058   4.580   0.546
 1443SOL     OW 5227   0.825   1.331   3.570
 1443SOL    HW1 5228   0.774   1.386   3.504
 1443SOL    HW2 5229   0.897   1.386   3.612
 1444SOL     OW 5230   4.475   0.379   3.410
 1444SOL    HW1 5231   4.558   0.347   3.457
 1444SOL    HW2 5232   4.424   0.300   3.377
 1445SOL     OW 5233   0.217   2.522   1.408
 1445SOL    HW1 5234   0.180   2.602   1.455
 1445SOL    HW2 5235   0.278   2.472   1.470
 1446SOL     OW 5236   4.245   2.048   1.628
 1446SOL    HW1 5237   4.314   2.059   1.699
 1446SOL    HW2 5238   4.187   2.129   1.625
 1447SOL     OW 5239   6.768   1.083   5.338
 1447SOL    HW1 5240   6.694   1.025   5.305
 1447SOL    HW2 5241   6.810   1.130   5.261
 1448SOL     OW 5242   5.381   1.374   0.049
 1448SOL    HW1 5243   5.461   1.429   0.026
 1448SOL    HW2 5244   5.323   1.365   6.992
 1449SOL     OW 5245   5.169   6.556   0.650
 1449SOL    HW1 5246   5.082   6.520   0.685
 1449SOL    HW2 5247   5.175   6.538   0.552
 1450SOL     OW 5248   5.793   3.108   2.398
 1450SOL    HW1 5249   5.852   3.145   2.326
 1450SOL    HW2 5250   5.769   3.013   2.376
 1451SOL     OW 5251   1.769   6.734   2.830
 1451SOL    HW1 5252   1.779   6.817   2.886
 1451SOL    HW2 5253   1.720   6.756   2.746
 1452SOL     OW 5254   5.302   0.717   4.872
 1452SOL    HW1 5255   5.204   0.709   4.890
 1452SOL    HW2 5256   5.345   0.627   4.876
 1453SOL     OW 5257   5.085   4.081   4.871
 1453SOL    HW1 5258   5.090   4.181   4.875
 1453SOL    HW2 5259   5.095   4.052   4.776
 1454SOL     OW 5260   5.127   2.854   1.586
 1454SOL    HW1 5261   5.074   2.823   1.507
 1454SOL    HW2 5262   5.077   2.833   1.670
 1455SOL     OW 5263   0.737   0.833   1.798
 1455SOL    HW1 5264   0.813   0.886   1.761
 1455SOL    HW2 5265   0.767   0.781   1.878
 1456SOL     OW 5266   6.957   0.028   4.671
 1456SOL    HW1 5267   6.888   7.019   4.605
 1456SOL    HW2 5268   0.007   0.075   4.622
 1457SOL     OW 5269   1.414   0.557   4.038
 1457SOL    HW1 5270   1.419   0.534   3.940
 1457SOL    HW2 5271   1.336   0.618   4.054
 1458SOL     OW 5272   5.100   6.845   5.880
 1458SOL    HW1 5273   5.029   6.883   5.822
 1458SOL    HW2 5274   5.091   6.882   5.973
 1459SOL     OW 5275   2.802   6.098   6.824
 1459SOL    HW1 5276   2.780   6.001   6.813
 1459SOL    HW2 5277   2.835   6.134   6.737
 1460SOL     OW 5278   1.138   6.508   6.816
 1460SOL    HW1 5279   1.208   6.580   6.816
 1460SOL    HW2 5280   1.178   6.423   6.849
 1461SOL     OW 5281   5.772   4.385   3.144
 1461SOL    HW1 5282   5.755   4.288   3.163
 1461SOL    HW2 5283   5.858   4.413   3.186
 1462SOL     OW 5284   6.535   0.970   1.336
 1462SOL    HW1 5285   6.485   0.902   1.391
 1462SOL    HW2 5286   6.474   1.009   1.267
 1463SOL     OW 5287   0.819   0.380   5.108
 1463SOL    HW1 5288   0.876   0.354   5.186
 1463SOL    HW2 5289   0.873   0.375   5.024
 1464SOL     OW 5290   0.253   6.559   0.474
 1464SOL    HW1 5291   0.344   6.529   0.503
 1464SOL    HW2 5292   0.239   6.534   0.379
 1465SOL     OW 5293   0.376   0.136   3.858
 1465SOL    HW1 5294   0.378   0.233   3.832
 1465SOL    HW2 5295   0.307   0.089   3.803
 1466SOL     OW 5296   6.559   5.690   2.234
 1466SOL    HW1 5297   6.530   5.628   2.161
 1466SOL    HW2 5298   6.503   5.773   2.231
 1467SOL     OW 5299   1.348   1.459   3.217
 1467SOL    HW1 5300   1.372   1.406   3.299
 1467SOL    HW2 5301   1.424   1.519   3.192
 1468SOL     OW 5302   5.667   5.634   3.887
 1468SOL    HW1 5303   5.572   5.618   3.914
 1468SOL    HW2 5304   5.683   5.594   3.796
 1469SOL     OW 5305   0.378   0.445   2.451
 1469SOL    HW1 5306   0.404   0.542   2.453
 1469SOL    HW2 5307   0.392   0.404   2.541
 1470SOL     OW 5308   1.064   1.024   3.131
 1470SOL    HW1 5309   1.078   1.123   3.121
 1470SOL    HW2 5310   1.084   0.997   3.225
 1471SOL     OW 5311   0.070   0.413   0.482
 1471SOL    HW1 5312   0.044   0.413   0.579
 1471SOL    HW2 5313   0.126   0.494   0.463
 1472SOL     OW 5314   4.574   0.427   5.561
 1472SOL    HW1 5315   4.537   0.518   5.547
 1472SOL    HW2 5316   4.651   0.412   5.499
 1473SOL     OW 5317   6.443   5.718   2.814
 1473SOL    HW1 5318   6.350   5.689   2.838
 1473SOL    HW2 5319   6.508   5.673   2.875
 1474SOL     OW 5320   6.049   5.553   4.522
 1474SOL    HW1 5321   6.016   5.512   4.608
 1474SOL    HW2 5322   6.039   5.486   4.448
 1475SOL     OW 5323   6.800   0.345   2.764
 1475SOL    HW1 5324   6.768   0.263   2.811
 1475SOL    HW2 5325   6.873   0.321   2.700
 1476SOL     OW 5326   1.623   1.383   2.156
 1476SOL    HW1 5327   1.618   1.288   2.187
 1476SOL    HW2 5328   1.706   1.395   2.102
 1477SOL     OW 5329   3.189   0.290   5.172
 1477SOL    HW1 5330   3.129   0.370   5.164
 1477SOL    HW2 5331   3.138   0.214   5.212
 1478SOL     OW 5332   6.360   5.104   1.038
 1478SOL    HW1 5333   6.408   5.184   1.001
 1478SOL    HW2 5334   6.421   5.055   1.100
 1479SOL     OW 5335   1.940   4.619   0.378
 1479SOL    HW1 5336   1.877   4.693   0.403
 1479SOL    HW2 5337   2.029   4.636   0.419
 1480SOL     OW 5338   2.000   0.959   6.690
 1480SOL    HW1 5339   1.935   0.993   6.623
 1480SOL    HW2 5340   1.954   0.891   6.748
 1481SOL     OW 5341   6.136   2.013   5.865
 1481SOL    HW1 5342   6.100   2.034   5.956
 1481SOL    HW2 5343   6.234   2.030   5.863
 1482SOL     OW 5344   5.325   0.809   0.694
 1482SOL    HW1 5345   5.321   0.835   0.597
 1482SOL    HW2 5346   5.418   0.783   0.717
 1483SOL     OW 5347   6.583   2.604   0.303
 1483SOL    HW1 5348   6.666   2.563   0.264
 1483SOL    HW2 5349   6.547   2.673   0.240
 1484SOL     OW 5350   6.732   4.413   2.389
 1484SOL    HW1 5351   6.681   4.331   2.416
 1484SOL    HW2 5352   6.772   4.398   2.299
 1485SOL     OW 5353   5.387   3.032   3.038
 1485SOL    HW1 5354   5.395   3.044   2.939
 1485SOL    HW2 5355   5.296   3.060   3.068
 1486SOL     OW 5356   4.925   2.516   3.009
 1486SOL    HW1 5357   4.897   2.441   2.950
 1486SOL    HW2 5358   4.846   2.576   3.026
 1487SOL     OW 5359   5.668   1.293   6.142
 1487SOL    HW1 5360   5.640   1.379   6.185
 1487SOL    HW2 5361   5.643   1.296   6.045
 1488SOL     OW 5362   4.885   0.722   3.011
 1488SOL    HW1 5363   4.930   0.792   3.066
 1488SOL    HW2 5364   4.807   0.763   2.963
 1489SOL     OW 5365   4.019   4.885   4.865
 1489SOL    HW1 5366   4.077   4.932   4.798
 1489SOL    HW2 5367   4.017   4.787   4.845
 1490SOL     OW 5368   1.107   1.222   0.425
 1490SOL    HW1 5369   1.163   1.190   0.348
 1490SOL    HW2 5370   1.159   1.213   0.510
 1491SOL     OW 5371   6.948   3.793   3.381
 1491SOL    HW1 5372   0.007   3.808   3.326
 1491SOL    HW2 5373   6.967   3.724   3.452
 1492SOL     OW 5374   5.160   2.124   1.144
 1492SOL    HW1 5375   5.229   2.089   1.207
 1492SOL    HW2 5376   5.083   2.061   1.141
 1493SOL     OW 5377   4.204   0.295   5.154
 1493SOL    HW1 5378   4.108   0.299   5.128
 1493SOL    HW2 5379   4.247   0.214   5.112
 1494SOL     OW 5380   3.968   2.396   6.092
 1494SOL    HW1 5381   3.904   2.412   6.017
 1494SOL    HW2 5382   3.957   2.468   6.161
 1495SOL     OW 5383   0.562   3.414   3.317
 1495SOL    HW1 5384   0.509   3.448   3.395
 1495SOL    HW2 5385   0.504   3.412   3.236
 1496SOL     OW 5386   6.425   0.178   2.366
 1496SOL    HW1 5387   6.399   0.081   2.368
 1496SOL    HW2 5388   6.451   0.204   2.273
 1497SOL     OW 5389   6.907   5.335   4.031
 1497SOL    HW1 5390   6.963   5.418   4.020
 1497SOL    HW2 5391   6.966   5.255   4.032
 1498SOL     OW 5392   2.218   4.817   6.363
 1498SOL    HW1 5393   2.160   4.854   6.436
 1498SOL    HW2 5394   2.256   4.892   6.310
 1499SOL     OW 5395   0.817   3.556   4.909
 1499SOL    HW1 5396   0.828   3.461   4.936
 1499SOL    HW2 5397   0.750   3.600   4.968
 1500SOL     OW 5398   5.428   0.015   0.453
 1500SOL    HW1 5399   5.410   0.018   0.354
 1500SOL    HW2 5400   5.461   0.105   0.483
 1501SOL     OW 5401   4.230   0.206   6.519
 1501SOL    HW1 5402   4.254   0.112   6.497
 1501SOL    HW2 5403   4.193   0.210   6.612
 1502SOL     OW 5404   6.439   6.465   0.053
 1502SOL    HW1 5405   6.456   6.507   0.142
 1502SOL    HW2 5406   6.488   6.515   7.006
 1503SOL     OW 5407   2.208   2.492   0.323
 1503SOL    HW1 5408   2.258   2.545   0.254
 1503SOL    HW2 5409   2.241   2.398   0.323
 1504SOL     OW 5410   3.116   0.015   4.590
 1504SOL    HW1 5411   3.131   6.951   4.636
 1504SOL    HW2 5412   3.187   0.080   4.618
 1505SOL     OW 5413   5.673   0.002   5.376
 1505SOL    HW1 5414   5.723   7.001   5.293
 1505SOL    HW2 5415   5.687   6.955   5.446
 1506SOL     OW 5416   0.900   5.485   3.625
 1506SOL    HW1 5417   0.976   5.550   3.622
 1506SOL    HW2 5418   0.855   5.490   3.714
 1507SOL     OW 5419   1.818   2.079   4.901
 1507SOL    HW1 5420   1.763   2.133   4.837
 1507SOL    HW2 5421   1.910   2.116   4.905
 1508SOL     OW 5422   4.371   0.006   0.816
 1508SOL    HW1 5423   4.279   7.002   0.788
 1508SOL    HW2 5424   4.379   0.106   0.811
 1509SOL     OW 5425   4.548   3.324   6.242
 1509SOL    HW1 5426   4.593   3.271   6.315
 1509SOL    HW2 5427   4.526   3.264   6.166
 1510SOL     OW 5428   0.090   2.449   4.283
 1510SOL    HW1 5429   0.144   2.526   4.316
 1510SOL    HW2 5430   7.018   2.461   4.309
 1511SOL     OW 5431   2.772   1.702   6.875
 1511SOL    HW1 5432   2.772   1.708   6.775
 1511SOL    HW2 5433   2.842   1.636   6.904
 1512SOL     OW 5434   0.059   0.241   1.480
 1512SOL    HW1 5435   6.990   0.273   1.502
 1512SOL    HW2 5436   0.104   0.308   1.421
 1513SOL     OW 5437   3.492   0.195   3.973
 1513SOL    HW1 5438   3.578   0.223   3.930
 1513SOL    HW2 5439   3.425   0.175   3.902
 1514SOL     OW 5440   5.846   1.785   5.435
 1514SOL    HW1 5441   5.812   1.852   5.502
 1514SOL    HW2 5442   5.910   1.723   5.480
 1515SOL     OW 5443   0.460   4.176   5.328
 1515SOL    HW1 5444   0.514   4.258   5.308
 1515SOL    HW2 5445   0.461   4.115   5.249
 1516SOL     OW 5446   0.793   1.914   0.872
 1516SOL    HW1 5447   0.818   1.874   0.960
 1516SOL    HW2 5448   0.852   1.875   0.800
 1517SOL     OW 5449   4.060   5.502   3.884
 1517SOL    HW1 5450   4.071   5.597   3.910
 1517SOL    HW2 5451   3.991   5.459   3.943
 1518SOL     OW 5452   6.780   4.401   0.283
 1518SOL    HW1 5453   6.684   4.374   0.283
 1518SOL    HW2 5454   6.837   4.319   0.271
 1519SOL     OW 5455   6.692   4.705   0.958
 1519SOL    HW1 5456   6.765   4.635   0.957
 1519SOL    HW2 5457   6.652   4.709   1.050
 1520SOL     OW 5458   2.106   3.437   2.620
 1520SOL    HW1 5459   2.112   3.434   2.520
 1520SOL    HW2 5460   2.117   3.344   2.656
 1521SOL     OW 5461   1.509   3.085   7.012
 1521SOL    HW1 5462   1.607   3.068   7.023
 1521SOL    HW2 5463   1.468   3.103   0.078
 1522SOL     OW 5464   6.648   2.126   6.479
 1522SOL    HW1 5465   6.678   2.046   6.531
 1522SOL    HW2 5466   6.647   2.103   6.381
 1523SOL     OW 5467   6.214   2.937   0.632
 1523SOL    HW1 5468   6.186   2.903   0.542
 1523SOL    HW2 5469   6.223   3.037   0.629
 1524SOL     OW 5470   0.262   1.661   1.682
 1524SOL    HW1 5471   0.297   1.755   1.678
 1524SOL    HW2 5472   0.215   1.647   1.769
 1525SOL     OW 5473   4.055   1.618   5.786
 1525SOL    HW1 5474   4.013   1.652   5.702
 1525SOL    HW2 5475   3.993   1.551   5.829
 1526SOL     OW 5476   0.225   1.609   1.410
 1526SOL    HW1 5477   0.242   1.657   1.495
 1526SOL    HW2 5478   0.188   1.673   1.342
 1527SOL     OW 5479   3.426   1.373   5.047
 1527SOL    HW1 5480   3.419   1.333   5.138
 1527SOL    HW2 5481   3.491   1.320   4.992
 1528SOL     OW 5482   4.794   6.325   2.528
 1528SOL    HW1 5483   4.854   6.310   2.606
 1528SOL    HW2 5484   4.789   6.423   2.508
 1529SOL     OW 5485   3.971   0.846   5.984
 1529SOL    HW1 5486   4.011   0.802   5.904
 1529SOL    HW2 5487   3.873   0.830   5.985
 1530SOL     OW 5488   2.971   6.647   2.178
 1530SOL    HW1 5489   2.893   6.666   2.237
 1530SOL    HW2 5490   3.054   6.641   2.233
 1531SOL     OW 5491   6.710   0.392   3.994
 1531SOL    HW1 5492   6.806   0.379   3.969
 1531SOL    HW2 5493   6.673   0.305   4.028
 1532SOL     OW 5494   3.345   2.251   5.295
 1532SOL    HW1 5495   3.276   2.288   5.233
 1532SOL    HW2 5496   3.301   2.192   5.363
 1533SOL     OW 5497   6.655   3.617   0.123
 1533SOL    HW1 5498   6.640   3.541   0.060
 1533SOL    HW2 5499   6.674   3.700   0.070
 1534SOL     OW 5500   1.433   5.960   0.514
 1534SOL    HW1 5501   1.451   5.865   0.488
 1534SOL    HW2 5502   1.516   6.014   0.504
 1535SOL     OW 5503   5.335   4.871   4.464
 1535SOL    HW1 5504   5.286   4.809   4.403
 1535SOL    HW2 5505   5.408   4.917   4.412
 1536SOL     OW 5506   2.396   5.722   4.312
 1536SOL    HW1 5507   2.388   5.675   4.224
 1536SOL    HW2 5508   2.492   5.721   4.342
 1537SOL     OW 5509   2.548   5.776   3.785
 1537SOL    HW1 5510   2.504   5.689   3.766
 1537SOL    HW2 5511   2.585   5.814   3.700
 1538SOL     OW 5512   2.366   4.521   6.821
 1538SOL    HW1 5513   2.406   4.465   6.749
 1538SOL    HW2 5514   2.392   4.483   6.910
 1539SOL     OW 5515   3.526   4.372   1.725
 1539SOL    HW1 5516   3.614   4.327   1.732
 1539SOL    HW2 5517   3.531   4.463   1.765
 1540SOL     OW 5518   0.654   0.052   4.696
 1540SOL    HW1 5519   0.659   6.979   4.671
 1540SOL    HW2 5520   0.745   0.093   4.685
 1541SOL     OW 5521   4.278   2.810   1.029
 1541SOL    HW1 5522   4.268   2.733   1.091
 1541SOL    HW2 5523   4.372   2.844   1.033
 1542SOL     OW 5524   0.620   6.087   1.327
 1542SOL    HW1 5525   0.532   6.134   1.321
 1542SOL    HW2 5526   0.693   6.149   1.300
 1543SOL     OW 5527   3.211   3.618   4.104
 1543SOL    HW1 5528   3.118   3.627   4.141
 1543SOL    HW2 5529   3.268   3.567   4.168
 1544SOL     OW 5530   2.962   3.736   2.371
 1544SOL    HW1 5531   2.911   3.771   2.293
 1544SOL    HW2 5532   3.033   3.673   2.338
 1545SOL     OW 5533   6.484   0.971   5.185
 1545SOL    HW1 5534   6.443   0.913   5.255
 1545SOL    HW2 5535   6.451   1.065   5.195
 1546SOL     OW 5536   6.384   0.002   6.290
 1546SOL    HW1 5537   6.398   6.981   6.202
 1546SOL    HW2 5538   6.464   7.012   6.348
 1547SOL     OW 5539   3.031   4.873   2.589
 1547SOL    HW1 5540   3.123   4.849   2.619
 1547SOL    HW2 5541   3.031   4.966   2.552
 1548SOL     OW 5542   4.077   4.825   5.333
 1548SOL    HW1 5543   4.175   4.838   5.346
 1548SOL    HW2 5544   4.054   4.729   5.350
 1549SOL     OW 5545   6.851   2.223   1.466
 1549SOL    HW1 5546   6.930   2.246   1.523
 1549SOL    HW2 5547   6.774   2.283   1.490
 1550SOL     OW 5548   2.154   6.304   5.137
 1550SOL    HW1 5549   2.095   6.240   5.188
 1550SOL    HW2 5550   2.105   6.337   5.057
 1551SOL     OW 5551   1.660   2.734   1.185
 1551SOL    HW1 5552   1.608   2.811   1.146
 1551SOL    HW2 5553   1.697   2.760   1.274
 1552SOL     OW 5554   1.744   0.510   1.316
 1552SOL    HW1 5555   1.652   0.550   1.317
 1552SOL    HW2 5556   1.792   0.534   1.400
 1553SOL     OW 5557   5.990   2.002   0.053
 1553SOL    HW1 5558   5.900   1.975   0.021
 1553SOL    HW2 5559   6.001   1.975   0.149
 1554SOL     OW 5560   4.244   2.285   3.290
 1554SOL    HW1 5561   4.303   2.358   3.256
 1554SOL    HW2 5562   4.295   2.199   3.292
 1555SOL     OW 5563   5.047   1.504   5.067
 1555SOL    HW1 5564   5.081   1.560   5.142
 1555SOL    HW2 5565   4.954   1.532   5.043
 1556SOL     OW 5566   3.582   0.562   0.608
 1556SOL    HW1 5567   3.491   0.545   0.646
 1556SOL    HW2 5568   3.579   0.553   0.508
 1557SOL     OW 5569   2.013   2.351   1.145
 1557SOL    HW1 5570   1.962   2.423   1.098
 1557SOL    HW2 5571   2.039   2.383   1.236
 1558SOL     OW 5572   6.413   2.931   5.508
 1558SOL    HW1 5573   6.494   2.917   5.565
 1558SOL    HW2 5574   6.334   2.887   5.552
 1559SOL     OW 5575   1.075   3.990   2.713
 1559SOL    HW1 5576   1.039   3.984   2.806
 1559SOL    HW2 5577   1.019   3.934   2.652
 1560SOL     OW 5578   3.711   1.442   0.469
 1560SOL    HW1 5579   3.779   1.387   0.421
 1560SOL    HW2 5580   3.726   1.538   0.448
 1561SOL     OW 5581   5.651   6.235   1.917
 1561SOL    HW1 5582   5.557   6.268   1.906
 1561SOL    HW2 5583   5.706   6.307   1.960
 1562SOL     OW 5584   3.069   6.994   2.224
 1562SOL    HW1 5585   3.067   6.922   2.293
 1562SOL    HW2 5586   3.036   6.958   2.137
 1563SOL     OW 5587   3.103   2.112   4.726
 1563SOL    HW1 5588   3.183   2.052   4.735
 1563SOL    HW2 5589   3.096   2.169   4.808
 1564SOL     OW 5590   1.360   2.018   2.256
 1564SOL    HW1 5591   1.313   1.933   2.233
 1564SOL    HW2 5592   1.458   2.007   2.244
 1565SOL     OW 5593   3.776   6.319   3.933
 1565SOL    HW1 5594   3.828   6.292   3.852
 1565SOL    HW2 5595   3.830   6.303   4.015
 1566SOL     OW 5596   5.103   4.778   3.578
 1566SOL    HW1 5597   5.035   4.808   3.645
 1566SOL    HW2 5598   5.075   4.807   3.487
 1567SOL     OW 5599   5.776   5.775   6.182
 1567SOL    HW1 5600   5.819   5.754   6.095
 1567SOL    HW2 5601   5.764   5.691   6.236
 1568SOL     OW 5602   2.058   6.475   3.526
 1568SOL    HW1 5603   2.025   6.398   3.582
 1568SOL    HW2 5604   1.982   6.538   3.508
 1569SOL     OW 5605   3.270   0.067   2.917
 1569SOL    HW1 5606   3.260   0.144   2.980
 1569SOL    HW2 5607   3.319   0.097   2.835
 1570SOL     OW 5608   3.132   7.003   6.836
 1570SOL    HW1 5609   3.211   0.025   6.876
 1570SOL    HW2 5610   3.154   6.908   6.814
 1571SOL     OW 5611   1.013   2.567   3.573
 1571SOL    HW1 5612   1.041   2.648   3.623
 1571SOL    HW2 5613   1.091   2.505   3.563
 1572SOL     OW 5614   1.959   4.933   1.645
 1572SOL    HW1 5615   1.981   4.838   1.663
 1572SOL    HW2 5616   1.893   4.939   1.570
 1573SOL     OW 5617   4.872   5.639   1.415
 1573SOL    HW1 5618   4.961   5.644   1.460
 1573SOL    HW2 5619   4.826   5.554   1.441
 1574SOL     OW 5620   6.204   3.242   2.085
 1574SOL    HW1 5621   6.171   3.148   2.080
 1574SOL    HW2 5622   6.181   3.281   2.175
 1575SOL     OW 5623   1.342   1.242   1.673
 1575SOL    HW1 5624   1.330   1.147   1.699
 1575SOL    HW2 5625   1.320   1.253   1.576
 1576SOL     OW 5626   0.381   6.197   2.295
 1576SOL    HW1 5627   0.347   6.288   2.275
 1576SOL    HW2 5628   0.361   6.136   2.218
 1577SOL     OW 5629   3.238   0.474   6.350
 1577SOL    HW1 5630   3.209   0.423   6.269
 1577SOL    HW2 5631   3.169   0.542   6.373
 1578SOL     OW 5632   3.955   0.884   0.640
 1578SOL    HW1 5633   3.902   0.965   0.613
 1578SOL    HW2 5634   3.893   0.808   0.659
 1579SOL     OW 5635   1.583   2.759   1.624
 1579SOL    HW1 5636   1.526   2.678   1.609
 1579SOL    HW2 5637   1.629   2.751   1.712
 1580SOL     OW 5638   3.181   3.659   3.136
 1580SOL    HW1 5639   3.194   3.563   3.110
 1580SOL    HW2 5640   3.127   3.705   3.066
 1581SOL     OW 5641   0.293   4.020   6.274
 1581SOL    HW1 5642   0.243   4.096   6.234
 1581SOL    HW2 5643   0.235   3.938   6.274
 1582SOL     OW 5644   4.466   6.436   5.523
 1582SOL    HW1 5645   4.394   6.371   5.546
 1582SOL    HW2 5646   4.554   6.403   5.556
 1583SOL     OW 5647   0.783   5.977   4.762
 1583SOL    HW1 5648   0.784   6.060   4.817
 1583SOL    HW2 5649   0.846   5.910   4.801
 1584SOL     OW 5650   1.357   5.435   6.650
 1584SOL    HW1 5651   1.292   5.495   6.602
 1584SOL    HW2 5652   1.355   5.344   6.609
 1585SOL     OW 5653   4.003   1.109   3.435
 1585SOL    HW1 5654   4.048   1.064   3.512
 1585SOL    HW2 5655   4.068   1.117   3.359
 1586SOL     OW 5656   2.774   5.430   3.642
 1586SOL    HW1 5657   2.817   5.487   3.711
 1586SOL    HW2 5658   2.744   5.487   3.565
 1587SOL     OW 5659   1.909   6.184   5.861
 1587SOL    HW1 5660   1.971   6.227   5.926
 1587SOL    HW2 5661   1.913   6.232   5.773
 1588SOL     OW 5662   4.609   0.403   2.396
 1588SOL    HW1 5663   4.534   0.338   2.386
 1588SOL    HW2 5664   4.696   0.354   2.400
 1589SOL     OW 5665   6.315   3.815   2.744
 1589SOL    HW1 5666   6.242   3.773   2.690
 1589SOL    HW2 5667   6.276   3.886   2.803
 1590SOL     OW 5668   5.306   1.720   3.110
 1590SOL    HW1 5669   5.239   1.794   3.107
 1590SOL    HW2 5670   5.399   1.757   3.107
 1591SOL     OW 5671   0.213   5.909   1.475
 1591SOL    HW1 5672   0.227   5.811   1.464
 1591SOL    HW2 5673   0.300   5.957   1.459
 1592SOL     OW 5674   1.495   4.018   6.776
 1592SOL    HW1 5675   1.452   4.079   6.843
 1592SOL    HW2 5676   1.465   3.925   6.791
 1593SOL     OW 5677   1.194   0.228   6.469
 1593SOL    HW1 5678   1.276   0.173   6.483
 1593SOL    HW2 5679   1.192   0.302   6.537
 1594SOL     OW 5680   6.944   0.374   1.956
 1594SOL    HW1 5681   6.980   0.447   1.897
 1594SOL    HW2 5682   7.010   0.299   1.959
 1595SOL     OW 5683   1.779   4.021   6.829
 1595SOL    HW1 5684   1.680   4.008   6.839
 1595SOL    HW2 5685   1.825   3.932   6.831
 1596SOL     OW 5686   6.170   3.964   2.907
 1596SOL    HW1 5687   6.203   3.995   2.996
 1596SOL    HW2 5688   6.091   4.018   2.880
 1597SOL     OW 5689   2.898   5.311   0.968
 1597SOL    HW1 5690   2.849   5.226   0.949
 1597SOL    HW2 5691   2.984   5.311   0.917
 1598SOL     OW 5692   1.708   5.600   6.710
 1598SOL    HW1 5693   1.712   5.523   6.773
 1598SOL    HW2 5694   1.700   5.566   6.616
 1599SOL     OW 5695   3.663   5.205   4.334
 1599SOL    HW1 5696   3.696   5.281   4.390
 1599SOL    HW2 5697   3.683   5.119   4.380
 1600SOL     OW 5698   3.369   0.753   2.868
 1600SOL    HW1 5699   3.377   0.852   2.857
 1600SOL    HW2 5700   3.432   0.707   2.805
 1601SOL     OW 5701   6.216   6.441   4.125
 1601SOL    HW1 5702   6.290   6.444   4.058
 1601SOL    HW2 5703   6.255   6.450   4.217
 1602SOL     OW 5704   4.791   5.385   4.140
 1602SOL    HW1 5705   4.888   5.371   4.160
 1602SOL    HW2 5706   4.769   5.348   4.050
 1603SOL     OW 5707   2.899   5.619   4.276
 1603SOL    HW1 5708   2.990   5.657   4.290
 1603SOL    HW2 5709   2.895   5.527   4.313
 1604SOL     OW 5710   4.094   4.815   2.023
 1604SOL    HW1 5711   4.183   4.773   2.041
 1604SOL    HW2 5712   4.052   4.842   2.110
 1605SOL     OW 5713   5.590   5.324   1.682
 1605SOL    HW1 5714   5.688   5.304   1.677
 1605SOL    HW2 5715   5.573   5.414   1.642
 1606SOL     OW 5716   4.112   5.854   4.370
 1606SOL    HW1 5717   4.065   5.772   4.338
 1606SOL    HW2 5718   4.211   5.839   4.370
 1607SOL     OW 5719   4.288   7.014   2.359
 1607SOL    HW1 5720   4.198   6.972   2.347
 1607SOL    HW2 5721   4.345   6.955   2.416
 1608SOL     OW 5722   6.905   0.913   3.538
 1608SOL    HW1 5723   6.967   0.979   3.581
 1608SOL    HW2 5724   6.906   0.925   3.439
 1609SOL     OW 5725   3.204   6.345   0.561
 1609SOL    HW1 5726   3.288   6.293   0.569
 1609SOL    HW2 5727   3.177   6.379   0.651
 1610SOL     OW 5728   4.246   6.439   0.392
 1610SOL    HW1 5729   4.296   6.520   0.422
 1610SOL    HW2 5730   4.284   6.358   0.436
 1611SOL     OW 5731   1.439   4.006   1.054
 1611SOL    HW1 5732   1.525   3.976   1.012
 1611SOL    HW2 5733   1.444   3.992   1.153
 1612SOL     OW 5734   2.795   5.551   1.102
 1612SOL    HW1 5735   2.862   5.478   1.092
 1612SOL    HW2 5736   2.836   5.638   1.076
 1613SOL     OW 5737   0.934   5.894   2.482
 1613SOL    HW1 5738   0.982   5.850   2.559
 1613SOL    HW2 5739   0.862   5.834   2.449
 1614SOL     OW 5740   5.600   2.038   6.037
 1614SOL    HW1 5741   5.574   2.092   5.957
 1614SOL    HW2 5742   5.577   2.088   6.120
 1615SOL     OW 5743   0.438   5.071   6.780
 1615SOL    HW1 5744   0.394   4.981   6.782
 1615SOL    HW2 5745   0.537   5.059   6.790
 1616SOL     OW 5746   3.763   0.829   5.082
 1616SOL    HW1 5747   3.861   0.822   5.104
 1616SOL    HW2 5748   3.737   0.926   5.078
 1617SOL     OW 5749   4.886   6.949   3.461
 1617SOL    HW1 5750   4.842   6.985   3.544
 1617SOL    HW2 5751   4.944   7.020   3.422
 1618SOL     OW 5752   1.875   6.230   2.292
 1618SOL    HW1 5753   1.828   6.257   2.208
 1618SOL    HW2 5754   1.948   6.166   2.270
 1619SOL     OW 5755   1.248   5.179   0.407
 1619SOL    HW1 5756   1.216   5.091   0.444
 1619SOL    HW2 5757   1.254   5.172   0.308
 1620SOL     OW 5758   2.735   5.104   0.908
 1620SOL    HW1 5759   2.764   5.023   0.959
 1620SOL    HW2 5760   2.646   5.087   0.866
 1621SOL     OW 5761   5.973   6.144   1.458
 1621SOL    HW1 5762   5.904   6.149   1.385
 1621SOL    HW2 5763   5.927   6.141   1.547
 1622SOL     OW 5764   0.531   4.345   6.160
 1622SOL    HW1 5765   0.628   4.365   6.171
 1622SOL    HW2 5766   0.494   4.398   6.084
 1623SOL     OW 5767   0.934   2.138   4.817
 1623SOL    HW1 5768   0.930   2.042   4.790
 1623SOL    HW2 5769   1.030   2.168   4.820
 1624SOL     OW 5770   3.500   1.259   0.473
 1624SOL    HW1 5771   3.561   1.337   0.460
 1624SOL    HW2 5772   3.462   1.261   0.565
 1625SOL     OW 5773   2.087   5.313   0.265
 1625SOL    HW1 5774   2.168   5.322   0.208
 1625SOL    HW2 5775   2.102   5.359   0.353
 1626SOL     OW 5776   3.058   1.955   2.550
 1626SOL    HW1 5777   3.037   2.022   2.620
 1626SOL    HW2 5778   3.124   1.994   2.485
 1627SOL     OW 5779   4.959   2.794   4.414
 1627SOL    HW1 5780   5.001   2.706   4.393
 1627SOL    HW2 5781   4.859   2.783   4.414
 1628SOL     OW 5782   5.171   5.895   6.677
 1628SOL    HW1 5783   5.218   5.958   6.615
 1628SOL    HW2 5784   5.157   5.939   6.765
 1629SOL     OW 5785   3.136   2.132   3.280
 1629SOL    HW1 5786   3.094   2.167   3.196
 1629SOL    HW2 5787   3.190   2.051   3.259
 1630SOL     OW 5788   0.275   3.952   6.853
 1630SOL    HW1 5789   0.253   4.050   6.858
 1630SOL    HW2 5790   0.210   3.900   6.908
 1631SOL     OW 5791   6.905   3.374   1.204
 1631SOL    HW1 5792   6.835   3.430   1.247
 1631SOL    HW2 5793   6.937   3.419   1.120
 1632SOL     OW 5794   5.358   4.401   2.648
 1632SOL    HW1 5795   5.337   4.497   2.627
 1632SOL    HW2 5796   5.307   4.373   2.730
 1633SOL     OW 5797   4.777   4.161   3.844
 1633SOL    HW1 5798   4.733   4.184   3.930
 1633SOL    HW2 5799   4.811   4.067   3.847
 1634SOL     OW 5800   3.603   0.667   4.251
 1634SOL    HW1 5801   3.689   0.632   4.288
 1634SOL    HW2 5802   3.544   0.590   4.226
 1635SOL     OW 5803   3.221   5.037   6.377
 1635SOL    HW1 5804   3.195   4.954   6.426
 1635SOL    HW2 5805   3.236   5.111   6.442
 1636SOL     OW 5806   3.905   6.088   1.061
 1636SOL    HW1 5807   3.893   6.175   1.109
 1636SOL    HW2 5808   3.951   6.103   0.974
 1637SOL     OW 5809   6.803   6.708   3.167
 1637SOL    HW1 5810   6.883   6.649   3.169
 1637SOL    HW2 5811   6.729   6.662   3.117
 1638SOL     OW 5812   0.309   3.082   1.534
 1638SOL    HW1 5813   0.313   3.040   1.444
 1638SOL    HW2 5814   0.303   3.181   1.525
 1639SOL     OW 5815   6.800   3.807   1.332
 1639SOL    HW1 5816   6.794   3.790   1.233
 1639SOL    HW2 5817   6.831   3.724   1.378
 1640SOL     OW 5818   6.226   0.089   1.311
 1640SOL    HW1 5819   6.307   0.144   1.289
 1640SOL    HW2 5820   6.243   0.037   1.394
 1641SOL     OW 5821   6.728   1.917   3.517
 1641SOL    HW1 5822   6.735   1.939   3.420
 1641SOL    HW2 5823   6.739   2.000   3.571
 1642SOL     OW 5824   6.613   2.534   6.836
 1642SOL    HW1 5825   6.694   2.519   6.892
 1642SOL    HW2 5826   6.586   2.448   6.793
 1643SOL     OW 5827   3.099   4.889   3.773
 1643SOL    HW1 5828   3.190   4.856   3.749
 1643SOL    HW2 5829   3.080   4.973   3.721
 1644SOL     OW 5830   6.158   2.854   0.331
 1644SOL    HW1 5831   6.072   2.813   0.302
 1644SOL    HW2 5832   6.153   2.953   0.318
 1645SOL     OW 5833   2.717   0.019   5.877
 1645SOL    HW1 5834   2.658   0.055   5.806
 1645SOL    HW2 5835   2.808   0.001   5.839
 1646SOL     OW 5836   1.560   5.921   6.280
 1646SOL    HW1 5837   1.497   5.919   6.358
 1646SOL    HW2 5838   1.653   5.910   6.313
 1647SOL     OW 5839   5.698   2.751   4.000
 1647SOL    HW1 5840   5.752   2.822   3.956
 1647SOL    HW2 5841   5.626   2.720   3.938
 1648SOL     OW 5842   4.971   6.133   0.209
 1648SOL    HW1 5843   5.012   6.051   0.247
 1648SOL    HW2 5844   5.044   6.192   0.172
 1649SOL     OW 5845   2.958   0.405   3.863
 1649SOL    HW1 5846   2.926   0.395   3.769
 1649SOL    HW2 5847   2.939   0.497   3.896
 1650SOL     OW 5848   1.633   5.209   6.231
 1650SOL    HW1 5849   1.640   5.154   6.148
 1650SOL    HW2 5850   1.542   5.251   6.236
 1651SOL     OW 5851   0.306   2.767   3.395
 1651SOL    HW1 5852   0.244   2.782   3.318
 1651SOL    HW2 5853   0.288   2.678   3.436
 1652SOL     OW 5854   1.003   3.263   1.816
 1652SOL    HW1 5855   1.056   3.249   1.733
 1652SOL    HW2 5856   0.966   3.356   1.817
 1653SOL     OW 5857   0.240   5.547   2.487
 1653SOL    HW1 5858   0.215   5.561   2.391
 1653SOL    HW2 5859   0.244   5.635   2.533
 1654SOL     OW 5860   1.145   3.221   1.559
 1654SOL    HW1 5861   1.228   3.259   1.600
 1654SOL    HW2 5862   1.169   3.170   1.477
 1655SOL     OW 5863   0.081   1.113   4.439
 1655SOL    HW1 5864   0.171   1.117   4.397
 1655SOL    HW2 5865   0.062   1.019   4.468
 1656SOL     OW 5866   2.393   5.652   4.033
 1656SOL    HW1 5867   2.485   5.690   4.045
 1656SOL    HW2 5868   2.374   5.642   3.935
 1657SOL     OW 5869   6.641   0.983   4.801
 1657SOL    HW1 5870   6.583   0.933   4.866
 1657SOL    HW2 5871   6.584   1.020   4.727
 1658SOL     OW 5872   6.727   0.331   0.649
 1658SOL    HW1 5873   6.727   0.254   0.586
 1658SOL    HW2 5874   6.815   0.336   0.696
 1659SOL     OW 5875   4.213   0.097   6.928
 1659SOL    HW1 5876   4.283   0.038   6.889
 1659SOL    HW2 5877   4.133   0.099   6.867
 1660SOL     OW 5878   1.799   6.802   2.157
 1660SOL    HW1 5879   1.794   6.727   2.091
 1660SOL    HW2 5880   1.814   6.765   2.249
 1661SOL     OW 5881   2.876   5.010   2.237
 1661SOL    HW1 5882   2.942   5.017   2.163
 1661SOL    HW2 5883   2.850   4.914   2.249
 1662SOL     OW 5884   7.021   1.171   5.513
 1662SOL    HW1 5885   6.988   1.237   5.581
 1662SOL    HW2 5886   6.991   1.199   5.422
 1663SOL     OW 5887   5.209   5.102   2.600
 1663SOL    HW1 5888   5.283   5.146   2.549
 1663SOL    HW2 5889   5.172   5.166   2.667
 1664SOL     OW 5890   1.164   0.535   5.208
 1664SOL    HW1 5891   1.261   0.556   5.219
 1664SOL    HW2 5892   1.154   0.443   5.170
 1665SOL     OW 5893   1.436   3.259   1.592
 1665SOL    HW1 5894   1.470   3.198   1.664
 1665SOL    HW2 5895   1.492   3.342   1.590
 1666SOL     OW 5896   5.451   6.417   6.640
 1666SOL    HW1 5897   5.517   6.423   6.566
 1666SOL    HW2 5898   5.365   6.460   6.613
 1667SOL     OW 5899   0.052   6.711   1.152
 1667SOL    HW1 5900   0.114   6.666   1.088
 1667SOL    HW2 5901   0.060   6.668   1.242
 1668SOL     OW 5902   5.311   5.067   3.588
 1668SOL    HW1 5903   5.324   4.994   3.656
 1668SOL    HW2 5904   5.354   5.151   3.621
 1669SOL     OW 5905   0.082   4.270   5.593
 1669SOL    HW1 5906   0.108   4.275   5.497
 1669SOL    HW2 5907   0.136   4.200   5.640
 1670SOL     OW 5908   1.433   4.853   5.670
 1670SOL    HW1 5909   1.352   4.912   5.672
 1670SOL    HW2 5910   1.461   4.832   5.763
 1671SOL     OW 5911   5.385   1.536   2.840
 1671SOL    HW1 5912   5.324   1.563   2.766
 1671SOL    HW2 5913   5.353   1.577   2.926
 1672SOL     OW 5914   0.932   3.621   0.184
 1672SOL    HW1 5915   0.981   3.578   0.109
 1672SOL    HW2 5916   0.882   3.701   0.150
 1673SOL     OW 5917   2.343   1.845   4.822
 1673SOL    HW1 5918   2.319   1.814   4.914
 1673SOL    HW2 5919   2.403   1.778   4.779
 1674SOL     OW 5920   5.906   2.802   2.098
 1674SOL    HW1 5921   5.981   2.737   2.084
 1674SOL    HW2 5922   5.848   2.804   2.016
 1675SOL     OW 5923   4.661   0.252   1.174
 1675SOL    HW1 5924   4.649   0.194   1.093
 1675SOL    HW2 5925   4.600   0.221   1.247
 1676SOL     OW 5926   1.930   2.233   2.675
 1676SOL    HW1 5927   1.878   2.300   2.623
 1676SOL    HW2 5928   2.026   2.259   2.676
 1677SOL     OW 5929   3.709   3.987   2.997
 1677SOL    HW1 5930   3.670   3.898   2.974
 1677SOL    HW2 5931   3.778   4.012   2.929
 1678SOL     OW 5932   0.811   6.272   1.269
 1678SOL    HW1 5933   0.793   6.317   1.357
 1678SOL    HW2 5934   0.837   6.341   1.202
 1679SOL     OW 5935   1.696   1.328   5.063
 1679SOL    HW1 5936   1.776   1.280   5.099
 1679SOL    HW2 5937   1.724   1.417   5.027
 1680SOL     OW 5938   5.282   3.279   4.826
 1680SOL    HW1 5939   5.367   3.275   4.775
 1680SOL    HW2 5940   5.244   3.371   4.822
 1681SOL     OW 5941   1.597   5.584   4.894
 1681SOL    HW1 5942   1.651   5.583   4.810
 1681SOL    HW2 5943   1.534   5.662   4.891
 1682SOL     OW 5944   2.515   0.627   5.931
 1682SOL    HW1 5945   2.500   0.713   5.981
 1682SOL    HW2 5946   2.479   0.635   5.838
 1683SOL     OW 5947   5.321   5.996   3.078
 1683SOL    HW1 5948   5.239   5.939   3.090
 1683SOL    HW2 5949   5.321   6.069   3.146
 1684SOL     OW 5950   0.948   4.502   1.992
 1684SOL    HW1 5951   0.917   4.407   2.000
 1684SOL    HW2 5952   0.878   4.556   1.945
 1685SOL     OW 5953   2.070   2.089   5.639
 1685SOL    HW1 5954   2.000   2.114   5.706
 1685SOL    HW2 5955   2.127   2.168   5.620
 1686SOL     OW 5956   4.344   5.401   3.874
 1686SOL    HW1 5957   4.259   5.452   3.887
 1686SOL    HW2 5958   4.422   5.462   3.886
 1687SOL     OW 5959   0.288   4.345   1.664
 1687SOL    HW1 5960   0.253   4.373   1.753
 1687SOL    HW2 5961   0.227   4.377   1.592
 1688SOL     OW 5962   1.948   2.267   3.321
 1688SOL    HW1 5963   1.951   2.334   3.247
 1688SOL    HW2 5964   1.932   2.314   3.408
 1689SOL     OW 5965   6.759   1.270   2.436
 1689SOL    HW1 5966   6.679   1.270   2.497
 1689SOL    HW2 5967   6.733   1.235   2.346
 1690SOL     OW 5968   1.282   3.421   3.979
 1690SOL    HW1 5969   1.352   3.479   4.019
 1690SOL    HW2 5970   1.194   3.439   4.024
 1691SOL     OW 5971   4.842   3.703   4.125
 1691SOL    HW1 5972   4.869   3.763   4.200
 1691SOL    HW2 5973   4.818   3.613   4.161
 1692SOL     OW 5974   5.607   5.163   1.402
 1692SOL    HW1 5975   5.600   5.218   1.486
 1692SOL    HW2 5976   5.634   5.223   1.326
 1693SOL     OW 5977   0.183   1.728   4.638
 1693SOL    HW1 5978   0.107   1.759   4.580
 1693SOL    HW2 5979   0.159   1.742   4.735
 1694SOL     OW 5980   6.313   0.902   4.379
 1694SOL    HW1 5981   6.393   0.882   4.435
 1694SOL    HW2 5982   6.299   1.001   4.374
 1695SOL     OW 5983   3.704   0.640   6.769
 1695SOL    HW1 5984   3.739   0.594   6.850
 1695SOL    HW2 5985   3.609   0.666   6.783
 1696SOL     OW 5986   4.017   5.390   0.936
 1696SOL    HW1 5987   4.078   5.470   0.936
 1696SOL    HW2 5988   3.934   5.411   0.988
 1697SOL     OW 5989   5.780   2.403   0.768
 1697SOL    HW1 5990   5.806   2.319   0.721
 1697SOL    HW2 5991   5.795   2.392   0.867
 1698SOL     OW 5992   3.587   0.915   1.797
 1698SOL    HW1 5993   3.591   0.852   1.874
 1698SOL    HW2 5994   3.491   0.925   1.768
 1699SOL     OW 5995   2.599   1.889   6.223
 1699SOL    HW1 5996   2.623   1.970   6.170
 1699SOL    HW2 5997   2.678   1.828   6.229
 1700SOL     OW 5998   5.795   2.990   3.905
 1700SOL    HW1 5999   5.736   3.071   3.896
 1700SOL    HW2 6000   5.880   3.016   3.950
 1701SOL     OW 6001   6.335   5.334   4.779
 1701SOL    HW1 6002   6.394   5.406   4.815
 1701SOL    HW2 6003   6.377   5.245   4.797
 1702SOL     OW 6004   1.402   1.201   6.010
 1702SOL    HW1 6005   1.424   1.229   5.916
 1702SOL    HW2 6006   1.486   1.200   6.065
 1703SOL     OW 6007   3.756   1.629   6.004
 1703SOL    HW1 6008   3.810   1.553   5.968
 1703SOL    HW2 6009   3.660   1.615   5.982
 1704SOL     OW 6010   1.634   1.578   0.038
 1704SOL    HW1 6011   1.683   1.665   0.032
 1704SOL    HW2 6012   1.671   1.525   0.115
 1705SOL     OW 6013   3.970   1.906   1.917
 1705SOL    HW1 6014   3.901   1.835   1.923
 1705SOL    HW2 6015   3.934   1.984   1.865
 1706SOL     OW 6016   4.057   1.524   0.728
 1706SOL    HW1 6017   4.136   1.476   0.689
 1706SOL    HW2 6018   4.057   1.619   0.697
 1707SOL     OW 6019   4.829   1.978   3.073
 1707SOL    HW1 6020   4.783   1.899   3.113
 1707SOL    HW2 6021   4.927   1.974   3.095
 1708SOL     OW 6022   3.810   5.292   2.055
 1708SOL    HW1 6023   3.823   5.283   2.154
 1708SOL    HW2 6024   3.712   5.301   2.035
 1709SOL     OW 6025   4.493   6.662   0.886
 1709SOL    HW1 6026   4.532   6.744   0.845
 1709SOL    HW2 6027   4.461   6.682   0.978
 1710SOL     OW 6028   4.106   5.168   3.434
 1710SOL    HW1 6029   4.084   5.196   3.528
 1710SOL    HW2 6030   4.093   5.070   3.425
 1711SOL     OW 6031   2.748   5.067   6.008
 1711SOL    HW1 6032   2.780   5.144   6.064
 1711SOL    HW2 6033   2.759   5.090   5.911
 1712SOL     OW 6034   0.392   2.458   5.046
 1712SOL    HW1 6035   0.484   2.438   5.012
 1712SOL    HW2 6036   0.397   2.486   5.142
 1713SOL     OW 6037   3.650   1.026   2.534
 1713SOL    HW1 6038   3.673   1.077   2.451
 1713SOL    HW2 6039   3.667   1.083   2.614
 1714SOL     OW 6040   3.058   2.125   6.863
 1714SOL    HW1 6041   3.060   2.039   6.812
 1714SOL    HW2 6042   3.150   2.145   6.897
 1715SOL     OW 6043   1.998   6.067   2.059
 1715SOL    HW1 6044   1.915   6.116   2.031
 1715SOL    HW2 6045   2.043   6.029   1.978
 1716SOL     OW 6046   4.675   0.244   4.085
 1716SOL    HW1 6047   4.728   0.285   4.158
 1716SOL    HW2 6048   4.688   0.297   4.000
 1717SOL     OW 6049   3.845   5.750   5.453
 1717SOL    HW1 6050   3.888   5.724   5.367
 1717SOL    HW2 6051   3.781   5.825   5.438
 1718SOL     OW 6052   2.179   2.189   2.357
 1718SOL    HW1 6053   2.085   2.161   2.373
 1718SOL    HW2 6054   2.241   2.115   2.383
 1719SOL     OW 6055   1.524   4.611   1.181
 1719SOL    HW1 6056   1.506   4.650   1.091
 1719SOL    HW2 6057   1.507   4.680   1.252
 1720SOL     OW 6058   0.130   2.790   5.771
 1720SOL    HW1 6059   0.156   2.886   5.762
 1720SOL    HW2 6060   0.176   2.750   5.850
 1721SOL     OW 6061   1.470   0.674   2.303
 1721SOL    HW1 6062   1.483   0.681   2.402
 1721SOL    HW2 6063   1.440   0.582   2.280
 1722SOL     OW 6064   3.179   1.873   2.934
 1722SOL    HW1 6065   3.255   1.938   2.932
 1722SOL    HW2 6066   3.183   1.815   2.852
 1723SOL     OW 6067   4.616   1.889   0.155
 1723SOL    HW1 6068   4.662   1.922   0.237
 1723SOL    HW2 6069   4.520   1.915   0.158
 1724SOL     OW 6070   6.371   2.208   1.282
 1724SOL    HW1 6071   6.411   2.186   1.193
 1724SOL    HW2 6072   6.373   2.128   1.341
 1725SOL     OW 6073   1.922   4.473   6.575
 1725SOL    HW1 6074   1.839   4.494   6.523
 1725SOL    HW2 6075   1.995   4.449   6.512
 1726SOL     OW 6076   5.966   4.167   3.480
 1726SOL    HW1 6077   5.959   4.078   3.436
 1726SOL    HW2 6078   6.006   4.156   3.571
 1727SOL     OW 6079   3.754   3.790   3.517
 1727SOL    HW1 6080   3.682   3.788   3.586
 1727SOL    HW2 6081   3.828   3.729   3.543
 1728SOL     OW 6082   4.939   4.407   5.684
 1728SOL    HW1 6083   5.007   4.351   5.638
 1728SOL    HW2 6084   4.891   4.352   5.753
 1729SOL     OW 6085   1.374   3.863   2.028
 1729SOL    HW1 6086   1.281   3.829   2.044
 1729SOL    HW2 6087   1.374   3.926   1.951
 1730SOL     OW 6088   2.496   5.983   5.119
 1730SOL    HW1 6089   2.449   6.008   5.204
 1730SOL    HW2 6090   2.491   6.060   5.055
 1731SOL     OW 6091   5.804   5.007   3.719
 1731SOL    HW1 6092   5.844   5.031   3.631
 1731SOL    HW2 6093   5.871   5.025   3.792
 1732SOL     OW 6094   1.979   4.263   5.884
 1732SOL    HW1 6095   1.885   4.298   5.879
 1732SOL    HW2 6096   1.986   4.199   5.961
 1733SOL     OW 6097   2.627   3.967   7.011
 1733SOL    HW1 6098   2.668   4.048   0.031
 1733SOL    HW2 6099   2.601   3.988   6.917
 1734SOL     OW 6100   6.379   3.078   1.287
 1734SOL    HW1 6101   6.334   3.142   1.350
 1734SOL    HW2 6102   6.318   3.058   1.211
 1735SOL     OW 6103   4.453   5.517   0.163
 1735SOL    HW1 6104   4.512   5.444   0.196
 1735SOL    HW2 6105   4.407   5.487   0.079
 1736SOL     OW 6106   4.166   3.700   1.732
 1736SOL    HW1 6107   4.135   3.787   1.770
 1736SOL    HW2 6108   4.164   3.630   1.804
 1737SOL     OW 6109   5.505   0.825   3.963
 1737SOL    HW1 6110   5.476   0.868   4.049
 1737SOL    HW2 6111   5.425   0.808   3.905
 1738SOL     OW 6112   2.098   3.950   4.469
 1738SOL    HW1 6113   2.135   3.912   4.553
 1738SOL    HW2 6114   2.041   3.882   4.423
 1739SOL     OW 6115   5.605   6.982   3.422
 1739SOL    HW1 6116   5.522   6.978   3.477
 1739SOL    HW2 6117   5.627   6.890   3.387
 1740SOL     OW 6118   6.870   1.933   4.884
 1740SOL    HW1 6119   6.893   2.003   4.951
 1740SOL    HW2 6120   6.844   1.977   4.798
 1741SOL     OW 6121   1.564   2.000   3.654
 1741SOL    HW1 6122   1.532   2.091   3.628
 1741SOL    HW2 6123   1.545   1.984   3.751
 1742SOL     OW 6124   6.052   0.361   5.766
 1742SOL    HW1 6125   6.076   0.436   5.828
 1742SOL    HW2 6126   5.958   0.373   5.735
 1743SOL     OW 6127   1.243   2.047   3.102
 1743SOL    HW1 6128   1.327   2.033   3.153
 1743SOL    HW2 6129   1.206   1.959   3.074
 1744SOL     OW 6130   5.216   2.337   3.568
 1744SOL    HW1 6131   5.193   2.362   3.474
 1744SOL    HW2 6132   5.310   2.364   3.588
 1745SOL     OW 6133   6.021   6.504   0.924
 1745SOL    HW1 6134   5.973   6.422   0.894
 1745SOL    HW2 6135   5.957   6.567   0.967
 1746SOL     OW 6136   1.862   3.762   4.011
 1746SOL    HW1 6137   1.857   3.834   3.942
 1746SOL    HW2 6138   1.880   3.674   3.966
 1747SOL     OW 6139   3.791   1.706   2.017
 1747SOL    HW1 6140   3.874   1.658   2.047
 1747SOL    HW2 6141   3.759   1.766   2.091
 1748SOL     OW 6142   6.698   1.431   4.455
 1748SOL    HW1 6143   6.770   1.483   4.501
 1748SOL    HW2 6144   6.698   1.453   4.357
 1749SOL     OW 6145   2.999   6.094   0.914
 1749SOL    HW1 6146   2.977   6.129   1.005
 1749SOL    HW2 6147   2.928   6.122   0.850
 1750SOL     OW 6148   4.203   0.568   4.950
 1750SOL    HW1 6149   4.172   0.634   5.018
 1750SOL    HW2 6150   4.273   0.609   4.892
 1751SOL     OW 6151   6.247   2.694   5.027
 1751SOL    HW1 6152   6.205   2.685   5.118
 1751SOL    HW2 6153   6.176   2.682   4.957
 1752SOL     OW 6154   6.736   1.260   1.320
 1752SOL    HW1 6155   6.711   1.199   1.245
 1752SOL    HW2 6156   6.756   1.205   1.402
 1753SOL     OW 6157   0.038   1.428   1.488
 1753SOL    HW1 6158   7.018   1.485   1.558
 1753SOL    HW2 6159   0.128   1.466   1.465
 1754SOL     OW 6160   3.154   6.054   5.757
 1754SOL    HW1 6161   3.205   6.064   5.843
 1754SOL    HW2 6162   3.130   5.958   5.744
 1755SOL     OW 6163   6.553   6.803   4.938
 1755SOL    HW1 6164   6.615   6.746   4.884
 1755SOL    HW2 6165   6.481   6.745   4.976
 1756SOL     OW 6166   5.305   0.361   5.769
 1756SOL    HW1 6167   5.214   0.365   5.810
 1756SOL    HW2 6168   5.324   0.267   5.740
 1757SOL     OW 6169   2.396   5.177   4.140
 1757SOL    HW1 6170   2.311   5.154   4.093
 1757SOL    HW2 6171   2.442   5.093   4.169
 1758SOL     OW 6172   2.126   6.610   5.233
 1758SOL    HW1 6173   2.179   6.548   5.292
 1758SOL    HW2 6174   2.149   6.593   5.137
 1759SOL     OW 6175   1.185   6.081   6.137
 1759SOL    HW1 6176   1.137   6.131   6.208
 1759SOL    HW2 6177   1.235   6.145   6.079
 1760SOL     OW 6178   6.182   0.645   4.785
 1760SOL    HW1 6179   6.236   0.647   4.701
 1760SOL    HW2 6180   6.173   0.738   4.821
 1761SOL     OW 6181   6.830   1.974   1.531
 1761SOL    HW1 6182   6.921   1.970   1.573
 1761SOL    HW2 6183   6.812   2.068   1.500
 1762SOL     OW 6184   0.757   1.531   5.274
 1762SOL    HW1 6185   0.777   1.442   5.316
 1762SOL    HW2 6186   0.809   1.602   5.321
 1763SOL     OW 6187   1.256   4.122   4.786
 1763SOL    HW1 6188   1.190   4.183   4.830
 1763SOL    HW2 6189   1.241   4.122   4.687
 1764SOL     OW 6190   1.304   4.179   1.992
 1764SOL    HW1 6191   1.384   4.213   1.943
 1764SOL    HW2 6192   1.332   4.133   2.076
 1765SOL     OW 6193   4.774   2.868   1.716
 1765SOL    HW1 6194   4.700   2.907   1.771
 1765SOL    HW2 6195   4.856   2.857   1.772
 1766SOL     OW 6196   4.531   4.492   3.854
 1766SOL    HW1 6197   4.568   4.444   3.934
 1766SOL    HW2 6198   4.568   4.452   3.771
 1767SOL     OW 6199   6.848   5.571   2.609
 1767SOL    HW1 6200   6.843   5.643   2.540
 1767SOL    HW2 6201   6.873   5.610   2.697
 1768SOL     OW 6202   4.675   6.054   1.556
 1768SOL    HW1 6203   4.697   6.119   1.629
 1768SOL    HW2 6204   4.660   6.104   1.471
 1769SOL     OW 6205   6.273   0.577   6.589
 1769SOL    HW1 6206   6.194   0.520   6.610
 1769SOL    HW2 6207   6.250   0.673   6.602
 1770SOL     OW 6208   1.198   4.976   5.328
 1770SOL    HW1 6209   1.207   4.893   5.383
 1770SOL    HW2 6210   1.101   4.989   5.304
 1771SOL     OW 6211   1.056   4.286   6.940
 1771SOL    HW1 6212   1.114   4.204   6.937
 1771SOL    HW2 6213   1.090   4.349   7.009
 1772SOL     OW 6214   3.369   5.021   4.176
 1772SOL    HW1 6215   3.362   5.079   4.095
 1772SOL    HW2 6216   3.288   4.962   4.182
 1773SOL     OW 6217   0.932   0.427   4.860
 1773SOL    HW1 6218   1.007   0.362   4.846
 1773SOL    HW2 6219   0.895   0.455   4.772
 1774SOL     OW 6220   6.193   6.528   1.582
 1774SOL    HW1 6221   6.115   6.574   1.623
 1774SOL    HW2 6222   6.164   6.478   1.500
 1775SOL     OW 6223   1.585   5.135   6.694
 1775SOL    HW1 6224   1.640   5.218   6.699
 1775SOL    HW2 6225   1.639   5.058   6.727
 1776SOL     OW 6226   5.123   1.104   5.413
 1776SOL    HW1 6227   5.119   1.158   5.497
 1776SOL    HW2 6228   5.136   1.008   5.436
 1777SOL     OW 6229   4.341   6.719   6.497
 1777SOL    HW1 6230   4.306   6.810   6.519
 1777SOL    HW2 6231   4.433   6.708   6.535
 1778SOL     OW 6232   5.380   1.569   4.144
 1778SOL    HW1 6233   5.413   1.617   4.226
 1778SOL    HW2 6234   5.357   1.636   4.074
 1779SOL     OW 6235   5.023   0.386   4.956
 1779SOL    HW1 6236   5.100   0.323   4.954
 1779SOL    HW2 6237   5.014   0.426   5.047
 1780SOL     OW 6238   1.246   5.223   4.447
 1780SOL    HW1 6239   1.268   5.264   4.535
 1780SOL    HW2 6240   1.247   5.123   4.455
 1781SOL     OW 6241   4.586   0.140   4.469
 1781SOL    HW1 6242   4.531   0.066   4.430
 1781SOL    HW2 6243   4.666   0.101   4.515
 1782SOL     OW 6244   1.686   1.832   2.803
 1782SOL    HW1 6245   1.780   1.856   2.828
 1782SOL    HW2 6246   1.687   1.761   2.732
 1783SOL     OW 6247   2.106   3.565   5.821
 1783SOL    HW1 6248   2.129   3.661   5.833
 1783SOL    HW2 6249   2.121   3.538   5.726
 1784SOL     OW 6250   2.395   0.423   0.873
 1784SOL    HW1 6251   2.391   0.374   0.960
 1784SOL    HW2 6252   2.303   0.454   0.848
 1785SOL     OW 6253   0.617   6.399   4.491
 1785SOL    HW1 6254   0.634   6.309   4.531
 1785SOL    HW2 6255   0.637   6.396   4.393
 1786SOL     OW 6256   2.067   5.738   0.980
 1786SOL    HW1 6257   1.995   5.801   1.012
 1786SOL    HW2 6258   2.099   5.682   1.057
 1787SOL     OW 6259   1.704   2.735   5.665
 1787SOL    HW1 6260   1.802   2.728   5.684
 1787SOL    HW2 6261   1.653   2.714   5.748
 1788SOL     OW 6262   4.325   4.087   0.451
 1788SOL    HW1 6263   4.261   4.053   0.521
 1788SOL    HW2 6264   4.416   4.096   0.491
 1789SOL     OW 6265   6.267   3.454   1.954
 1789SOL    HW1 6266   6.276   3.515   2.033
 1789SOL    HW2 6267   6.258   3.360   1.986
 1790SOL     OW 6268   3.008   1.962   4.429
 1790SOL    HW1 6269   3.038   2.007   4.345
 1790SOL    HW2 6270   2.952   2.025   4.482
 1791SOL     OW 6271   6.454   0.825   3.713
 1791SOL    HW1 6272   6.521   0.757   3.744
 1791SOL    HW2 6273   6.500   0.893   3.656
 1792SOL     OW 6274   6.860   2.490   5.428
 1792SOL    HW1 6275   6.938   2.514   5.486
 1792SOL    HW2 6276   6.865   2.542   5.342
 1793SOL     OW 6277   0.211   1.510   5.222
 1793SOL    HW1 6278   0.202   1.583   5.290
 1793SOL    HW2 6279   0.235   1.549   5.133
 1794SOL     OW 6280   6.587   0.274   6.404
 1794SOL    HW1 6281   6.573   0.327   6.487
 1794SOL    HW2 6282   6.521   0.303   6.335
 1795SOL     OW 6283   5.933   4.696   0.363
 1795SOL    HW1 6284   5.928   4.779   0.420
 1795SOL    HW2 6285   6.018   4.648   0.383
 1796SOL     OW 6286   1.355   0.170   5.002
 1796SOL    HW1 6287   1.453   0.155   5.012
 1796SOL    HW2 6288   1.338   0.250   4.944
 1797SOL     OW 6289   2.023   6.236   4.675
 1797SOL    HW1 6290   1.948   6.290   4.637
 1797SOL    HW2 6291   2.051   6.166   4.608
 1798SOL     OW 6292   3.509   3.715   4.671
 1798SOL    HW1 6293   3.440   3.652   4.707
 1798SOL    HW2 6294   3.491   3.732   4.574
 1799SOL     OW 6295   3.457   0.499   6.522
 1799SOL    HW1 6296   3.422   0.457   6.606
 1799SOL    HW2 6297   3.381   0.512   6.458
 1800SOL     OW 6298   5.198   4.187   3.741
 1800SOL    HW1 6299   5.142   4.248   3.797
 1800SOL    HW2 6300   5.146   4.162   3.659
 1801SOL     OW 6301   1.332   1.245   2.005
 1801SOL    HW1 6302   1.298   1.310   1.937
 1801SOL    HW2 6303   1.426   1.220   1.982
 1802SOL     OW 6304   6.219   4.657   3.634
 1802SOL    HW1 6305   6.240   4.711   3.716
 1802SOL    HW2 6306   6.160   4.580   3.659
 1803SOL     OW 6307   0.163   6.423   2.670
 1803SOL    HW1 6308   0.137   6.422   2.573
 1803SOL    HW2 6309   0.098   6.479   2.722
 1804SOL     OW 6310   3.271   3.712   5.961
 1804SOL    HW1 6311   3.247   3.697   6.057
 1804SOL    HW2 6312   3.279   3.624   5.914
 1805SOL     OW 6313   0.449   6.679   6.186
 1805SOL    HW1 6314   0.526   6.653   6.245
 1805SOL    HW2 6315   0.406   6.597   6.149
 1806SOL     OW 6316   6.714   2.623   2.333
 1806SOL    HW1 6317   6.728   2.596   2.428
 1806SOL    HW2 6318   6.788   2.587   2.277
 1807SOL     OW 6319   6.723   4.205   1.533
 1807SOL    HW1 6320   6.761   4.160   1.452
 1807SOL    HW2 6321   6.629   4.233   1.515
 1808SOL     OW 6322   4.802   2.448   5.492
 1808SOL    HW1 6323   4.815   2.371   5.430
 1808SOL    HW2 6324   4.886   2.504   5.494
 1809SOL     OW 6325   3.781   2.211   5.138
 1809SOL    HW1 6326   3.877   2.192   5.162
 1809SOL    HW2 6327   3.763   2.176   5.046
 1810SOL     OW 6328   0.287   6.932   3.717
 1810SOL    HW1 6329   0.190   6.939   3.693
 1810SOL    HW2 6330   0.296   6.926   3.817
 1811SOL     OW 6331   3.978   4.968   2.254
 1811SOL    HW1 6332   3.885   4.965   2.217
 1811SOL    HW2 6333   4.030   5.038   2.206
 1812SOL     OW 6334   4.549   0.088   6.115
 1812SOL    HW1 6335   4.481   0.066   6.045
 1812SOL    HW2 6336   4.632   0.034   6.099
 1813SOL     OW 6337   4.834   4.896   2.842
 1813SOL    HW1 6338   4.801   4.974   2.894
 1813SOL    HW2 6339   4.831   4.917   2.744
 1814SOL     OW 6340   0.608   6.702   0.404
 1814SOL    HW1 6341   0.707   6.712   0.393
 1814SOL    HW2 6342   0.574   6.636   0.336
 1815SOL     OW 6343   5.757   5.894   2.233
 1815SOL    HW1 6344   5.735   5.913   2.137
 1815SOL    HW2 6345   5.803   5.973   2.272
 1816SOL     OW 6346   4.090   6.058   5.461
 1816SOL    HW1 6347   4.171   6.000   5.451
 1816SOL    HW2 6348   4.014   6.004   5.497
 1817SOL     OW 6349   2.618   1.580   3.004
 1817SOL    HW1 6350   2.664   1.520   3.069
 1817SOL    HW2 6351   2.538   1.533   2.966
 1818SOL     OW 6352   1.665   6.660   0.109
 1818SOL    HW1 6353   1.757   6.686   0.139
 1818SOL    HW2 6354   1.668   6.630   0.014
 1819SOL     OW 6355   0.957   4.717   2.931
 1819SOL    HW1 6356   0.875   4.662   2.920
 1819SOL    HW2 6357   1.006   4.723   2.843
 1820SOL     OW 6358   4.088   6.968   3.219
 1820SOL    HW1 6359   4.097   6.983   3.318
 1820SOL    HW2 6360   4.084   6.869   3.201
 1821SOL     OW 6361   3.855   0.915   2.139
 1821SOL    HW1 6362   3.895   0.945   2.052
 1821SOL    HW2 6363   3.805   0.991   2.180
 1822SOL     OW 6364   0.653   3.385   2.059
 1822SOL    HW1 6365   0.612   3.303   2.018
 1822SOL    HW2 6366   0.680   3.363   2.153
 1823SOL     OW 6367   4.087   6.300   2.218
 1823SOL    HW1 6368   4.141   6.372   2.261
 1823SOL    HW2 6369   4.033   6.339   2.143
 1824SOL     OW 6370   4.166   3.951   1.073
 1824SOL    HW1 6371   4.090   3.902   1.117
 1824SOL    HW2 6372   4.248   3.942   1.130
 1825SOL     OW 6373   1.863   2.514   4.940
 1825SOL    HW1 6374   1.899   2.463   4.862
 1825SOL    HW2 6375   1.765   2.494   4.951
 1826SOL     OW 6376   3.552   1.971   1.703
 1826SOL    HW1 6377   3.550   1.954   1.802
 1826SOL    HW2 6378   3.527   2.066   1.685
 1827SOL     OW 6379   5.305   4.576   0.566
 1827SOL    HW1 6380   5.317   4.666   0.606
 1827SOL    HW2 6381   5.363   4.510   0.615
 1828SOL     OW 6382   1.176   3.526   6.025
 1828SOL    HW1 6383   1.214   3.455   6.084
 1828SOL    HW2 6384   1.244   3.552   5.955
 1829SOL     OW 6385   3.621   0.744   3.844
 1829SOL    HW1 6386   3.568   0.823   3.874
 1829SOL    HW2 6387   3.705   0.738   3.897
 1830SOL     OW 6388   5.927   0.076   4.875
 1830SOL    HW1 6389   5.893   0.005   4.813
 1830SOL    HW2 6390   5.850   0.123   4.917
 1831SOL     OW 6391   5.087   5.204   2.826
 1831SOL    HW1 6392   4.995   5.238   2.808
 1831SOL    HW2 6393   5.082   5.127   2.889
 1832SOL     OW 6394   2.384   3.547   0.529
 1832SOL    HW1 6395   2.308   3.595   0.485
 1832SOL    HW2 6396   2.446   3.511   0.459
 1833SOL     OW 6397   4.874   6.915   1.853
 1833SOL    HW1 6398   4.879   6.966   1.767
 1833SOL    HW2 6399   4.958   6.929   1.905
 1834SOL     OW 6400   2.670   2.273   0.193
 1834SOL    HW1 6401   2.675   2.175   0.210
 1834SOL    HW2 6402   2.757   2.304   0.153
 1835SOL     OW 6403   0.115   4.976   1.285
 1835SOL    HW1 6404   0.177   4.984   1.363
 1835SOL    HW2 6405   0.163   5.001   1.201
 1836SOL     OW 6406   5.872   1.711   1.906
 1836SOL    HW1 6407   5.962   1.670   1.923
 1836SOL    HW2 6408   5.815   1.703   1.988
 1837SOL     OW 6409   2.671   0.977   6.014
 1837SOL    HW1 6410   2.700   1.034   6.091
 1837SOL    HW2 6411   2.584   0.933   6.036
 1838SOL     OW 6412   5.948   0.885   0.648
 1838SOL    HW1 6413   5.875   0.834   0.693
 1838SOL    HW2 6414   6.036   0.861   0.689
 1839SOL     OW 6415   5.945   1.638   0.452
 1839SOL    HW1 6416   5.876   1.642   0.524
 1839SOL    HW2 6417   5.955   1.543   0.421
 1840SOL     OW 6418   4.066   0.077   2.996
 1840SOL    HW1 6419   4.012   0.156   3.025
 1840SOL    HW2 6420   4.101   0.029   3.077
 1841SOL     OW 6421   2.309   0.552   2.304
 1841SOL    HW1 6422   2.287   0.457   2.282
 1841SOL    HW2 6423   2.342   0.558   2.399
 1842SOL     OW 6424   2.102   4.766   0.855
 1842SOL    HW1 6425   2.155   4.838   0.900
 1842SOL    HW2 6426   2.164   4.707   0.803
 1843SOL     OW 6427   3.432   1.304   4.574
 1843SOL    HW1 6428   3.358   1.364   4.607
 1843SOL    HW2 6429   3.512   1.315   4.633
 1844SOL     OW 6430   4.758   1.383   6.346
 1844SOL    HW1 6431   4.812   1.460   6.380
 1844SOL    HW2 6432   4.667   1.384   6.387
 1845SOL     OW 6433   2.016   1.212   3.203
 1845SOL    HW1 6434   1.937   1.154   3.225
 1845SOL    HW2 6435   2.093   1.154   3.178
 1846SOL     OW 6436   4.619   0.932   2.934
 1846SOL    HW1 6437   4.556   0.886   2.996
 1846SOL    HW2 6438   4.626   0.881   2.849
 1847SOL     OW 6439   2.237   0.307   4.424
 1847SOL    HW1 6440   2.312   0.258   4.380
 1847SOL    HW2 6441   2.222   0.394   4.377
 1848SOL     OW 6442   2.168   5.895   4.204
 1848SOL    HW1 6443   2.185   5.912   4.107
 1848SOL    HW2 6444   2.254   5.875   4.250
 1849SOL     OW 6445   4.368   2.359   2.622
 1849SOL    HW1 6446   4.348   2.270   2.664
 1849SOL    HW2 6447   4.396   2.423   2.694
 1850SOL     OW 6448   5.281   2.271   2.029
 1850SOL    HW1 6449   5.221   2.349   2.048
 1850SOL    HW2 6450   5.227   2.198   1.986
 1851SOL     OW 6451   6.984   3.102   6.120
 1851SOL    HW1 6452   6.942   3.142   6.202
 1851SOL    HW2 6453   0.004   3.015   6.144
 1852SOL     OW 6454   1.521   4.530   2.085
 1852SOL    HW1 6455   1.520   4.431   2.096
 1852SOL    HW2 6456   1.543   4.554   1.991
 1853SOL     OW 6457   0.217   2.945   4.380
 1853SOL    HW1 6458   0.179   2.946   4.288
 1853SOL    HW2 6459   0.187   3.027   4.429
 1854SOL     OW 6460   0.746   5.810   3.127
 1854SOL    HW1 6461   0.726   5.807   3.029
 1854SOL    HW2 6462   0.727   5.901   3.162
 1855SOL     OW 6463   4.903   3.471   4.748
 1855SOL    HW1 6464   4.881   3.537   4.820
 1855SOL    HW2 6465   4.900   3.379   4.784
 1856SOL     OW 6466   3.791   3.817   6.888
 1856SOL    HW1 6467   3.794   3.917   6.891
 1856SOL    HW2 6468   3.884   3.781   6.888
 1857SOL     OW 6469   5.288   0.867   0.426
 1857SOL    HW1 6470   5.306   0.930   0.349
 1857SOL    HW2 6471   5.191   0.841   0.425
 1858SOL     OW 6472   4.365   2.308   4.462
 1858SOL    HW1 6473   4.410   2.219   4.472
 1858SOL    HW2 6474   4.286   2.313   4.524
 1859SOL     OW 6475   6.083   2.052   4.967
 1859SOL    HW1 6476   6.031   1.980   5.013
 1859SOL    HW2 6477   6.036   2.079   4.883
 1860SOL     OW 6478   0.811   1.760   5.042
 1860SOL    HW1 6479   0.819   1.688   5.110
 1860SOL    HW2 6480   0.902   1.792   5.015
 1861SOL     OW 6481   6.645   0.903   3.077
 1861SOL    HW1 6482   6.548   0.906   3.100
 1861SOL    HW2 6483   6.686   0.993   3.091
 1862SOL     OW 6484   1.927   6.429   6.785
 1862SOL    HW1 6485   1.928   6.335   6.751
 1862SOL    HW2 6486   1.833   6.464   6.783
 1863SOL     OW 6487   0.283   3.358   1.427
 1863SOL    HW1 6488   0.327   3.349   1.338
 1863SOL    HW2 6489   0.184   3.349   1.416
 1864SOL     OW 6490   3.293   6.063   3.470
 1864SOL    HW1 6491   3.243   5.997   3.526
 1864SOL    HW2 6492   3.389   6.065   3.499
 1865SOL     OW 6493   5.043   1.142   6.926
 1865SOL    HW1 6494   5.014   1.203   7.001
 1865SOL    HW2 6495   4.962   1.107   6.880
 1866SOL     OW 6496   0.904   4.390   3.884
 1866SOL    HW1 6497   0.909   4.469   3.945
 1866SOL    HW2 6498   0.993   4.344   3.882
 1867SOL     OW 6499   2.851   2.060   1.418
 1867SOL    HW1 6500   2.789   1.998   1.466
 1867SOL    HW2 6501   2.805   2.148   1.404
 1868SOL     OW 6502   5.511   4.289   5.254
 1868SOL    HW1 6503   5.416   4.316   5.275
 1868SOL    HW2 6504   5.573   4.359   5.288
 1869SOL     OW 6505   4.582   2.202   3.964
 1869SOL    HW1 6506   4.546   2.131   3.904
 1869SOL    HW2 6507   4.510   2.267   3.987
 1870SOL     OW 6508   1.490   4.466   4.373
 1870SOL    HW1 6509   1.551   4.418   4.436
 1870SOL    HW2 6510   1.461   4.403   4.301
 1871SOL     OW 6511   0.879   6.704   0.356
 1871SOL    HW1 6512   0.922   6.614   0.356
 1871SOL    HW2 6513   0.926   6.763   0.292
 1872SOL     OW 6514   3.246   2.080   0.682
 1872SOL    HW1 6515   3.175   2.088   0.611
 1872SOL    HW2 6516   3.274   2.171   0.711
 1873SOL     OW 6517   6.426   0.754   6.937
 1873SOL    HW1 6518   6.503   0.750   6.873
 1873SOL    HW2 6519   6.458   0.737   0.006
 1874SOL     OW 6520   0.927   6.534   6.057
 1874SOL    HW1 6521   0.836   6.493   6.051
 1874SOL    HW2 6522   0.966   6.515   6.147
 1875SOL     OW 6523   6.398   5.469   6.889
 1875SOL    HW1 6524   6.477   5.491   6.947
 1875SOL    HW2 6525   6.329   5.542   6.898
 1876SOL     OW 6526   5.653   6.483   6.413
 1876SOL    HW1 6527   5.666   6.447   6.320
 1876SOL    HW2 6528   5.735   6.533   6.440
 1877SOL     OW 6529   0.524   1.481   2.381
 1877SOL    HW1 6530   0.437   1.431   2.375
 1877SOL    HW2 6531   0.594   1.430   2.332
 1878SOL     OW 6532   0.670   4.432   3.307
 1878SOL    HW1 6533   0.728   4.504   3.270
 1878SOL    HW2 6534   0.693   4.418   3.403
 1879SOL     OW 6535   3.199   5.184   4.959
 1879SOL    HW1 6536   3.147   5.256   5.004
 1879SOL    HW2 6537   3.240   5.125   5.028
 1880SOL     OW 6538   6.809   2.098   3.316
 1880SOL    HW1 6539   6.895   2.050   3.300
 1880SOL    HW2 6540   6.826   2.177   3.376
 1881SOL     OW 6541   0.842   2.364   4.094
 1881SOL    HW1 6542   0.869   2.386   4.001
 1881SOL    HW2 6543   0.812   2.269   4.099
 1882SOL     OW 6544   1.267   5.966   6.787
 1882SOL    HW1 6545   1.205   5.961   6.866
 1882SOL    HW2 6546   1.235   5.903   6.716
 1883SOL     OW 6547   1.354   3.869   3.250
 1883SOL    HW1 6548   1.254   3.873   3.256
 1883SOL    HW2 6549   1.383   3.774   3.240
 1884SOL     OW 6550   3.107   1.123   0.356
 1884SOL    HW1 6551   3.019   1.151   0.319
 1884SOL    HW2 6552   3.180   1.155   0.296
 1885SOL     OW 6553   0.259   2.768   0.905
 1885SOL    HW1 6554   0.291   2.701   0.838
 1885SOL    HW2 6555   0.307   2.854   0.892
 1886SOL     OW 6556   2.118   1.747   6.687
 1886SOL    HW1 6557   2.193   1.749   6.754
 1886SOL    HW2 6558   2.047   1.684   6.718
 1887SOL     OW 6559   0.929   5.856   5.397
 1887SOL    HW1 6560   0.982   5.940   5.406
 1887SOL    HW2 6561   0.991   5.779   5.381
 1888SOL     OW 6562   2.154   1.826   5.626
 1888SOL    HW1 6563   2.135   1.923   5.643
 1888SOL    HW2 6564   2.174   1.780   5.712
 1889SOL     OW 6565   4.204   3.052   6.984
 1889SOL    HW1 6566   4.288   3.026   0.009
 1889SOL    HW2 6567   4.185   2.988   6.910
 1890SOL     OW 6568   0.548   5.606   6.459
 1890SOL    HW1 6569   0.576   5.661   6.380
 1890SOL    HW2 6570   0.495   5.527   6.428
 1891SOL     OW 6571   5.494   3.667   5.456
 1891SOL    HW1 6572   5.431   3.613   5.401
 1891SOL    HW2 6573   5.462   3.762   5.461
 1892SOL     OW 6574   3.857   5.709   1.416
 1892SOL    HW1 6575   3.786   5.723   1.347
 1892SOL    HW2 6576   3.878   5.611   1.424
 1893SOL     OW 6577   3.706   2.125   3.862
 1893SOL    HW1 6578   3.773   2.126   3.787
 1893SOL    HW2 6579   3.746   2.169   3.943
 1894SOL     OW 6580   4.357   3.878   1.646
 1894SOL    HW1 6581   4.435   3.816   1.634
 1894SOL    HW2 6582   4.274   3.825   1.665
 1895SOL     OW 6583   6.251   0.884   2.678
 1895SOL    HW1 6584   6.170   0.864   2.734
 1895SOL    HW2 6585   6.297   0.965   2.713
 1896SOL     OW 6586   6.111   1.775   4.500
 1896SOL    HW1 6587   6.126   1.775   4.598
 1896SOL    HW2 6588   6.173   1.710   4.456
 1897SOL     OW 6589   6.181   4.923   3.481
 1897SOL    HW1 6590   6.225   5.012   3.475
 1897SOL    HW2 6591   6.251   4.852   3.494
 1898SOL     OW 6592   5.621   5.732   0.891
 1898SOL    HW1 6593   5.662   5.814   0.852
 1898SOL    HW2 6594   5.637   5.731   0.990
 1899SOL     OW 6595   0.321   3.050   3.122
 1899SOL    HW1 6596   0.365   2.964   3.096
 1899SOL    HW2 6597   0.231   3.031   3.162
 1900SOL     OW 6598   1.363   6.183   5.912
 1900SOL    HW1 6599   1.418   6.120   5.967
 1900SOL    HW2 6600   1.422   6.254   5.873
 1901SOL     OW 6601   1.728   0.383   7.017
 1901SOL    HW1 6602   1.649   0.352   0.046
 1901SOL    HW2 6603   1.750   0.478   0.019
 1902SOL     OW 6604   0.819   3.287   4.230
 1902SOL    HW1 6605   0.836   3.264   4.134
 1902SOL    HW2 6606   0.731   3.333   4.238
 1903SOL     OW 6607   6.836   4.220   3.273
 1903SOL    HW1 6608   6.813   4.134   3.226
 1903SOL    HW2 6609   6.820   4.210   3.371
 1904SOL     OW 6610   0.343   0.174   4.335
 1904SOL    HW1 6611   0.364   0.272   4.328
 1904SOL    HW2 6612   0.429   0.123   4.337
 1905SOL     OW 6613   0.044   2.441   3.984
 1905SOL    HW1 6614   0.036   2.442   4.084
 1905SOL    HW2 6615   0.135   2.410   3.958
 1906SOL     OW 6616   2.177   6.757   6.218
 1906SOL    HW1 6617   2.182   6.804   6.130
 1906SOL    HW2 6618   2.255   6.695   6.227
 1907SOL     OW 6619   3.169   6.646   3.232
 1907SOL    HW1 6620   3.103   6.636   3.158
 1907SOL    HW2 6621   3.237   6.714   3.206
 1908SOL     OW 6622   4.163   1.281   5.950
 1908SOL    HW1 6623   4.146   1.321   6.040
 1908SOL    HW2 6624   4.245   1.322   5.910
 1909SOL     OW 6625   2.415   4.552   4.795
 1909SOL    HW1 6626   2.322   4.520   4.814
 1909SOL    HW2 6627   2.417   4.652   4.792
 1910SOL     OW 6628   5.241   2.449   6.132
 1910SOL    HW1 6629   5.238   2.446   6.032
 1910SOL    HW2 6630   5.318   2.394   6.164
 1911SOL     OW 6631   6.528   2.317   4.973
 1911SOL    HW1 6632   6.522   2.223   4.941
 1911SOL    HW2 6633   6.509   2.320   5.071
 1912SOL     OW 6634   2.958   6.816   2.435
 1912SOL    HW1 6635   2.969   6.886   2.506
 1912SOL    HW2 6636   2.992   6.729   2.469
 1913SOL     OW 6637   2.022   5.792   5.358
 1913SOL    HW1 6638   2.085   5.717   5.377
 1913SOL    HW2 6639   1.957   5.764   5.288
 1914SOL     OW 6640   2.560   2.842   6.324
 1914SOL    HW1 6641   2.489   2.904   6.290
 1914SOL    HW2 6642   2.647   2.863   6.280
 1915SOL     OW 6643   4.187   0.462   6.048
 1915SOL    HW1 6644   4.156   0.413   5.966
 1915SOL    HW2 6645   4.253   0.405   6.097
 1916SOL     OW 6646   3.978   5.746   1.802
 1916SOL    HW1 6647   3.944   5.801   1.878
 1916SOL    HW2 6648   3.991   5.652   1.832
 1917SOL     OW 6649   3.039   3.964   4.619
 1917SOL    HW1 6650   3.074   4.044   4.571
 1917SOL    HW2 6651   3.073   3.963   4.713
 1918SOL     OW 6652   5.693   6.231   5.979
 1918SOL    HW1 6653   5.666   6.228   5.883
 1918SOL    HW2 6654   5.748   6.150   6.000
 1919SOL     OW 6655   0.781   6.447   2.472
 1919SOL    HW1 6656   0.842   6.368   2.483
 1919SOL    HW2 6657   0.765   6.463   2.375
 1920SOL     OW 6658   0.407   5.135   3.368
 1920SOL    HW1 6659   0.498   5.152   3.331
 1920SOL    HW2 6660   0.399   5.178   3.458
 1921SOL     OW 6661   1.434   6.224   6.733
 1921SOL    HW1 6662   1.497   6.253   6.805
 1921SOL    HW2 6663   1.374   6.152   6.768
 1922SOL     OW 6664   4.053   3.019   1.616
 1922SOL    HW1 6665   4.026   2.993   1.523
 1922SOL    HW2 6666   4.032   2.944   1.679
 1923SOL     OW 6667   2.274   0.969   0.928
 1923SOL    HW1 6668   2.343   0.911   0.971
 1923SOL    HW2 6669   2.255   1.048   0.986
 1924SOL     OW 6670   6.656   4.535   1.958
 1924SOL    HW1 6671   6.605   4.576   2.034
 1924SOL    HW2 6672   6.616   4.565   1.871
 1925SOL     OW 6673   3.335   3.949   1.913
 1925SOL    HW1 6674   3.250   3.997   1.935
 1925SOL    HW2 6675   3.410   3.987   1.968
 1926SOL     OW 6676   1.308   0.161   4.540
 1926SOL    HW1 6677   1.367   0.188   4.463
 1926SOL    HW2 6678   1.288   0.063   4.534
 1927SOL     OW 6679   4.218   3.649   6.824
 1927SOL    HW1 6680   4.173   3.707   6.892
 1927SOL    HW2 6681   4.296   3.698   6.786
 1928SOL     OW 6682   6.815   3.536   5.835
 1928SOL    HW1 6683   6.783   3.582   5.918
 1928SOL    HW2 6684   6.737   3.516   5.776
 1929SOL     OW 6685   1.365   6.431   1.648
 1929SOL    HW1 6686   1.290   6.490   1.618
 1929SOL    HW2 6687   1.366   6.348   1.593
 1930SOL     OW 6688   6.380   4.551   6.531
 1930SOL    HW1 6689   6.384   4.650   6.546
 1930SOL    HW2 6690   6.429   4.504   6.605
 1931SOL     OW 6691   0.132   3.839   3.185
 1931SOL    HW1 6692   0.190   3.877   3.256
 1931SOL    HW2 6693   0.161   3.874   3.096
 1932SOL     OW 6694   4.978   3.613   2.067
 1932SOL    HW1 6695   4.915   3.660   2.128
 1932SOL    HW2 6696   5.031   3.680   2.015
 1933SOL     OW 6697   3.245   4.247   0.681
 1933SOL    HW1 6698   3.318   4.244   0.749
 1933SOL    HW2 6699   3.161   4.280   0.723
 1934SOL     OW 6700   1.034   0.476   5.608
 1934SOL    HW1 6701   0.985   0.452   5.524
 1934SOL    HW2 6702   0.973   0.528   5.668
 1935SOL     OW 6703   2.274   6.908   4.243
 1935SOL    HW1 6704   2.329   6.959   4.310
 1935SOL    HW2 6705   2.207   6.968   4.202
 1936SOL     OW 6706   5.689   6.019   4.690
 1936SOL    HW1 6707   5.769   5.969   4.723
 1936SOL    HW2 6708   5.651   6.074   4.764
 1937SOL     OW 6709   4.107   6.908   1.688
 1937SOL    HW1 6710   4.184   6.892   1.751
 1937SOL    HW2 6711   4.046   6.976   1.728
 1938SOL     OW 6712   3.557   1.300   3.504
 1938SOL    HW1 6713   3.469   1.319   3.459
 1938SOL    HW2 6714   3.589   1.383   3.550
 1939SOL     OW 6715   1.418   1.084   3.659
 1939SOL    HW1 6716   1.496   1.050   3.713
 1939SOL    HW2 6717   1.333   1.064   3.707
 1940SOL     OW 6718   5.546   5.413   0.015
 1940SOL    HW1 6719   5.536   5.338   6.972
 1940SOL    HW2 6720   5.610   5.386   0.087
 1941SOL     OW 6721   6.191   3.876   3.315
 1941SOL    HW1 6722   6.230   3.913   3.231
 1941SOL    HW2 6723   6.097   3.846   3.298
 1942SOL     OW 6724   6.054   5.675   2.035
 1942SOL    HW1 6725   6.130   5.740   2.024
 1942SOL    HW2 6726   6.079   5.588   1.993
 1943SOL     OW 6727   2.896   5.491   2.834
 1943SOL    HW1 6728   2.905   5.537   2.922
 1943SOL    HW2 6729   2.886   5.393   2.848
 1944SOL     OW 6730   5.763   1.651   6.502
 1944SOL    HW1 6731   5.671   1.685   6.483
 1944SOL    HW2 6732   5.765   1.551   6.489
 1945SOL     OW 6733   4.826   5.328   3.102
 1945SOL    HW1 6734   4.915   5.369   3.121
 1945SOL    HW2 6735   4.758   5.400   3.092
 1946SOL     OW 6736   1.656   0.393   1.076
 1946SOL    HW1 6737   1.692   0.420   1.166
 1946SOL    HW2 6738   1.563   0.430   1.066
 1947SOL     OW 6739   5.743   6.491   4.898
 1947SOL    HW1 6740   5.667   6.544   4.859
 1947SOL    HW2 6741   5.764   6.527   4.989
 1948SOL     OW 6742   6.971   5.265   4.609
 1948SOL    HW1 6743   6.931   5.189   4.660
 1948SOL    HW2 6744   6.947   5.351   4.653
 1949SOL     OW 6745   4.262   4.566   6.134
 1949SOL    HW1 6746   4.176   4.568   6.186
 1949SOL    HW2 6747   4.245   4.599   6.041
 1950SOL     OW 6748   3.842   3.721   6.495
 1950SOL    HW1 6749   3.815   3.645   6.436
 1950SOL    HW2 6750   3.902   3.687   6.568
 1951SOL     OW 6751   5.463   2.079   0.131
 1951SOL    HW1 6752   5.437   2.170   0.161
 1951SOL    HW2 6753   5.511   2.085   0.043
 1952SOL     OW 6754   3.615   2.071   0.746
 1952SOL    HW1 6755   3.529   2.100   0.705
 1952SOL    HW2 6756   3.690   2.093   0.683
 1953SOL     OW 6757   6.837   2.377   6.886
 1953SOL    HW1 6758   6.855   2.372   6.787
 1953SOL    HW2 6759   6.914   2.337   6.936
 1954SOL     OW 6760   5.404   1.899   3.680
 1954SOL    HW1 6761   5.498   1.892   3.647
 1954SOL    HW2 6762   5.386   1.993   3.711
 1955SOL     OW 6763   1.670   0.366   2.331
 1955SOL    HW1 6764   1.590   0.400   2.282
 1955SOL    HW2 6765   1.739   0.336   2.265
 1956SOL     OW 6766   4.987   6.058   2.911
 1956SOL    HW1 6767   5.021   6.002   2.835
 1956SOL    HW2 6768   4.910   6.012   2.955
 1957SOL     OW 6769   0.143   6.121   4.773
 1957SOL    HW1 6770   0.225   6.173   4.799
 1957SOL    HW2 6771   0.062   6.165   4.813
 1958SOL     OW 6772   5.540   3.305   4.734
 1958SOL    HW1 6773   5.545   3.336   4.639
 1958SOL    HW2 6774   5.542   3.384   4.795
 1959SOL     OW 6775   0.795   2.727   5.762
 1959SOL    HW1 6776   0.700   2.750   5.742
 1959SOL    HW2 6777   0.803   2.629   5.781
 1960SOL     OW 6778   6.404   4.709   0.755
 1960SOL    HW1 6779   6.434   4.619   0.722
 1960SOL    HW2 6780   6.475   4.777   0.736
 1961SOL     OW 6781   5.899   4.977   4.270
 1961SOL    HW1 6782   5.855   4.891   4.296
 1961SOL    HW2 6783   5.941   5.019   4.350
 1962SOL     OW 6784   1.508   6.124   3.772
 1962SOL    HW1 6785   1.430   6.176   3.737
 1962SOL    HW2 6786   1.593   6.171   3.746
 1963SOL     OW 6787   0.740   0.613   1.637
 1963SOL    HW1 6788   0.817   0.630   1.575
 1963SOL    HW2 6789   0.716   0.698   1.683
 1964SOL     OW 6790   4.757   2.676   1.528
 1964SOL    HW1 6791   4.661   2.686   1.503
 1964SOL    HW2 6792   4.777   2.735   1.606
 1965SOL     OW 6793   0.527   3.274   2.628
 1965SOL    HW1 6794   0.512   3.182   2.592
 1965SOL    HW2 6795   0.613   3.275   2.679
 1966SOL     OW 6796   0.312   5.061   4.672
 1966SOL    HW1 6797   0.263   5.081   4.757
 1966SOL    HW2 6798   0.268   4.984   4.625
 1967SOL     OW 6799   4.870   2.621   5.935
 1967SOL    HW1 6800   4.916   2.699   5.892
 1967SOL    HW2 6801   4.818   2.570   5.866
 1968SOL     OW 6802   2.750   5.813   6.849
 1968SOL    HW1 6803   2.670   5.792   6.904
 1968SOL    HW2 6804   2.784   5.730   6.805
 1969SOL     OW 6805   6.664   2.501   1.757
 1969SOL    HW1 6806   6.689   2.586   1.712
 1969SOL    HW2 6807   6.742   2.467   1.810
 1970SOL     OW 6808   1.757   0.254   5.750
 1970SOL    HW1 6809   1.663   0.279   5.775
 1970SOL    HW2 6810   1.756   0.192   5.672
 1971SOL     OW 6811   6.852   7.005   6.546
 1971SOL    HW1 6812   6.887   6.911   6.548
 1971SOL    HW2 6813   6.925   0.045   6.572
 1972SOL     OW 6814   0.389   3.585   3.475
 1972SOL    HW1 6815   0.449   3.640   3.533
 1972SOL    HW2 6816   0.371   3.497   3.520
 1973SOL     OW 6817   3.467   2.665   1.631
 1973SOL    HW1 6818   3.470   2.726   1.552
 1973SOL    HW2 6819   3.519   2.706   1.706
 1974SOL     OW 6820   6.074   6.218   4.222
 1974SOL    HW1 6821   6.129   6.294   4.185
 1974SOL    HW2 6822   5.978   6.246   4.227
 1975SOL     OW 6823   1.894   0.457   3.949
 1975SOL    HW1 6824   1.852   0.453   4.040
 1975SOL    HW2 6825   1.871   0.374   3.898
 1976SOL     OW 6826   0.493   6.165   0.423
 1976SOL    HW1 6827   0.551   6.089   0.452
 1976SOL    HW2 6828   0.517   6.191   0.329
 1977SOL     OW 6829   0.804   2.850   3.777
 1977SOL    HW1 6830   0.785   2.798   3.860
 1977SOL    HW2 6831   0.717   2.875   3.733
 1978SOL     OW 6832   1.014   1.466   4.413
 1978SOL    HW1 6833   1.006   1.541   4.479
 1978SOL    HW2 6834   1.098   1.477   4.360
 1979SOL     OW 6835   0.036   4.531   5.281
 1979SOL    HW1 6836   0.072   4.569   5.366
 1979SOL    HW2 6837   6.964   4.505   5.294
 1980SOL     OW 6838   3.261   0.559   0.521
 1980SOL    HW1 6839   3.210   0.610   0.590
 1980SOL    HW2 6840   3.285   0.619   0.445
 1981SOL     OW 6841   5.182   2.210   2.461
 1981SOL    HW1 6842   5.175   2.291   2.519
 1981SOL    HW2 6843   5.128   2.136   2.500
 1982SOL     OW 6844   6.076   5.316   5.253
 1982SOL    HW1 6845   6.172   5.288   5.264
 1982SOL    HW2 6846   6.063   5.356   5.163
 1983SOL     OW 6847   1.197   2.324   3.335
 1983SOL    HW1 6848   1.137   2.255   3.293
 1983SOL    HW2 6849   1.193   2.409   3.282
 1984SOL     OW 6850   4.415   2.113   6.162
 1984SOL    HW1 6851   4.347   2.114   6.089
 1984SOL    HW2 6852   4.369   2.096   6.250
 1985SOL     OW 6853   0.975   1.386   2.434
 1985SOL    HW1 6854   1.004   1.322   2.506
 1985SOL    HW2 6855   0.910   1.341   2.373
 1986SOL     OW 6856   1.127   1.436   0.054
 1986SOL    HW1 6857   1.150   1.483   6.991
 1986SOL    HW2 6858   1.208   1.390   0.090
 1987SOL     OW 6859   2.918   2.962   1.741
 1987SOL    HW1 6860   2.892   2.866   1.730
 1987SOL    HW2 6861   2.993   2.969   1.807
 1988SOL     OW 6862   4.902   4.313   0.123
 1988SOL    HW1 6863   4.923   4.255   0.202
 1988SOL    HW2 6864   4.841   4.387   0.151
 1989SOL     OW 6865   2.001   0.310   4.577
 1989SOL    HW1 6866   1.926   0.289   4.514
 1989SOL    HW2 6867   2.088   0.304   4.528
 1990SOL     OW 6868   3.176   0.273   2.015
 1990SOL    HW1 6869   3.118   0.210   2.067
 1990SOL    HW2 6870   3.223   0.223   1.942
 1991SOL     OW 6871   3.538   5.421   5.612
 1991SOL    HW1 6872   3.499   5.484   5.545
 1991SOL    HW2 6873   3.464   5.372   5.659
 1992SOL     OW 6874   3.012   0.115   5.462
 1992SOL    HW1 6875   3.019   0.015   5.460
 1992SOL    HW2 6876   2.917   0.142   5.447
 1993SOL     OW 6877   3.722   3.758   5.364
 1993SOL    HW1 6878   3.707   3.738   5.267
 1993SOL    HW2 6879   3.809   3.806   5.375
 1994SOL     OW 6880   0.619   2.169   2.269
 1994SOL    HW1 6881   0.580   2.260   2.257
 1994SOL    HW2 6882   0.684   2.169   2.344
 1995SOL     OW 6883   6.255   2.107   2.541
 1995SOL    HW1 6884   6.313   2.185   2.518
 1995SOL    HW2 6885   6.188   2.134   2.610
 1996SOL     OW 6886   3.280   2.700   1.003
 1996SOL    HW1 6887   3.329   2.703   1.091
 1996SOL    HW2 6888   3.254   2.606   0.982
 1997SOL     OW 6889   5.791   1.001   5.150
 1997SOL    HW1 6890   5.867   0.940   5.169
 1997SOL    HW2 6891   5.723   0.954   5.094
 1998SOL     OW 6892   2.868   3.766   6.623
 1998SOL    HW1 6893   2.851   3.862   6.646
 1998SOL    HW2 6894   2.792   3.730   6.569
 1999SOL     OW 6895   2.593   0.395   1.946
 1999SOL    HW1 6896   2.693   0.397   1.944
 1999SOL    HW2 6897   2.562   0.300   1.945
 2000SOL     OW 6898   4.089   1.303   4.885
 2000SOL    HW1 6899   4.177   1.292   4.931
 2000SOL    HW2 6900   4.075   1.399   4.861
 2001SOL     OW 6901   3.489   2.240   1.674
 2001SOL    HW1 6902   3.558   2.274   1.738
 2001SOL    HW2 6903   3.449   2.316   1.623
 2002SOL     OW 6904   1.476   6.203   6.269
 2002SOL    HW1 6905   1.377   6.198   6.284
 2002SOL    HW2 6906   1.514   6.111   6.265
 2003SOL     OW 6907   4.803   0.062   3.936
 2003SOL    HW1 6908   4.822   7.000   3.984
 2003SOL    HW2 6909   4.764   0.128   4.000
 2004SOL     OW 6910   4.633   1.030   4.394
 2004SOL    HW1 6911   4.541   1.037   4.357
 2004SOL    HW2 6912   4.700   1.031   4.319
 2005SOL     OW 6913   1.549   5.823   6.736
 2005SOL    HW1 6914   1.519   5.822   6.832
 2005SOL    HW2 6915   1.586   5.734   6.712
 2006SOL     OW 6916   5.071   4.469   3.518
 2006SOL    HW1 6917   5.059   4.412   3.600
 2006SOL    HW2 6918   5.081   4.565   3.545
 2007SOL     OW 6919   4.966   5.261   0.106
 2007SOL    HW1 6920   4.888   5.199   0.116
 2007SOL    HW2 6921   5.000   5.286   0.196
 2008SOL     OW 6922   0.444   5.509   3.795
 2008SOL    HW1 6923   0.389   5.523   3.712
 2008SOL    HW2 6924   0.512   5.437   3.778
 2009SOL     OW 6925   6.276   0.629   1.855
 2009SOL    HW1 6926   6.366   0.638   1.813
 2009SOL    HW2 6927   6.206   0.640   1.785
 2010SOL     OW 6928   1.983   1.114   0.850
 2010SOL    HW1 6929   1.906   1.095   0.911
 2010SOL    HW2 6930   1.998   1.036   0.790
 2011SOL     OW 6931   6.712   2.449   4.863
 2011SOL    HW1 6932   6.721   2.533   4.916
 2011SOL    HW2 6933   6.637   2.394   4.899
 2012SOL     OW 6934   0.962   3.588   1.560
 2012SOL    HW1 6935   0.889   3.593   1.492
 2012SOL    HW2 6936   1.047   3.619   1.518
 2013SOL     OW 6937   5.311   1.571   2.565
 2013SOL    HW1 6938   5.408   1.567   2.542
 2013SOL    HW2 6939   5.264   1.492   2.527
 2014SOL     OW 6940   0.997   5.878   3.364
 2014SOL    HW1 6941   0.913   5.825   3.376
 2014SOL    HW2 6942   1.031   5.909   3.453
 2015SOL     OW 6943   3.246   1.192   6.837
 2015SOL    HW1 6944   3.182   1.255   6.793
 2015SOL    HW2 6945   3.329   1.184   6.782
 2016SOL     OW 6946   0.653   5.472   4.868
 2016SOL    HW1 6947   0.558   5.472   4.901
 2016SOL    HW2 6948   0.696   5.559   4.892
 2017SOL     OW 6949   3.408   6.847   3.539
 2017SOL    HW1 6950   3.385   6.880   3.448
 2017SOL    HW2 6951   3.417   6.925   3.601
 2018SOL     OW 6952   0.007   5.754   5.696
 2018SOL    HW1 6953   0.005   5.828   5.628
 2018SOL    HW2 6954   0.101   5.742   5.730
 2019SOL     OW 6955   5.466   2.553   1.270
 2019SOL    HW1 6956   5.407   2.476   1.244
 2019SOL    HW2 6957   5.541   2.560   1.205
 2020SOL     OW 6958   1.142   5.123   5.023
 2020SOL    HW1 6959   1.156   5.045   4.962
 2020SOL    HW2 6960   1.048   5.122   5.058
 2021SOL     OW 6961   2.070   0.080   2.920
 2021SOL    HW1 6962   2.101   0.143   2.849
 2021SOL    HW2 6963   2.120   0.099   3.004
 2022SOL     OW 6964   1.772   3.865   2.178
 2022SOL    HW1 6965   1.728   3.798   2.118
 2022SOL    HW2 6966   1.805   3.820   2.261
 2023SOL     OW 6967   0.071   1.707   6.936
 2023SOL    HW1 6968   0.045   1.772   7.006
 2023SOL    HW2 6969   0.103   1.622   6.979
 2024SOL     OW 6970   0.031   1.004   2.750
 2024SOL    HW1 6971   6.991   0.935   2.714
 2024SOL    HW2 6972   7.013   1.094   2.743
 2025SOL     OW 6973   1.962   2.338   1.865
 2025SOL    HW1 6974   1.863   2.322   1.861
 2025SOL    HW2 6975   1.980   2.427   1.905
 2026SOL     OW 6976   2.062   2.137   6.034
 2026SOL    HW1 6977   2.145   2.096   6.070
 2026SOL    HW2 6978   2.016   2.189   6.106
 2027SOL     OW 6979   0.995   0.972   1.409
 2027SOL    HW1 6980   0.973   1.063   1.373
 2027SOL    HW2 6981   0.968   0.967   1.505
 2028SOL     OW 6982   3.732   1.696   0.419
 2028SOL    HW1 6983   3.650   1.690   0.363
 2028SOL    HW2 6984   3.779   1.783   0.400
 2029SOL     OW 6985   0.743   0.701   6.585
 2029SOL    HW1 6986   0.690   0.619   6.565
 2029SOL    HW2 6987   0.839   0.686   6.561
 2030SOL     OW 6988   1.551   2.483   3.399
 2030SOL    HW1 6989   1.512   2.395   3.427
 2030SOL    HW2 6990   1.519   2.555   3.462
 2031SOL     OW 6991   5.636   5.951   1.989
 2031SOL    HW1 6992   5.651   6.040   1.947
 2031SOL    HW2 6993   5.550   5.952   2.040
 2032SOL     OW 6994   5.447   6.184   1.027
 2032SOL    HW1 6995   5.372   6.135   0.983
 2032SOL    HW2 6996   5.462   6.271   0.981
 2033SOL     OW 6997   4.220   4.670   6.438
 2033SOL    HW1 6998   4.249   4.605   6.509
 2033SOL    HW2 6999   4.140   4.633   6.390
 2034SOL     OW 7000   1.729   6.304   3.777
 2034SOL    HW1 7001   1.800   6.293   3.708
 2034SOL    HW2 7002   1.772   6.315   3.867
 2035SOL     OW 7003   6.873   2.090   2.696
 2035SOL    HW1 7004   6.833   2.001   2.676
 2035SOL    HW2 7005   6.968   2.092   2.666
 2036SOL     OW 7006   0.329   5.680   1.732
 2036SOL    HW1 7007   0.410   5.695   1.675
 2036SOL    HW2 7008   0.267   5.759   1.723
 2037SOL     OW 7009   6.583   2.489   6.051
 2037SOL    HW1 7010   6.678   2.473   6.023
 2037SOL    HW2 7011   6.551   2.413   6.108
 2038SOL     OW 7012   0.720   2.005   6.745
 2038SOL    HW1 7013   0.715   1.984   6.647
 2038SOL    HW2 7014   0.652   2.074   6.768
 2039SOL     OW 7015   0.407   5.722   3.035
 2039SOL    HW1 7016   0.501   5.694   3.019
 2039SOL    HW2 7017   0.366   5.754   2.949
 2040SOL     OW 7018   3.776   2.975   4.682
 2040SOL    HW1 7019   3.701   3.023   4.637
 2040SOL    HW2 7020   3.860   2.990   4.632
 2041SOL     OW 7021   6.282   5.243   6.572
 2041SOL    HW1 7022   6.344   5.293   6.510
 2041SOL    HW2 7023   6.318   5.247   6.665
 2042SOL     OW 7024   5.730   5.358   0.221
 2042SOL    HW1 7025   5.826   5.330   0.221
 2042SOL    HW2 7026   5.714   5.421   0.296
 2043SOL     OW 7027   6.453   5.219   1.829
 2043SOL    HW1 7028   6.552   5.221   1.841
 2043SOL    HW2 7029   6.421   5.309   1.801
 2044SOL     OW 7030   5.242   0.167   1.786
 2044SOL    HW1 7031   5.323   0.155   1.844
 2044SOL    HW2 7032   5.173   0.218   1.837
 2045SOL     OW 7033   1.212   4.365   5.201
 2045SOL    HW1 7034   1.116   4.381   5.175
 2045SOL    HW2 7035   1.232   4.416   5.284
 2046SOL     OW 7036   6.638   0.759   4.050
 2046SOL    HW1 7037   6.640   0.729   3.955
 2046SOL    HW2 7038   6.674   0.853   4.056
 2047SOL     OW 7039   4.503   1.690   0.682
 2047SOL    HW1 7040   4.518   1.591   0.693
 2047SOL    HW2 7041   4.426   1.718   0.739
 2048SOL     OW 7042   3.542   6.387   6.957
 2048SOL    HW1 7043   3.635   6.376   6.990
 2048SOL    HW2 7044   3.543   6.401   6.858
 2049SOL     OW 7045   4.595   2.258   6.892
 2049SOL    HW1 7046   4.670   2.290   6.833
 2049SOL    HW2 7047   4.525   2.329   6.898
 2050SOL     OW 7048   5.956   2.867   3.502
 2050SOL    HW1 7049   5.871   2.864   3.556
 2050SOL    HW2 7050   5.995   2.776   3.496
 2051SOL     OW 7051   6.668   4.619   6.472
 2051SOL    HW1 7052   6.711   4.682   6.407
 2051SOL    HW2 7053   6.714   4.530   6.467
 2052SOL     OW 7054   0.372   3.097   6.764
 2052SOL    HW1 7055   0.273   3.098   6.753
 2052SOL    HW2 7056   0.416   3.107   6.674
 2053SOL     OW 7057   6.440   0.648   0.937
 2053SOL    HW1 7058   6.366   0.703   0.976
 2053SOL    HW2 7059   6.403   0.593   0.861
 2054SOL     OW 7060   5.599   3.301   1.338
 2054SOL    HW1 7061   5.523   3.352   1.298
 2054SOL    HW2 7062   5.614   3.331   1.432
 2055SOL     OW 7063   5.677   3.238   2.779
 2055SOL    HW1 7064   5.595   3.189   2.748
 2055SOL    HW2 7065   5.693   3.217   2.875
 2056SOL     OW 7066   1.965   1.388   2.341
 2056SOL    HW1 7067   1.982   1.461   2.275
 2056SOL    HW2 7068   1.991   1.419   2.433
 2057SOL     OW 7069   5.722   2.471   3.912
 2057SOL    HW1 7070   5.736   2.557   3.960
 2057SOL    HW2 7071   5.740   2.483   3.815
 2058SOL     OW 7072   1.102   1.802   3.071
 2058SOL    HW1 7073   1.008   1.816   3.103
 2058SOL    HW2 7074   1.106   1.813   2.972
 2059SOL     OW 7075   2.017   6.806   6.698
 2059SOL    HW1 7076   1.955   6.851   6.634
 2059SOL    HW2 7077   2.110   6.806   6.661
 2060SOL     OW 7078   6.871   4.316   0.896
 2060SOL    HW1 7079   6.835   4.265   0.973
 2060SOL    HW2 7080   6.801   4.326   0.825
 2061SOL     OW 7081   0.536   1.545   2.639
 2061SOL    HW1 7082   0.533   1.511   2.545
 2061SOL    HW2 7083   0.611   1.609   2.650
 2062SOL     OW 7084   5.445   0.374   3.118
 2062SOL    HW1 7085   5.348   0.352   3.101
 2062SOL    HW2 7086   5.489   0.295   3.160
 2063SOL     OW 7087   0.807   0.803   0.091
 2063SOL    HW1 7088   0.893   0.804   0.041
 2063SOL    HW2 7089   0.823   0.775   0.186
 2064SOL     OW 7090   0.985   2.071   5.748
 2064SOL    HW1 7091   1.084   2.064   5.764
 2064SOL    HW2 7092   0.940   1.989   5.785
 2065SOL     OW 7093   5.919   3.819   2.056
 2065SOL    HW1 7094   5.915   3.911   2.096
 2065SOL    HW2 7095   5.827   3.781   2.050
 2066SOL     OW 7096   0.773   5.333   4.124
 2066SOL    HW1 7097   0.782   5.237   4.152
 2066SOL    HW2 7098   0.757   5.390   4.205
 2067SOL     OW 7099   0.197   6.632   0.935
 2067SOL    HW1 7100   0.265   6.566   0.966
 2067SOL    HW2 7101   0.143   6.592   0.860
 2068SOL     OW 7102   1.671   1.344   5.345
 2068SOL    HW1 7103   1.729   1.273   5.383
 2068SOL    HW2 7104   1.680   1.344   5.245
 2069SOL     OW 7105   0.090   2.459   3.478
 2069SOL    HW1 7106   0.029   2.460   3.398
 2069SOL    HW2 7107   0.181   2.429   3.450
 2070SOL     OW 7108   1.753   6.897   2.602
 2070SOL    HW1 7109   1.689   6.965   2.566
 2070SOL    HW2 7110   1.837   6.943   2.633
 2071SOL     OW 7111   0.379   6.246   4.810
 2071SOL    HW1 7112   0.369   6.252   4.711
 2071SOL    HW2 7113   0.445   6.175   4.833
 2072SOL     OW 7114   4.220   6.100   1.634
 2072SOL    HW1 7115   4.306   6.151   1.642
 2072SOL    HW2 7116   4.211   6.064   1.541
 2073SOL     OW 7117   3.772   6.933   4.419
 2073SOL    HW1 7118   3.684   6.960   4.379
 2073SOL    HW2 7119   3.765   6.937   4.519
 2074SOL     OW 7120   0.520   2.192   6.730
 2074SOL    HW1 7121   0.539   2.183   6.632
 2074SOL    HW2 7122   0.446   2.258   6.744
 2075SOL     OW 7123   5.072   2.436   1.282
 2075SOL    HW1 7124   5.101   2.398   1.370
 2075SOL    HW2 7125   5.148   2.435   1.218
 2076SOL     OW 7126   5.137   6.072   6.884
 2076SOL    HW1 7127   5.220   6.085   6.937
 2076SOL    HW2 7128   5.111   6.159   6.841
 2077SOL     OW 7129   4.904   2.578   1.990
 2077SOL    HW1 7130   4.867   2.487   1.972
 2077SOL    HW2 7131   4.841   2.647   1.956
 2078SOL     OW 7132   2.488   6.088   6.229
 2078SOL    HW1 7133   2.478   6.078   6.130
 2078SOL    HW2 7134   2.515   6.000   6.269
 2079SOL     OW 7135   5.761   1.197   3.481
 2079SOL    HW1 7136   5.674   1.148   3.474
 2079SOL    HW2 7137   5.836   1.131   3.472
 2080SOL     OW 7138   2.237   1.273   5.026
 2080SOL    HW1 7139   2.182   1.264   5.110
 2080SOL    HW2 7140   2.233   1.368   4.995
 2081SOL     OW 7141   1.432   5.822   4.978
 2081SOL    HW1 7142   1.458   5.865   5.064
 2081SOL    HW2 7143   1.453   5.885   4.902
 2082SOL     OW 7144   6.080   0.498   2.210
 2082SOL    HW1 7145   6.177   0.497   2.234
 2082SOL    HW2 7146   6.046   0.404   2.202
 2083SOL     OW 7147   3.947   4.253   6.572
 2083SOL    HW1 7148   3.880   4.208   6.630
 2083SOL    HW2 7149   3.925   4.237   6.476
 2084SOL     OW 7150   6.719   3.811   3.674
 2084SOL    HW1 7151   6.716   3.783   3.578
 2084SOL    HW2 7152   6.790   3.881   3.686
 2085SOL     OW 7153   5.556   1.013   6.852
 2085SOL    HW1 7154   5.564   1.110   6.832
 2085SOL    HW2 7155   5.491   0.999   6.927
 2086SOL     OW 7156   2.815   5.882   6.010
 2086SOL    HW1 7157   2.768   5.967   6.031
 2086SOL    HW2 7158   2.812   5.866   5.911
 2087SOL     OW 7159   4.597   6.693   1.845
 2087SOL    HW1 7160   4.649   6.611   1.869
 2087SOL    HW2 7161   4.534   6.715   1.920
 2088SOL     OW 7162   2.903   5.287   0.460
 2088SOL    HW1 7163   2.976   5.263   0.523
 2088SOL    HW2 7164   2.854   5.204   0.433
 2089SOL     OW 7165   4.141   1.587   0.035
 2089SOL    HW1 7166   4.238   1.598   0.012
 2089SOL    HW2 7167   4.106   1.503   7.018
 2090SOL     OW 7168   3.988   3.491   4.626
 2090SOL    HW1 7169   4.048   3.470   4.549
 2090SOL    HW2 7170   4.042   3.526   4.702
 2091SOL     OW 7171   0.253   6.362   0.003
 2091SOL    HW1 7172   0.188   6.321   6.962
 2091SOL    HW2 7173   0.203   6.403   0.079
 2092SOL     OW 7174   5.079   5.680   0.630
 2092SOL    HW1 7175   5.037   5.590   0.635
 2092SOL    HW2 7176   5.023   5.741   0.574
 2093SOL     OW 7177   1.984   2.090   1.347
 2093SOL    HW1 7178   2.072   2.128   1.317
 2093SOL    HW2 7179   1.983   2.085   1.447
 2094SOL     OW 7180   6.017   1.549   1.409
 2094SOL    HW1 7181   5.970   1.460   1.409
 2094SOL    HW2 7182   6.040   1.575   1.502
 2095SOL     OW 7183   5.674   0.376   3.933
 2095SOL    HW1 7184   5.581   0.342   3.919
 2095SOL    HW2 7185   5.674   0.476   3.929
 2096SOL     OW 7186   4.847   3.980   2.548
 2096SOL    HW1 7187   4.827   4.053   2.614
 2096SOL    HW2 7188   4.846   3.892   2.595
 2097SOL     OW 7189   1.152   2.858   6.944
 2097SOL    HW1 7190   1.055   2.879   6.937
 2097SOL    HW2 7191   1.173   2.776   6.892
 2098SOL     OW 7192   3.607   5.421   3.550
 2098SOL    HW1 7193   3.588   5.467   3.637
 2098SOL    HW2 7194   3.545   5.343   3.539
 2099SOL     OW 7195   2.436   2.342   4.871
 2099SOL    HW1 7196   2.346   2.386   4.871
 2099SOL    HW2 7197   2.506   2.409   4.846
 2100SOL     OW 7198   3.709   3.821   6.145
 2100SOL    HW1 7199   3.644   3.801   6.071
 2100SOL    HW2 7200   3.797   3.778   6.126
 2101SOL     OW 7201   1.580   6.311   2.596
 2101SOL    HW1 7202   1.533   6.293   2.510
 2101SOL    HW2 7203   1.679   6.315   2.580
 2102SOL     OW 7204   0.830   5.264   1.819
 2102SOL    HW1 7205   0.742   5.232   1.855
 2102SOL    HW2 7206   0.895   5.271   1.894
 2103SOL     OW 7207   3.069   3.673   6.480
 2103SOL    HW1 7208   3.005   3.700   6.552
 2103SOL    HW2 7209   3.048   3.579   6.450
 2104SOL     OW 7210   1.154   3.324   6.840
 2104SOL    HW1 7211   1.225   3.255   6.842
 2104SOL    HW2 7212   1.165   3.382   6.759
 2105SOL     OW 7213   5.682   5.230   3.824
 2105SOL    HW1 7214   5.725   5.150   3.781
 2105SOL    HW2 7215   5.749   5.275   3.883
 2106SOL     OW 7216   4.370   5.040   0.508
 2106SOL    HW1 7217   4.401   5.101   0.582
 2106SOL    HW2 7218   4.449   5.008   0.456
 2107SOL     OW 7219   4.191   2.632   5.622
 2107SOL    HW1 7220   4.093   2.621   5.637
 2107SOL    HW2 7221   4.208   2.666   5.530
 2108SOL     OW 7222   6.897   6.575   5.751
 2108SOL    HW1 7223   6.806   6.617   5.747
 2108SOL    HW2 7224   6.887   6.477   5.765
 2109SOL     OW 7225   5.139   6.485   3.642
 2109SOL    HW1 7226   5.198   6.459   3.565
 2109SOL    HW2 7227   5.169   6.573   3.678
 2110SOL     OW 7228   3.252   3.456   5.873
 2110SOL    HW1 7229   3.238   3.380   5.809
 2110SOL    HW2 7230   3.340   3.445   5.920
 2111SOL     OW 7231   0.637   1.611   6.566
 2111SOL    HW1 7232   0.607   1.540   6.630
 2111SOL    HW2 7233   0.558   1.659   6.529
 2112SOL     OW 7234   4.340   1.972   1.256
 2112SOL    HW1 7235   4.313   2.068   1.267
 2112SOL    HW2 7236   4.259   1.917   1.236
 2113SOL     OW 7237   1.141   0.200   3.897
 2113SOL    HW1 7238   1.063   0.138   3.885
 2113SOL    HW2 7239   1.145   0.263   3.820
 2114SOL     OW 7240   1.733   2.794   0.280
 2114SOL    HW1 7241   1.820   2.763   0.317
 2114SOL    HW2 7242   1.737   2.892   0.263
 2115SOL     OW 7243   2.227   4.108   2.741
 2115SOL    HW1 7244   2.258   4.196   2.705
 2115SOL    HW2 7245   2.130   4.114   2.766
 2116SOL     OW 7246   6.894   4.823   3.522
 2116SOL    HW1 7247   6.939   4.846   3.608
 2116SOL    HW2 7248   6.937   4.743   3.481
 2117SOL     OW 7249   0.255   5.015   0.999
 2117SOL    HW1 7250   0.340   4.964   0.989
 2117SOL    HW2 7251   0.203   5.011   0.914
 2118SOL     OW 7252   0.079   3.562   2.492
 2118SOL    HW1 7253   0.031   3.637   2.448
 2118SOL    HW2 7254   0.016   3.486   2.508
 2119SOL     OW 7255   2.459   5.795   0.945
 2119SOL    HW1 7256   2.543   5.745   0.926
 2119SOL    HW2 7257   2.454   5.816   1.043
 2120SOL     OW 7258   6.584   5.316   3.829
 2120SOL    HW1 7259   6.581   5.389   3.897
 2120SOL    HW2 7260   6.492   5.298   3.795
 2121SOL     OW 7261   1.156   4.588   5.805
 2121SOL    HW1 7262   1.195   4.559   5.717
 2121SOL    HW2 7263   1.149   4.687   5.807
 2122SOL     OW 7264   5.899   4.286   5.714
 2122SOL    HW1 7265   5.868   4.197   5.681
 2122SOL    HW2 7266   5.916   4.281   5.813
 2123SOL     OW 7267   0.390   4.740   2.669
 2123SOL    HW1 7268   0.321   4.673   2.641
 2123SOL    HW2 7269   0.442   4.705   2.747
 2124SOL     OW 7270   2.463   1.099   1.658
 2124SOL    HW1 7271   2.512   1.074   1.575
 2124SOL    HW2 7272   2.367   1.071   1.650
 2125SOL     OW 7273   1.495   0.095   0.317
 2125SOL    HW1 7274   1.480   0.100   0.415
 2125SOL    HW2 7275   1.454   0.011   0.281
 2126SOL     OW 7276   2.977   0.644   1.144
 2126SOL    HW1 7277   2.999   0.632   1.047
 2126SOL    HW2 7278   2.983   0.740   1.168
 2127SOL     OW 7279   5.900   3.384   4.374
 2127SOL    HW1 7280   5.990   3.349   4.401
 2127SOL    HW2 7281   5.877   3.463   4.430
 2128SOL     OW 7282   6.833   3.679   4.739
 2128SOL    HW1 7283   6.925   3.717   4.733
 2128SOL    HW2 7284   6.780   3.705   4.658
 2129SOL     OW 7285   4.562   3.205   5.378
 2129SOL    HW1 7286   4.572   3.106   5.382
 2129SOL    HW2 7287   4.646   3.246   5.344
 2130SOL     OW 7288   4.988   0.384   2.889
 2130SOL    HW1 7289   4.938   0.304   2.855
 2130SOL    HW2 7290   4.940   0.421   2.969
 2131SOL     OW 7291   6.757   0.792   1.382
 2131SOL    HW1 7292   6.853   0.810   1.360
 2131SOL    HW2 7293   6.700   0.866   1.345
 2132SOL     OW 7294   4.377   2.507   1.555
 2132SOL    HW1 7295   4.415   2.427   1.509
 2132SOL    HW2 7296   4.424   2.522   1.642
 2133SOL     OW 7297   2.897   2.952   5.712
 2133SOL    HW1 7298   2.910   3.023   5.644
 2133SOL    HW2 7299   2.908   2.862   5.670
 2134SOL     OW 7300   0.587   2.398   0.630
 2134SOL    HW1 7301   0.578   2.367   0.535
 2134SOL    HW2 7302   0.662   2.464   0.636
 2135SOL     OW 7303   0.815   4.323   4.604
 2135SOL    HW1 7304   0.816   4.226   4.629
 2135SOL    HW2 7305   0.809   4.331   4.504
 2136SOL     OW 7306   2.376   5.019   2.580
 2136SOL    HW1 7307   2.354   5.088   2.511
 2136SOL    HW2 7308   2.322   5.036   2.662
 2137SOL     OW 7309   2.776   5.110   5.725
 2137SOL    HW1 7310   2.764   5.175   5.650
 2137SOL    HW2 7311   2.834   5.035   5.694
 2138SOL     OW 7312   5.854   0.031   2.647
 2138SOL    HW1 7313   5.865   7.010   2.737
 2138SOL    HW2 7314   5.942   0.068   2.617
 2139SOL     OW 7315   3.919   0.768   4.197
 2139SOL    HW1 7316   4.019   0.769   4.190
 2139SOL    HW2 7317   3.891   0.692   4.255
 2140SOL     OW 7318   3.115   6.149   4.093
 2140SOL    HW1 7319   3.166   6.107   4.168
 2140SOL    HW2 7320   3.027   6.181   4.127
 2141SOL     OW 7321   6.437   2.997   2.214
 2141SOL    HW1 7322   6.400   3.052   2.289
 2141SOL    HW2 7323   6.375   2.920   2.195
 2142SOL     OW 7324   0.292   1.544   3.497
 2142SOL    HW1 7325   0.279   1.543   3.397
 2142SOL    HW2 7326   0.345   1.625   3.522
 2143SOL     OW 7327   2.226   4.962   1.076
 2143SOL    HW1 7328   2.277   4.895   1.129
 2143SOL    HW2 7329   2.184   5.028   1.138
 2144SOL     OW 7330   0.822   5.294   4.786
 2144SOL    HW1 7331   0.909   5.341   4.805
 2144SOL    HW2 7332   0.747   5.349   4.821
 2145SOL     OW 7333   4.197   6.824   4.280
 2145SOL    HW1 7334   4.110   6.859   4.248
 2145SOL    HW2 7335   4.182   6.765   4.359
 2146SOL     OW 7336   2.312   2.248   1.068
 2146SOL    HW1 7337   2.332   2.247   1.166
 2146SOL    HW2 7338   2.214   2.261   1.054
 2147SOL     OW 7339   6.507   1.421   6.693
 2147SOL    HW1 7340   6.533   1.335   6.735
 2147SOL    HW2 7341   6.557   1.434   6.608
 2148SOL     OW 7342   6.458   3.289   6.322
 2148SOL    HW1 7343   6.377   3.296   6.381
 2148SOL    HW2 7344   6.468   3.373   6.270
 2149SOL     OW 7345   1.841   1.496   1.090
 2149SOL    HW1 7346   1.777   1.462   1.159
 2149SOL    HW2 7347   1.935   1.489   1.124
 2150SOL     OW 7348   2.641   1.998   1.603
 2150SOL    HW1 7349   2.645   1.907   1.643
 2150SOL    HW2 7350   2.634   2.066   1.677
 2151SOL     OW 7351   1.063   6.668   6.579
 2151SOL    HW1 7352   0.968   6.694   6.594
 2151SOL    HW2 7353   1.089   6.597   6.645
 2152SOL     OW 7354   4.413   4.592   2.566
 2152SOL    HW1 7355   4.355   4.613   2.488
 2152SOL    HW2 7356   4.384   4.647   2.645
 2153SOL     OW 7357   5.162   1.592   1.848
 2153SOL    HW1 7358   5.123   1.640   1.770
 2153SOL    HW2 7359   5.242   1.539   1.819
 2154SOL     OW 7360   2.556   0.083   4.006
 2154SOL    HW1 7361   2.651   0.107   4.027
 2154SOL    HW2 7362   2.522   0.141   3.932
 2155SOL     OW 7363   4.124   6.761   1.146
 2155SOL    HW1 7364   4.109   6.686   1.210
 2155SOL    HW2 7365   4.047   6.767   1.082
 2156SOL     OW 7366   6.920   0.190   4.939
 2156SOL    HW1 7367   6.836   0.136   4.938
 2156SOL    HW2 7368   6.995   0.137   4.900
 2157SOL     OW 7369   5.076   5.673   3.917
 2157SOL    HW1 7370   4.988   5.653   3.874
 2157SOL    HW2 7371   5.067   5.756   3.972
 2158SOL     OW 7372   3.935   5.836   0.550
 2158SOL    HW1 7373   3.988   5.918   0.527
 2158SOL    HW2 7374   3.916   5.784   0.468
 2159SOL     OW 7375   1.519   0.307   5.292
 2159SOL    HW1 7376   1.554   0.279   5.203
 2159SOL    HW2 7377   1.484   0.401   5.286
 2160SOL     OW 7378   5.198   4.896   6.423
 2160SOL    HW1 7379   5.204   4.887   6.324
 2160SOL    HW2 7380   5.186   4.992   6.447
 2161SOL     OW 7381   6.630   4.068   1.795
 2161SOL    HW1 7382   6.650   4.087   1.699
 2161SOL    HW2 7383   6.714   4.080   1.849
 2162SOL     OW 7384   2.473   6.864   2.910
 2162SOL    HW1 7385   2.458   6.938   2.844
 2162SOL    HW2 7386   2.445   6.777   2.868
 2163SOL     OW 7387   1.659   4.536   0.702
 2163SOL    HW1 7388   1.590   4.506   0.768
 2163SOL    HW2 7389   1.639   4.497   0.612
 2164SOL     OW 7390   2.357   2.220   6.846
 2164SOL    HW1 7391   2.307   2.177   6.771
 2164SOL    HW2 7392   2.301   2.294   6.885
 2165SOL     OW 7393   0.575   2.314   3.920
 2165SOL    HW1 7394   0.532   2.244   3.863
 2165SOL    HW2 7395   0.613   2.271   4.002
 2166SOL     OW 7396   0.466   3.550   4.596
 2166SOL    HW1 7397   0.461   3.508   4.506
 2166SOL    HW2 7398   0.463   3.650   4.587
 2167SOL     OW 7399   0.342   3.329   3.870
 2167SOL    HW1 7400   0.327   3.387   3.950
 2167SOL    HW2 7401   0.401   3.252   3.895
 2168SOL     OW 7402   1.124   1.793   2.797
 2168SOL    HW1 7403   1.145   1.874   2.743
 2168SOL    HW2 7404   1.070   1.729   2.741
 2169SOL     OW 7405   0.133   0.576   1.228
 2169SOL    HW1 7406   0.188   0.659   1.221
 2169SOL    HW2 7407   0.181   0.501   1.182
 2170SOL     OW 7408   6.627   4.122   5.007
 2170SOL    HW1 7409   6.562   4.047   5.015
 2170SOL    HW2 7410   6.625   4.177   5.090
 2171SOL     OW 7411   1.054   5.304   1.478
 2171SOL    HW1 7412   1.042   5.353   1.392
 2171SOL    HW2 7413   1.086   5.211   1.459
 2172SOL     OW 7414   2.300   2.344   5.834
 2172SOL    HW1 7415   2.294   2.301   5.743
 2172SOL    HW2 7416   2.285   2.274   5.904
 2173SOL     OW 7417   4.386   0.294   5.748
 2173SOL    HW1 7418   4.465   0.301   5.687
 2173SOL    HW2 7419   4.342   0.383   5.756
 2174SOL     OW 7420   6.638   6.477   5.097
 2174SOL    HW1 7421   6.609   6.558   5.148
 2174SOL    HW2 7422   6.735   6.460   5.113
 2175SOL     OW 7423   1.493   3.317   4.628
 2175SOL    HW1 7424   1.582   3.308   4.672
 2175SOL    HW2 7425   1.492   3.263   4.544
 2176SOL     OW 7426   5.007   1.522   1.246
 2176SOL    HW1 7427   4.932   1.462   1.217
 2176SOL    HW2 7428   4.973   1.590   1.310
 2177SOL     OW 7429   6.570   0.554   2.401
 2177SOL    HW1 7430   6.644   0.524   2.340
 2177SOL    HW2 7431   6.487   0.568   2.347
 2178SOL     OW 7432   1.340   1.275   2.290
 2178SOL    HW1 7433   1.335   1.240   2.197
 2178SOL    HW2 7434   1.358   1.373   2.288
 2179SOL     OW 7435   2.012   3.098   6.094
 2179SOL    HW1 7436   1.981   3.190   6.071
 2179SOL    HW2 7437   1.975   3.033   6.028
 2180SOL     OW 7438   1.153   2.929   2.086
 2180SOL    HW1 7439   1.115   2.975   2.006
 2180SOL    HW2 7440   1.217   2.991   2.133
 2181SOL     OW 7441   4.694   5.027   4.110
 2181SOL    HW1 7442   4.692   5.013   4.010
 2181SOL    HW2 7443   4.610   5.073   4.139
 2182SOL     OW 7444   1.084   5.034   3.520
 2182SOL    HW1 7445   1.176   4.999   3.542
 2182SOL    HW2 7446   1.070   5.029   3.421
 2183SOL     OW 7447   2.381   4.173   0.247
 2183SOL    HW1 7448   2.306   4.231   0.279
 2183SOL    HW2 7449   2.344   4.091   0.204
 2184SOL     OW 7450   4.209   6.970   6.443
 2184SOL    HW1 7451   4.244   7.012   6.359
 2184SOL    HW2 7452   4.110   6.978   6.445
 2185SOL     OW 7453   1.097   1.330   6.668
 2185SOL    HW1 7454   1.057   1.413   6.629
 2185SOL    HW2 7455   1.136   1.274   6.595
 2186SOL     OW 7456   6.338   5.654   6.659
 2186SOL    HW1 7457   6.410   5.607   6.710
 2186SOL    HW2 7458   6.273   5.587   6.623
 2187SOL     OW 7459   0.041   6.401   2.407
 2187SOL    HW1 7460   6.970   6.427   2.427
 2187SOL    HW2 7461   0.042   6.312   2.361
 2188SOL     OW 7462   1.762   5.348   5.639
 2188SOL    HW1 7463   1.742   5.279   5.570
 2188SOL    HW2 7464   1.776   5.304   5.728
 2189SOL     OW 7465   1.711   0.462   1.948
 2189SOL    HW1 7466   1.682   0.433   1.857
 2189SOL    HW2 7467   1.808   0.441   1.960
 2190SOL     OW 7468   6.633   2.894   1.902
 2190SOL    HW1 7469   6.720   2.902   1.854
 2190SOL    HW2 7470   6.594   2.985   1.916
 2191SOL     OW 7471   2.446   1.418   5.448
 2191SOL    HW1 7472   2.543   1.407   5.428
 2191SOL    HW2 7473   2.428   1.511   5.479
 2192SOL     OW 7474   5.196   0.556   2.761
 2192SOL    HW1 7475   5.113   0.505   2.782
 2192SOL    HW2 7476   5.193   0.645   2.807
 2193SOL     OW 7477   6.916   0.331   6.280
 2193SOL    HW1 7478   7.000   0.328   6.335
 2193SOL    HW2 7479   6.840   0.295   6.334
 2194SOL     OW 7480   1.416   3.879   6.289
 2194SOL    HW1 7481   1.410   3.942   6.212
 2194SOL    HW2 7482   1.395   3.927   6.374
 2195SOL     OW 7483   0.073   6.629   5.394
 2195SOL    HW1 7484   0.033   6.716   5.365
 2195SOL    HW2 7485   0.009   6.580   5.453
 2196SOL     OW 7486   2.941   6.371   4.616
 2196SOL    HW1 7487   2.931   6.455   4.669
 2196SOL    HW2 7488   2.854   6.323   4.613
 2197SOL     OW 7489   3.006   3.442   6.359
 2197SOL    HW1 7490   3.028   3.465   6.264
 2197SOL    HW2 7491   2.921   3.390   6.362
 2198SOL     OW 7492   6.465   0.265   1.309
 2198SOL    HW1 7493   6.494   0.243   1.402
 2198SOL    HW2 7494   6.546   0.281   1.252
 2199SOL     OW 7495   5.248   6.878   4.540
 2199SOL    HW1 7496   5.216   6.831   4.622
 2199SOL    HW2 7497   5.213   6.831   4.459
 2200SOL     OW 7498   2.258   1.358   3.813
 2200SOL    HW1 7499   2.303   1.400   3.893
 2200SOL    HW2 7500   2.214   1.429   3.759
 2201SOL     OW 7501   6.225   2.756   2.764
 2201SOL    HW1 7502   6.250   2.822   2.835
 2201SOL    HW2 7503   6.165   2.686   2.802
 2202SOL     OW 7504   3.331   5.843   1.831
 2202SOL    HW1 7505   3.392   5.886   1.898
 2202SOL    HW2 7506   3.371   5.756   1.801
 2203SOL     OW 7507   2.855   3.263   1.340
 2203SOL    HW1 7508   2.910   3.345   1.359
 2203SOL    HW2 7509   2.882   3.189   1.402
 2204SOL     OW 7510   4.527   2.413   1.033
 2204SOL    HW1 7511   4.495   2.405   1.128
 2204SOL    HW2 7512   4.456   2.380   0.971
 2205SOL     OW 7513   1.264   0.231   0.059
 2205SOL    HW1 7514   1.270   0.144   0.010
 2205SOL    HW2 7515   1.355   0.273   0.064
 2206SOL     OW 7516   2.345   4.522   5.831
 2206SOL    HW1 7517   2.379   4.479   5.747
 2206SOL    HW2 7518   2.414   4.586   5.865
 2207SOL     OW 7519   3.674   4.341   0.170
 2207SOL    HW1 7520   3.631   4.297   0.249
 2207SOL    HW2 7521   3.722   4.273   0.115
 2208SOL     OW 7522   0.883   5.200   2.592
 2208SOL    HW1 7523   0.814   5.194   2.520
 2208SOL    HW2 7524   0.837   5.207   2.681
 2209SOL     OW 7525   2.661   6.915   4.910
 2209SOL    HW1 7526   2.726   6.840   4.894
 2209SOL    HW2 7527   2.584   6.907   4.847
 2210SOL     OW 7528   6.859   5.276   3.266
 2210SOL    HW1 7529   6.789   5.344   3.286
 2210SOL    HW2 7530   6.896   5.240   3.352
 2211SOL     OW 7531   6.364   0.938   0.492
 2211SOL    HW1 7532   6.443   0.919   0.551
 2211SOL    HW2 7533   6.323   1.025   0.521
 2212SOL     OW 7534   1.705   5.685   0.441
 2212SOL    HW1 7535   1.731   5.593   0.468
 2212SOL    HW2 7536   1.620   5.681   0.388
 2213SOL     OW 7537   3.965   2.434   5.650
 2213SOL    HW1 7538   3.984   2.447   5.553
 2213SOL    HW2 7539   4.029   2.367   5.688
 2214SOL     OW 7540   2.934   3.423   4.962
 2214SOL    HW1 7541   2.863   3.453   4.899
 2214SOL    HW2 7542   2.984   3.502   4.996
 2215SOL     OW 7543   5.883   0.808   6.679
 2215SOL    HW1 7544   5.979   0.812   6.705
 2215SOL    HW2 7545   5.875   0.826   6.581
 2216SOL     OW 7546   0.483   0.233   5.975
 2216SOL    HW1 7547   0.471   0.288   5.892
 2216SOL    HW2 7548   0.395   0.224   6.022
 2217SOL     OW 7549   4.566   0.341   2.880
 2217SOL    HW1 7550   4.500   0.395   2.932
 2217SOL    HW2 7551   4.606   0.397   2.808
 2218SOL     OW 7552   7.020   5.102   0.242
 2218SOL    HW1 7553   0.015   5.191   0.200
 2218SOL    HW2 7554   6.945   5.057   0.194
 2219SOL     OW 7555   5.954   1.580   0.994
 2219SOL    HW1 7556   5.965   1.612   0.900
 2219SOL    HW2 7557   5.919   1.486   0.993
 2220SOL     OW 7558   1.792   5.705   5.949
 2220SOL    HW1 7559   1.696   5.700   5.922
 2220SOL    HW2 7560   1.849   5.666   5.877
 2221SOL     OW 7561   6.347   1.451   5.000
 2221SOL    HW1 7562   6.369   1.505   5.081
 2221SOL    HW2 7563   6.384   1.496   4.919
 2222SOL     OW 7564   6.067   0.409   0.926
 2222SOL    HW1 7565   5.994   0.381   0.863
 2222SOL    HW2 7566   6.151   0.361   0.903
 2223SOL     OW 7567   5.817   0.615   6.261
 2223SOL    HW1 7568   5.781   0.655   6.177
 2223SOL    HW2 7569   5.748   0.555   6.301
 2224SOL     OW 7570   6.204   3.781   0.968
 2224SOL    HW1 7571   6.186   3.695   1.016
 2224SOL    HW2 7572   6.155   3.781   0.881
 2225SOL     OW 7573   5.994   6.835   3.743
 2225SOL    HW1 7574   6.021   6.834   3.647
 2225SOL    HW2 7575   6.075   6.850   3.801
 2226SOL     OW 7576   3.469   5.147   1.035
 2226SOL    HW1 7577   3.512   5.195   0.959
 2226SOL    HW2 7578   3.539   5.114   1.098
 2227SOL     OW 7579   5.302   2.349   1.150
 2227SOL    HW1 7580   5.281   2.251   1.147
 2227SOL    HW2 7581   5.396   2.364   1.119
 2228SOL     OW 7582   3.839   4.930   0.503
 2228SOL    HW1 7583   3.775   4.973   0.440
 2228SOL    HW2 7584   3.832   4.830   0.495
 2229SOL     OW 7585   3.756   2.885   5.389
 2229SOL    HW1 7586   3.666   2.845   5.405
 2229SOL    HW2 7587   3.753   2.943   5.308
 2230SOL     OW 7588   5.643   6.556   0.917
 2230SOL    HW1 7589   5.604   6.632   0.865
 2230SOL    HW2 7590   5.692   6.592   0.997
 2231SOL     OW 7591   0.131   0.745   0.375
 2231SOL    HW1 7592   0.221   0.778   0.344
 2231SOL    HW2 7593   0.072   0.823   0.393
 2232SOL     OW 7594   1.201   1.494   5.077
 2232SOL    HW1 7595   1.178   1.517   4.983
 2232SOL    HW2 7596   1.279   1.431   5.079
 2233SOL     OW 7597   2.398   2.822   0.511
 2233SOL    HW1 7598   2.468   2.780   0.569
 2233SOL    HW2 7599   2.340   2.881   0.567
 2234SOL     OW 7600   3.648   1.489   1.304
 2234SOL    HW1 7601   3.709   1.559   1.267
 2234SOL    HW2 7602   3.679   1.399   1.273
 2235SOL     OW 7603   2.498   7.010   1.676
 2235SOL    HW1 7604   2.550   0.034   1.605
 2235SOL    HW2 7605   2.499   6.912   1.659
 2236SOL     OW 7606   1.845   3.622   5.847
 2236SOL    HW1 7607   1.940   3.598   5.863
 2236SOL    HW2 7608   1.837   3.721   5.833
 2237SOL     OW 7609   5.798   4.509   4.249
 2237SOL    HW1 7610   5.833   4.464   4.167
 2237SOL    HW2 7611   5.819   4.452   4.329
 2238SOL     OW 7612   4.596   5.222   2.445
 2238SOL    HW1 7613   4.594   5.303   2.503
 2238SOL    HW2 7614   4.513   5.219   2.389
 2239SOL     OW 7615   4.362   5.795   3.739
 2239SOL    HW1 7616   4.283   5.751   3.696
 2239SOL    HW2 7617   4.416   5.727   3.788
 2240SOL     OW 7618   3.439   5.166   2.562
 2240SOL    HW1 7619   3.506   5.240   2.567
 2240SOL    HW2 7620   3.353   5.194   2.604
 2241SOL     OW 7621   6.835   6.567   2.307
 2241SOL    HW1 7622   6.825   6.588   2.209
 2241SOL    HW2 7623   6.756   6.514   2.337
 2242SOL     OW 7624   4.872   3.130   2.259
 2242SOL    HW1 7625   4.782   3.095   2.232
 2242SOL    HW2 7626   4.915   3.174   2.180
 2243SOL     OW 7627   1.733   6.826   6.802
 2243SOL    HW1 7628   1.668   6.901   6.793
 2243SOL    HW2 7629   1.795   6.827   6.723
 2244SOL     OW 7630   3.280   6.542   1.814
 2244SOL    HW1 7631   3.305   6.598   1.735
 2244SOL    HW2 7632   3.181   6.526   1.813
 2245SOL     OW 7633   1.002   1.634   1.453
 2245SOL    HW1 7634   0.910   1.657   1.422
 2245SOL    HW2 7635   1.019   1.537   1.440
 2246SOL     OW 7636   2.128   0.580   4.400
 2246SOL    HW1 7637   2.154   0.572   4.496
 2246SOL    HW2 7638   2.032   0.608   4.394
 2247SOL     OW 7639   3.037   3.092   2.960
 2247SOL    HW1 7640   2.951   3.100   3.009
 2247SOL    HW2 7641   3.107   3.054   3.020
 2248SOL     OW 7642   6.551   3.850   4.972
 2248SOL    HW1 7643   6.635   3.812   5.010
 2248SOL    HW2 7644   6.511   3.785   4.907
 2249SOL     OW 7645   5.402   6.683   3.784
 2249SOL    HW1 7646   5.475   6.646   3.841
 2249SOL    HW2 7647   5.344   6.744   3.839
 2250SOL     OW 7648   3.045   4.092   5.054
 2250SOL    HW1 7649   3.122   4.109   5.115
 2250SOL    HW2 7650   2.986   4.172   5.051
 2251SOL     OW 7651   5.503   6.758   6.434
 2251SOL    HW1 7652   5.525   6.766   6.531
 2251SOL    HW2 7653   5.563   6.690   6.392
 2252SOL     OW 7654   4.964   1.443   3.159
 2252SOL    HW1 7655   4.864   1.432   3.165
 2252SOL    HW2 7656   4.991   1.448   3.063
 2253SOL     OW 7657   6.934   3.149   0.056
 2253SOL    HW1 7658   6.886   3.138   0.144
 2253SOL    HW2 7659   6.882   3.211   7.021
 2254SOL     OW 7660   3.360   2.883   4.245
 2254SOL    HW1 7661   3.288   2.861   4.179
 2254SOL    HW2 7662   3.319   2.923   4.327
 2255SOL     OW 7663   3.934   3.568   5.844
 2255SOL    HW1 7664   4.007   3.595   5.781
 2255SOL    HW2 7665   3.946   3.617   5.930
 2256SOL     OW 7666   5.527   6.086   2.342
 2256SOL    HW1 7667   5.445   6.097   2.399
 2256SOL    HW2 7668   5.518   6.004   2.286
 2257SOL     OW 7669   0.868   1.541   4.726
 2257SOL    HW1 7670   0.929   1.521   4.803
 2257SOL    HW2 7671   0.817   1.458   4.703
 2258SOL     OW 7672   1.279   5.556   5.043
 2258SOL    HW1 7673   1.328   5.630   4.998
 2258SOL    HW2 7674   1.280   5.475   4.985
 2259SOL     OW 7675   5.566   2.814   5.518
 2259SOL    HW1 7676   5.563   2.777   5.610
 2259SOL    HW2 7677   5.559   2.914   5.522
 2260SOL     OW 7678   0.071   4.045   1.388
 2260SOL    HW1 7679   0.094   4.109   1.315
 2260SOL    HW2 7680   0.081   3.951   1.355
 2261SOL     OW 7681   6.471   5.175   0.682
 2261SOL    HW1 7682   6.408   5.100   0.665
 2261SOL    HW2 7683   6.441   5.226   0.762
 2262SOL     OW 7684   5.866   0.150   2.981
 2262SOL    HW1 7685   5.912   0.061   2.973
 2262SOL    HW2 7686   5.883   0.204   2.899
 2263SOL     OW 7687   2.976   5.658   0.141
 2263SOL    HW1 7688   2.999   5.753   0.162
 2263SOL    HW2 7689   2.880   5.641   0.164
 2264SOL     OW 7690   3.177   5.608   6.577
 2264SOL    HW1 7691   3.225   5.664   6.645
 2264SOL    HW2 7692   3.233   5.528   6.554
 2265SOL     OW 7693   1.870   0.851   4.538
 2265SOL    HW1 7694   1.812   0.769   4.533
 2265SOL    HW2 7695   1.926   0.857   4.456
 2266SOL     OW 7696   5.345   1.580   6.651
 2266SOL    HW1 7697   5.397   1.660   6.680
 2266SOL    HW2 7698   5.270   1.563   6.715
 2267SOL     OW 7699   4.887   3.336   5.073
 2267SOL    HW1 7700   4.876   3.423   5.025
 2267SOL    HW2 7701   4.828   3.335   5.154
 2268SOL     OW 7702   5.705   4.161   6.045
 2268SOL    HW1 7703   5.702   4.078   5.987
 2268SOL    HW2 7704   5.781   4.218   6.017
 2269SOL     OW 7705   0.767   4.296   5.733
 2269SOL    HW1 7706   0.849   4.326   5.782
 2269SOL    HW2 7707   0.690   4.357   5.755
 2270SOL     OW 7708   3.865   2.555   6.342
 2270SOL    HW1 7709   3.946   2.613   6.348
 2270SOL    HW2 7710   3.795   2.589   6.405
 2271SOL     OW 7711   5.667   4.428   0.179
 2271SOL    HW1 7712   5.723   4.346   0.172
 2271SOL    HW2 7713   5.689   4.490   0.103
 2272SOL     OW 7714   5.579   1.594   0.225
 2272SOL    HW1 7715   5.669   1.634   0.208
 2272SOL    HW2 7716   5.534   1.575   0.138
 2273SOL     OW 7717   1.710   1.365   2.471
 2273SOL    HW1 7718   1.658   1.364   2.386
 2273SOL    HW2 7719   1.808   1.367   2.451
 2274SOL     OW 7720   0.718   1.232   5.950
 2274SOL    HW1 7721   0.788   1.300   5.928
 2274SOL    HW2 7722   0.727   1.205   6.046
 2275SOL     OW 7723   5.811   6.645   3.699
 2275SOL    HW1 7724   5.878   6.714   3.728
 2275SOL    HW2 7725   5.769   6.603   3.780
 2276SOL     OW 7726   2.469   5.680   2.147
 2276SOL    HW1 7727   2.456   5.596   2.095
 2276SOL    HW2 7728   2.400   5.685   2.220
 2277SOL     OW 7729   3.529   4.188   3.973
 2277SOL    HW1 7730   3.534   4.186   3.873
 2277SOL    HW2 7731   3.621   4.174   4.011
 2278SOL     OW 7732   5.822   3.616   4.516
 2278SOL    HW1 7733   5.727   3.611   4.548
 2278SOL    HW2 7734   5.882   3.629   4.595
 2279SOL     OW 7735   6.052   0.084   5.527
 2279SOL    HW1 7736   5.954   0.102   5.538
 2279SOL    HW2 7737   6.068   0.035   5.441
 2280SOL     OW 7738   6.844   0.288   4.641
 2280SOL    HW1 7739   6.856   0.197   4.680
 2280SOL    HW2 7740   6.747   0.309   4.632
 2281SOL     OW 7741   3.417   0.586   2.241
 2281SOL    HW1 7742   3.510   0.572   2.273
 2281SOL    HW2 7743   3.397   0.522   2.167
 2282SOL     OW 7744   5.703   6.829   5.551
 2282SOL    HW1 7745   5.652   6.744   5.536
 2282SOL    HW2 7746   5.801   6.811   5.549
 2283SOL     OW 7747   1.519   0.236   1.728
 2283SOL    HW1 7748   1.598   0.257   1.670
 2283SOL    HW2 7749   1.549   0.181   1.806
 2284SOL     OW 7750   1.456   2.881   6.764
 2284SOL    HW1 7751   1.399   2.955   6.800
 2284SOL    HW2 7752   1.473   2.897   6.667
 2285SOL     OW 7753   1.426   2.981   0.708
 2285SOL    HW1 7754   1.494   3.054   0.707
 2285SOL    HW2 7755   1.336   3.020   0.727
 2286SOL     OW 7756   5.858   0.041   3.435
 2286SOL    HW1 7757   5.771   7.021   3.414
 2286SOL    HW2 7758   5.854   0.083   3.525
 2287SOL     OW 7759   2.143   0.257   4.010
 2287SOL    HW1 7760   2.106   0.349   3.993
 2287SOL    HW2 7761   2.227   0.264   4.063
 2288SOL     OW 7762   6.065   5.324   3.444
 2288SOL    HW1 7763   6.033   5.362   3.531
 2288SOL    HW2 7764   6.053   5.392   3.372
 2289SOL     OW 7765   0.584   5.146   0.649
 2289SOL    HW1 7766   0.531   5.225   0.621
 2289SOL    HW2 7767   0.528   5.064   0.644
 2290SOL     OW 7768   0.746   3.394   0.805
 2290SOL    HW1 7769   0.686   3.449   0.747
 2290SOL    HW2 7770   0.715   3.299   0.805
 2291SOL     OW 7771   1.999   2.395   5.571
 2291SOL    HW1 7772   1.962   2.483   5.541
 2291SOL    HW2 7773   1.923   2.332   5.588
 2292SOL     OW 7774   1.075   1.680   4.601
 2292SOL    HW1 7775   0.989   1.647   4.640
 2292SOL    HW2 7776   1.071   1.779   4.588
 2293SOL     OW 7777   5.131   6.471   1.081
 2293SOL    HW1 7778   5.177   6.538   1.140
 2293SOL    HW2 7779   5.052   6.513   1.038
 2294SOL     OW 7780   3.438   0.361   6.776
 2294SOL    HW1 7781   3.354   0.399   6.814
 2294SOL    HW2 7782   3.515   0.383   6.836
 2295SOL     OW 7783   0.457   1.952   2.225
 2295SOL    HW1 7784   0.516   2.031   2.241
 2295SOL    HW2 7785   0.497   1.871   2.269
 2296SOL     OW 7786   4.082   5.324   0.326
 2296SOL    HW1 7787   4.135   5.256   0.275
 2296SOL    HW2 7788   4.040   5.281   0.405
 2297SOL     OW 7789   3.744   4.223   5.098
 2297SOL    HW1 7790   3.664   4.226   5.037
 2297SOL    HW2 7791   3.715   4.203   5.191
 2298SOL     OW 7792   3.856   3.037   2.034
 2298SOL    HW1 7793   3.895   2.972   1.968
 2298SOL    HW2 7794   3.883   3.011   2.126
 2299SOL     OW 7795   4.907   6.709   6.310
 2299SOL    HW1 7796   4.815   6.740   6.335
 2299SOL    HW2 7797   4.907   6.609   6.303
 2300SOL     OW 7798   2.625   4.757   1.823
 2300SOL    HW1 7799   2.684   4.688   1.864
 2300SOL    HW2 7800   2.545   4.714   1.782
 2301SOL     OW 7801   2.917   3.288   3.238
 2301SOL    HW1 7802   3.004   3.306   3.192
 2301SOL    HW2 7803   2.933   3.281   3.337
 2302SOL     OW 7804   3.525   6.890   1.531
 2302SOL    HW1 7805   3.618   6.877   1.495
 2302SOL    HW2 7806   3.490   6.979   1.502
 2303SOL     OW 7807   1.971   3.127   6.412
 2303SOL    HW1 7808   1.957   3.226   6.421
 2303SOL    HW2 7809   1.994   3.106   6.317
 2304SOL     OW 7810   3.981   0.420   4.000
 2304SOL    HW1 7811   4.024   0.363   4.070
 2304SOL    HW2 7812   4.034   0.503   3.986
 2305SOL     OW 7813   2.868   6.640   2.755
 2305SOL    HW1 7814   2.806   6.705   2.711
 2305SOL    HW2 7815   2.828   6.548   2.750
 2306SOL     OW 7816   2.555   4.945   1.635
 2306SOL    HW1 7817   2.600   4.882   1.698
 2306SOL    HW2 7818   2.459   4.955   1.659
 2307SOL     OW 7819   0.927   3.715   3.113
 2307SOL    HW1 7820   0.841   3.710   3.164
 2307SOL    HW2 7821   0.945   3.810   3.089
 2308SOL     OW 7822   1.272   6.749   6.844
 2308SOL    HW1 7823   1.187   6.791   6.877
 2308SOL    HW2 7824   1.332   6.730   6.922
 2309SOL     OW 7825   2.755   6.431   6.534
 2309SOL    HW1 7826   2.805   6.487   6.468
 2309SOL    HW2 7827   2.659   6.460   6.535
 2310SOL     OW 7828   5.484   6.574   1.347
 2310SOL    HW1 7829   5.581   6.554   1.336
 2310SOL    HW2 7830   5.453   6.633   1.273
 2311SOL     OW 7831   2.487   6.052   2.048
 2311SOL    HW1 7832   2.519   6.105   1.969
 2311SOL    HW2 7833   2.551   6.066   2.125
 2312SOL     OW 7834   3.528   6.270   4.008
 2312SOL    HW1 7835   3.479   6.329   3.944
 2312SOL    HW2 7836   3.623   6.260   3.977
 2313SOL     OW 7837   5.194   5.472   1.715
 2313SOL    HW1 7838   5.273   5.448   1.771
 2313SOL    HW2 7839   5.112   5.476   1.773
 2314SOL     OW 7840   5.835   0.532   4.905
 2314SOL    HW1 7841   5.737   0.531   4.885
 2314SOL    HW2 7842   5.858   0.618   4.952
 2315SOL     OW 7843   5.211   3.675   5.339
 2315SOL    HW1 7844   5.280   3.747   5.333
 2315SOL    HW2 7845   5.125   3.708   5.299
 2316SOL     OW 7846   3.182   0.731   4.535
 2316SOL    HW1 7847   3.215   0.722   4.441
 2316SOL    HW2 7848   3.125   0.653   4.558
 2317SOL     OW 7849   6.120   6.306   3.168
 2317SOL    HW1 7850   6.138   6.354   3.082
 2317SOL    HW2 7851   6.047   6.353   3.218
 2318SOL     OW 7852   2.118   3.109   4.619
 2318SOL    HW1 7853   2.169   3.061   4.548
 2318SOL    HW2 7854   2.105   3.205   4.593
 2319SOL     OW 7855   3.225   5.300   4.702
 2319SOL    HW1 7856   3.219   5.234   4.777
 2319SOL    HW2 7857   3.235   5.252   4.615
 2320SOL     OW 7858   0.855   3.128   4.449
 2320SOL    HW1 7859   0.930   3.071   4.416
 2320SOL    HW2 7860   0.828   3.192   4.376
 2321SOL     OW 7861   2.068   4.965   0.472
 2321SOL    HW1 7862   2.142   4.906   0.505
 2321SOL    HW2 7863   2.018   5.002   0.550
 2322SOL     OW 7864   1.960   4.163   3.244
 2322SOL    HW1 7865   1.907   4.105   3.182
 2322SOL    HW2 7866   2.049   4.121   3.260
 2323SOL     OW 7867   3.332   4.701   1.752
 2323SOL    HW1 7868   3.432   4.700   1.760
 2323SOL    HW2 7869   3.304   4.631   1.686
 2324SOL     OW 7870   6.466   5.851   0.331
 2324SOL    HW1 7871   6.491   5.766   0.376
 2324SOL    HW2 7872   6.543   5.885   0.278
 2325SOL     OW 7873   1.124   4.377   1.343
 2325SOL    HW1 7874   1.060   4.313   1.300
 2325SOL    HW2 7875   1.124   4.362   1.442
 2326SOL     OW 7876   2.510   6.008   6.743
 2326SOL    HW1 7877   2.476   6.045   6.830
 2326SOL    HW2 7878   2.590   6.060   6.714
 2327SOL     OW 7879   6.584   1.659   3.692
 2327SOL    HW1 7880   6.504   1.605   3.717
 2327SOL    HW2 7881   6.602   1.647   3.594
 2328SOL     OW 7882   1.508   1.485   2.889
 2328SOL    HW1 7883   1.447   1.407   2.905
 2328SOL    HW2 7884   1.594   1.471   2.940
 2329SOL     OW 7885   1.711   4.421   4.692
 2329SOL    HW1 7886   1.712   4.321   4.700
 2329SOL    HW2 7887   1.789   4.450   4.636
 2330SOL     OW 7888   0.095   3.516   1.746
 2330SOL    HW1 7889   0.028   3.488   1.815
 2330SOL    HW2 7890   0.176   3.457   1.752
 2331SOL     OW 7891   3.943   5.167   6.626
 2331SOL    HW1 7892   3.962   5.211   6.713
 2331SOL    HW2 7893   3.945   5.067   6.638
 2332SOL     OW 7894   6.022   0.810   5.192
 2332SOL    HW1 7895   6.099   0.859   5.234
 2332SOL    HW2 7896   6.055   0.724   5.152
 2333SOL     OW 7897   0.211   4.567   2.590
 2333SOL    HW1 7898   0.213   4.480   2.639
 2333SOL    HW2 7899   0.129   4.572   2.533
 2334SOL     OW 7900   1.708   0.716   6.535
 2334SOL    HW1 7901   1.626   0.684   6.583
 2334SOL    HW2 7902   1.760   0.777   6.595
 2335SOL     OW 7903   6.603   1.173   4.371
 2335SOL    HW1 7904   6.593   1.180   4.271
 2335SOL    HW2 7905   6.627   1.263   4.408
 2336SOL     OW 7906   3.763   1.865   4.544
 2336SOL    HW1 7907   3.756   1.850   4.445
 2336SOL    HW2 7908   3.698   1.937   4.572
 2337SOL     OW 7909   4.275   0.516   1.618
 2337SOL    HW1 7910   4.246   0.573   1.695
 2337SOL    HW2 7911   4.277   0.571   1.535
 2338SOL     OW 7912   0.628   3.041   5.028
 2338SOL    HW1 7913   0.676   3.118   5.071
 2338SOL    HW2 7914   0.685   3.001   4.956
 2339SOL     OW 7915   3.009   3.406   3.757
 2339SOL    HW1 7916   3.100   3.427   3.794
 2339SOL    HW2 7917   2.950   3.486   3.768
 2340SOL     OW 7918   6.674   4.650   6.783
 2340SOL    HW1 7919   6.638   4.635   6.691
 2340SOL    HW2 7920   6.632   4.732   6.823
 2341SOL     OW 7921   3.430   4.909   2.100
 2341SOL    HW1 7922   3.368   4.984   2.079
 2341SOL    HW2 7923   3.488   4.890   2.021
 2342SOL     OW 7924   0.924   6.498   5.445
 2342SOL    HW1 7925   0.983   6.463   5.519
 2342SOL    HW2 7926   0.829   6.488   5.472
 2343SOL     OW 7927   1.916   5.678   3.096
 2343SOL    HW1 7928   1.869   5.758   3.059
 2343SOL    HW2 7929   2.015   5.692   3.091
 2344SOL     OW 7930   1.489   5.705   0.293
 2344SOL    HW1 7931   1.432   5.624   0.281
 2344SOL    HW2 7932   1.527   5.731   0.204
 2345SOL     OW 7933   3.060   5.382   5.116
 2345SOL    HW1 7934   2.967   5.400   5.084
 2345SOL    HW2 7935   3.056   5.348   5.210
 2346SOL     OW 7936   4.007   3.115   5.367
 2346SOL    HW1 7937   4.032   3.170   5.287
 2346SOL    HW2 7938   3.912   3.133   5.392
 2347SOL     OW 7939   3.334   2.164   1.167
 2347SOL    HW1 7940   3.405   2.140   1.100
 2347SOL    HW2 7941   3.324   2.091   1.234
 2348SOL     OW 7942   2.485   6.736   4.249
 2348SOL    HW1 7943   2.396   6.779   4.262
 2348SOL    HW2 7944   2.538   6.788   4.182
 2349SOL     OW 7945   0.673   4.637   6.039
 2349SOL    HW1 7946   0.654   4.680   5.951
 2349SOL    HW2 7947   0.594   4.646   6.099
 2350SOL     OW 7948   5.787   0.424   6.591
 2350SOL    HW1 7949   5.791   0.329   6.622
 2350SOL    HW2 7950   5.728   0.430   6.511
 2351SOL     OW 7951   2.945   5.128   4.157
 2351SOL    HW1 7952   2.925   5.121   4.060
 2351SOL    HW2 7953   3.013   5.058   4.182
 2352SOL     OW 7954   0.540   4.353   2.609
 2352SOL    HW1 7955   0.585   4.264   2.594
 2352SOL    HW2 7956   0.509   4.389   2.521
 2353SOL     OW 7957   3.351   4.754   5.961
 2353SOL    HW1 7958   3.302   4.744   6.048
 2353SOL    HW2 7959   3.292   4.802   5.896
 2354SOL     OW 7960   3.178   1.469   5.832
 2354SOL    HW1 7961   3.195   1.561   5.868
 2354SOL    HW2 7962   3.232   1.457   5.748
 2355SOL     OW 7963   2.131   5.591   0.044
 2355SOL    HW1 7964   2.089   5.598   0.134
 2355SOL    HW2 7965   2.202   5.661   0.035
 2356SOL     OW 7966   1.480   2.952   6.492
 2356SOL    HW1 7967   1.494   3.047   6.520
 2356SOL    HW2 7968   1.555   2.925   6.431
 2357SOL     OW 7969   4.727   0.104   3.001
 2357SOL    HW1 7970   4.697   0.015   2.967
 2357SOL    HW2 7971   4.655   0.172   2.986
 2358SOL     OW 7972   4.186   4.925   5.089
 2358SOL    HW1 7973   4.130   4.900   5.010
 2358SOL    HW2 7974   4.134   4.908   5.173
 2359SOL     OW 7975   6.371   0.400   5.719
 2359SOL    HW1 7976   6.459   0.357   5.740
 2359SOL    HW2 7977   6.297   0.334   5.733
 2360SOL     OW 7978   5.486   4.358   6.970
 2360SOL    HW1 7979   5.474   4.304   0.031
 2360SOL    HW2 7980   5.558   4.426   6.984
 2361SOL     OW 7981   2.760   1.088   5.136
 2361SOL    HW1 7982   2.827   1.163   5.128
 2361SOL    HW2 7983   2.691   1.097   5.064
 2362SOL     OW 7984   2.492   6.471   4.286
 2362SOL    HW1 7985   2.420   6.451   4.352
 2362SOL    HW2 7986   2.493   6.569   4.266
 2363SOL     OW 7987   4.455   2.641   5.131
 2363SOL    HW1 7988   4.507   2.656   5.047
 2363SOL    HW2 7989   4.434   2.729   5.173
 2364SOL     OW 7990   1.069   2.265   2.931
 2364SOL    HW1 7991   1.141   2.201   2.960
 2364SOL    HW2 7992   0.979   2.223   2.945
 2365SOL     OW 7993   6.214   2.640   6.590
 2365SOL    HW1 7994   6.205   2.728   6.543
 2365SOL    HW2 7995   6.268   2.577   6.534
 2366SOL     OW 7996   2.247   5.242   6.597
 2366SOL    HW1 7997   2.176   5.298   6.555
 2366SOL    HW2 7998   2.206   5.161   6.639
 2367SOL     OW 7999   2.277   4.097   0.575
 2367SOL    HW1 8000   2.221   4.096   0.492
 2367SOL    HW2 8001   2.371   4.073   0.552
 2368SOL     OW 8002   4.331   0.728   3.871
 2368SOL    HW1 8003   4.245   0.686   3.900
 2368SOL    HW2 8004   4.369   0.782   3.947
 2369SOL     OW 8005   1.650   2.004   5.589
 2369SOL    HW1 8006   1.721   1.940   5.557
 2369SOL    HW2 8007   1.651   2.007   5.689
 2370SOL     OW 8008   4.840   3.801   0.383
 2370SOL    HW1 8009   4.747   3.767   0.384
 2370SOL    HW2 8010   4.879   3.791   0.291
 2371SOL     OW 8011   0.267   0.004   2.625
 2371SOL    HW1 8012   0.341   6.967   2.594
 2371SOL    HW2 8013   0.220   6.985   2.703
 2372SOL     OW 8014   0.217   2.845   2.848
 2372SOL    HW1 8015   0.257   2.784   2.780
 2372SOL    HW2 8016   0.240   2.812   2.940
 2373SOL     OW 8017   0.647   1.872   0.088
 2373SOL    HW1 8018   0.564   1.926   0.071
 2373SOL    HW2 8019   0.727   1.924   0.058
 2374SOL     OW 8020   6.030   1.156   3.028
 2374SOL    HW1 8021   5.998   1.145   3.122
 2374SOL    HW2 8022   6.041   1.253   3.008
 2375SOL     OW 8023   2.806   6.701   4.800
 2375SOL    HW1 8024   2.880   6.724   4.737
 2375SOL    HW2 8025   2.744   6.637   4.756
 2376SOL     OW 8026   0.146   2.139   4.590
 2376SOL    HW1 8027   0.242   2.136   4.616
 2376SOL    HW2 8028   0.104   2.222   4.627
 2377SOL     OW 8029   3.282   4.081   3.295
 2377SOL    HW1 8030   3.208   4.065   3.360
 2377SOL    HW2 8031   3.366   4.038   3.328
 2378SOL     OW 8032   5.032   1.450   0.434
 2378SOL    HW1 8033   4.985   1.484   0.515
 2378SOL    HW2 8034   5.059   1.355   0.448
 2379SOL     OW 8035   5.778   1.920   6.899
 2379SOL    HW1 8036   5.803   1.844   6.958
 2379SOL    HW2 8037   5.777   1.890   6.804
 2380SOL     OW 8038   0.551   1.036   0.285
 2380SOL    HW1 8039   0.587   1.115   0.335
 2380SOL    HW2 8040   0.505   1.066   0.202
 2381SOL     OW 8041   2.190   3.904   4.746
 2381SOL    HW1 8042   2.206   3.996   4.779
 2381SOL    HW2 8043   2.124   3.857   4.805
 2382SOL     OW 8044   2.590   4.552   3.554
 2382SOL    HW1 8045   2.682   4.569   3.589
 2382SOL    HW2 8046   2.590   4.563   3.454
 2383SOL     OW 8047   5.219   6.478   1.612
 2383SOL    HW1 8048   5.160   6.548   1.649
 2383SOL    HW2 8049   5.307   6.478   1.661
 2384SOL     OW 8050   5.583   0.379   2.853
 2384SOL    HW1 8051   5.676   0.397   2.883
 2384SOL    HW2 8052   5.521   0.380   2.932
 2385SOL     OW 8053   1.100   6.779   1.234
 2385SOL    HW1 8054   1.087   6.873   1.202
 2385SOL    HW2 8055   1.019   6.750   1.284
 2386SOL     OW 8056   6.190   5.777   4.577
 2386SOL    HW1 8057   6.148   5.851   4.524
 2386SOL    HW2 8058   6.143   5.691   4.559
 2387SOL     OW 8059   0.993   2.099   3.540
 2387SOL    HW1 8060   0.980   2.154   3.458
 2387SOL    HW2 8061   1.083   2.054   3.536
 2388SOL     OW 8062   0.602   2.605   4.550
 2388SOL    HW1 8063   0.652   2.577   4.469
 2388SOL    HW2 8064   0.532   2.537   4.571
 2389SOL     OW 8065   4.866   3.767   2.703
 2389SOL    HW1 8066   4.938   3.699   2.720
 2389SOL    HW2 8067   4.842   3.811   2.789
 2390SOL     OW 8068   3.928   3.882   2.844
 2390SOL    HW1 8069   3.966   3.876   2.936
 2390SOL    HW2 8070   3.970   3.812   2.786
 2391SOL     OW 8071   4.832   4.616   5.841
 2391SOL    HW1 8072   4.878   4.698   5.875
 2391SOL    HW2 8073   4.891   4.571   5.773
 2392SOL     OW 8074   4.141   6.553   4.880
 2392SOL    HW1 8075   4.086   6.474   4.853
 2392SOL    HW2 8076   4.238   6.534   4.863
 2393SOL     OW 8077   5.602   3.725   6.110
 2393SOL    HW1 8078   5.583   3.813   6.154
 2393SOL    HW2 8079   5.555   3.721   6.022
 2394SOL     OW 8080   1.206   3.421   4.332
 2394SOL    HW1 8081   1.231   3.454   4.423
 2394SOL    HW2 8082   1.224   3.322   4.327
 2395SOL     OW 8083   5.549   2.637   6.286
 2395SOL    HW1 8084   5.499   2.651   6.372
 2395SOL    HW2 8085   5.633   2.693   6.287
 2396SOL     OW 8086   3.731   4.684   1.344
 2396SOL    HW1 8087   3.703   4.736   1.263
 2396SOL    HW2 8088   3.771   4.746   1.411
 2397SOL     OW 8089   0.129   4.142   6.509
 2397SOL    HW1 8090   0.198   4.079   6.474
 2397SOL    HW2 8091   0.057   4.090   6.555
 2398SOL     OW 8092   2.705   3.234   6.996
 2398SOL    HW1 8093   2.640   3.183   6.939
 2398SOL    HW2 8094   2.738   3.175   0.046
 2399SOL     OW 8095   4.516   1.717   1.702
 2399SOL    HW1 8096   4.441   1.781   1.723
 2399SOL    HW2 8097   4.549   1.734   1.609
 2400SOL     OW 8098   3.163   4.233   0.268
 2400SOL    HW1 8099   3.085   4.214   0.328
 2400SOL    HW2 8100   3.159   4.328   0.237
 2401SOL     OW 8101   4.083   6.086   6.101
 2401SOL    HW1 8102   4.058   5.991   6.086
 2401SOL    HW2 8103   4.056   6.113   6.194
 2402SOL     OW 8104   6.894   0.635   3.318
 2402SOL    HW1 8105   6.936   0.598   3.400
 2402SOL    HW2 8106   6.818   0.695   3.343
 2403SOL     OW 8107   2.299   2.531   6.932
 2403SOL    HW1 8108   2.367   2.581   6.879
 2403SOL    HW2 8109   2.341   2.494   7.015
 2404SOL     OW 8110   3.583   1.047   0.717
 2404SOL    HW1 8111   3.677   1.041   0.751
 2404SOL    HW2 8112   3.551   1.141   0.724
 2405SOL     OW 8113   3.871   3.299   2.767
 2405SOL    HW1 8114   3.778   3.264   2.771
 2405SOL    HW2 8115   3.887   3.362   2.843
 2406SOL     OW 8116   3.062   6.586   2.512
 2406SOL    HW1 8117   3.029   6.609   2.604
 2406SOL    HW2 8118   3.033   6.493   2.489
 2407SOL     OW 8119   5.560   1.705   1.851
 2407SOL    HW1 8120   5.502   1.786   1.865
 2407SOL    HW2 8121   5.626   1.724   1.779
 2408SOL     OW 8122   3.485   5.222   3.265
 2408SOL    HW1 8123   3.456   5.249   3.356
 2408SOL    HW2 8124   3.490   5.122   3.260
 2409SOL     OW 8125   1.776   4.336   2.091
 2409SOL    HW1 8126   1.698   4.294   2.136
 2409SOL    HW2 8127   1.773   4.435   2.102
 2410SOL     OW 8128   3.958   2.848   6.022
 2410SOL    HW1 8129   3.959   2.940   5.982
 2410SOL    HW2 8130   3.961   2.779   5.949
 2411SOL     OW 8131   3.861   5.433   4.896
 2411SOL    HW1 8132   3.805   5.414   4.976
 2411SOL    HW2 8133   3.901   5.524   4.904
 2412SOL     OW 8134   4.872   5.549   1.128
 2412SOL    HW1 8135   4.862   5.562   1.227
 2412SOL    HW2 8136   4.897   5.636   1.085
 2413SOL     OW 8137   6.352   2.373   0.786
 2413SOL    HW1 8138   6.424   2.321   0.832
 2413SOL    HW2 8139   6.335   2.457   0.836
 2414SOL     OW 8140   5.078   4.280   2.585
 2414SOL    HW1 8141   5.121   4.324   2.506
 2414SOL    HW2 8142   5.085   4.181   2.575
 2415SOL     OW 8143   6.900   0.354   2.349
 2415SOL    HW1 8144   6.900   0.298   2.431
 2415SOL    HW2 8145   6.868   0.299   2.271
 2416SOL     OW 8146   4.222   1.896   5.477
 2416SOL    HW1 8147   4.130   1.929   5.496
 2416SOL    HW2 8148   4.288   1.952   5.527
 2417SOL     OW 8149   3.597   2.938   5.898
 2417SOL    HW1 8150   3.655   2.899   5.827
 2417SOL    HW2 8151   3.635   2.918   5.988
 2418SOL     OW 8152   3.078   3.110   4.178
 2418SOL    HW1 8153   3.035   3.199   4.192
 2418SOL    HW2 8154   3.055   3.049   4.254
 2419SOL     OW 8155   0.328   6.962   4.780
 2419SOL    HW1 8156   0.249   6.957   4.841
 2419SOL    HW2 8157   0.403   7.010   4.826
 2420SOL     OW 8158   2.880   1.209   2.256
 2420SOL    HW1 8159   2.977   1.229   2.270
 2420SOL    HW2 8160   2.829   1.294   2.254
 2421SOL     OW 8161   2.655   2.112   4.862
 2421SOL    HW1 8162   2.577   2.173   4.872
 2421SOL    HW2 8163   2.737   2.158   4.897
 2422SOL     OW 8164   5.837   1.364   0.905
 2422SOL    HW1 8165   5.772   1.347   0.979
 2422SOL    HW2 8166   5.840   1.285   0.844
 2423SOL     OW 8167   1.408   6.451   2.762
 2423SOL    HW1 8168   1.474   6.404   2.705
 2423SOL    HW2 8169   1.319   6.451   2.717
 2424SOL     OW 8170   6.106   6.733   6.093
 2424SOL    HW1 8171   6.047   6.784   6.030
 2424SOL    HW2 8172   6.062   6.728   6.183
 2425SOL     OW 8173   5.513   0.847   3.620
 2425SOL    HW1 8174   5.573   0.834   3.542
 2425SOL    HW2 8175   5.549   0.919   3.679
 2426SOL     OW 8176   0.757   6.218   5.182
 2426SOL    HW1 8177   0.822   6.167   5.126
 2426SOL    HW2 8178   0.704   6.154   5.238
 2427SOL     OW 8179   5.641   6.238   5.689
 2427SOL    HW1 8180   5.551   6.255   5.650
 2427SOL    HW2 8181   5.702   6.314   5.668
 2428SOL     OW 8182   6.142   0.192   2.501
 2428SOL    HW1 8183   6.102   0.184   2.409
 2428SOL    HW2 8184   6.196   0.277   2.506
 2429SOL     OW 8185   5.462   5.312   3.389
 2429SOL    HW1 8186   5.450   5.406   3.420
 2429SOL    HW2 8187   5.473   5.251   3.468
 2430SOL     OW 8188   5.951   1.733   1.208
 2430SOL    HW1 8189   5.935   1.689   1.119
 2430SOL    HW2 8190   5.993   1.666   1.270
 2431SOL     OW 8191   4.425   0.867   2.495
 2431SOL    HW1 8192   4.400   0.927   2.419
 2431SOL    HW2 8193   4.402   0.773   2.472
 2432SOL     OW 8194   3.316   6.498   2.600
 2432SOL    HW1 8195   3.336   6.411   2.643
 2432SOL    HW2 8196   3.217   6.510   2.592
 2433SOL     OW 8197   3.488   0.906   1.356
 2433SOL    HW1 8198   3.520   0.836   1.419
 2433SOL    HW2 8199   3.435   0.975   1.406
 2434SOL     OW 8200   3.877   1.209   5.633
 2434SOL    HW1 8201   3.942   1.167   5.696
 2434SOL    HW2 8202   3.925   1.267   5.568
 2435SOL     OW 8203   4.810   4.184   6.918
 2435SOL    HW1 8204   4.877   4.165   6.847
 2435SOL    HW2 8205   4.856   4.220   6.999
 2436SOL     OW 8206   1.426   5.267   0.910
 2436SOL    HW1 8207   1.420   5.338   0.840
 2436SOL    HW2 8208   1.381   5.299   0.994
 2437SOL     OW 8209   5.127   6.563   6.513
 2437SOL    HW1 8210   5.036   6.523   6.513
 2437SOL    HW2 8211   5.187   6.509   6.453
 2438SOL     OW 8212   3.261   0.804   6.629
 2438SOL    HW1 8213   3.315   0.755   6.699
 2438SOL    HW2 8214   3.186   0.853   6.673
 2439SOL     OW 8215   1.633   4.253   6.711
 2439SOL    HW1 8216   1.729   4.226   6.708
 2439SOL    HW2 8217   1.575   4.172   6.717
 2440SOL     OW 8218   4.798   6.183   5.379
 2440SOL    HW1 8219   4.746   6.221   5.456
 2440SOL    HW2 8220   4.896   6.199   5.394
 2441SOL     OW 8221   0.547   1.311   0.700
 2441SOL    HW1 8222   0.563   1.295   0.798
 2441SOL    HW2 8223   0.454   1.284   0.676
 2442SOL     OW 8224   0.858   3.573   6.147
 2442SOL    HW1 8225   0.903   3.519   6.076
 2442SOL    HW2 8226   0.791   3.634   6.105
 2443SOL     OW 8227   4.152   5.276   6.076
 2443SOL    HW1 8228   4.085   5.346   6.053
 2443SOL    HW2 8229   4.238   5.320   6.103
 2444SOL     OW 8230   3.072   4.099   6.243
 2444SOL    HW1 8231   3.073   4.006   6.206
 2444SOL    HW2 8232   3.013   4.156   6.186
 2445SOL     OW 8233   6.983   1.387   1.228
 2445SOL    HW1 8234   6.896   1.339   1.242
 2445SOL    HW2 8235   7.014   1.424   1.315
 2446SOL     OW 8236   6.413   4.592   3.972
 2446SOL    HW1 8237   6.492   4.628   4.020
 2446SOL    HW2 8238   6.359   4.535   4.034
 2447SOL     OW 8239   2.202   2.565   0.822
 2447SOL    HW1 8240   2.124   2.503   0.825
 2447SOL    HW2 8241   2.199   2.620   0.739
 2448SOL     OW 8242   0.370   0.843   4.662
 2448SOL    HW1 8243   0.271   0.858   4.660
 2448SOL    HW2 8244   0.408   0.879   4.747
 2449SOL     OW 8245   6.929   4.766   0.482
 2449SOL    HW1 8246   6.880   4.682   0.504
 2449SOL    HW2 8247   7.013   4.743   0.433
 2450SOL     OW 8248   2.542   4.613   3.301
 2450SOL    HW1 8249   2.514   4.561   3.221
 2450SOL    HW2 8250   2.533   4.711   3.283
 2451SOL     OW 8251   1.262   1.501   3.888
 2451SOL    HW1 8252   1.246   1.599   3.899
 2451SOL    HW2 8253   1.322   1.485   3.809
 2452SOL     OW 8254   1.716   3.988   2.827
 2452SOL    HW1 8255   1.633   4.007   2.775
 2452SOL    HW2 8256   1.768   3.915   2.781
 2453SOL     OW 8257   6.313   4.770   1.309
 2453SOL    HW1 8258   6.308   4.868   1.329
 2453SOL    HW2 8259   6.224   4.738   1.277
 2454SOL     OW 8260   3.191   0.776   1.494
 2454SOL    HW1 8261   3.139   0.838   1.553
 2454SOL    HW2 8262   3.238   0.708   1.551
 2455SOL     OW 8263   5.238   6.215   0.408
 2455SOL    HW1 8264   5.182   6.298   0.410
 2455SOL    HW2 8265   5.276   6.199   0.499
 2456SOL     OW 8266   5.294   6.055   1.578
 2456SOL    HW1 8267   5.253   6.146   1.575
 2456SOL    HW2 8268   5.315   6.031   1.673
 2457SOL     OW 8269   5.738   6.470   0.547
 2457SOL    HW1 8270   5.653   6.488   0.597
 2457SOL    HW2 8271   5.757   6.372   0.547
 2458SOL     OW 8272   2.318   6.052   3.314
 2458SOL    HW1 8273   2.346   6.138   3.357
 2458SOL    HW2 8274   2.333   6.058   3.215
 2459SOL     OW 8275   2.152   6.879   0.614
 2459SOL    HW1 8276   2.214   6.957   0.611
 2459SOL    HW2 8277   2.135   6.853   0.709
 2460SOL     OW 8278   2.188   0.909   1.318
 2460SOL    HW1 8279   2.195   0.845   1.242
 2460SOL    HW2 8280   2.260   0.888   1.385
 2461SOL     OW 8281   6.204   0.797   2.271
 2461SOL    HW1 8282   6.178   0.890   2.300
 2461SOL    HW2 8283   6.147   0.730   2.319
 2462SOL     OW 8284   2.689   5.565   0.176
 2462SOL    HW1 8285   2.655   5.659   0.178
 2462SOL    HW2 8286   2.635   5.512   0.111
 2463SOL     OW 8287   6.192   2.301   4.159
 2463SOL    HW1 8288   6.190   2.303   4.258
 2463SOL    HW2 8289   6.187   2.395   4.123
 2464SOL     OW 8290   0.995   4.558   0.777
 2464SOL    HW1 8291   1.028   4.538   0.869
 2464SOL    HW2 8292   0.897   4.538   0.771
 2465SOL     OW 8293   0.132   5.881   1.752
 2465SOL    HW1 8294   0.145   5.903   1.655
 2465SOL    HW2 8295   0.036   5.854   1.766
 2466SOL     OW 8296   3.936   1.329   2.435
 2466SOL    HW1 8297   3.873   1.391   2.387
 2466SOL    HW2 8298   3.975   1.264   2.370
 2467SOL     OW 8299   6.225   1.555   6.002
 2467SOL    HW1 8300   6.321   1.584   6.007
 2467SOL    HW2 8301   6.170   1.631   5.968
 2468SOL     OW 8302   7.011   6.171   2.048
 2468SOL    HW1 8303   6.959   6.235   1.991
 2468SOL    HW2 8304   6.982   6.077   2.028
 2469SOL     OW 8305   3.241   4.125   5.839
 2469SOL    HW1 8306   3.165   4.189   5.840
 2469SOL    HW2 8307   3.284   4.125   5.749
 2470SOL     OW 8308   3.038   4.432   5.996
 2470SOL    HW1 8309   2.987   4.354   6.032
 2470SOL    HW2 8310   2.975   4.507   5.977
 2471SOL     OW 8311   0.891   6.706   1.364
 2471SOL    HW1 8312   0.858   6.800   1.369
 2471SOL    HW2 8313   0.910   6.672   1.457
 2472SOL     OW 8314   5.903   1.516   4.779
 2472SOL    HW1 8315   5.823   1.570   4.802
 2472SOL    HW2 8316   5.875   1.422   4.758
 2473SOL     OW 8317   1.421   4.954   4.719
 2473SOL    HW1 8318   1.420   5.011   4.801
 2473SOL    HW2 8319   1.425   4.858   4.745
 2474SOL     OW 8320   6.745   4.786   6.257
 2474SOL    HW1 8321   6.801   4.769   6.176
 2474SOL    HW2 8322   6.777   4.870   6.303
 2475SOL     OW 8323   4.174   2.172   0.711
 2475SOL    HW1 8324   4.219   2.106   0.651
 2475SOL    HW2 8325   4.242   2.214   0.771
 2476SOL     OW 8326   1.176   2.193   4.050
 2476SOL    HW1 8327   1.262   2.192   4.100
 2476SOL    HW2 8328   1.162   2.282   4.007
 2477SOL     OW 8329   6.231   6.288   1.737
 2477SOL    HW1 8330   6.230   6.371   1.681
 2477SOL    HW2 8331   6.282   6.217   1.690
 2478SOL     OW 8332   6.013   6.052   2.678
 2478SOL    HW1 8333   6.075   6.090   2.609
 2478SOL    HW2 8334   5.983   6.126   2.739
 2479SOL     OW 8335   0.072   3.033   1.684
 2479SOL    HW1 8336   0.052   3.125   1.719
 2479SOL    HW2 8337   0.145   3.038   1.616
 2480SOL     OW 8338   7.003   2.703   0.833
 2480SOL    HW1 8339   0.062   2.758   0.821
 2480SOL    HW2 8340   6.957   2.728   0.918
 2481SOL     OW 8341   3.604   5.786   0.960
 2481SOL    HW1 8342   3.651   5.838   1.032
 2481SOL    HW2 8343   3.621   5.829   0.872
 2482SOL     OW 8344   4.640   3.365   5.662
 2482SOL    HW1 8345   4.598   3.424   5.730
 2482SOL    HW2 8346   4.598   3.274   5.666
 2483SOL     OW 8347   1.805   0.764   0.438
 2483SOL    HW1 8348   1.761   0.751   0.527
 2483SOL    HW2 8349   1.893   0.809   0.451
 2484SOL     OW 8350   1.873   0.517   0.710
 2484SOL    HW1 8351   1.881   0.589   0.779
 2484SOL    HW2 8352   1.914   0.548   0.624
 2485SOL     OW 8353   6.296   5.008   2.038
 2485SOL    HW1 8354   6.367   5.077   2.023
 2485SOL    HW2 8355   6.273   4.965   1.951
 2486SOL     OW 8356   1.888   5.973   3.925
 2486SOL    HW1 8357   1.820   5.952   3.854
 2486SOL    HW2 8358   1.971   5.921   3.907
 2487SOL     OW 8359   4.414   6.311   0.195
 2487SOL    HW1 8360   4.373   6.375   0.260
 2487SOL    HW2 8361   4.386   6.218   0.218
 2488SOL     OW 8362   2.906   3.971   1.184
 2488SOL    HW1 8363   2.939   3.878   1.194
 2488SOL    HW2 8364   2.815   3.979   1.225
 2489SOL     OW 8365   2.278   5.896   5.337
 2489SOL    HW1 8366   2.279   5.995   5.318
 2489SOL    HW2 8367   2.201   5.875   5.397
 2490SOL     OW 8368   0.196   5.127   0.604
 2490SOL    HW1 8369   0.113   5.142   0.550
 2490SOL    HW2 8370   0.259   5.203   0.589
 2491SOL     OW 8371   2.454   5.782   2.588
 2491SOL    HW1 8372   2.515   5.706   2.567
 2491SOL    HW2 8373   2.509   5.865   2.605
 2492SOL     OW 8374   4.514   3.565   6.146
 2492SOL    HW1 8375   4.420   3.581   6.178
 2492SOL    HW2 8376   4.552   3.486   6.193
 2493SOL     OW 8377   5.571   0.855   2.665
 2493SOL    HW1 8378   5.526   0.854   2.576
 2493SOL    HW2 8379   5.669   0.838   2.653
 2494SOL     OW 8380   4.499   2.526   2.790
 2494SOL    HW1 8381   4.437   2.604   2.780
 2494SOL    HW2 8382   4.586   2.557   2.828
 2495SOL     OW 8383   5.148   1.303   5.598
 2495SOL    HW1 8384   5.240   1.298   5.559
 2495SOL    HW2 8385   5.098   1.378   5.556
 2496SOL     OW 8386   1.092   5.344   0.656
 2496SOL    HW1 8387   1.009   5.351   0.711
 2496SOL    HW2 8388   1.128   5.251   0.661
 2497SOL     OW 8389   6.831   1.466   0.726
 2497SOL    HW1 8390   6.781   1.464   0.639
 2497SOL    HW2 8391   6.895   1.544   0.725
 2498SOL     OW 8392   2.047   3.333   3.250
 2498SOL    HW1 8393   2.082   3.360   3.161
 2498SOL    HW2 8394   2.091   3.248   3.279
 2499SOL     OW 8395   5.720   0.778   4.661
 2499SOL    HW1 8396   5.662   0.835   4.603
 2499SOL    HW2 8397   5.816   0.801   4.648
 2500SOL     OW 8398   4.873   3.366   6.439
 2500SOL    HW1 8399   4.966   3.391   6.465
 2500SOL    HW2 8400   4.821   3.450   6.418
 2501SOL     OW 8401   5.861   4.440   6.894
 2501SOL    HW1 8402   5.825   4.350   6.914
 2501SOL    HW2 8403   5.787   4.507   6.894
 2502SOL     OW 8404   2.223   6.584   3.324
 2502SOL    HW1 8405   2.167   6.636   3.259
 2502SOL    HW2 8406   2.165   6.547   3.396
 2503SOL     OW 8407   3.665   5.703   5.709
 2503SOL    HW1 8408   3.717   5.737   5.631
 2503SOL    HW2 8409   3.669   5.603   5.712
 2504SOL     OW 8410   1.993   4.697   4.833
 2504SOL    HW1 8411   1.896   4.695   4.808
 2504SOL    HW2 8412   2.035   4.610   4.808
 2505SOL     OW 8413   4.053   5.364   4.143
 2505SOL    HW1 8414   4.017   5.284   4.096
 2505SOL    HW2 8415   3.981   5.407   4.197
 2506SOL     OW 8416   6.344   3.543   6.220
 2506SOL    HW1 8417   6.267   3.491   6.256
 2506SOL    HW2 8418   6.353   3.526   6.122
 2507SOL     OW 8419   6.413   5.513   0.253
 2507SOL    HW1 8420   6.424   5.474   0.344
 2507SOL    HW2 8421   6.315   5.521   0.231
 2508SOL     OW 8422   2.885   1.920   2.193
 2508SOL    HW1 8423   2.938   1.960   2.118
 2508SOL    HW2 8424   2.857   1.992   2.256
 2509SOL     OW 8425   5.723   2.865   2.335
 2509SOL    HW1 8426   5.747   2.801   2.409
 2509SOL    HW2 8427   5.694   2.813   2.254
 2510SOL     OW 8428   3.127   4.976   0.547
 2510SOL    HW1 8429   3.119   4.879   0.569
 2510SOL    HW2 8430   3.061   5.028   0.602
 2511SOL     OW 8431   1.352   1.062   5.027
 2511SOL    HW1 8432   1.309   1.020   4.947
 2511SOL    HW2 8433   1.447   1.033   5.032
 2512SOL     OW 8434   4.795   4.028   4.923
 2512SOL    HW1 8435   4.886   4.068   4.938
 2512SOL    HW2 8436   4.804   3.944   4.870
 2513SOL     OW 8437   1.439   2.253   6.461
 2513SOL    HW1 8438   1.394   2.200   6.389
 2513SOL    HW2 8439   1.373   2.317   6.500
 2514SOL     OW 8440   0.637   1.440   4.396
 2514SOL    HW1 8441   0.670   1.399   4.481
 2514SOL    HW2 8442   0.537   1.432   4.391
 2515SOL     OW 8443   1.204   6.454   0.155
 2515SOL    HW1 8444   1.104   6.451   0.165
 2515SOL    HW2 8445   1.246   6.447   0.245
 2516SOL     OW 8446   5.974   6.562   3.513
 2516SOL    HW1 8447   5.897   6.586   3.572
 2516SOL    HW2 8448   6.038   6.505   3.565
 2517SOL     OW 8449   2.772   4.207   6.360
 2517SOL    HW1 8450   2.829   4.171   6.286
 2517SOL    HW2 8451   2.811   4.293   6.393
 2518SOL     OW 8452   2.358   2.617   6.452
 2518SOL    HW1 8453   2.456   2.627   6.437
 2518SOL    HW2 8454   2.310   2.694   6.410
 2519SOL     OW 8455   4.945   4.736   4.292
 2519SOL    HW1 8456   4.928   4.833   4.274
 2519SOL    HW2 8457   5.042   4.716   4.278
 2520SOL     OW 8458   2.735   3.193   1.073
 2520SOL    HW1 8459   2.779   3.129   1.009
 2520SOL    HW2 8460   2.747   3.160   1.166
 2521SOL     OW 8461   0.281   0.156   5.438
 2521SOL    HW1 8462   0.186   0.177   5.462
 2521SOL    HW2 8463   0.310   0.075   5.489
 2522SOL     OW 8464   1.278   2.952   4.518
 2522SOL    HW1 8465   1.211   2.878   4.508
 2522SOL    HW2 8466   1.355   2.935   4.456
 2523SOL     OW 8467   6.787   3.423   0.644
 2523SOL    HW1 8468   6.733   3.448   0.564
 2523SOL    HW2 8469   6.882   3.451   0.629
 2524SOL     OW 8470   1.148   6.658   4.165
 2524SOL    HW1 8471   1.067   6.714   4.145
 2524SOL    HW2 8472   1.223   6.685   4.106
 2525SOL     OW 8473   1.005   4.514   4.566
 2525SOL    HW1 8474   1.077   4.544   4.628
 2525SOL    HW2 8475   0.950   4.443   4.611
 2526SOL     OW 8476   0.175   2.180   4.192
 2526SOL    HW1 8477   0.136   2.264   4.229
 2526SOL    HW2 8478   0.114   2.143   4.121
 2527SOL     OW 8479   5.694   6.247   4.842
 2527SOL    HW1 8480   5.711   6.344   4.859
 2527SOL    HW2 8481   5.603   6.222   4.876
 2528SOL     OW 8482   6.384   5.105   0.305
 2528SOL    HW1 8483   6.323   5.026   0.295
 2528SOL    HW2 8484   6.468   5.076   0.352
 2529SOL     OW 8485   4.795   6.079   4.655
 2529SOL    HW1 8486   4.833   6.148   4.593
 2529SOL    HW2 8487   4.710   6.113   4.695
 2530SOL     OW 8488   1.177   6.136   3.478
 2530SOL    HW1 8489   1.261   6.096   3.444
 2530SOL    HW2 8490   1.134   6.191   3.406
 2531SOL     OW 8491   4.940   0.742   5.132
 2531SOL    HW1 8492   4.861   0.733   5.071
 2531SOL    HW2 8493   4.992   0.656   5.132
 2532SOL     OW 8494   1.380   5.384   0.242
 2532SOL    HW1 8495   1.376   5.448   0.165
 2532SOL    HW2 8496   1.457   5.322   0.229
 2533SOL     OW 8497   5.156   7.004   5.105
 2533SOL    HW1 8498   5.114   6.913   5.097
 2533SOL    HW2 8499   5.116   0.041   5.037
 2534SOL     OW 8500   2.100   0.557   3.812
 2534SOL    HW1 8501   2.017   0.508   3.839
 2534SOL    HW2 8502   2.176   0.529   3.871
 2535SOL     OW 8503   1.666   1.577   3.860
 2535SOL    HW1 8504   1.709   1.640   3.796
 2535SOL    HW2 8505   1.598   1.626   3.915
 2536SOL     OW 8506   6.327   1.163   4.422
 2536SOL    HW1 8507   6.270   1.243   4.401
 2536SOL    HW2 8508   6.419   1.178   4.388
 2537SOL     OW 8509   4.578   6.151   1.065
 2537SOL    HW1 8510   4.529   6.068   1.037
 2537SOL    HW2 8511   4.675   6.131   1.074
 2538SOL     OW 8512   1.728   4.670   4.820
 2538SOL    HW1 8513   1.715   4.578   4.784
 2538SOL    HW2 8514   1.640   4.706   4.852
 2539SOL     OW 8515   4.075   0.076   5.339
 2539SOL    HW1 8516   4.110   0.169   5.335
 2539SOL    HW2 8517   4.021   0.057   5.256
 2540SOL     OW 8518   5.645   1.219   2.580
 2540SOL    HW1 8519   5.634   1.224   2.481
 2540SOL    HW2 8520   5.737   1.186   2.601
 2541SOL     OW 8521   1.267   6.975   5.188
 2541SOL    HW1 8522   1.266   0.027   5.122
 2541SOL    HW2 8523   1.193   6.988   5.254
 2542SOL     OW 8524   3.969   1.809   4.150
 2542SOL    HW1 8525   3.968   1.760   4.063
 2542SOL    HW2 8526   3.972   1.908   4.132
 2543SOL     OW 8527   1.126   0.752   2.583
 2543SOL    HW1 8528   1.030   0.743   2.557
 2543SOL    HW2 8529   1.151   0.849   2.584
 2544SOL     OW 8530   0.327   5.517   1.396
 2544SOL    HW1 8531   0.280   5.506   1.483
 2544SOL    HW2 8532   0.384   5.436   1.379
 2545SOL     OW 8533   1.682   1.829   1.599
 2545SOL    HW1 8534   1.654   1.921   1.569
 2545SOL    HW2 8535   1.733   1.836   1.685
 2546SOL     OW 8536   6.177   3.802   1.812
 2546SOL    HW1 8537   6.151   3.873   1.878
 2546SOL    HW2 8538   6.265   3.763   1.839
 2547SOL     OW 8539   5.801   4.473   0.428
 2547SOL    HW1 8540   5.863   4.550   0.415
 2547SOL    HW2 8541   5.747   4.460   0.345
 2548SOL     OW 8542   0.552   0.333   4.999
 2548SOL    HW1 8543   0.651   0.333   4.986
 2548SOL    HW2 8544   0.531   0.353   5.094
 2549SOL     OW 8545   1.924   2.557   2.351
 2549SOL    HW1 8546   1.899   2.533   2.446
 2549SOL    HW2 8547   1.909   2.654   2.337
 2550SOL     OW 8548   5.321   6.988   6.895
 2550SOL    HW1 8549   5.397   7.010   6.835
 2550SOL    HW2 8550   5.237   0.007   6.861
 2551SOL     OW 8551   3.518   5.278   0.090
 2551SOL    HW1 8552   3.551   5.277   0.184
 2551SOL    HW2 8553   3.595   5.282   0.027
 2552SOL     OW 8554   1.804   4.961   6.833
 2552SOL    HW1 8555   1.825   4.951   6.735
 2552SOL    HW2 8556   1.872   5.022   6.875
 2553SOL     OW 8557   3.747   2.061   6.127
 2553SOL    HW1 8558   3.739   1.987   6.060
 2553SOL    HW2 8559   3.722   2.148   6.085
 2554SOL     OW 8560   1.837   5.449   0.487
 2554SOL    HW1 8561   1.851   5.470   0.583
 2554SOL    HW2 8562   1.845   5.350   0.473
 2555SOL     OW 8563   6.079   6.221   6.126
 2555SOL    HW1 8564   6.074   6.297   6.062
 2555SOL    HW2 8565   6.100   6.256   6.217
 2556SOL     OW 8566   3.263   6.615   1.338
 2556SOL    HW1 8567   3.264   6.678   1.260
 2556SOL    HW2 8568   3.173   6.574   1.346
 2557SOL     OW 8569   3.516   0.587   0.061
 2557SOL    HW1 8570   3.564   0.569   0.147
 2557SOL    HW2 8571   3.562   0.539   7.010
 2558SOL     OW 8572   5.403   4.410   6.107
 2558SOL    HW1 8573   5.303   4.413   6.118
 2558SOL    HW2 8574   5.441   4.342   6.168
 2559SOL     OW 8575   0.036   3.450   3.439
 2559SOL    HW1 8576   0.108   3.496   3.491
 2559SOL    HW2 8577   0.035   3.485   3.346
 2560SOL     OW 8578   5.163   3.669   3.568
 2560SOL    HW1 8579   5.244   3.613   3.583
 2560SOL    HW2 8580   5.081   3.613   3.575
 2561SOL     OW 8581   3.248   1.144   4.484
 2561SOL    HW1 8582   3.280   1.095   4.403
 2561SOL    HW2 8583   3.318   1.208   4.514
 2562SOL     OW 8584   3.411   6.159   3.135
 2562SOL    HW1 8585   3.447   6.216   3.210
 2562SOL    HW2 8586   3.312   6.169   3.130
 2563SOL     OW 8587   2.558   1.501   6.845
 2563SOL    HW1 8588   2.526   1.511   6.939
 2563SOL    HW2 8589   2.621   1.575   6.823
 2564SOL     OW 8590   2.247   0.707   6.894
 2564SOL    HW1 8591   2.327   0.651   6.915
 2564SOL    HW2 8592   2.276   0.791   6.848
 2565SOL     OW 8593   0.552   1.419   6.718
 2565SOL    HW1 8594   0.619   1.351   6.747
 2565SOL    HW2 8595   0.460   1.380   6.724
 2566SOL     OW 8596   3.095   0.363   1.753
 2566SOL    HW1 8597   3.169   0.299   1.732
 2566SOL    HW2 8598   3.035   0.322   1.822
 2567SOL     OW 8599   1.430   0.546   0.320
 2567SOL    HW1 8600   1.497   0.617   0.343
 2567SOL    HW2 8601   1.340   0.574   0.353
 2568SOL     OW 8602   2.886   6.359   1.012
 2568SOL    HW1 8603   2.833   6.314   1.084
 2568SOL    HW2 8604   2.983   6.338   1.025
 2569SOL     OW 8605   2.178   1.220   1.002
 2569SOL    HW1 8606   2.109   1.185   0.939
 2569SOL    HW2 8607   2.147   1.306   1.042
 2570SOL     OW 8608   4.769   5.818   6.712
 2570SOL    HW1 8609   4.853   5.778   6.676
 2570SOL    HW2 8610   4.758   5.793   6.808
 2571SOL     OW 8611   3.830   2.963   4.038
 2571SOL    HW1 8612   3.776   2.996   3.960
 2571SOL    HW2 8613   3.845   3.037   4.102
 2572SOL     OW 8614   2.710   5.456   1.579
 2572SOL    HW1 8615   2.658   5.386   1.627
 2572SOL    HW2 8616   2.701   5.544   1.626
 2573SOL     OW 8617   6.721   2.214   4.347
 2573SOL    HW1 8618   6.794   2.146   4.335
 2573SOL    HW2 8619   6.745   2.275   4.422
 2574SOL     OW 8620   6.633   3.178   1.271
 2574SOL    HW1 8621   6.604   3.274   1.264
 2574SOL    HW2 8622   6.552   3.121   1.286
 2575SOL     OW 8623   5.044   3.956   0.658
 2575SOL    HW1 8624   5.081   3.898   0.585
 2575SOL    HW2 8625   5.120   3.997   0.709
 2576SOL     OW 8626   2.524   6.829   3.945
 2576SOL    HW1 8627   2.548   6.922   3.971
 2576SOL    HW2 8628   2.603   6.769   3.959
 2577SOL     OW 8629   3.821   0.523   3.419
 2577SOL    HW1 8630   3.748   0.485   3.363
 2577SOL    HW2 8631   3.837   0.619   3.393
 2578SOL     OW 8632   4.716   2.372   4.589
 2578SOL    HW1 8633   4.794   2.310   4.577
 2578SOL    HW2 8634   4.646   2.327   4.644
 2579SOL     OW 8635   0.592   1.768   5.935
 2579SOL    HW1 8636   0.525   1.839   5.962
 2579SOL    HW2 8637   0.543   1.689   5.900
 2580SOL     OW 8638   1.332   2.472   6.044
 2580SOL    HW1 8639   1.308   2.531   5.967
 2580SOL    HW2 8640   1.397   2.402   6.014
 2581SOL     OW 8641   5.548   5.650   1.760
 2581SOL    HW1 8642   5.510   5.577   1.817
 2581SOL    HW2 8643   5.528   5.632   1.664
 2582SOL     OW 8644   1.369   5.453   2.655
 2582SOL    HW1 8645   1.355   5.511   2.576
 2582SOL    HW2 8646   1.316   5.369   2.645
 2583SOL     OW 8647   0.818   0.470   1.240
 2583SOL    HW1 8648   0.744   0.410   1.271
 2583SOL    HW2 8649   0.810   0.486   1.142
 2584SOL     OW 8650   3.191   6.391   0.824
 2584SOL    HW1 8651   3.132   6.469   0.843
 2584SOL    HW2 8652   3.160   6.313   0.879
 2585SOL     OW 8653   2.848   6.942   0.962
 2585SOL    HW1 8654   2.784   6.885   0.911
 2585SOL    HW2 8655   2.916   6.885   1.008
 2586SOL     OW 8656   5.934   0.936   4.614
 2586SOL    HW1 8657   5.945   0.978   4.704
 2586SOL    HW2 8658   5.893   1.001   4.551
 2587SOL     OW 8659   6.394   0.311   4.844
 2587SOL    HW1 8660   6.463   0.251   4.884
 2587SOL    HW2 8661   6.394   0.399   4.892
 2588SOL     OW 8662   5.448   0.691   1.304
 2588SOL    HW1 8663   5.396   0.611   1.333
 2588SOL    HW2 8664   5.493   0.673   1.216
 2589SOL     OW 8665   6.595   0.232   5.688
 2589SOL    HW1 8666   6.600   0.289   5.606
 2589SOL    HW2 8667   6.560   0.142   5.664
 2590SOL     OW 8668   3.796   0.043   2.695
 2590SOL    HW1 8669   3.749   0.100   2.762
 2590SOL    HW2 8670   3.767   6.971   2.707
 2591SOL     OW 8671   4.885   6.401   1.251
 2591SOL    HW1 8672   4.893   6.461   1.171
 2591SOL    HW2 8673   4.967   6.410   1.308
 2592SOL     OW 8674   3.211   5.364   1.468
 2592SOL    HW1 8675   3.249   5.455   1.455
 2592SOL    HW2 8676   3.113   5.370   1.484
 2593SOL     OW 8677   3.460   6.702   2.740
 2593SOL    HW1 8678   3.396   6.765   2.696
 2593SOL    HW2 8679   3.434   6.608   2.720
 2594SOL     OW 8680   0.297   0.461   6.503
 2594SOL    HW1 8681   0.239   0.389   6.465
 2594SOL    HW2 8682   0.344   0.426   6.584
 2595SOL     OW 8683   6.835   3.201   5.206
 2595SOL    HW1 8684   6.896   3.142   5.152
 2595SOL    HW2 8685   6.762   3.236   5.148
 2596SOL     OW 8686   3.881   2.142   1.815
 2596SOL    HW1 8687   3.868   2.137   1.716
 2596SOL    HW2 8688   3.798   2.175   1.858
 2597SOL     OW 8689   2.726   2.862   0.679
 2597SOL    HW1 8690   2.804   2.843   0.619
 2597SOL    HW2 8691   2.669   2.780   0.687
 2598SOL     OW 8692   6.507   2.799   4.516
 2598SOL    HW1 8693   6.506   2.709   4.558
 2598SOL    HW2 8694   6.509   2.869   4.588
 2599SOL     OW 8695   3.508   5.994   5.615
 2599SOL    HW1 8696   3.506   5.904   5.573
 2599SOL    HW2 8697   3.429   6.048   5.583
 2600SOL     OW 8698   4.933   4.019   3.434
 2600SOL    HW1 8699   4.971   3.970   3.513
 2600SOL    HW2 8700   4.894   3.953   3.370
 2601SOL     OW 8701   3.072   2.334   6.087
 2601SOL    HW1 8702   3.165   2.312   6.119
 2601SOL    HW2 8703   3.071   2.427   6.051
 2602SOL     OW 8704   6.498   4.707   4.732
 2602SOL    HW1 8705   6.563   4.706   4.656
 2602SOL    HW2 8706   6.465   4.800   4.747
 2603SOL     OW 8707   2.426   2.684   1.947
 2603SOL    HW1 8708   2.471   2.596   1.963
 2603SOL    HW2 8709   2.468   2.729   1.868
 2604SOL     OW 8710   5.406   0.185   0.814
 2604SOL    HW1 8711   5.401   0.231   0.903
 2604SOL    HW2 8712   5.356   0.099   0.818
 2605SOL     OW 8713   4.348   4.716   3.566
 2605SOL    HW1 8714   4.397   4.640   3.523
 2605SOL    HW2 8715   4.319   4.689   3.658
 2606SOL     OW 8716   6.857   3.948   0.857
 2606SOL    HW1 8717   6.947   3.957   0.901
 2606SOL    HW2 8718   6.855   3.863   0.803
 2607SOL     OW 8719   1.663   1.628   4.551
 2607SOL    HW1 8720   1.757   1.596   4.544
 2607SOL    HW2 8721   1.661   1.728   4.557
 2608SOL     OW 8722   5.057   0.300   1.971
 2608SOL    HW1 8723   5.089   0.289   2.065
 2608SOL    HW2 8724   4.957   0.295   1.969
 2609SOL     OW 8725   0.762   2.691   2.209
 2609SOL    HW1 8726   0.791   2.755   2.138
 2609SOL    HW2 8727   0.680   2.726   2.255
 2610SOL     OW 8728   7.016   5.684   4.570
 2610SOL    HW1 8729   0.045   5.694   4.655
 2610SOL    HW2 8730   6.995   5.775   4.533
 2611SOL     OW 8731   5.806   6.323   0.853
 2611SOL    HW1 8732   5.794   6.324   0.754
 2611SOL    HW2 8733   5.757   6.401   0.893
 2612SOL     OW 8734   6.186   6.338   4.608
 2612SOL    HW1 8735   6.147   6.260   4.656
 2612SOL    HW2 8736   6.227   6.401   4.674
 2613SOL     OW 8737   3.580   6.544   2.240
 2613SOL    HW1 8738   3.556   6.503   2.328
 2613SOL    HW2 8739   3.551   6.484   2.166
 2614SOL     OW 8740   6.431   0.029   5.604
 2614SOL    HW1 8741   6.422   7.009   5.514
 2614SOL    HW2 8742   6.349   0.008   5.659
 2615SOL     OW 8743   5.464   5.607   4.120
 2615SOL    HW1 8744   5.557   5.642   4.129
 2615SOL    HW2 8745   5.467   5.516   4.079
 2616SOL     OW 8746   3.920   3.570   3.849
 2616SOL    HW1 8747   3.907   3.651   3.907
 2616SOL    HW2 8748   4.002   3.582   3.793
 2617SOL     OW 8749   3.337   4.952   1.189
 2617SOL    HW1 8750   3.378   5.022   1.130
 2617SOL    HW2 8751   3.332   4.986   1.283
 2618SOL     OW 8752   6.988   6.588   2.793
 2618SOL    HW1 8753   6.980   6.647   2.712
 2618SOL    HW2 8754   0.050   6.608   2.841
 2619SOL     OW 8755   4.471   1.656   2.179
 2619SOL    HW1 8756   4.454   1.700   2.268
 2619SOL    HW2 8757   4.389   1.606   2.151
 2620SOL     OW 8758   1.812   5.340   3.494
 2620SOL    HW1 8759   1.821   5.429   3.450
 2620SOL    HW2 8760   1.817   5.268   3.425
 2621SOL     OW 8761   0.721   5.598   3.279
 2621SOL    HW1 8762   0.750   5.681   3.230
 2621SOL    HW2 8763   0.666   5.625   3.358
 2622SOL     OW 8764   1.804   2.889   6.096
 2622SOL    HW1 8765   1.705   2.880   6.094
 2622SOL    HW2 8766   1.836   2.929   6.010
 2623SOL     OW 8767   3.967   1.217   4.207
 2623SOL    HW1 8768   3.996   1.149   4.140
 2623SOL    HW2 8769   4.023   1.299   4.198
 2624SOL     OW 8770   6.299   3.075   2.909
 2624SOL    HW1 8771   6.314   3.152   2.972
 2624SOL    HW2 8772   6.242   3.105   2.833
 2625SOL     OW 8773   1.595   3.015   5.736
 2625SOL    HW1 8774   1.500   3.003   5.765
 2625SOL    HW2 8775   1.609   2.965   5.650
 2626SOL     OW 8776   0.897   6.422   3.993
 2626SOL    HW1 8777   0.816   6.378   3.954
 2626SOL    HW2 8778   0.889   6.425   4.092
 2627SOL     OW 8779   0.178   1.110   4.978
 2627SOL    HW1 8780   0.142   1.158   4.899
 2627SOL    HW2 8781   0.163   1.012   4.968
 2628SOL     OW 8782   3.721   6.236   6.543
 2628SOL    HW1 8783   3.779   6.306   6.501
 2628SOL    HW2 8784   3.721   6.155   6.485
 2629SOL     OW 8785   3.704   3.753   1.827
 2629SOL    HW1 8786   3.774   3.682   1.829
 2629SOL    HW2 8787   3.738   3.835   1.872
 2630SOL     OW 8788   3.690   2.101   2.303
 2630SOL    HW1 8789   3.769   2.161   2.315
 2630SOL    HW2 8790   3.652   2.114   2.211
 2631SOL     OW 8791   4.802   6.615   4.092
 2631SOL    HW1 8792   4.878   6.583   4.035
 2631SOL    HW2 8793   4.723   6.554   4.079
 2632SOL     OW 8794   3.311   2.496   0.109
 2632SOL    HW1 8795   3.368   2.415   0.095
 2632SOL    HW2 8796   3.359   2.577   0.076
 2633SOL     OW 8797   5.656   2.331   6.497
 2633SOL    HW1 8798   5.641   2.428   6.517
 2633SOL    HW2 8799   5.598   2.275   6.557
 2634SOL     OW 8800   1.716   4.335   2.520
 2634SOL    HW1 8801   1.730   4.260   2.455
 2634SOL    HW2 8802   1.790   4.335   2.587
 2635SOL     OW 8803   5.628   6.442   4.551
 2635SOL    HW1 8804   5.535   6.480   4.553
 2635SOL    HW2 8805   5.673   6.471   4.467
 2636SOL     OW 8806   6.070   0.488   6.939
 2636SOL    HW1 8807   6.170   0.497   6.944
 2636SOL    HW2 8808   6.045   0.443   6.854
 2637SOL     OW 8809   6.679   0.813   3.347
 2637SOL    HW1 8810   6.641   0.885   3.404
 2637SOL    HW2 8811   6.679   0.842   3.251
 2638SOL     OW 8812   5.834   6.840   1.672
 2638SOL    HW1 8813   5.908   6.775   1.657
 2638SOL    HW2 8814   5.857   6.927   1.629
 2639SOL     OW 8815   5.988   6.947   2.318
 2639SOL    HW1 8816   6.029   6.877   2.259
 2639SOL    HW2 8817   5.901   6.914   2.353
 2640SOL     OW 8818   0.114   6.322   5.212
 2640SOL    HW1 8819   0.120   6.380   5.293
 2640SOL    HW2 8820   0.182   6.352   5.145
 2641SOL     OW 8821   5.833   3.223   0.206
 2641SOL    HW1 8822   5.742   3.249   0.174
 2641SOL    HW2 8823   5.825   3.148   0.272
 2642SOL     OW 8824   5.629   0.996   4.222
 2642SOL    HW1 8825   5.701   1.058   4.191
 2642SOL    HW2 8826   5.655   0.902   4.201
 2643SOL     OW 8827   6.897   5.479   2.995
 2643SOL    HW1 8828   6.990   5.445   2.987
 2643SOL    HW2 8829   6.841   5.442   2.921
 2644SOL     OW 8830   0.840   4.692   5.292
 2644SOL    HW1 8831   0.746   4.681   5.325
 2644SOL    HW2 8832   0.871   4.606   5.252
 2645SOL     OW 8833   4.559   0.202   5.054
 2645SOL    HW1 8834   4.469   0.178   5.019
 2645SOL    HW2 8835   4.550   0.237   5.148
 2646SOL     OW 8836   5.827   0.082   6.361
 2646SOL    HW1 8837   5.850   7.010   6.343
 2646SOL    HW2 8838   5.911   0.134   6.377
 2647SOL     OW 8839   4.823   0.451   0.643
 2647SOL    HW1 8840   4.812   0.353   0.658
 2647SOL    HW2 8841   4.899   0.485   0.699
 2648SOL     OW 8842   6.244   6.930   2.960
 2648SOL    HW1 8843   6.249   7.013   3.015
 2648SOL    HW2 8844   6.213   6.952   2.868
 2649SOL     OW 8845   3.921   1.407   5.878
 2649SOL    HW1 8846   3.992   1.338   5.894
 2649SOL    HW2 8847   3.837   1.362   5.847
 2650SOL     OW 8848   0.485   5.081   3.903
 2650SOL    HW1 8849   0.444   4.991   3.916
 2650SOL    HW2 8850   0.571   5.072   3.852
 2651SOL     OW 8851   1.130   1.501   1.087
 2651SOL    HW1 8852   1.100   1.582   1.038
 2651SOL    HW2 8853   1.187   1.445   1.026
 2652SOL     OW 8854   3.417   2.941   3.493
 2652SOL    HW1 8855   3.512   2.923   3.470
 2652SOL    HW2 8856   3.361   2.940   3.411
 2653SOL     OW 8857   5.302   6.863   5.707
 2653SOL    HW1 8858   5.307   6.815   5.619
 2653SOL    HW2 8859   5.223   6.828   5.759
 2654SOL     OW 8860   5.269   3.155   6.339
 2654SOL    HW1 8861   5.185   3.192   6.301
 2654SOL    HW2 8862   5.258   3.142   6.438
 2655SOL     OW 8863   3.970   5.326   4.665
 2655SOL    HW1 8864   3.946   5.370   4.752
 2655SOL    HW2 8865   3.964   5.227   4.676
 2656SOL     OW 8866   5.319   4.831   4.032
 2656SOL    HW1 8867   5.405   4.880   4.043
 2656SOL    HW2 8868   5.256   4.886   3.976
 2657SOL     OW 8869   2.269   3.946   6.270
 2657SOL    HW1 8870   2.313   4.000   6.198
 2657SOL    HW2 8871   2.170   3.950   6.258
 2658SOL     OW 8872   6.335   4.818   6.578
 2658SOL    HW1 8873   6.283   4.770   6.648
 2658SOL    HW2 8874   6.276   4.885   6.533
 2659SOL     OW 8875   6.750   2.250   4.696
 2659SOL    HW1 8876   6.744   2.321   4.766
 2659SOL    HW2 8877   6.834   2.262   4.643
 2660SOL     OW 8878   0.048   2.297   1.656
 2660SOL    HW1 8879   0.093   2.214   1.687
 2660SOL    HW2 8880   0.110   2.350   1.598
 2661SOL     OW 8881   2.771   6.706   1.283
 2661SOL    HW1 8882   2.715   6.630   1.250
 2661SOL    HW2 8883   2.727   6.792   1.258
 2662SOL     OW 8884   4.106   6.716   4.535
 2662SOL    HW1 8885   4.153   6.737   4.621
 2662SOL    HW2 8886   4.054   6.631   4.545
 2663SOL     OW 8887   2.186   4.363   1.604
 2663SOL    HW1 8888   2.109   4.379   1.542
 2663SOL    HW2 8889   2.177   4.424   1.683
 2664SOL     OW 8890   3.573   3.856   3.719
 2664SOL    HW1 8891   3.528   3.913   3.788
 2664SOL    HW2 8892   3.518   3.774   3.703
 2665SOL     OW 8893   3.617   1.534   4.591
 2665SOL    HW1 8894   3.570   1.585   4.519
 2665SOL    HW2 8895   3.557   1.525   4.670
 2666SOL     OW 8896   4.466   4.452   1.435
 2666SOL    HW1 8897   4.517   4.414   1.513
 2666SOL    HW2 8898   4.392   4.389   1.410
 2667SOL     OW 8899   1.345   6.029   4.809
 2667SOL    HW1 8900   1.399   6.081   4.743
 2667SOL    HW2 8901   1.297   5.955   4.761
 2668SOL     OW 8902   6.166   3.664   4.287
 2668SOL    HW1 8903   6.182   3.592   4.220
 2668SOL    HW2 8904   6.088   3.720   4.258
 2669SOL     OW 8905   3.449   5.081   5.920
 2669SOL    HW1 8906   3.372   5.080   5.984
 2669SOL    HW2 8907   3.510   5.005   5.940
 2670SOL     OW 8908   0.009   1.075   6.679
 2670SOL    HW1 8909   6.948   1.094   6.728
 2670SOL    HW2 8910   0.009   1.126   6.592
 2671SOL     OW 8911   2.568   3.732   0.101
 2671SOL    HW1 8912   2.624   3.649   0.110
 2671SOL    HW2 8913   2.621   3.803   0.054
 2672SOL     OW 8914   1.527   5.824   0.036
 2672SOL    HW1 8915   1.471   5.906   0.020
 2672SOL    HW2 8916   1.623   5.850   0.039
 2673SOL     OW 8917   5.351   2.657   4.074
 2673SOL    HW1 8918   5.344   2.641   3.975
 2673SOL    HW2 8919   5.433   2.612   4.109
 2674SOL     OW 8920   2.007   4.546   4.169
 2674SOL    HW1 8921   2.008   4.637   4.211
 2674SOL    HW2 8922   2.073   4.487   4.216
 2675SOL     OW 8923   1.235   4.495   5.533
 2675SOL    HW1 8924   1.188   4.409   5.511
 2675SOL    HW2 8925   1.334   4.481   5.531
 2676SOL     OW 8926   4.574   1.445   2.611
 2676SOL    HW1 8927   4.614   1.537   2.618
 2676SOL    HW2 8928   4.643   1.377   2.638
 2677SOL     OW 8929   2.791   4.859   1.348
 2677SOL    HW1 8930   2.707   4.822   1.386
 2677SOL    HW2 8931   2.799   4.956   1.373
 2678SOL     OW 8932   1.093   4.754   0.329
 2678SOL    HW1 8933   1.017   4.697   0.363
 2678SOL    HW2 8934   1.087   4.760   0.229
 2679SOL     OW 8935   3.798   5.127   1.004
 2679SOL    HW1 8936   3.765   5.220   1.021
 2679SOL    HW2 8937   3.794   5.075   1.089
 2680SOL     OW 8938   2.034   1.646   0.434
 2680SOL    HW1 8939   1.987   1.694   0.509
 2680SOL    HW2 8940   1.968   1.589   0.386
 2681SOL     OW 8941   1.710   3.738   4.212
 2681SOL    HW1 8942   1.632   3.799   4.199
 2681SOL    HW2 8943   1.776   3.751   4.137
 2682SOL     OW 8944   5.671   3.115   2.052
 2682SOL    HW1 8945   5.622   3.202   2.049
 2682SOL    HW2 8946   5.747   3.121   2.116
 2683SOL     OW 8947   1.173   4.650   1.338
 2683SOL    HW1 8948   1.084   4.673   1.376
 2683SOL    HW2 8949   1.172   4.556   1.304
 2684SOL     OW 8950   3.992   5.664   2.488
 2684SOL    HW1 8951   4.078   5.612   2.486
 2684SOL    HW2 8952   4.012   5.762   2.489
 2685SOL     OW 8953   6.546   6.998   4.562
 2685SOL    HW1 8954   6.530   6.985   4.660
 2685SOL    HW2 8955   6.485   0.046   4.528
 2686SOL     OW 8956   1.440   2.265   4.141
 2686SOL    HW1 8957   1.527   2.269   4.191
 2686SOL    HW2 8958   1.455   2.293   4.046
 2687SOL     OW 8959   4.055   5.052   2.850
 2687SOL    HW1 8960   3.986   5.094   2.792
 2687SOL    HW2 8961   4.138   5.036   2.797
 2688SOL     OW 8962   3.966   5.541   5.597
 2688SOL    HW1 8963   4.064   5.561   5.602
 2688SOL    HW2 8964   3.917   5.619   5.558
 2689SOL     OW 8965   1.537   1.810   3.924
 2689SOL    HW1 8966   1.542   1.835   4.021
 2689SOL    HW2 8967   1.446   1.833   3.889
 2690SOL     OW 8968   4.010   3.382   3.445
 2690SOL    HW1 8969   3.999   3.388   3.544
 2690SOL    HW2 8970   4.014   3.475   3.407
 2691SOL     OW 8971   2.081   5.527   1.819
 2691SOL    HW1 8972   2.120   5.452   1.872
 2691SOL    HW2 8973   1.998   5.560   1.865
 2692SOL     OW 8974   6.307   5.957   4.056
 2692SOL    HW1 8975   6.358   5.871   4.046
 2692SOL    HW2 8976   6.221   5.940   4.105
 2693SOL     OW 8977   2.309   4.750   3.003
 2693SOL    HW1 8978   2.242   4.677   2.990
 2693SOL    HW2 8979   2.341   4.781   2.913
 2694SOL     OW 8980   3.142   0.561   3.216
 2694SOL    HW1 8981   3.159   0.587   3.121
 2694SOL    HW2 8982   3.220   0.588   3.272
 2695SOL     OW 8983   4.673   1.995   2.600
 2695SOL    HW1 8984   4.707   2.049   2.677
 2695SOL    HW2 8985   4.747   1.937   2.565
 2696SOL     OW 8986   3.727   2.566   5.335
 2696SOL    HW1 8987   3.664   2.497   5.371
 2696SOL    HW2 8988   3.676   2.637   5.288
 2697SOL     OW 8989   4.221   2.137   4.011
 2697SOL    HW1 8990   4.288   2.206   3.984
 2697SOL    HW2 8991   4.205   2.075   3.934
 2698SOL     OW 8992   1.396   4.763   0.592
 2698SOL    HW1 8993   1.426   4.830   0.660
 2698SOL    HW2 8994   1.333   4.698   0.634
 2699SOL     OW 8995   3.697   5.482   0.180
 2699SOL    HW1 8996   3.708   5.411   0.249
 2699SOL    HW2 8997   3.684   5.440   0.091
 2700SOL     OW 8998   1.864   3.552   2.610
 2700SOL    HW1 8999   1.941   3.494   2.583
 2700SOL    HW2 9000   1.847   3.540   2.707
 2701SOL     OW 9001   3.945   0.010   6.450
 2701SOL    HW1 9002   3.965   0.096   6.403
 2701SOL    HW2 9003   3.848   7.011   6.441
 2702SOL     OW 9004   6.279   2.190   3.168
 2702SOL    HW1 9005   6.357   2.130   3.186
 2702SOL    HW2 9006   6.271   2.205   3.070
 2703SOL     OW 9007   2.718   0.820   3.146
 2703SOL    HW1 9008   2.790   0.852   3.085
 2703SOL    HW2 9009   2.655   0.895   3.165
 2704SOL     OW 9010   1.881   5.611   1.616
 2704SOL    HW1 9011   1.969   5.581   1.654
 2704SOL    HW2 9012   1.885   5.709   1.596
 2705SOL     OW 9013   0.105   5.176   4.388
 2705SOL    HW1 9014   0.056   5.218   4.464
 2705SOL    HW2 9015   0.105   5.239   4.310
 2706SOL     OW 9016   7.013   0.982   2.103
 2706SOL    HW1 9017   6.936   1.023   2.054
 2706SOL    HW2 9018   6.985   0.959   2.196
 2707SOL     OW 9019   1.966   0.299   6.065
 2707SOL    HW1 9020   1.955   0.348   5.978
 2707SOL    HW2 9021   1.936   0.204   6.054
 2708SOL     OW 9022   2.592   2.389   1.786
 2708SOL    HW1 9023   2.624   2.296   1.768
 2708SOL    HW2 9024   2.581   2.402   1.885
 2709SOL     OW 9025   4.868   6.612   1.048
 2709SOL    HW1 9026   4.861   6.687   0.983
 2709SOL    HW2 9027   4.808   6.537   1.019
 2710SOL     OW 9028   6.897   3.660   2.788
 2710SOL    HW1 9029   6.931   3.742   2.743
 2710SOL    HW2 9030   6.937   3.579   2.745
 2711SOL     OW 9031   1.953   0.426   2.546
 2711SOL    HW1 9032   1.931   0.522   2.565
 2711SOL    HW2 9033   1.886   0.389   2.481
 2712SOL     OW 9034   3.034   4.840   6.808
 2712SOL    HW1 9035   2.951   4.801   6.769
 2712SOL    HW2 9036   3.047   4.805   6.900
 2713SOL     OW 9037   2.029   2.742   4.946
 2713SOL    HW1 9038   2.101   2.727   4.878
 2713SOL    HW2 9039   1.954   2.677   4.930
 2714SOL     OW 9040   5.453   1.796   6.854
 2714SOL    HW1 9041   5.529   1.856   6.881
 2714SOL    HW2 9042   5.367   1.832   6.890
 2715SOL     OW 9043   6.000   0.791   0.388
 2715SOL    HW1 9044   6.023   0.695   0.405
 2715SOL    HW2 9045   6.016   0.845   0.470
 2716SOL     OW 9046   0.034   5.698   1.480
 2716SOL    HW1 9047   0.001   5.720   1.572
 2716SOL    HW2 9048   0.030   5.600   1.465
 2717SOL     OW 9049   0.955   5.751   2.024
 2717SOL    HW1 9050   0.895   5.803   1.964
 2717SOL    HW2 9051   0.951   5.654   2.001
 2718SOL     OW 9052   2.365   4.321   4.101
 2718SOL    HW1 9053   2.299   4.332   4.176
 2718SOL    HW2 9054   2.442   4.383   4.115
 2719SOL     OW 9055   4.353   4.984   2.047
 2719SOL    HW1 9056   4.253   4.994   2.047
 2719SOL    HW2 9057   4.377   4.890   2.069
 2720SOL     OW 9058   1.838   6.011   3.456
 2720SOL    HW1 9059   1.780   6.062   3.393
 2720SOL    HW2 9060   1.834   5.914   3.434
 2721SOL     OW 9061   2.577   0.575   4.949
 2721SOL    HW1 9062   2.607   0.497   4.894
 2721SOL    HW2 9063   2.580   0.551   5.046
 2722SOL     OW 9064   6.562   5.682   3.270
 2722SOL    HW1 9065   6.580   5.694   3.173
 2722SOL    HW2 9066   6.585   5.588   3.296
 2723SOL     OW 9067   2.047   1.027   5.614
 2723SOL    HW1 9068   1.998   0.957   5.665
 2723SOL    HW2 9069   2.052   1.111   5.669
 2724SOL     OW 9070   3.076   5.858   5.513
 2724SOL    HW1 9071   3.074   5.794   5.436
 2724SOL    HW2 9072   3.139   5.823   5.583
 2725SOL     OW 9073   5.718   4.851   3.281
 2725SOL    HW1 9074   5.696   4.755   3.264
 2725SOL    HW2 9075   5.647   4.909   3.241
 2726SOL     OW 9076   4.738   5.113   1.674
 2726SOL    HW1 9077   4.728   5.044   1.746
 2726SOL    HW2 9078   4.671   5.186   1.689
 2727SOL     OW 9079   0.883   4.928   3.083
 2727SOL    HW1 9080   0.938   4.877   3.017
 2727SOL    HW2 9081   0.908   5.025   3.079
 2728SOL     OW 9082   3.064   0.500   4.594
 2728SOL    HW1 9083   3.038   0.466   4.684
 2728SOL    HW2 9084   3.001   0.465   4.525
 2729SOL     OW 9085   7.011   6.132   2.337
 2729SOL    HW1 9086   6.992   6.133   2.239
 2729SOL    HW2 9087   0.062   6.068   2.356
 2730SOL     OW 9088   2.204   7.023   1.038
 2730SOL    HW1 9089   2.178   6.965   1.116
 2730SOL    HW2 9090   2.121   0.030   0.990
 2731SOL     OW 9091   2.801   3.629   1.401
 2731SOL    HW1 9092   2.765   3.637   1.494
 2731SOL    HW2 9093   2.725   3.627   1.337
 2732SOL     OW 9094   5.924   3.429   2.382
 2732SOL    HW1 9095   5.884   3.352   2.431
 2732SOL    HW2 9096   6.023   3.429   2.393
 2733SOL     OW 9097   0.624   6.914   5.482
 2733SOL    HW1 9098   0.601   6.828   5.436
 2733SOL    HW2 9099   0.627   6.988   5.415
 2734SOL     OW 9100   1.529   5.533   3.288
 2734SOL    HW1 9101   1.627   5.521   3.271
 2734SOL    HW2 9102   1.504   5.482   3.371
 2735SOL     OW 9103   0.326   3.680   2.561
 2735SOL    HW1 9104   0.230   3.653   2.552
 2735SOL    HW2 9105   0.337   3.739   2.640
 2736SOL     OW 9106   4.726   0.727   4.958
 2736SOL    HW1 9107   4.704   0.824   4.948
 2736SOL    HW2 9108   4.650   0.680   5.004
 2737SOL     OW 9109   3.293   3.173   6.545
 2737SOL    HW1 9110   3.208   3.130   6.515
 2737SOL    HW2 9111   3.302   3.263   6.502
 2738SOL     OW 9112   5.193   5.565   4.241
 2738SOL    HW1 9113   5.266   5.628   4.215
 2738SOL    HW2 9114   5.184   5.563   4.340
 2739SOL     OW 9115   5.790   4.130   0.707
 2739SOL    HW1 9116   5.707   4.077   0.726
 2739SOL    HW2 9117   5.854   4.118   0.783
 2740SOL     OW 9118   5.862   2.490   2.357
 2740SOL    HW1 9119   5.930   2.488   2.284
 2740SOL    HW2 9120   5.787   2.427   2.335
 2741SOL     OW 9121   0.070   1.821   5.772
 2741SOL    HW1 9122   0.126   1.753   5.725
 2741SOL    HW2 9123   6.997   1.808   5.747
 2742SOL     OW 9124   1.358   5.760   6.167
 2742SOL    HW1 9125   1.429   5.821   6.203
 2742SOL    HW2 9126   1.356   5.767   6.067
 2743SOL     OW 9127   6.062   5.957   1.273
 2743SOL    HW1 9128   6.109   6.012   1.205
 2743SOL    HW2 9129   6.037   6.014   1.351
 2744SOL     OW 9130   4.618   1.760   6.587
 2744SOL    HW1 9131   4.621   1.849   6.631
 2744SOL    HW2 9132   4.523   1.731   6.575
 2745SOL     OW 9133   2.054   6.296   0.354
 2745SOL    HW1 9134   2.015   6.387   0.362
 2745SOL    HW2 9135   2.152   6.304   0.333
 2746SOL     OW 9136   1.815   3.270   4.626
 2746SOL    HW1 9137   1.913   3.277   4.612
 2746SOL    HW2 9138   1.773   3.224   4.547
 2747SOL     OW 9139   5.640   4.764   5.269
 2747SOL    HW1 9140   5.541   4.752   5.278
 2747SOL    HW2 9141   5.680   4.779   5.360
 2748SOL     OW 9142   2.950   1.233   2.956
 2748SOL    HW1 9143   3.027   1.179   2.987
 2748SOL    HW2 9144   2.949   1.321   3.003
 2749SOL     OW 9145   5.514   4.958   4.267
 2749SOL    HW1 9146   5.524   4.973   4.169
 2749SOL    HW2 9147   5.598   4.916   4.303
 2750SOL     OW 9148   0.800   4.993   1.695
 2750SOL    HW1 9149   0.820   5.057   1.769
 2750SOL    HW2 9150   0.719   4.939   1.719
 2751SOL     OW 9151   1.889   7.010   0.647
 2751SOL    HW1 9152   1.807   6.985   0.596
 2751SOL    HW2 9153   1.966   7.019   0.584
 2752SOL     OW 9154   4.705   5.927   5.251
 2752SOL    HW1 9155   4.674   5.941   5.157
 2752SOL    HW2 9156   4.732   6.014   5.291
 2753SOL     OW 9157   3.243   5.839   6.426
 2753SOL    HW1 9158   3.272   5.828   6.331
 2753SOL    HW2 9159   3.188   5.760   6.454
 2754SOL     OW 9160   0.133   0.038   4.154
 2754SOL    HW1 9161   0.208   0.080   4.205
 2754SOL    HW2 9162   0.046   0.056   4.201
 2755SOL     OW 9163   2.745   6.529   3.419
 2755SOL    HW1 9164   2.815   6.592   3.454
 2755SOL    HW2 9165   2.657   6.576   3.415
 2756SOL     OW 9166   6.264   4.429   4.218
 2756SOL    HW1 9167   6.345   4.398   4.267
 2756SOL    HW2 9168   6.197   4.464   4.283
 2757SOL     OW 9169   3.618   1.937   6.371
 2757SOL    HW1 9170   3.659   1.850   6.399
 2757SOL    HW2 9171   3.681   1.985   6.309
 2758SOL     OW 9172   5.103   5.751   3.515
 2758SOL    HW1 9173   5.024   5.807   3.540
 2758SOL    HW2 9174   5.185   5.808   3.516
 2759SOL     OW 9175   3.330   4.490   5.611
 2759SOL    HW1 9176   3.399   4.442   5.665
 2759SOL    HW2 9177   3.332   4.454   5.517
 2760SOL     OW 9178   6.353   5.880   2.308
 2760SOL    HW1 9179   6.297   5.963   2.301
 2760SOL    HW2 9180   6.339   5.838   2.398
 2761SOL     OW 9181   0.966   4.397   3.568
 2761SOL    HW1 9182   0.899   4.326   3.591
 2761SOL    HW2 9183   0.988   4.392   3.470
 2762SOL     OW 9184   1.122   2.147   6.554
 2762SOL    HW1 9185   1.067   2.225   6.583
 2762SOL    HW2 9186   1.135   2.086   6.632
 2763SOL     OW 9187   4.916   1.802   5.982
 2763SOL    HW1 9188   5.009   1.792   6.016
 2763SOL    HW2 9189   4.890   1.899   5.982
 2764SOL     OW 9190   0.608   4.196   3.149
 2764SOL    HW1 9191   0.512   4.189   3.175
 2764SOL    HW2 9192   0.652   4.266   3.206
 2765SOL     OW 9193   6.377   0.163   0.438
 2765SOL    HW1 9194   6.438   0.088   0.465
 2765SOL    HW2 9195   6.335   0.203   0.519
 2766SOL     OW 9196   4.146   1.156   6.911
 2766SOL    HW1 9197   4.150   1.120   6.818
 2766SOL    HW2 9198   4.231   1.205   6.931
 2767SOL     OW 9199   6.043   5.606   6.354
 2767SOL    HW1 9200   6.055   5.648   6.264
 2767SOL    HW2 9201   6.126   5.619   6.407
 2768SOL     OW 9202   3.470   0.066   0.758
 2768SOL    HW1 9203   3.373   0.040   0.767
 2768SOL    HW2 9204   3.510   0.075   0.849
 2769SOL     OW 9205   2.116   4.132   5.690
 2769SOL    HW1 9206   2.084   4.196   5.759
 2769SOL    HW2 9207   2.128   4.180   5.603
 2770SOL     OW 9208   3.505   6.483   5.975
 2770SOL    HW1 9209   3.529   6.443   6.063
 2770SOL    HW2 9210   3.531   6.421   5.901
 2771SOL     OW 9211   5.367   6.303   3.812
 2771SOL    HW1 9212   5.297   6.371   3.793
 2771SOL    HW2 9213   5.327   6.212   3.810
 2772SOL     OW 9214   3.725   0.770   2.536
 2772SOL    HW1 9215   3.819   0.765   2.571
 2772SOL    HW2 9216   3.699   0.867   2.528
 2773SOL     OW 9217   6.975   3.160   4.268
 2773SOL    HW1 9218   6.894   3.219   4.277
 2773SOL    HW2 9219   6.976   3.093   4.342
 2774SOL     OW 9220   5.485   2.166   3.220
 2774SOL    HW1 9221   5.483   2.261   3.251
 2774SOL    HW2 9222   5.393   2.127   3.227
 2775SOL     OW 9223   0.331   3.540   4.066
 2775SOL    HW1 9224   0.313   3.635   4.039
 2775SOL    HW2 9225   0.254   3.508   4.122
 2776SOL     OW 9226   5.208   5.513   0.274
 2776SOL    HW1 9227   5.305   5.522   0.250
 2776SOL    HW2 9228   5.155   5.582   0.227
 2777SOL     OW 9229   2.704   2.095   5.759
 2777SOL    HW1 9230   2.652   2.109   5.843
 2777SOL    HW2 9231   2.751   2.007   5.763
 2778SOL     OW 9232   2.891   5.602   6.617
 2778SOL    HW1 9233   2.981   5.608   6.575
 2778SOL    HW2 9234   2.839   5.686   6.599
 2779SOL     OW 9235   5.853   6.401   1.636
 2779SOL    HW1 9236   5.785   6.444   1.695
 2779SOL    HW2 9237   5.852   6.302   1.650
 2780SOL     OW 9238   0.252   0.829   6.284
 2780SOL    HW1 9239   0.234   0.927   6.294
 2780SOL    HW2 9240   0.183   0.788   6.223
 2781SOL     OW 9241   6.822   0.851   2.630
 2781SOL    HW1 9242   6.824   0.763   2.582
 2781SOL    HW2 9243   6.734   0.896   2.613
 2782SOL     OW 9244   4.438   0.970   5.650
 2782SOL    HW1 9245   4.415   1.028   5.728
 2782SOL    HW2 9246   4.537   0.963   5.641
 2783SOL     OW 9247   6.546   3.515   1.544
 2783SOL    HW1 9248   6.589   3.594   1.589
 2783SOL    HW2 9249   6.499   3.459   1.612
 2784SOL     OW 9250   3.116   1.315   2.283
 2784SOL    HW1 9251   3.197   1.351   2.237
 2784SOL    HW2 9252   3.143   1.257   2.360
 2785SOL     OW 9253   4.878   2.662   1.293
 2785SOL    HW1 9254   4.934   2.583   1.269
 2785SOL    HW2 9255   4.843   2.650   1.386
 2786SOL     OW 9256   6.689   5.359   1.018
 2786SOL    HW1 9257   6.787   5.355   1.001
 2786SOL    HW2 9258   6.648   5.429   0.961
 2787SOL     OW 9259   6.135   5.691   6.073
 2787SOL    HW1 9260   6.200   5.706   5.999
 2787SOL    HW2 9261   6.044   5.719   6.043
 2788SOL     OW 9262   3.277   6.532   5.807
 2788SOL    HW1 9263   3.214   6.567   5.877
 2788SOL    HW2 9264   3.368   6.523   5.846
 2789SOL     OW 9265   1.141   2.755   3.736
 2789SOL    HW1 9266   1.128   2.850   3.707
 2789SOL    HW2 9267   1.237   2.739   3.756
 2790SOL     OW 9268   2.572   5.192   0.535
 2790SOL    HW1 9269   2.577   5.292   0.540
 2790SOL    HW2 9270   2.622   5.159   0.455
 2791SOL     OW 9271   0.249   4.387   2.300
 2791SOL    HW1 9272   0.246   4.447   2.380
 2791SOL    HW2 9273   0.211   4.298   2.324
 2792SOL     OW 9274   3.050   0.785   4.922
 2792SOL    HW1 9275   2.988   0.832   4.985
 2792SOL    HW2 9276   3.123   0.741   4.975
 2793SOL     OW 9277   4.044   4.113   1.372
 2793SOL    HW1 9278   4.030   4.025   1.326
 2793SOL    HW2 9279   4.006   4.109   1.464
 2794SOL     OW 9280   6.788   1.110   6.801
 2794SOL    HW1 9281   6.757   1.172   6.874
 2794SOL    HW2 9282   6.718   1.107   6.729
 2795SOL     OW 9283   0.529   4.931   0.982
 2795SOL    HW1 9284   0.551   4.847   1.032
 2795SOL    HW2 9285   0.607   4.956   0.924
 2796SOL     OW 9286   0.754   5.744   5.557
 2796SOL    HW1 9287   0.837   5.780   5.516
 2796SOL    HW2 9288   0.684   5.815   5.559
 2797SOL     OW 9289   5.526   5.949   5.080
 2797SOL    HW1 9290   5.623   5.953   5.104
 2797SOL    HW2 9291   5.498   6.035   5.038
 2798SOL     OW 9292   6.265   6.592   2.419
 2798SOL    HW1 9293   6.306   6.612   2.508
 2798SOL    HW2 9294   6.167   6.580   2.430
 2799SOL     OW 9295   4.710   5.694   5.514
 2799SOL    HW1 9296   4.735   5.754   5.589
 2799SOL    HW2 9297   4.793   5.668   5.463
 2800SOL     OW 9298   5.715   0.263   0.128
 2800SOL    HW1 9299   5.651   0.244   0.203
 2800SOL    HW2 9300   5.719   0.361   0.112
 2801SOL     OW 9301   0.421   5.059   6.241
 2801SOL    HW1 9302   0.410   5.043   6.339
 2801SOL    HW2 9303   0.511   5.098   6.223
 2802SOL     OW 9304   6.120   6.574   5.609
 2802SOL    HW1 9305   6.082   6.593   5.699
 2802SOL    HW2 9306   6.208   6.526   5.619
 2803SOL     OW 9307   3.376   3.173   6.265
 2803SOL    HW1 9308   3.311   3.238   6.305
 2803SOL    HW2 9309   3.347   3.151   6.172
 2804SOL     OW 9310   0.384   2.841   3.767
 2804SOL    HW1 9311   0.390   2.770   3.837
 2804SOL    HW2 9312   0.294   2.838   3.723
 2805SOL     OW 9313   4.787   3.443   1.846
 2805SOL    HW1 9314   4.836   3.383   1.784
 2805SOL    HW2 9315   4.771   3.395   1.933
 2806SOL     OW 9316   2.064   3.731   6.127
 2806SOL    HW1 9317   2.152   3.692   6.156
 2806SOL    HW2 9318   2.073   3.766   6.034
 2807SOL     OW 9319   3.166   0.336   3.019
 2807SOL    HW1 9320   3.066   0.335   3.030
 2807SOL    HW2 9321   3.189   0.382   2.934
 2808SOL     OW 9322   6.573   5.663   0.532
 2808SOL    HW1 9323   6.570   5.744   0.590
 2808SOL    HW2 9324   6.661   5.659   0.485
 2809SOL     OW 9325   5.392   4.493   1.714
 2809SOL    HW1 9326   5.454   4.437   1.660
 2809SOL    HW2 9327   5.372   4.578   1.664
 2810SOL     OW 9328   2.471   6.101   3.702
 2810SOL    HW1 9329   2.501   6.195   3.685
 2810SOL    HW2 9330   2.395   6.102   3.767
 2811SOL     OW 9331   0.698   0.562   2.245
 2811SOL    HW1 9332   0.654   0.651   2.239
 2811SOL    HW2 9333   0.745   0.553   2.332
 2812SOL     OW 9334   0.394   2.997   0.811
 2812SOL    HW1 9335   0.441   2.923   0.763
 2812SOL    HW2 9336   0.414   3.084   0.766
 2813SOL     OW 9337   0.807   1.784   1.136
 2813SOL    HW1 9338   0.766   1.846   1.202
 2813SOL    HW2 9339   0.835   1.700   1.182
 2814SOL     OW 9340   2.281   4.241   6.778
 2814SOL    HW1 9341   2.319   4.285   6.697
 2814SOL    HW2 9342   2.227   4.307   6.829
 2815SOL     OW 9343   0.288   6.061   5.114
 2815SOL    HW1 9344   0.263   6.038   5.209
 2815SOL    HW2 9345   0.229   6.135   5.082
 2816SOL     OW 9346   6.862   6.213   5.518
 2816SOL    HW1 9347   6.780   6.181   5.471
 2816SOL    HW2 9348   6.877   6.310   5.497
 2817SOL     OW 9349   3.975   0.360   2.067
 2817SOL    HW1 9350   3.978   0.432   2.136
 2817SOL    HW2 9351   3.880   0.342   2.042
 2818SOL     OW 9352   1.646   0.817   1.266
 2818SOL    HW1 9353   1.603   0.894   1.219
 2818SOL    HW2 9354   1.744   0.816   1.247
 2819SOL     OW 9355   1.146   6.953   0.786
 2819SOL    HW1 9356   1.210   7.020   0.823
 2819SOL    HW2 9357   1.065   6.948   0.844
 2820SOL     OW 9358   0.825   2.424   2.221
 2820SOL    HW1 9359   0.804   2.521   2.217
 2820SOL    HW2 9360   0.794   2.379   2.138
 2821SOL     OW 9361   3.648   4.935   6.725
 2821SOL    HW1 9362   3.741   4.906   6.748
 2821SOL    HW2 9363   3.613   4.879   6.649
 2822SOL     OW 9364   3.815   2.996   1.041
 2822SOL    HW1 9365   3.908   2.990   1.078
 2822SOL    HW2 9366   3.819   3.024   0.945
 2823SOL     OW 9367   5.054   0.695   0.412
 2823SOL    HW1 9368   4.986   0.701   0.485
 2823SOL    HW2 9369   5.023   0.630   0.342
 2824SOL     OW 9370   1.193   4.012   5.893
 2824SOL    HW1 9371   1.230   4.097   5.855
 2824SOL    HW2 9372   1.248   3.935   5.862
 2825SOL     OW 9373   5.224   0.686   6.722
 2825SOL    HW1 9374   5.174   0.611   6.680
 2825SOL    HW2 9375   5.203   0.771   6.673
 2826SOL     OW 9376   1.141   3.178   6.309
 2826SOL    HW1 9377   1.170   3.190   6.404
 2826SOL    HW2 9378   1.105   3.085   6.296
 2827SOL     OW 9379   6.946   1.031   6.357
 2827SOL    HW1 9380   6.939   1.130   6.368
 2827SOL    HW2 9381   0.019   1.005   6.350
 2828SOL     OW 9382   1.191   3.694   1.444
 2828SOL    HW1 9383   1.275   3.676   1.495
 2828SOL    HW2 9384   1.206   3.673   1.347
 2829SOL     OW 9385   3.095   4.009   3.466
 2829SOL    HW1 9386   3.039   4.018   3.547
 2829SOL    HW2 9387   3.052   3.945   3.402
 2830SOL     OW 9388   4.507   5.383   5.773
 2830SOL    HW1 9389   4.588   5.376   5.715
 2830SOL    HW2 9390   4.489   5.295   5.816
 2831SOL     OW 9391   6.922   2.487   2.185
 2831SOL    HW1 9392   7.010   2.441   2.197
 2831SOL    HW2 9393   6.907   2.508   2.089
 2832SOL     OW 9394   0.886   3.146   1.122
 2832SOL    HW1 9395   0.787   3.150   1.108
 2832SOL    HW2 9396   0.910   3.190   1.209
 2833SOL     OW 9397   2.155   1.265   2.163
 2833SOL    HW1 9398   2.133   1.345   2.107
 2833SOL    HW2 9399   2.126   1.282   2.257
 2834SOL     OW 9400   4.429   6.251   5.139
 2834SOL    HW1 9401   4.383   6.234   5.051
 2834SOL    HW2 9402   4.496   6.324   5.127
 2835SOL     OW 9403   1.094   6.184   0.971
 2835SOL    HW1 9404   1.163   6.127   1.015
 2835SOL    HW2 9405   1.129   6.218   0.884
 2836SOL     OW 9406   3.477   0.053   3.272
 2836SOL    HW1 9407   3.560   0.069   3.324
 2836SOL    HW2 9408   3.426   0.139   3.261
 2837SOL     OW 9409   5.753   4.387   2.371
 2837SOL    HW1 9410   5.701   4.390   2.456
 2837SOL    HW2 9411   5.694   4.358   2.296
 2838SOL     OW 9412   5.108   3.827   6.314
 2838SOL    HW1 9413   5.205   3.804   6.315
 2838SOL    HW2 9414   5.091   3.898   6.246
 2839SOL     OW 9415   5.962   2.924   4.613
 2839SOL    HW1 9416   5.902   2.879   4.678
 2839SOL    HW2 9417   6.039   2.965   4.661
 2840SOL     OW 9418   0.936   6.186   2.425
 2840SOL    HW1 9419   0.933   6.168   2.327
 2840SOL    HW2 9420   0.935   6.099   2.474
 2841SOL     OW 9421   6.298   2.468   1.363
 2841SOL    HW1 9422   6.335   2.549   1.318
 2841SOL    HW2 9423   6.342   2.386   1.326
 2842SOL     OW 9424   1.502   6.124   4.617
 2842SOL    HW1 9425   1.544   6.083   4.536
 2842SOL    HW2 9426   1.564   6.192   4.656
 2843SOL     OW 9427   2.164   3.384   3.016
 2843SOL    HW1 9428   2.166   3.460   2.951
 2843SOL    HW2 9429   2.192   3.300   2.970
 2844SOL     OW 9430   5.018   4.740   1.063
 2844SOL    HW1 9431   5.101   4.741   1.008
 2844SOL    HW2 9432   4.968   4.825   1.049
 2845SOL     OW 9433   4.793   3.037   3.528
 2845SOL    HW1 9434   4.753   3.000   3.444
 2845SOL    HW2 9435   4.831   3.127   3.509
 2846SOL     OW 9436   5.023   0.495   0.187
 2846SOL    HW1 9437   5.115   0.458   0.176
 2846SOL    HW2 9438   4.974   0.492   0.100
 2847SOL     OW 9439   4.637   4.309   2.373
 2847SOL    HW1 9440   4.711   4.251   2.339
 2847SOL    HW2 9441   4.554   4.294   2.319
 2848SOL     OW 9442   0.836   3.032   4.808
 2848SOL    HW1 9443   0.881   2.975   4.876
 2848SOL    HW2 9444   0.809   2.975   4.730
 2849SOL     OW 9445   3.581   0.638   2.751
 2849SOL    HW1 9446   3.624   0.687   2.675
 2849SOL    HW2 9447   3.651   0.596   2.808
 2850SOL     OW 9448   2.743   6.899   2.992
 2850SOL    HW1 9449   2.653   6.857   2.992
 2850SOL    HW2 9450   2.780   6.898   3.085
 2851SOL     OW 9451   4.612   3.480   0.763
 2851SOL    HW1 9452   4.571   3.549   0.823
 2851SOL    HW2 9453   4.618   3.517   0.670
 2852SOL     OW 9454   6.512   4.315   6.345
 2852SOL    HW1 9455   6.454   4.264   6.408
 2852SOL    HW2 9456   6.467   4.401   6.320
 2853SOL     OW 9457   6.982   3.817   6.875
 2853SOL    HW1 9458   6.988   3.727   6.831
 2853SOL    HW2 9459   0.033   3.827   6.941
 2854SOL     OW 9460   2.930   0.976   6.588
 2854SOL    HW1 9461   2.961   0.950   6.680
 2854SOL    HW2 9462   2.843   0.930   6.569
 2855SOL     OW 9463   1.662   1.864   4.800
 2855SOL    HW1 9464   1.713   1.937   4.848
 2855SOL    HW2 9465   1.648   1.891   4.705
 2856SOL     OW 9466   1.566   4.080   3.294
 2856SOL    HW1 9467   1.590   4.138   3.371
 2856SOL    HW2 9468   1.482   4.031   3.314
 2857SOL     OW 9469   0.057   3.336   0.452
 2857SOL    HW1 9470   0.051   3.418   0.510
 2857SOL    HW2 9471   0.102   3.263   0.503
 2858SOL     OW 9472   4.946   5.731   2.814
 2858SOL    HW1 9473   4.949   5.690   2.905
 2858SOL    HW2 9474   4.886   5.678   2.755
 2859SOL     OW 9475   5.123   6.204   1.024
 2859SOL    HW1 9476   5.150   6.298   1.042
 2859SOL    HW2 9477   5.160   6.175   0.935
 2860SOL     OW 9478   1.395   6.166   1.648
 2860SOL    HW1 9479   1.357   6.075   1.630
 2860SOL    HW2 9480   1.385   6.187   1.745
 2861SOL     OW 9481   3.633   5.115   6.371
 2861SOL    HW1 9482   3.656   5.087   6.464
 2861SOL    HW2 9483   3.610   5.034   6.316
 2862SOL     OW 9484   4.180   3.147   1.337
 2862SOL    HW1 9485   4.154   3.190   1.424
 2862SOL    HW2 9486   4.242   3.208   1.287
 2863SOL     OW 9487   5.466   0.481   5.559
 2863SOL    HW1 9488   5.492   0.535   5.640
 2863SOL    HW2 9489   5.382   0.430   5.579
 2864SOL     OW 9490   3.813   3.267   1.903
 2864SOL    HW1 9491   3.876   3.255   1.826
 2864SOL    HW2 9492   3.831   3.197   1.972
 2865SOL     OW 9493   4.927   6.243   4.471
 2865SOL    HW1 9494   4.999   6.186   4.511
 2865SOL    HW2 9495   4.932   6.335   4.509
 2866SOL     OW 9496   5.462   4.512   6.548
 2866SOL    HW1 9497   5.509   4.462   6.475
 2866SOL    HW2 9498   5.438   4.604   6.516
 2867SOL     OW 9499   6.470   6.543   1.934
 2867SOL    HW1 9500   6.488   6.446   1.948
 2867SOL    HW2 9501   6.427   6.581   2.017
 2868SOL     OW 9502   1.718   1.393   5.656
 2868SOL    HW1 9503   1.756   1.318   5.601
 2868SOL    HW2 9504   1.689   1.468   5.595
 2869SOL     OW 9505   5.161   6.344   4.279
 2869SOL    HW1 9506   5.248   6.385   4.254
 2869SOL    HW2 9507   5.111   6.319   4.197
 2870SOL     OW 9508   1.371   1.678   0.887
 2870SOL    HW1 9509   1.405   1.630   0.967
 2870SOL    HW2 9510   1.287   1.727   0.911
 2871SOL     OW 9511   6.422   1.486   1.914
 2871SOL    HW1 9512   6.383   1.570   1.950
 2871SOL    HW2 9513   6.397   1.476   1.817
 2872SOL     OW 9514   2.302   1.962   2.436
 2872SOL    HW1 9515   2.398   1.950   2.462
 2872SOL    HW2 9516   2.249   1.883   2.466
 2873SOL     OW 9517   0.961   5.834   1.327
 2873SOL    HW1 9518   0.897   5.859   1.400
 2873SOL    HW2 9519   0.953   5.899   1.251
 2874SOL     OW 9520   2.875   0.254   3.021
 2874SOL    HW1 9521   2.783   0.268   2.985
 2874SOL    HW2 9522   2.910   0.166   2.989
 2875SOL     OW 9523   3.002   0.042   2.946
 2875SOL    HW1 9524   2.964   7.015   2.868
 2875SOL    HW2 9525   3.099   0.057   2.931
 2876SOL     OW 9526   1.802   6.248   1.970
 2876SOL    HW1 9527   1.729   6.280   1.909
 2876SOL    HW2 9528   1.890   6.281   1.937
 2877SOL     OW 9529   1.868   1.827   5.694
 2877SOL    HW1 9530   1.947   1.779   5.654
 2877SOL    HW2 9531   1.887   1.848   5.790
 2878SOL     OW 9532   3.590   2.889   4.837
 2878SOL    HW1 9533   3.670   2.924   4.787
 2878SOL    HW2 9534   3.608   2.796   4.866
 2879SOL     OW 9535   4.447   4.492   5.894
 2879SOL    HW1 9536   4.424   4.588   5.902
 2879SOL    HW2 9537   4.535   4.482   5.847
 2880SOL     OW 9538   0.760   1.926   4.302
 2880SOL    HW1 9539   0.746   1.942   4.400
 2880SOL    HW2 9540   0.724   1.835   4.278
 2881SOL     OW 9541   3.598   5.996   6.743
 2881SOL    HW1 9542   3.510   5.978   6.700
 2881SOL    HW2 9543   3.642   6.073   6.697
 2882SOL     OW 9544   4.914   6.262   0.477
 2882SOL    HW1 9545   4.910   6.227   0.384
 2882SOL    HW2 9546   4.823   6.297   0.503
 2883SOL     OW 9547   5.929   6.375   3.337
 2883SOL    HW1 9548   5.964   6.445   3.399
 2883SOL    HW2 9549   5.860   6.415   3.277
 2884SOL     OW 9550   6.772   5.362   2.777
 2884SOL    HW1 9551   6.725   5.292   2.722
 2884SOL    HW2 9552   6.770   5.449   2.727
 2885SOL     OW 9553   1.505   3.602   3.112
 2885SOL    HW1 9554   1.597   3.606   3.151
 2885SOL    HW2 9555   1.507   3.637   3.019
 2886SOL     OW 9556   2.464   4.620   6.442
 2886SOL    HW1 9557   2.547   4.672   6.460
 2886SOL    HW2 9558   2.432   4.639   6.350
 2887SOL     OW 9559   0.359   6.296   4.536
 2887SOL    HW1 9560   0.420   6.374   4.521
 2887SOL    HW2 9561   0.266   6.321   4.510
 2888SOL     OW 9562   6.815   6.256   0.286
 2888SOL    HW1 9563   6.768   6.275   0.199
 2888SOL    HW2 9564   6.863   6.169   0.279
 2889SOL     OW 9565   2.823   6.875   3.248
 2889SOL    HW1 9566   2.845   6.812   3.323
 2889SOL    HW2 9567   2.907   6.918   3.215
 2890SOL     OW 9568   1.824   6.082   1.287
 2890SOL    HW1 9569   1.780   6.165   1.323
 2890SOL    HW2 9570   1.906   6.108   1.235
 2891SOL     OW 9571   0.097   3.372   2.725
 2891SOL    HW1 9572   0.130   3.419   2.643
 2891SOL    HW2 9573   0.176   3.338   2.778
 2892SOL     OW 9574   6.306   4.054   0.768
 2892SOL    HW1 9575   6.380   4.037   0.833
 2892SOL    HW2 9576   6.228   4.094   0.816
 2893SOL     OW 9577   0.398   5.864   4.717
 2893SOL    HW1 9578   0.480   5.837   4.665
 2893SOL    HW2 9579   0.338   5.918   4.658
 2894SOL     OW 9580   1.169   4.392   2.114
 2894SOL    HW1 9581   1.202   4.318   2.056
 2894SOL    HW2 9582   1.082   4.426   2.077
 2895SOL     OW 9583   3.710   6.974   6.386
 2895SOL    HW1 9584   3.646   0.021   6.417
 2895SOL    HW2 9585   3.687   6.946   6.293
 2896SOL     OW 9586   5.951   6.793   5.484
 2896SOL    HW1 9587   6.011   6.724   5.524
 2896SOL    HW2 9588   6.004   6.853   5.425
 2897SOL     OW 9589   3.231   5.143   2.884
 2897SOL    HW1 9590   3.324   5.168   2.909
 2897SOL    HW2 9591   3.212   5.173   2.791
 2898SOL     OW 9592   5.997   4.131   2.520
 2898SOL    HW1 9593   6.067   4.160   2.585
 2898SOL    HW2 9594   6.040   4.091   2.439
 2899SOL     OW 9595   6.915   1.850   1.042
 2899SOL    HW1 9596   6.945   1.931   1.093
 2899SOL    HW2 9597   6.820   1.829   1.066
 2900SOL     OW 9598   3.232   3.570   0.078
 2900SOL    HW1 9599   3.293   3.646   0.057
 2900SOL    HW2 9600   3.274   3.512   0.148
 2901SOL     OW 9601   1.666   4.540   3.314
 2901SOL    HW1 9602   1.680   4.512   3.409
 2901SOL    HW2 9603   1.684   4.463   3.253
 2902SOL     OW 9604   0.661   5.801   3.949
 2902SOL    HW1 9605   0.699   5.846   4.030
 2902SOL    HW2 9606   0.567   5.773   3.968
 2903SOL     OW 9607   4.540   5.809   0.471
 2903SOL    HW1 9608   4.528   5.860   0.556
 2903SOL    HW2 9609   4.636   5.782   0.460
 2904SOL     OW 9610   2.550   4.623   5.048
 2904SOL    HW1 9611   2.649   4.616   5.040
 2904SOL    HW2 9612   2.507   4.579   4.969
 2905SOL     OW 9613   1.210   4.654   2.429
 2905SOL    HW1 9614   1.131   4.715   2.425
 2905SOL    HW2 9615   1.250   4.645   2.337
 2906SOL     OW 9616   5.474   6.165   2.720
 2906SOL    HW1 9617   5.399   6.135   2.662
 2906SOL    HW2 9618   5.490   6.099   2.793
 2907SOL     OW 9619   0.892   0.470   3.608
 2907SOL    HW1 9620   0.886   0.378   3.645
 2907SOL    HW2 9621   0.822   0.483   3.537
 2908SOL     OW 9622   5.097   0.130   3.396
 2908SOL    HW1 9623   5.059   0.220   3.377
 2908SOL    HW2 9624   5.188   0.122   3.354
 2909SOL     OW 9625   1.309   5.632   2.446
 2909SOL    HW1 9626   1.277   5.594   2.360
 2909SOL    HW2 9627   1.267   5.722   2.461
 2910SOL     OW 9628   6.735   0.999   3.778
 2910SOL    HW1 9629   6.800   0.945   3.725
 2910SOL    HW2 9630   6.778   1.028   3.864
 2911SOL     OW 9631   6.713   4.533   3.762
 2911SOL    HW1 9632   6.793   4.504   3.711
 2911SOL    HW2 9633   6.708   4.484   3.849
 2912SOL     OW 9634   0.102   6.469   0.679
 2912SOL    HW1 9635   0.161   6.490   0.601
 2912SOL    HW2 9636   0.007   6.467   0.650
 2913SOL     OW 9637   1.681   4.421   1.564
 2913SOL    HW1 9638   1.642   4.369   1.488
 2913SOL    HW2 9639   1.770   4.383   1.589
 2914SOL     OW 9640   5.407   4.377   0.337
 2914SOL    HW1 9641   5.476   4.407   0.271
 2914SOL    HW2 9642   5.364   4.457   0.379
 2915SOL     OW 9643   3.339   2.108   2.982
 2915SOL    HW1 9644   3.385   2.075   2.900
 2915SOL    HW2 9645   3.407   2.141   3.048
 2916SOL     OW 9646   2.228   5.321   0.990
 2916SOL    HW1 9647   2.275   5.406   0.967
 2916SOL    HW2 9648   2.182   5.331   1.078
 2917SOL     OW 9649   2.432   0.200   3.793
 2917SOL    HW1 9650   2.389   0.165   3.709
 2917SOL    HW2 9651   2.480   0.285   3.772
 2918SOL     OW 9652   6.087   4.267   1.291
 2918SOL    HW1 9653   6.046   4.231   1.375
 2918SOL    HW2 9654   6.054   4.214   1.213
 2919SOL     OW 9655   0.577   5.988   4.360
 2919SOL    HW1 9656   0.611   5.966   4.451
 2919SOL    HW2 9657   0.527   5.910   4.323
 2920SOL     OW 9658   1.991   0.455   2.021
 2920SOL    HW1 9659   1.961   0.549   2.032
 2920SOL    HW2 9660   2.017   0.417   2.110
 2921SOL     OW 9661   0.034   0.204   5.674
 2921SOL    HW1 9662   0.021   0.140   5.750
 2921SOL    HW2 9663   0.122   0.251   5.685
 2922SOL     OW 9664   4.604   0.530   3.187
 2922SOL    HW1 9665   4.550   0.475   3.250
 2922SOL    HW2 9666   4.591   0.497   3.094
 2923SOL     OW 9667   6.373   4.521   5.049
 2923SOL    HW1 9668   6.434   4.491   4.975
 2923SOL    HW2 9669   6.384   4.619   5.065
 2924SOL     OW 9670   6.849   2.234   5.307
 2924SOL    HW1 9671   6.808   2.161   5.362
 2924SOL    HW2 9672   6.849   2.319   5.359
 2925SOL     OW 9673   5.579   0.960   6.019
 2925SOL    HW1 9674   5.560   1.052   5.983
 2925SOL    HW2 9675   5.601   0.966   6.116
 2926SOL     OW 9676   0.498   2.034   4.944
 2926SOL    HW1 9677   0.564   2.019   5.017
 2926SOL    HW2 9678   0.419   1.975   4.957
 2927SOL     OW 9679   2.097   2.968   1.486
 2927SOL    HW1 9680   2.139   2.906   1.553
 2927SOL    HW2 9681   2.112   2.932   1.394
 2928SOL     OW 9682   6.393   1.808   0.140
 2928SOL    HW1 9683   6.357   1.891   0.183
 2928SOL    HW2 9684   6.410   1.825   0.043
 2929SOL     OW 9685   1.374   2.526   4.660
 2929SOL    HW1 9686   1.471   2.511   4.641
 2929SOL    HW2 9687   1.325   2.542   4.574
 2930SOL     OW 9688   6.470   5.660   4.600
 2930SOL    HW1 9689   6.506   5.604   4.675
 2930SOL    HW2 9690   6.372   5.673   4.612
 2931SOL     OW 9691   4.269   4.469   6.623
 2931SOL    HW1 9692   4.365   4.442   6.633
 2931SOL    HW2 9693   4.210   4.400   6.665
 2932SOL     OW 9694   0.085   6.394   1.224
 2932SOL    HW1 9695   0.098   6.306   1.178
 2932SOL    HW2 9696   0.009   6.442   1.182
 2933SOL     OW 9697   0.837   0.074   1.614
 2933SOL    HW1 9698   0.799   0.164   1.592
 2933SOL    HW2 9699   0.877   0.077   1.706
 2934SOL     OW 9700   4.053   3.313   1.023
 2934SOL    HW1 9701   4.126   3.350   0.965
 2934SOL    HW2 9702   3.985   3.267   0.965
 2935SOL     OW 9703   0.619   2.190   6.482
 2935SOL    HW1 9704   0.644   2.261   6.417
 2935SOL    HW2 9705   0.683   2.113   6.474
 2936SOL     OW 9706   4.574   0.149   0.404
 2936SOL    HW1 9707   4.493   0.179   0.453
 2936SOL    HW2 9708   4.616   0.227   0.357
 2937SOL     OW 9709   4.287   5.508   1.854
 2937SOL    HW1 9710   4.338   5.564   1.790
 2937SOL    HW2 9711   4.240   5.566   1.920
 2938SOL     OW 9712   6.299   6.068   6.613
 2938SOL    HW1 9713   6.309   6.027   6.522
 2938SOL    HW2 9714   6.305   6.168   6.605
 2939SOL     OW 9715   0.395   5.483   1.890
 2939SOL    HW1 9716   0.353   5.560   1.842
 2939SOL    HW2 9717   0.417   5.510   1.983
 2940SOL     OW 9718   5.814   6.254   4.273
 2940SOL    HW1 9719   5.769   6.165   4.259
 2940SOL    HW2 9720   5.815   6.275   4.371
 2941SOL     OW 9721   1.781   3.250   3.425
 2941SOL    HW1 9722   1.853   3.241   3.357
 2941SOL    HW2 9723   1.707   3.307   3.388
 2942SOL     OW 9724   2.473   1.270   6.730
 2942SOL    HW1 9725   2.378   1.241   6.743
 2942SOL    HW2 9726   2.497   1.338   6.799
 2943SOL     OW 9727   6.028   4.388   3.271
 2943SOL    HW1 9728   6.049   4.471   3.323
 2943SOL    HW2 9729   6.021   4.310   3.333
 2944SOL     OW 9730   2.746   6.395   4.320
 2944SOL    HW1 9731   2.786   6.343   4.245
 2944SOL    HW2 9732   2.656   6.430   4.292
 2945SOL     OW 9733   5.169   4.474   1.504
 2945SOL    HW1 9734   5.133   4.414   1.575
 2945SOL    HW2 9735   5.154   4.432   1.414
 2946SOL     OW 9736   3.066   3.920   5.958
 2946SOL    HW1 9737   3.098   3.826   5.975
 2946SOL    HW2 9738   3.144   3.979   5.939
 2947SOL     OW 9739   6.344   6.124   0.793
 2947SOL    HW1 9740   6.360   6.201   0.855
 2947SOL    HW2 9741   6.399   6.136   0.711
 2948SOL     OW 9742   5.979   4.832   3.195
 2948SOL    HW1 9743   6.045   4.769   3.236
 2948SOL    HW2 9744   5.902   4.845   3.257
 2949SOL     OW 9745   0.899   6.380   0.605
 2949SOL    HW1 9746   0.878   6.477   0.609
 2949SOL    HW2 9747   0.885   6.338   0.694
 2950SOL     OW 9748   4.641   4.804   2.598
 2950SOL    HW1 9749   4.562   4.760   2.556
 2950SOL    HW2 9750   4.713   4.815   2.529
 2951SOL     OW 9751   5.735   0.423   1.666
 2951SOL    HW1 9752   5.653   0.370   1.645
 2951SOL    HW2 9753   5.728   0.514   1.625
 2952SOL     OW 9754   5.909   0.820   4.306
 2952SOL    HW1 9755   6.006   0.797   4.298
 2952SOL    HW2 9756   5.896   0.882   4.384
 2953SOL     OW 9757   0.295   6.024   2.941
 2953SOL    HW1 9758   0.298   5.947   2.878
 2953SOL    HW2 9759   0.381   6.030   2.991
 2954SOL     OW 9760   1.047   4.299   6.576
 2954SOL    HW1 9761   1.078   4.327   6.485
 2954SOL    HW2 9762   0.997   4.374   6.619
 2955SOL     OW 9763   1.287   4.076   0.222
 2955SOL    HW1 9764   1.190   4.097   0.231
 2955SOL    HW2 9765   1.300   3.977   0.225
 2956SOL     OW 9766   6.709   4.453   4.033
 2956SOL    HW1 9767   6.677   4.359   4.045
 2956SOL    HW2 9768   6.660   4.513   4.096
 2957SOL     OW 9769   2.981   4.992   1.637
 2957SOL    HW1 9770   3.043   4.944   1.575
 2957SOL    HW2 9771   2.941   4.926   1.701
 2958SOL     OW 9772   1.855   4.611   3.090
 2958SOL    HW1 9773   1.806   4.659   3.163
 2958SOL    HW2 9774   1.913   4.540   3.130
 2959SOL     OW 9775   5.497   2.619   2.938
 2959SOL    HW1 9776   5.496   2.675   3.021
 2959SOL    HW2 9777   5.455   2.671   2.863
 2960SOL     OW 9778   3.807   0.754   0.346
 2960SOL    HW1 9779   3.807   0.836   0.403
 2960SOL    HW2 9780   3.895   0.745   0.300
 2961SOL     OW 9781   6.023   4.646   2.825
 2961SOL    HW1 9782   5.999   4.634   2.728
 2961SOL    HW2 9783   5.948   4.692   2.872
 2962SOL     OW 9784   6.000   6.608   2.377
 2962SOL    HW1 9785   5.959   6.539   2.317
 2962SOL    HW2 9786   5.927   6.658   2.425
 2963SOL     OW 9787   0.665   0.668   5.608
 2963SOL    HW1 9788   0.709   0.753   5.582
 2963SOL    HW2 9789   0.671   0.602   5.533
 2964SOL     OW 9790   0.582   2.623   6.919
 2964SOL    HW1 9791   0.667   2.581   6.948
 2964SOL    HW2 9792   0.602   2.702   6.860
 2965SOL     OW 9793   0.722   0.486   4.593
 2965SOL    HW1 9794   0.640   0.447   4.635
 2965SOL    HW2 9795   0.703   0.580   4.564
 2966SOL     OW 9796   4.583   5.397   3.669
 2966SOL    HW1 9797   4.518   5.322   3.661
 2966SOL    HW2 9798   4.598   5.438   3.579
 2967SOL     OW 9799   6.867   0.619   5.472
 2967SOL    HW1 9800   6.913   0.697   5.513
 2967SOL    HW2 9801   6.877   0.623   5.372
 2968SOL     OW 9802   2.102   2.643   1.078
 2968SOL    HW1 9803   2.181   2.603   1.031
 2968SOL    HW2 9804   2.127   2.734   1.112
 2969SOL     OW 9805   5.182   3.853   4.303
 2969SOL    HW1 9806   5.167   3.756   4.320
 2969SOL    HW2 9807   5.261   3.884   4.356
 2970SOL     OW 9808   2.610   2.871   5.416
 2970SOL    HW1 9809   2.709   2.874   5.428
 2970SOL    HW2 9810   2.583   2.927   5.338
 2971SOL     OW 9811   5.408   4.182   0.140
 2971SOL    HW1 9812   5.416   4.084   0.155
 2971SOL    HW2 9813   5.403   4.229   0.228
 2972SOL     OW 9814   6.159   5.016   6.435
 2972SOL    HW1 9815   6.194   5.036   6.344
 2972SOL    HW2 9816   6.158   5.100   6.490
 2973SOL     OW 9817   5.165   6.420   2.047
 2973SOL    HW1 9818   5.154   6.322   2.067
 2973SOL    HW2 9819   5.074   6.462   2.039
 2974SOL     OW 9820   6.174   4.622   3.294
 2974SOL    HW1 9821   6.235   4.628   3.372
 2974SOL    HW2 9822   6.205   4.549   3.233
 2975SOL     OW 9823   4.686   4.739   3.849
 2975SOL    HW1 9824   4.616   4.670   3.830
 2975SOL    HW2 9825   4.690   4.756   3.947
 2976SOL     OW 9826   4.737   2.116   2.857
 2976SOL    HW1 9827   4.777   2.056   2.925
 2976SOL    HW2 9828   4.791   2.200   2.851
 2977SOL     OW 9829   0.558   0.468   1.842
 2977SOL    HW1 9830   0.618   0.424   1.909
 2977SOL    HW2 9831   0.612   0.524   1.780
 2978SOL     OW 9832   4.738   4.349   6.173
 2978SOL    HW1 9833   4.778   4.334   6.082
 2978SOL    HW2 9834   4.672   4.424   6.168
 2979SOL     OW 9835   3.376   1.490   4.796
 2979SOL    HW1 9836   3.391   1.452   4.887
 2979SOL    HW2 9837   3.298   1.552   4.798
 2980SOL     OW 9838   3.833   4.202   6.313
 2980SOL    HW1 9839   3.853   4.111   6.277
 2980SOL    HW2 9840   3.759   4.244   6.260
 2981SOL     OW 9841   1.900   1.251   0.636
 2981SOL    HW1 9842   1.932   1.215   0.724
 2981SOL    HW2 9843   1.835   1.325   0.653
 2982SOL     OW 9844   1.430   6.768   2.707
 2982SOL    HW1 9845   1.400   6.718   2.789
 2982SOL    HW2 9846   1.484   6.707   2.649
 2983SOL     OW 9847   6.665   2.969   6.632
 2983SOL    HW1 9848   6.671   3.056   6.680
 2983SOL    HW2 9849   6.573   2.932   6.640
 2984SOL     OW 9850   6.431   5.108   0.024
 2984SOL    HW1 9851   6.426   5.117   0.123
 2984SOL    HW2 9852   6.371   5.175   7.005
 2985SOL     OW 9853   0.668   6.857   4.543
 2985SOL    HW1 9854   0.676   6.771   4.593
 2985SOL    HW2 9855   0.597   6.848   4.472
 2986SOL     OW 9856   3.253   4.113   2.754
 2986SOL    HW1 9857   3.187   4.050   2.795
 2986SOL    HW2 9858   3.331   4.124   2.816
 2987SOL     OW 9859   0.625   2.264   4.452
 2987SOL    HW1 9860   0.531   2.268   4.420
 2987SOL    HW2 9861   0.654   2.169   4.460
 2988SOL     OW 9862   1.230   1.063   1.254
 2988SOL    HW1 9863   1.231   1.013   1.168
 2988SOL    HW2 9864   1.157   1.028   1.313
 2989SOL     OW 9865   5.186   3.533   4.801
 2989SOL    HW1 9866   5.164   3.548   4.897
 2989SOL    HW2 9867   5.105   3.499   4.753
 2990SOL     OW 9868   5.174   2.275   4.320
 2990SOL    HW1 9869   5.145   2.370   4.307
 2990SOL    HW2 9870   5.267   2.274   4.357
 2991SOL     OW 9871   5.770   3.366   1.000
 2991SOL    HW1 9872   5.854   3.314   1.014
 2991SOL    HW2 9873   5.764   3.438   1.069
 2992SOL     OW 9874   0.790   4.033   4.632
 2992SOL    HW1 9875   0.813   4.064   4.725
 2992SOL    HW2 9876   0.803   3.934   4.626
 2993SOL     OW 9877   1.124   4.818   0.062
 2993SOL    HW1 9878   1.058   4.892   0.047
 2993SOL    HW2 9879   1.184   4.810   7.005
 2994SOL     OW 9880   4.536   5.668   6.702
 2994SOL    HW1 9881   4.563   5.754   6.658
 2994SOL    HW2 9882   4.514   5.686   6.798
 2995SOL     OW 9883   4.355   0.224   0.586
 2995SOL    HW1 9884   4.348   0.307   0.531
 2995SOL    HW2 9885   4.336   0.245   0.682
 2996SOL     OW 9886   1.439   2.135   4.874
 2996SOL    HW1 9887   1.407   2.178   4.958
 2996SOL    HW2 9888   1.530   2.170   4.851
 2997SOL     OW 9889   5.029   0.617   3.550
 2997SOL    HW1 9890   4.947   0.663   3.584
 2997SOL    HW2 9891   5.038   0.527   3.594
 2998SOL     OW 9892   2.475   0.471   3.522
 2998SOL    HW1 9893   2.498   0.469   3.619
 2998SOL    HW2 9894   2.548   0.429   3.469
 2999SOL     OW 9895   3.117   4.384   6.917
 2999SOL    HW1 9896   3.162   4.370   7.005
 2999SOL    HW2 9897   3.155   4.321   6.849
 3000SOL     OW 9898   3.076   3.342   5.530
 3000SOL    HW1 9899   3.032   3.431   5.542
 3000SOL    HW2 9900   3.140   3.346   5.453
 3001SOL     OW 9901   5.863   1.121   6.510
 3001SOL    HW1 9902   5.919   1.044   6.480
 3001SOL    HW2 9903   5.873   1.133   6.608
 3002SOL     OW 9904   2.958   1.287   1.167
 3002SOL    HW1 9905   2.876   1.230   1.171
 3002SOL    HW2 9906   3.028   1.240   1.112
 3003SOL     OW 9907   0.926   5.932   0.477
 3003SOL    HW1 9908   0.994   5.964   0.543
 3003SOL    HW2 9909   0.951   5.840   0.446
 3004SOL     OW 9910   2.678   4.749   4.123
 3004SOL    HW1 9911   2.747   4.744   4.052
 3004SOL    HW2 9912   2.719   4.783   4.208
 3005SOL     OW 9913   1.303   3.191   5.567
 3005SOL    HW1 9914   1.377   3.241   5.613
 3005SOL    HW2 9915   1.217   3.241   5.580
 3006SOL     OW 9916   5.741   1.927   5.623
 3006SOL    HW1 9917   5.792   2.009   5.651
 3006SOL    HW2 9918   5.670   1.907   5.691
 3007SOL     OW 9919   5.126   5.639   6.880
 3007SOL    HW1 9920   5.210   5.639   6.935
 3007SOL    HW2 9921   5.061   5.703   6.918
 3008SOL     OW 9922   4.254   1.668   5.949
 3008SOL    HW1 9923   4.176   1.651   5.889
 3008SOL    HW2 9924   4.320   1.727   5.900
 3009SOL     OW 9925   0.073   2.818   3.240
 3009SOL    HW1 9926   0.122   2.767   3.169
 3009SOL    HW2 9927   7.015   2.860   3.201
 3010SOL     OW 9928   4.398   5.488   6.089
 3010SOL    HW1 9929   4.486   5.441   6.090
 3010SOL    HW2 9930   4.405   5.569   6.030
 3011SOL     OW 9931   6.446   6.987   1.595
 3011SOL    HW1 9932   6.443   0.034   1.666
 3011SOL    HW2 9933   6.412   6.900   1.632
 3012SOL     OW 9934   3.046   3.405   6.634
 3012SOL    HW1 9935   3.081   3.347   6.561
 3012SOL    HW2 9936   2.946   3.405   6.632
 3013SOL     OW 9937   0.133   6.356   3.586
 3013SOL    HW1 9938   0.058   6.322   3.529
 3013SOL    HW2 9939   0.119   6.325   3.680
 3014SOL     OW 9940   5.210   0.659   5.755
 3014SOL    HW1 9941   5.161   0.572   5.745
 3014SOL    HW2 9942   5.235   0.672   5.851
 3015SOL     OW 9943   1.707   0.958   0.013
 3015SOL    HW1 9944   1.780   0.936   0.079
 3015SOL    HW2 9945   1.636   0.888   0.019
 3016SOL     OW 9946   3.018   6.938   4.099
 3016SOL    HW1 9947   3.039   0.011   4.082
 3016SOL    HW2 9948   3.050   6.883   4.021
 3017SOL     OW 9949   6.473   5.731   1.585
 3017SOL    HW1 9950   6.425   5.643   1.578
 3017SOL    HW2 9951   6.409   5.802   1.614
 3018SOL     OW 9952   3.625   6.827   0.424
 3018SOL    HW1 9953   3.693   6.888   0.465
 3018SOL    HW2 9954   3.576   6.779   0.496
 3019SOL     OW 9955   1.512   6.599   6.601
 3019SOL    HW1 9956   1.525   6.567   6.508
 3019SOL    HW2 9957   1.427   6.652   6.607
 3020SOL     OW 9958   5.286   3.104   6.595
 3020SOL    HW1 9959   5.327   3.025   6.640
 3020SOL    HW2 9960   5.205   3.134   6.647
 3021SOL     OW 9961   3.367   6.378   4.604
 3021SOL    HW1 9962   3.356   6.340   4.696
 3021SOL    HW2 9963   3.350   6.307   4.536
 3022SOL     OW 9964   3.923   6.051   3.387
 3022SOL    HW1 9965   3.993   5.984   3.362
 3022SOL    HW2 9966   3.832   6.013   3.369
 3023SOL     OW 9967   4.217   6.419   2.852
 3023SOL    HW1 9968   4.198   6.508   2.893
 3023SOL    HW2 9969   4.237   6.353   2.925
 3024SOL     OW 9970   0.068   6.243   5.668
 3024SOL    HW1 9971   7.009   6.256   5.614
 3024SOL    HW2 9972   0.044   6.230   5.764
 3025SOL     OW 9973   4.098   5.597   0.557
 3025SOL    HW1 9974   4.064   5.690   0.577
 3025SOL    HW2 9975   4.160   5.568   0.629
 3026SOL     OW 9976   5.730   1.035   1.069
 3026SOL    HW1 9977   5.683   1.035   0.981
 3026SOL    HW2 9978   5.765   0.943   1.089
 3027SOL     OW 9979   4.645   1.609   1.968
 3027SOL    HW1 9980   4.628   1.655   1.881
 3027SOL    HW2 9981   4.587   1.649   2.039
 3028SOL     OW 9982   2.099   3.691   6.523
 3028SOL    HW1 9983   2.108   3.720   6.619
 3028SOL    HW2 9984   2.165   3.741   6.467
 3029SOL     OW 9985   0.782   2.472   4.345
 3029SOL    HW1 9986   0.716   2.401   4.370
 3029SOL    HW2 9987   0.822   2.449   4.256
 3030SOL     OW 9988   1.641   4.216   1.396
 3030SOL    HW1 9989   1.722   4.174   1.437
 3030SOL    HW2 9990   1.633   4.187   1.300
 3031SOL     OW 9991   1.386   5.466   1.214
 3031SOL    HW1 9992   1.346   5.378   1.186
 3031SOL    HW2 9993   1.347   5.493   1.302
 3032SOL     OW 9994   1.654   6.976   3.240
 3032SOL    HW1 9995   1.626   0.005   3.321
 3032SOL    HW2 9996   1.666   0.015   3.163
 3033SOL     OW 9997   6.318   3.020   3.962
 3033SOL    HW1 9998   6.374   2.952   3.915
 3033SOL    HW2 9999   6.289   2.985   4.051
 3034SOL     OW10000   0.645   5.965   3.690
 3034SOL    HW110001   0.561   6.012   3.716
 3034SOL    HW210002   0.649   5.876   3.736
 3035SOL     OW10003   1.324   2.584   6.348
 3035SOL    HW110004   1.424   2.587   6.336
 3035SOL    HW210005   1.280   2.584   6.259
 3036SOL     OW10006   1.639   2.178   6.256
 3036SOL    HW110007   1.617   2.081   6.269
 3036SOL    HW210008   1.578   2.234   6.312
 3037SOL     OW10009   0.640   4.949   6.004
 3037SOL    HW110010   0.586   4.880   6.052
 3037SOL    HW210011   0.598   4.967   5.915
 3038SOL     OW10012   5.242   5.302   6.234
 3038SOL    HW110013   5.237   5.400   6.216
 3038SOL    HW210014   5.259   5.288   6.332
 3039SOL     OW10015   6.378   3.208   0.426
 3039SOL    HW110016   6.325   3.235   0.507
 3039SOL    HW210017   6.436   3.130   0.449
 3040SOL     OW10018   3.693   4.113   5.710
 3040SOL    HW110019   3.664   4.045   5.642
 3040SOL    HW210020   3.752   4.181   5.666
 3041SOL     OW10021   1.717   4.150   4.719
 3041SOL    HW110022   1.759   4.071   4.675
 3041SOL    HW210023   1.645   4.119   4.781
 3042SOL     OW10024   0.384   4.793   3.079
 3042SOL    HW110025   0.462   4.854   3.068
 3042SOL    HW210026   0.388   4.748   3.168
 3043SOL     OW10027   2.567   3.087   0.611
 3043SOL    HW110028   2.561   3.126   0.703
 3043SOL    HW210029   2.616   3.000   0.615
 3044SOL     OW10030   3.610   3.282   4.801
 3044SOL    HW110031   3.656   3.370   4.785
 3044SOL    HW210032   3.565   3.252   4.717
 3045SOL     OW10033   5.026   1.182   3.193
 3045SOL    HW110034   5.050   1.278   3.180
 3045SOL    HW210035   4.930   1.175   3.220
 3046SOL     OW10036   5.319   5.419   0.561
 3046SOL    HW110037   5.304   5.473   0.478
 3046SOL    HW210038   5.311   5.322   0.540
 3047SOL     OW10039   6.169   0.074   0.279
 3047SOL    HW110040   6.075   0.094   0.307
 3047SOL    HW210041   6.232   0.119   0.342
 3048SOL     OW10042   4.509   3.243   1.080
 3048SOL    HW110043   4.598   3.263   1.039
 3048SOL    HW210044   4.522   3.194   1.166
 3049SOL     OW10045   0.943   0.615   4.295
 3049SOL    HW110046   0.894   0.581   4.216
 3049SOL    HW210047   0.924   0.556   4.374
 3050SOL     OW10048   2.710   2.328   1.405
 3050SOL    HW110049   2.669   2.407   1.450
 3050SOL    HW210050   2.785   2.358   1.346
 3051SOL     OW10051   3.263   6.682   5.247
 3051SOL    HW110052   3.340   6.745   5.243
 3051SOL    HW210053   3.190   6.714   5.186
 3052SOL     OW10054   5.936   6.112   2.299
 3052SOL    HW110055   5.875   6.191   2.296
 3052SOL    HW210056   6.000   6.122   2.375
 3053SOL     OW10057   1.917   4.038   0.167
 3053SOL    HW110058   1.825   4.009   0.195
 3053SOL    HW210059   1.910   4.095   0.085
 3054SOL     OW10060   5.418   1.247   3.178
 3054SOL    HW110061   5.495   1.255   3.114
 3054SOL    HW210062   5.332   1.260   3.128
 3055SOL     OW10063   6.251   6.341   6.384
 3055SOL    HW110064   6.321   6.299   6.327
 3055SOL    HW210065   6.265   6.440   6.386
 3056SOL     OW10066   5.173   1.998   5.977
 3056SOL    HW110067   5.095   2.054   6.002
 3056SOL    HW210068   5.178   1.988   5.878
 3057SOL     OW10069   5.350   5.898   3.486
 3057SOL    HW110070   5.394   5.987   3.485
 3057SOL    HW210071   5.417   5.827   3.468
 3058SOL     OW10072   5.930   4.228   0.504
 3058SOL    HW110073   5.876   4.178   0.572
 3058SOL    HW210074   5.876   4.303   0.466
 3059SOL     OW10075   2.294   2.651   4.430
 3059SOL    HW110076   2.368   2.634   4.494
 3059SOL    HW210077   2.285   2.574   4.367
 3060SOL     OW10078   2.959   4.715   5.863
 3060SOL    HW110079   2.882   4.652   5.859
 3060SOL    HW210080   2.943   4.782   5.935
 3061SOL     OW10081   5.328   4.935   5.630
 3061SOL    HW110082   5.323   5.008   5.563
 3061SOL    HW210083   5.413   4.943   5.682
 3062SOL     OW10084   4.170   4.578   1.660
 3062SOL    HW110085   4.149   4.480   1.666
 3062SOL    HW210086   4.106   4.621   1.597
 3063SOL     OW10087   0.709   4.306   1.154
 3063SOL    HW110088   0.614   4.275   1.164
 3063SOL    HW210089   0.715   4.403   1.181
 3064SOL     OW10090   3.834   2.459   6.767
 3064SOL    HW110091   3.862   2.380   6.822
 3064SOL    HW210092   3.752   2.500   6.806
 3065SOL     OW10093   1.145   0.885   6.772
 3065SOL    HW110094   1.134   0.982   6.794
 3065SOL    HW210095   1.242   0.861   6.774
 3066SOL     OW10096   4.821   5.271   5.345
 3066SOL    HW110097   4.866   5.204   5.404
 3066SOL    HW210098   4.855   5.363   5.367
 3067SOL     OW10099   2.552   1.531   6.539
 3067SOL    HW110100   2.519   1.485   6.622
 3067SOL    HW210101   2.619   1.600   6.563
 3068SOL     OW10102   0.702   1.623   1.392
 3068SOL    HW110103   0.676   1.612   1.488
 3068SOL    HW210104   0.627   1.668   1.343
 3069SOL     OW10105   5.286   0.062   3.196
 3069SOL    HW110106   5.198   0.079   3.152
 3069SOL    HW210107   5.296   6.988   3.215
 3070SOL     OW10108   2.984   1.506   6.904
 3070SOL    HW110109   2.929   1.479   6.983
 3070SOL    HW210110   2.972   1.438   6.831
 3071SOL     OW10111   6.966   3.639   3.683
 3071SOL    HW110112   6.880   3.668   3.725
 3071SOL    HW210113   6.984   3.543   3.705
 3072SOL     OW10114   1.866   6.080   0.067
 3072SOL    HW110115   1.853   6.071   6.992
 3072SOL    HW210116   1.868   5.990   0.109
 3073SOL     OW10117   6.607   5.079   0.455
 3073SOL    HW110118   6.599   5.086   0.554
 3073SOL    HW210119   6.661   5.155   0.420
 3074SOL     OW10120   1.247   3.833   0.527
 3074SOL    HW110121   1.218   3.806   0.619
 3074SOL    HW210122   1.222   3.761   0.462
 3075SOL     OW10123   2.567   5.216   3.644
 3075SOL    HW110124   2.629   5.293   3.656
 3075SOL    HW210125   2.570   5.157   3.724
 3076SOL     OW10126   0.338   1.617   4.979
 3076SOL    HW110127   0.411   1.656   4.923
 3076SOL    HW210128   0.275   1.567   4.919
 3077SOL     OW10129   6.256   3.402   1.659
 3077SOL    HW110130   6.279   3.452   1.743
 3077SOL    HW210131   6.165   3.429   1.628
 3078SOL     OW10132   6.441   3.106   1.662
 3078SOL    HW110133   6.448   3.120   1.760
 3078SOL    HW210134   6.354   3.142   1.628
 3079SOL     OW10135   2.215   2.480   4.931
 3079SOL    HW110136   2.174   2.471   5.022
 3079SOL    HW210137   2.258   2.570   4.923
 3080SOL     OW10138   4.389   4.862   1.190
 3080SOL    HW110139   4.450   4.935   1.220
 3080SOL    HW210140   4.364   4.805   1.269
 3081SOL     OW10141   1.434   4.218   0.396
 3081SOL    HW110142   1.370   4.192   0.323
 3081SOL    HW210143   1.387   4.213   0.485
 3082SOL     OW10144   3.301   5.225   4.436
 3082SOL    HW110145   3.339   5.158   4.372
 3082SOL    HW210146   3.369   5.297   4.452
 3083SOL     OW10147   2.645   5.524   2.717
 3083SOL    HW110148   2.741   5.523   2.746
 3083SOL    HW210149   2.586   5.534   2.797
 3084SOL     OW10150   0.666   3.684   3.208
 3084SOL    HW110151   0.598   3.611   3.207
 3084SOL    HW210152   0.643   3.750   3.280
 3085SOL     OW10153   4.607   5.110   1.010
 3085SOL    HW110154   4.625   5.206   0.990
 3085SOL    HW210155   4.509   5.093   1.012
 3086SOL     OW10156   6.065   1.046   6.941
 3086SOL    HW110157   6.006   1.049   6.860
 3086SOL    HW210158   6.053   1.130   6.994
 3087SOL     OW10159   2.620   6.395   2.016
 3087SOL    HW110160   2.615   6.306   1.971
 3087SOL    HW210161   2.530   6.420   2.052
 3088SOL     OW10162   0.343   2.969   5.417
 3088SOL    HW110163   0.252   2.934   5.395
 3088SOL    HW210164   0.411   2.922   5.361
 3089SOL     OW10165   5.034   0.705   4.554
 3089SOL    HW110166   5.015   0.670   4.645
 3089SOL    HW210167   5.000   0.798   4.546
 3090SOL     OW10168   1.107   1.389   1.327
 3090SOL    HW110169   1.194   1.350   1.356
 3090SOL    HW210170   1.122   1.450   1.249
 3091SOL     OW10171   0.981   1.596   0.608
 3091SOL    HW110172   0.945   1.627   0.521
 3091SOL    HW210173   0.908   1.555   0.663
 3092SOL     OW10174   5.236   6.660   2.282
 3092SOL    HW110175   5.281   6.662   2.372
 3092SOL    HW210176   5.236   6.567   2.247
 3093SOL     OW10177   5.759   5.516   6.323
 3093SOL    HW110178   5.753   5.423   6.286
 3093SOL    HW210179   5.854   5.538   6.344
 3094SOL     OW10180   2.782   0.946   5.556
 3094SOL    HW110181   2.705   1.000   5.523
 3094SOL    HW210182   2.790   0.862   5.503
 3095SOL     OW10183   2.740   3.198   5.274
 3095SOL    HW110184   2.801   3.163   5.203
 3095SOL    HW210185   2.651   3.154   5.267
 3096SOL     OW10186   0.586   3.573   5.099
 3096SOL    HW110187   0.560   3.500   5.163
 3096SOL    HW210188   0.540   3.558   5.011
 3097SOL     OW10189   6.045   2.216   6.717
 3097SOL    HW110190   6.062   2.118   6.725
 3097SOL    HW210191   5.977   2.232   6.646
 3098SOL     OW10192   1.980   1.601   2.170
 3098SOL    HW110193   2.046   1.584   2.098
 3098SOL    HW210194   1.989   1.695   2.203
 3099SOL     OW10195   0.696   6.410   3.766
 3099SOL    HW110196   0.700   6.508   3.747
 3099SOL    HW210197   0.764   6.362   3.710
 3100SOL     OW10198   6.114   6.542   2.984
 3100SOL    HW110199   6.110   6.616   3.050
 3100SOL    HW210200   6.033   6.545   2.925
 3101SOL     OW10201   4.273   6.692   6.057
 3101SOL    HW110202   4.364   6.722   6.028
 3101SOL    HW210203   4.279   6.599   6.092
 3102SOL     OW10204   0.439   5.650   0.398
 3102SOL    HW110205   0.395   5.691   0.318
 3102SOL    HW210206   0.459   5.554   0.379
 3103SOL     OW10207   3.647   0.119   1.083
 3103SOL    HW110208   3.629   0.212   1.051
 3103SOL    HW210209   3.744   0.098   1.072
 3104SOL     OW10210   4.720   0.296   6.263
 3104SOL    HW110211   4.699   0.233   6.189
 3104SOL    HW210212   4.646   0.362   6.274
 3105SOL     OW10213   5.189   2.956   0.247
 3105SOL    HW110214   5.272   2.959   0.302
 3105SOL    HW210215   5.119   2.901   0.294
 3106SOL     OW10216   5.648   0.815   4.939
 3106SOL    HW110217   5.569   0.875   4.923
 3106SOL    HW210218   5.699   0.804   4.853
 3107SOL     OW10219   4.816   1.619   4.993
 3107SOL    HW110220   4.815   1.634   4.894
 3107SOL    HW210221   4.728   1.581   5.022
 3108SOL     OW10222   2.529   4.539   4.508
 3108SOL    HW110223   2.487   4.519   4.597
 3108SOL    HW210224   2.619   4.579   4.522
 3109SOL     OW10225   6.325   0.152   4.484
 3109SOL    HW110226   6.253   0.114   4.425
 3109SOL    HW210227   6.286   0.222   4.543
 3110SOL     OW10228   2.296   4.877   3.768
 3110SOL    HW110229   2.337   4.809   3.707
 3110SOL    HW210230   2.282   4.837   3.859
 3111SOL     OW10231   6.387   4.816   5.052
 3111SOL    HW110232   6.470   4.839   5.102
 3111SOL    HW210233   6.331   4.898   5.041
 3112SOL     OW10234   3.962   2.838   0.327
 3112SOL    HW110235   3.984   2.757   0.273
 3112SOL    HW210236   3.864   2.839   0.347
 3113SOL     OW10237   2.584   5.971   2.741
 3113SOL    HW110238   2.501   6.024   2.728
 3113SOL    HW210239   2.569   5.901   2.811
 3114SOL     OW10240   3.717   1.604   0.132
 3114SOL    HW110241   3.716   1.520   0.078
 3114SOL    HW210242   3.629   1.616   0.177
 3115SOL     OW10243   4.270   4.315   5.393
 3115SOL    HW110244   4.284   4.369   5.310
 3115SOL    HW210245   4.260   4.377   5.471
 3116SOL     OW10246   0.265   2.255   0.967
 3116SOL    HW110247   0.328   2.219   0.898
 3116SOL    HW210248   0.296   2.346   0.996
 3117SOL     OW10249   5.014   2.043   5.620
 3117SOL    HW110250   4.946   2.098   5.669
 3117SOL    HW210251   4.993   1.946   5.630
 3118SOL     OW10252   1.401   0.419   2.985
 3118SOL    HW110253   1.478   0.377   2.938
 3118SOL    HW210254   1.434   0.474   3.062
 3119SOL     OW10255   3.938   2.633   5.827
 3119SOL    HW110256   3.971   2.557   5.771
 3119SOL    HW210257   3.867   2.683   5.777
 3120SOL     OW10258   3.010   0.422   4.861
 3120SOL    HW110259   3.106   0.391   4.860
 3120SOL    HW210260   2.995   0.479   4.942
 3121SOL     OW10261   4.939   2.102   4.185
 3121SOL    HW110262   5.004   2.178   4.195
 3121SOL    HW210263   4.981   2.028   4.132
 3122SOL     OW10264   4.391   4.621   4.261
 3122SOL    HW110265   4.400   4.522   4.271
 3122SOL    HW210266   4.339   4.642   4.178
 3123SOL     OW10267   2.069   1.606   3.247
 3123SOL    HW110268   2.161   1.647   3.251
 3123SOL    HW210269   2.074   1.510   3.274
 3124SOL     OW10270   5.179   6.255   4.859
 3124SOL    HW110271   5.147   6.197   4.933
 3124SOL    HW210272   5.193   6.199   4.777
 3125SOL     OW10273   1.129   3.133   4.935
 3125SOL    HW110274   1.095   3.040   4.946
 3125SOL    HW210275   1.186   3.138   4.852
 3126SOL     OW10276   5.768   5.724   4.478
 3126SOL    HW110277   5.799   5.654   4.543
 3126SOL    HW210278   5.669   5.716   4.466
 3127SOL     OW10279   0.824   2.391   4.668
 3127SOL    HW110280   0.886   2.313   4.658
 3127SOL    HW210281   0.740   2.373   4.618
 3128SOL     OW10282   3.511   0.150   0.520
 3128SOL    HW110283   3.443   0.219   0.494
 3128SOL    HW210284   3.477   0.099   0.600
 3129SOL     OW10285   5.079   3.224   1.037
 3129SOL    HW110286   5.107   3.160   1.108
 3129SOL    HW210287   5.017   3.292   1.076
 3130SOL     OW10288   1.811   3.870   1.194
 3130SOL    HW110289   1.824   3.964   1.161
 3130SOL    HW210290   1.742   3.824   1.139
 3131SOL     OW10291   0.016   3.926   1.788
 3131SOL    HW110292   6.990   3.966   1.710
 3131SOL    HW210293   0.062   3.998   1.839
 3132SOL     OW10294   3.758   4.641   0.471
 3132SOL    HW110295   3.784   4.641   0.375
 3132SOL    HW210296   3.697   4.564   0.490
 3133SOL     OW10297   3.692   0.356   3.256
 3133SOL    HW110298   3.697   0.348   3.156
 3133SOL    HW210299   3.716   0.269   3.298
 3134SOL     OW10300   3.082   4.784   1.908
 3134SOL    HW110301   3.003   4.765   1.850
 3134SOL    HW210302   3.165   4.749   1.864
 3135SOL     OW10303   5.278   6.662   6.048
 3135SOL    HW110304   5.212   6.705   5.987
 3135SOL    HW210305   5.249   6.674   6.143
 3136SOL     OW10306   6.153   1.105   2.396
 3136SOL    HW110307   6.126   1.145   2.483
 3136SOL    HW210308   6.075   1.106   2.333
 3137SOL     OW10309   6.315   0.229   0.934
 3137SOL    HW110310   6.412   0.210   0.922
 3137SOL    HW210311   6.261   0.157   0.890
 3138SOL     OW10312   5.714   5.922   3.954
 3138SOL    HW110313   5.697   5.957   3.862
 3138SOL    HW210314   5.704   5.822   3.954
 3139SOL     OW10315   2.575   4.733   1.439
 3139SOL    HW110316   2.578   4.633   1.442
 3139SOL    HW210317   2.557   4.769   1.531
 3140SOL     OW10318   5.970   6.616   5.830
 3140SOL    HW110319   5.936   6.549   5.896
 3140SOL    HW210320   5.973   6.706   5.873
 3141SOL     OW10321   0.489   2.457   0.142
 3141SOL    HW110322   0.458   2.403   0.064
 3141SOL    HW210323   0.528   2.543   0.110
 3142SOL     OW10324   4.600   0.759   2.724
 3142SOL    HW110325   4.542   0.793   2.650
 3142SOL    HW210326   4.695   0.755   2.693
 3143SOL     OW10327   5.933   2.138   0.364
 3143SOL    HW110328   5.855   2.107   0.311
 3143SOL    HW210329   5.991   2.196   0.307
 3144SOL     OW10330   4.504   3.782   6.498
 3144SOL    HW110331   4.496   3.766   6.596
 3144SOL    HW210332   4.532   3.877   6.482
 3145SOL     OW10333   2.864   6.496   1.960
 3145SOL    HW110334   2.907   6.536   2.041
 3145SOL    HW210335   2.768   6.475   1.981
 3146SOL     OW10336   0.611   0.999   4.823
 3146SOL    HW110337   0.591   0.933   4.896
 3146SOL    HW210338   0.709   1.004   4.808
 3147SOL     OW10339   3.485   5.164   6.683
 3147SOL    HW110340   3.396   5.131   6.716
 3147SOL    HW210341   3.551   5.088   6.685
 3148SOL     OW10342   0.466   6.505   2.879
 3148SOL    HW110343   0.409   6.424   2.867
 3148SOL    HW210344   0.445   6.547   2.967
 3149SOL     OW10345   3.272   1.562   0.131
 3149SOL    HW110346   3.218   1.634   0.174
 3149SOL    HW210347   3.223   1.475   0.138
 3150SOL     OW10348   6.462   6.121   5.036
 3150SOL    HW110349   6.487   6.170   4.953
 3150SOL    HW210350   6.501   6.029   5.034
 3151SOL     OW10351   6.477   1.664   6.000
 3151SOL    HW110352   6.475   1.749   6.054
 3151SOL    HW210353   6.557   1.664   5.941
 3152SOL     OW10354   1.470   4.051   6.511
 3152SOL    HW110355   1.416   4.135   6.520
 3152SOL    HW210356   1.507   4.026   6.600
 3153SOL     OW10357   6.708   5.324   0.370
 3153SOL    HW110358   6.619   5.351   0.406
 3153SOL    HW210359   6.771   5.402   0.378
 3154SOL     OW10360   6.315   1.373   1.687
 3154SOL    HW110361   6.317   1.340   1.593
 3154SOL    HW210362   6.264   1.309   1.744
 3155SOL     OW10363   6.368   4.695   0.317
 3155SOL    HW110364   6.321   4.777   0.350
 3155SOL    HW210365   6.305   4.617   0.322
 3156SOL     OW10366   3.523   4.174   2.345
 3156SOL    HW110367   3.493   4.215   2.258
 3156SOL    HW210368   3.622   4.182   2.353
 3157SOL     OW10369   1.109   2.046   5.153
 3157SOL    HW110370   1.140   1.965   5.103
 3157SOL    HW210371   1.183   2.113   5.157
 3158SOL     OW10372   2.809   2.343   5.756
 3158SOL    HW110373   2.799   2.244   5.764
 3158SOL    HW210374   2.730   2.389   5.795
 3159SOL     OW10375   4.613   6.902   0.757
 3159SOL    HW110376   4.524   6.940   0.783
 3159SOL    HW210377   4.634   6.928   0.663
 3160SOL     OW10378   2.130   0.011   5.413
 3160SOL    HW110379   2.121   6.935   5.413
 3160SOL    HW210380   2.082   0.049   5.492
 3161SOL     OW10381   1.925   2.821   2.648
 3161SOL    HW110382   1.847   2.880   2.671
 3161SOL    HW210383   2.010   2.873   2.656
 3162SOL     OW10384   2.163   5.288   6.932
 3162SOL    HW110385   2.137   5.380   6.963
 3162SOL    HW210386   2.234   5.296   6.862
 3163SOL     OW10387   4.496   3.606   0.088
 3163SOL    HW110388   4.399   3.618   0.109
 3163SOL    HW210389   4.538   3.695   0.069
 3164SOL     OW10390   2.928   5.747   2.476
 3164SOL    HW110391   2.893   5.831   2.517
 3164SOL    HW210392   2.952   5.764   2.380
 3165SOL     OW10393   0.692   5.215   0.307
 3165SOL    HW110394   0.664   5.119   0.318
 3165SOL    HW210395   0.791   5.222   0.323
 3166SOL     OW10396   4.341   1.241   4.277
 3166SOL    HW110397   4.325   1.312   4.346
 3166SOL    HW210398   4.308   1.153   4.311
 3167SOL     OW10399   4.997   4.164   0.346
 3167SOL    HW110400   5.053   4.215   0.412
 3167SOL    HW210401   4.940   4.098   0.395
 3168SOL     OW10402   4.808   2.894   1.175
 3168SOL    HW110403   4.838   2.803   1.206
 3168SOL    HW210404   4.869   2.927   1.103
 3169SOL     OW10405   1.464   4.841   2.310
 3169SOL    HW110406   1.396   4.790   2.258
 3169SOL    HW210407   1.532   4.778   2.348
 3170SOL     OW10408   3.963   6.168   2.421
 3170SOL    HW110409   3.867   6.149   2.399
 3170SOL    HW210410   4.007   6.214   2.344
 3171SOL     OW10411   5.187   3.097   2.148
 3171SOL    HW110412   5.230   3.123   2.062
 3171SOL    HW210413   5.172   3.179   2.203
 3172SOL     OW10414   0.182   4.592   6.847
 3172SOL    HW110415   0.085   4.601   6.868
 3172SOL    HW210416   0.197   4.509   6.793
 3173SOL     OW10417   2.785   1.688   6.595
 3173SOL    HW110418   2.756   1.710   6.502
 3173SOL    HW210419   2.881   1.658   6.593
 3174SOL     OW10420   2.576   2.455   5.823
 3174SOL    HW110421   2.551   2.394   5.748
 3174SOL    HW210422   2.515   2.440   5.900
 3175SOL     OW10423   6.827   1.425   3.167
 3175SOL    HW110424   6.795   1.352   3.107
 3175SOL    HW210425   6.881   1.490   3.114
 3176SOL     OW10426   0.070   3.762   4.850
 3176SOL    HW110427   0.093   3.855   4.821
 3176SOL    HW210428   0.109   3.697   4.785
 3177SOL     OW10429   5.416   4.270   3.252
 3177SOL    HW110430   5.484   4.256   3.324
 3177SOL    HW210431   5.436   4.209   3.175
 3178SOL     OW10432   5.295   1.953   0.319
 3178SOL    HW110433   5.359   2.008   0.266
 3178SOL    HW210434   5.319   1.857   0.312
 3179SOL     OW10435   1.427   1.652   2.452
 3179SOL    HW110436   1.328   1.646   2.465
 3179SOL    HW210437   1.473   1.644   2.540
 3180SOL     OW10438   5.755   6.499   6.808
 3180SOL    HW110439   5.844   6.454   6.819
 3180SOL    HW210440   5.682   6.430   6.810
 3181SOL     OW10441   0.044   1.629   4.261
 3181SOL    HW110442   6.989   1.686   4.235
 3181SOL    HW210443   0.125   1.660   4.213
 3182SOL     OW10444   3.213   0.346   0.732
 3182SOL    HW110445   3.172   0.273   0.678
 3182SOL    HW210446   3.253   0.414   0.672
 3183SOL     OW10447   4.596   4.888   2.298
 3183SOL    HW110448   4.682   4.840   2.320
 3183SOL    HW210449   4.617   4.975   2.254
 3184SOL     OW10450   0.450   2.085   3.728
 3184SOL    HW110451   0.453   2.065   3.630
 3184SOL    HW210452   0.457   2.000   3.779
 3185SOL     OW10453   6.600   6.695   5.301
 3185SOL    HW110454   6.666   6.694   5.377
 3185SOL    HW210455   6.520   6.748   5.328
 3186SOL     OW10456   1.840   0.783   6.826
 3186SOL    HW110457   1.823   0.685   6.817
 3186SOL    HW210458   1.807   0.815   6.915
 3187SOL     OW10459   3.590   5.152   2.300
 3187SOL    HW110460   3.517   5.125   2.363
 3187SOL    HW210461   3.551   5.169   2.210
 3188SOL     OW10462   1.942   5.106   4.905
 3188SOL    HW110463   1.977   5.074   4.818
 3188SOL    HW210464   1.848   5.139   4.893
 3189SOL     OW10465   2.227   0.896   0.291
 3189SOL    HW110466   2.208   0.895   0.193
 3189SOL    HW210467   2.314   0.942   0.307
 3190SOL     OW10468   6.429   5.393   5.995
 3190SOL    HW110469   6.373   5.378   5.913
 3190SOL    HW210470   6.369   5.416   6.072
 3191SOL     OW10471   4.609   5.510   2.267
 3191SOL    HW110472   4.597   5.531   2.364
 3191SOL    HW210473   4.521   5.512   2.220
 3192SOL     OW10474   0.149   2.768   1.564
 3192SOL    HW110475   0.158   2.821   1.480
 3192SOL    HW210476   0.155   2.829   1.643
 3193SOL     OW10477   3.868   1.094   5.175
 3193SOL    HW110478   3.963   1.065   5.183
 3193SOL    HW210479   3.864   1.184   5.132
 3194SOL     OW10480   0.927   1.247   5.639
 3194SOL    HW110481   0.938   1.229   5.542
 3194SOL    HW210482   0.912   1.160   5.687
 3195SOL     OW10483   0.632   1.681   1.923
 3195SOL    HW110484   0.683   1.710   2.005
 3195SOL    HW210485   0.611   1.584   1.930
 3196SOL     OW10486   6.869   0.860   6.015
 3196SOL    HW110487   6.916   0.923   5.953
 3196SOL    HW210488   6.863   0.769   5.973
 3197SOL     OW10489   2.563   6.680   5.534
 3197SOL    HW110490   2.472   6.675   5.492
 3197SOL    HW210491   2.625   6.728   5.473
 3198SOL     OW10492   6.385   2.060   3.942
 3198SOL    HW110493   6.286   2.074   3.939
 3198SOL    HW210494   6.424   2.113   4.017
 3199SOL     OW10495   5.363   5.048   3.006
 3199SOL    HW110496   5.267   5.032   2.981
 3199SOL    HW210497   5.376   5.027   3.103
 3200SOL     OW10498   6.342   3.293   4.048
 3200SOL    HW110499   6.358   3.196   4.031
 3200SOL    HW210500   6.402   3.348   3.990
 3201SOL     OW10501   6.431   4.567   3.406
 3201SOL    HW110502   6.486   4.629   3.462
 3201SOL    HW210503   6.378   4.506   3.466
 3202SOL     OW10504   1.257   5.034   0.845
 3202SOL    HW110505   1.326   5.106   0.846
 3202SOL    HW210506   1.169   5.072   0.875
 3203SOL     OW10507   4.574   0.834   1.353
 3203SOL    HW110508   4.644   0.869   1.415
 3203SOL    HW210509   4.594   0.738   1.331
 3204SOL     OW10510   2.986   1.857   3.404
 3204SOL    HW110511   3.079   1.883   3.378
 3204SOL    HW210512   2.978   1.757   3.406
 3205SOL     OW10513   5.312   3.538   6.063
 3205SOL    HW110514   5.223   3.502   6.032
 3205SOL    HW210515   5.383   3.472   6.041
 3206SOL     OW10516   2.933   3.041   1.474
 3206SOL    HW110517   2.908   3.008   1.566
 3206SOL    HW210518   2.941   2.963   1.412
 3207SOL     OW10519   0.797   0.829   5.987
 3207SOL    HW110520   0.708   0.788   6.007
 3207SOL    HW210521   0.848   0.842   6.072
 3208SOL     OW10522   5.861   5.328   6.114
 3208SOL    HW110523   5.879   5.232   6.134
 3208SOL    HW210524   5.936   5.365   6.059
 3209SOL     OW10525   3.888   5.634   5.189
 3209SOL    HW110526   3.929   5.684   5.112
 3209SOL    HW210527   3.943   5.553   5.209
 3210SOL     OW10528   0.227   5.195   1.454
 3210SOL    HW110529   0.135   5.173   1.486
 3210SOL    HW210530   0.221   5.245   1.368
 3211SOL     OW10531   1.846   4.730   0.674
 3211SOL    HW110532   1.917   4.725   0.745
 3211SOL    HW210533   1.790   4.647   0.677
 3212SOL     OW10534   3.261   6.913   2.668
 3212SOL    HW110535   3.310   6.998   2.686
 3212SOL    HW210536   3.162   6.930   2.675
 3213SOL     OW10537   1.713   0.387   6.106
 3213SOL    HW110538   1.715   0.474   6.154
 3213SOL    HW210539   1.801   0.341   6.116
 3214SOL     OW10540   4.879   6.684   3.556
 3214SOL    HW110541   4.834   6.614   3.500
 3214SOL    HW210542   4.846   6.774   3.529
 3215SOL     OW10543   0.535   3.433   0.112
 3215SOL    HW110544   0.561   3.351   0.164
 3215SOL    HW210545   0.485   3.406   0.030
 3216SOL     OW10546   5.686   5.358   1.243
 3216SOL    HW110547   5.778   5.320   1.231
 3216SOL    HW210548   5.658   5.404   1.159
 3217SOL     OW10549   0.072   5.281   2.900
 3217SOL    HW110550   0.051   5.253   2.806
 3217SOL    HW210551   0.016   5.228   2.964
 3218SOL     OW10552   5.612   2.337   3.529
 3218SOL    HW110553   5.664   2.410   3.573
 3218SOL    HW210554   5.663   2.303   3.450
 3219SOL     OW10555   6.821   1.254   5.127
 3219SOL    HW110556   6.916   1.269   5.153
 3219SOL    HW210557   6.762   1.314   5.182
 3220SOL     OW10558   0.542   5.784   6.675
 3220SOL    HW110559   0.536   5.717   6.601
 3220SOL    HW210560   0.462   5.777   6.734
 3221SOL     OW10561   4.002   0.201   2.593
 3221SOL    HW110562   3.930   0.141   2.628
 3221SOL    HW210563   3.998   0.201   2.493
 3222SOL     OW10564   2.759   1.434   3.193
 3222SOL    HW110565   2.829   1.504   3.212
 3222SOL    HW210566   2.726   1.397   3.280
 3223SOL     OW10567   2.001   6.678   0.494
 3223SOL    HW110568   2.062   6.706   0.569
 3223SOL    HW210569   1.908   6.668   0.529
 3224SOL     OW10570   5.291   2.370   5.333
 3224SOL    HW110571   5.383   2.373   5.293
 3224SOL    HW210572   5.290   2.420   5.419
 3225SOL     OW10573   4.362   1.197   4.988
 3225SOL    HW110574   4.378   1.162   4.896
 3225SOL    HW210575   4.427   1.271   5.008
 3226SOL     OW10576   1.839   0.212   2.101
 3226SOL    HW110577   1.771   0.141   2.082
 3226SOL    HW210578   1.894   0.228   2.020
 3227SOL     OW10579   3.572   2.312   6.472
 3227SOL    HW110580   3.519   2.229   6.491
 3227SOL    HW210581   3.602   2.352   6.559
 3228SOL     OW10582   0.163   3.913   0.349
 3228SOL    HW110583   0.249   3.956   0.321
 3228SOL    HW210584   0.175   3.814   0.352
 3229SOL     OW10585   3.188   0.743   5.608
 3229SOL    HW110586   3.244   0.712   5.531
 3229SOL    HW210587   3.176   0.669   5.673
 3230SOL     OW10588   2.116   5.650   6.399
 3230SOL    HW110589   2.153   5.640   6.491
 3230SOL    HW210590   2.178   5.606   6.334
 3231SOL     OW10591   3.177   1.123   2.466
 3231SOL    HW110592   3.254   1.062   2.484
 3231SOL    HW210593   3.145   1.164   2.551
 3232SOL     OW10594   3.953   5.879   3.663
 3232SOL    HW110595   4.039   5.915   3.626
 3232SOL    HW210596   3.880   5.891   3.595
 3233SOL     OW10597   6.644   3.091   0.999
 3233SOL    HW110598   6.647   3.134   1.089
 3233SOL    HW210599   6.723   3.119   0.946
 3234SOL     OW10600   1.887   2.578   0.088
 3234SOL    HW110601   1.825   2.590   0.010
 3234SOL    HW210602   1.837   2.539   0.165
 3235SOL     OW10603   6.280   5.884   1.759
 3235SOL    HW110604   6.206   5.825   1.727
 3235SOL    HW210605   6.299   5.864   1.855
 3236SOL     OW10606   2.063   3.838   0.219
 3236SOL    HW110607   2.154   3.864   0.188
 3236SOL    HW210608   1.998   3.912   0.197
 3237SOL     OW10609   6.467   1.913   4.172
 3237SOL    HW110610   6.447   1.921   4.074
 3237SOL    HW210611   6.389   1.948   4.224
 3238SOL     OW10612   6.218   5.290   0.411
 3238SOL    HW110613   6.286   5.343   0.462
 3238SOL    HW210614   6.252   5.197   0.396
 3239SOL     OW10615   6.938   0.328   3.845
 3239SOL    HW110616   6.868   0.289   3.785
 3239SOL    HW210617   6.992   0.254   3.886
 3240SOL     OW10618   0.073   0.746   6.100
 3240SOL    HW110619   7.022   0.801   6.062
 3240SOL    HW210620   0.089   0.666   6.042
 3241SOL     OW10621   4.795   1.876   6.418
 3241SOL    HW110622   4.714   1.858   6.473
 3241SOL    HW210623   4.796   1.816   6.338
 3242SOL     OW10624   4.792   4.052   5.996
 3242SOL    HW110625   4.782   4.040   5.897
 3242SOL    HW210626   4.767   3.967   6.042
 3243SOL     OW10627   4.786   4.764   0.089
 3243SOL    HW110628   4.835   4.762   0.002
 3243SOL    HW210629   4.790   4.674   0.132
 3244SOL     OW10630   5.611   6.167   0.115
 3244SOL    HW110631   5.697   6.212   0.136
 3244SOL    HW210632   5.581   6.191   0.023
 3245SOL     OW10633   4.624   2.497   4.354
 3245SOL    HW110634   4.696   2.462   4.295
 3245SOL    HW210635   4.633   2.459   4.446
 3246SOL     OW10636   6.740   0.149   2.958
 3246SOL    HW110637   6.695   0.064   2.984
 3246SOL    HW210638   6.705   0.224   3.015
 3247SOL     OW10639   6.919   4.828   2.525
 3247SOL    HW110640   6.957   4.913   2.561
 3247SOL    HW210641   6.874   4.845   2.437
 3248SOL     OW10642   5.452   2.674   2.152
 3248SOL    HW110643   5.502   2.606   2.099
 3248SOL    HW210644   5.461   2.764   2.108
 3249SOL     OW10645   3.940   3.766   4.059
 3249SOL    HW110646   3.851   3.793   4.095
 3249SOL    HW210647   4.003   3.748   4.134
 3250SOL     OW10648   5.007   6.248   3.535
 3250SOL    HW110649   4.909   6.229   3.539
 3250SOL    HW210650   5.026   6.335   3.579
 3251SOL     OW10651   2.743   1.218   4.431
 3251SOL    HW110652   2.827   1.166   4.443
 3251SOL    HW210653   2.668   1.173   4.480
 3252SOL     OW10654   3.047   1.275   2.674
 3252SOL    HW110655   3.035   1.242   2.768
 3252SOL    HW210656   2.975   1.340   2.652
 3253SOL     OW10657   4.401   3.763   1.374
 3253SOL    HW110658   4.479   3.716   1.415
 3253SOL    HW210659   4.317   3.712   1.393
 3254SOL     OW10660   5.050   6.915   6.163
 3254SOL    HW110661   5.000   6.845   6.214
 3254SOL    HW210662   5.146   6.914   6.190
 3255SOL     OW10663   5.890   6.090   0.979
 3255SOL    HW110664   5.989   6.082   0.990
 3255SOL    HW210665   5.869   6.170   0.923
 3256SOL     OW10666   4.482   2.279   1.430
 3256SOL    HW110667   4.551   2.213   1.401
 3256SOL    HW210668   4.408   2.281   1.364
 3257SOL     OW10669   3.071   2.067   1.977
 3257SOL    HW110670   3.157   2.109   2.008
 3257SOL    HW210671   3.004   2.139   1.960
 3258SOL     OW10672   3.225   5.277   3.396
 3258SOL    HW110673   3.126   5.269   3.387
 3258SOL    HW210674   3.260   5.341   3.328
 3259SOL     OW10675   5.224   5.060   4.227
 3259SOL    HW110676   5.136   5.016   4.214
 3259SOL    HW210677   5.290   4.993   4.262
 3260SOL     OW10678   1.760   4.091   2.380
 3260SOL    HW110679   1.777   4.039   2.296
 3260SOL    HW210680   1.683   4.051   2.429
 3261SOL     OW10681   5.121   0.610   2.255
 3261SOL    HW110682   5.205   0.659   2.234
 3261SOL    HW210683   5.136   0.511   2.247
 3262SOL     OW10684   3.981   2.082   2.418
 3262SOL    HW110685   3.897   2.047   2.459
 3262SOL    HW210686   3.980   2.065   2.320
 3263SOL     OW10687   3.331   1.320   3.908
 3263SOL    HW110688   3.346   1.358   3.999
 3263SOL    HW210689   3.393   1.242   3.894
 3264SOL     OW10690   1.996   5.044   0.723
 3264SOL    HW110691   1.928   5.095   0.776
 3264SOL    HW210692   2.009   4.954   0.763
 3265SOL     OW10693   5.785   6.004   5.770
 3265SOL    HW110694   5.828   5.996   5.860
 3265SOL    HW210695   5.773   6.100   5.747
 3266SOL     OW10696   2.936   4.590   6.993
 3266SOL    HW110697   2.871   4.617   6.923
 3266SOL    HW210698   2.981   4.505   6.966
 3267SOL     OW10699   3.449   0.440   2.011
 3267SOL    HW110700   3.402   0.461   1.925
 3267SOL    HW210701   3.444   0.342   2.029
 3268SOL     OW10702   1.002   4.873   1.564
 3268SOL    HW110703   0.932   4.921   1.618
 3268SOL    HW210704   0.959   4.829   1.485
 3269SOL     OW10705   0.461   5.085   2.301
 3269SOL    HW110706   0.415   5.165   2.338
 3269SOL    HW210707   0.461   5.089   2.201
 3270SOL     OW10708   1.682   2.861   6.354
 3270SOL    HW110709   1.751   2.872   6.426
 3270SOL    HW210710   1.718   2.896   6.268
 3271SOL     OW10711   6.773   3.404   1.685
 3271SOL    HW110712   6.739   3.329   1.628
 3271SOL    HW210713   6.747   3.388   1.780
 3272SOL     OW10714   3.504   4.478   6.813
 3272SOL    HW110715   3.438   4.509   6.745
 3272SOL    HW210716   3.456   4.443   6.893
 3273SOL     OW10717   5.419   4.690   5.975
 3273SOL    HW110718   5.426   4.599   6.017
 3273SOL    HW210719   5.330   4.700   5.931
 3274SOL     OW10720   5.925   0.264   0.779
 3274SOL    HW110721   5.843   0.286   0.726
 3274SOL    HW210722   5.908   0.181   0.832
 3275SOL     OW10723   4.361   1.031   0.620
 3275SOL    HW110724   4.429   0.959   0.602
 3275SOL    HW210725   4.409   1.117   0.639
 3276SOL     OW10726   4.437   6.776   0.228
 3276SOL    HW110727   4.454   6.703   0.294
 3276SOL    HW210728   4.524   6.814   0.197
 3277SOL     OW10729   3.127   1.170   0.985
 3277SOL    HW110730   3.181   1.244   0.946
 3277SOL    HW210731   3.093   1.111   0.911
 3278SOL     OW10732   0.114   0.502   5.948
 3278SOL    HW110733   0.058   0.426   5.982
 3278SOL    HW210734   0.211   0.481   5.962
 3279SOL     OW10735   4.810   6.891   1.136
 3279SOL    HW110736   4.801   6.800   1.177
 3279SOL    HW210737   4.855   6.952   1.201
 3280SOL     OW10738   4.878   4.459   4.006
 3280SOL    HW110739   4.877   4.511   4.092
 3280SOL    HW210740   4.882   4.362   4.026
 3281SOL     OW10741   0.193   4.680   1.029
 3281SOL    HW110742   0.210   4.773   0.998
 3281SOL    HW210743   0.128   4.635   0.968
 3282SOL     OW10744   0.364   3.893   5.211
 3282SOL    HW110745   0.280   3.873   5.262
 3282SOL    HW210746   0.440   3.842   5.251
 3283SOL     OW10747   4.009   1.219   1.194
 3283SOL    HW110748   4.064   1.143   1.160
 3283SOL    HW210749   3.989   1.282   1.119
 3284SOL     OW10750   1.058   5.433   4.834
 3284SOL    HW110751   1.094   5.494   4.905
 3284SOL    HW210752   1.109   5.448   4.749
 3285SOL     OW10753   5.787   1.879   4.694
 3285SOL    HW110754   5.738   1.791   4.691
 3285SOL    HW210755   5.788   1.913   4.788
 3286SOL     OW10756   3.289   2.452   1.557
 3286SOL    HW110757   3.370   2.506   1.535
 3286SOL    HW210758   3.240   2.429   1.473
 3287SOL     OW10759   0.390   0.169   0.299
 3287SOL    HW110760   0.427   0.083   0.336
 3287SOL    HW210761   0.356   0.153   0.207
 3288SOL     OW10762   2.074   6.783   0.890
 3288SOL    HW110763   2.100   6.711   0.955
 3288SOL    HW210764   1.974   6.787   0.884
 3289SOL     OW10765   2.819   1.699   6.309
 3289SOL    HW110766   2.845   1.791   6.337
 3289SOL    HW210767   2.887   1.663   6.245
 3290SOL     OW10768   0.015   5.465   0.790
 3290SOL    HW110769   7.021   5.436   0.696
 3290SOL    HW210770   6.990   5.404   0.853
 3291SOL     OW10771   3.448   0.671   5.803
 3291SOL    HW110772   3.499   0.594   5.764
 3291SOL    HW210773   3.367   0.637   5.850
 3292SOL     OW10774   0.041   1.214   1.019
 3292SOL    HW110775   0.032   1.121   1.054
 3292SOL    HW210776   0.018   1.279   1.092
 3293SOL     OW10777   6.677   4.945   1.805
 3293SOL    HW110778   6.721   4.879   1.743
 3293SOL    HW210779   6.586   4.967   1.770
 3294SOL     OW10780   5.503   1.856   5.756
 3294SOL    HW110781   5.424   1.828   5.702
 3294SOL    HW210782   5.492   1.951   5.785
 3295SOL     OW10783   1.762   3.371   1.011
 3295SOL    HW110784   1.809   3.459   1.019
 3295SOL    HW210785   1.774   3.335   0.918
 3296SOL     OW10786   6.968   0.527   4.698
 3296SOL    HW110787   6.912   0.445   4.703
 3296SOL    HW210788   6.912   0.607   4.721
 3297SOL     OW10789   3.482   1.715   5.100
 3297SOL    HW110790   3.476   1.809   5.134
 3297SOL    HW210791   3.405   1.662   5.137
 3298SOL     OW10792   6.651   2.813   5.671
 3298SOL    HW110793   6.606   2.780   5.754
 3298SOL    HW210794   6.668   2.911   5.680
 3299SOL     OW10795   4.364   5.995   3.006
 3299SOL    HW110796   4.318   6.076   2.970
 3299SOL    HW210797   4.446   5.977   2.952
 3300SOL     OW10798   1.515   0.588   5.610
 3300SOL    HW110799   1.556   0.674   5.640
 3300SOL    HW210800   1.506   0.526   5.688
 3301SOL     OW10801   1.717   3.879   3.387
 3301SOL    HW110802   1.663   3.953   3.348
 3301SOL    HW210803   1.808   3.913   3.412
 3302SOL     OW10804   1.736   4.433   6.992
 3302SOL    HW110805   1.642   4.453   6.966
 3302SOL    HW210806   1.793   4.513   6.976
 3303SOL     OW10807   3.571   3.209   0.398
 3303SOL    HW110808   3.493   3.157   0.363
 3303SOL    HW210809   3.561   3.223   0.496
 3304SOL     OW10810   2.074   5.162   5.909
 3304SOL    HW110811   2.157   5.148   5.856
 3304SOL    HW210812   2.089   5.234   5.977
 3305SOL     OW10813   3.266   0.545   1.851
 3305SOL    HW110814   3.205   0.480   1.806
 3305SOL    HW210815   3.214   0.599   1.917
 3306SOL     OW10816   1.145   6.032   5.790
 3306SOL    HW110817   1.143   5.945   5.837
 3306SOL    HW210818   1.239   6.069   5.791
 3307SOL     OW10819   0.992   6.959   5.779
 3307SOL    HW110820   1.015   6.885   5.843
 3307SOL    HW210821   0.980   0.021   5.830
 3308SOL     OW10822   3.644   5.067   1.224
 3308SOL    HW110823   3.637   5.056   1.324
 3308SOL    HW210824   3.656   4.978   1.182
 3309SOL     OW10825   5.826   4.526   3.478
 3309SOL    HW110826   5.879   4.605   3.510
 3309SOL    HW210827   5.754   4.556   3.415
 3310SOL     OW10828   0.312   4.177   4.692
 3310SOL    HW110829   0.375   4.110   4.654
 3310SOL    HW210830   0.313   4.259   4.636
 3311SOL     OW10831   3.345   2.954   1.042
 3311SOL    HW110832   3.276   3.025   1.032
 3311SOL    HW210833   3.305   2.865   1.020
 3312SOL     OW10834   4.265   2.867   5.752
 3312SOL    HW110835   4.203   2.797   5.717
 3312SOL    HW210836   4.295   2.925   5.676
 3313SOL     OW10837   0.557   0.496   3.200
 3313SOL    HW110838   0.522   0.571   3.143
 3313SOL    HW210839   0.649   0.472   3.171
 3314SOL     OW10840   2.779   0.417   2.473
 3314SOL    HW110841   2.857   0.429   2.411
 3314SOL    HW210842   2.721   0.498   2.469
 3315SOL     OW10843   0.522   4.849   5.485
 3315SOL    HW110844   0.543   4.759   5.448
 3315SOL    HW210845   0.579   4.918   5.439
 3316SOL     OW10846   3.596   1.105   5.242
 3316SOL    HW110847   3.547   1.029   5.286
 3316SOL    HW210848   3.695   1.087   5.247
 3317SOL     OW10849   5.619   2.040   2.462
 3317SOL    HW110850   5.626   1.952   2.510
 3317SOL    HW210851   5.539   2.039   2.402
 3318SOL     OW10852   2.045   0.619   6.484
 3318SOL    HW110853   2.129   0.565   6.474
 3318SOL    HW210854   1.987   0.577   6.553
 3319SOL     OW10855   6.225   0.131   3.121
 3319SOL    HW110856   6.169   0.214   3.123
 3319SOL    HW210857   6.317   0.152   3.154
 3320SOL     OW10858   6.503   0.432   0.192
 3320SOL    HW110859   6.582   0.488   0.219
 3320SOL    HW210860   6.535   0.343   0.159
 3321SOL     OW10861   6.108   1.226   0.878
 3321SOL    HW110862   6.076   1.223   0.784
 3321SOL    HW210863   6.128   1.321   0.903
 3322SOL     OW10864   6.919   2.833   1.042
 3322SOL    HW110865   6.948   2.925   1.067
 3322SOL    HW210866   6.853   2.800   1.110
 3323SOL     OW10867   2.549   1.562   0.810
 3323SOL    HW110868   2.565   1.463   0.812
 3323SOL    HW210869   2.577   1.602   0.897
 3324SOL     OW10870   4.543   5.243   4.995
 3324SOL    HW110871   4.511   5.180   5.066
 3324SOL    HW210872   4.576   5.327   5.039
 3325SOL     OW10873   0.264   3.207   6.272
 3325SOL    HW110874   0.322   3.145   6.324
 3325SOL    HW210875   0.287   3.200   6.175
 3326SOL     OW10876   4.915   1.551   2.058
 3326SOL    HW110877   4.835   1.547   1.998
 3326SOL    HW210878   4.983   1.484   2.028
 3327SOL     OW10879   2.239   5.862   1.516
 3327SOL    HW110880   2.144   5.843   1.490
 3327SOL    HW210881   2.268   5.796   1.585
 3328SOL     OW10882   3.405   1.886   1.253
 3328SOL    HW110883   3.467   1.887   1.332
 3328SOL    HW210884   3.459   1.893   1.169
 3329SOL     OW10885   6.629   0.018   5.270
 3329SOL    HW110886   6.665   0.089   5.332
 3329SOL    HW210887   6.550   6.998   5.313
 3330SOL     OW10888   6.152   3.680   2.104
 3330SOL    HW110889   6.056   3.705   2.091
 3330SOL    HW210890   6.209   3.730   2.039
 3331SOL     OW10891   2.442   2.683   1.197
 3331SOL    HW110892   2.423   2.774   1.160
 3331SOL    HW210893   2.400   2.675   1.287
 3332SOL     OW10894   5.727   5.649   0.284
 3332SOL    HW110895   5.634   5.681   0.300
 3332SOL    HW210896   5.771   5.632   0.372
 3333SOL     OW10897   4.299   5.101   6.424
 3333SOL    HW110898   4.317   5.126   6.519
 3333SOL    HW210899   4.225   5.035   6.420
 3334SOL     OW10900   3.239   3.398   1.568
 3334SOL    HW110901   3.269   3.310   1.605
 3334SOL    HW210902   3.296   3.471   1.606
 3335SOL     OW10903   4.481   5.771   5.368
 3335SOL    HW110904   4.549   5.714   5.413
 3335SOL    HW210905   4.527   5.840   5.312
 3336SOL     OW10906   3.209   5.024   5.564
 3336SOL    HW110907   3.246   5.113   5.536
 3336SOL    HW210908   3.158   4.984   5.488
 3337SOL     OW10909   3.196   2.376   1.313
 3337SOL    HW110910   3.102   2.379   1.280
 3337SOL    HW210911   3.253   2.327   1.248
 3338SOL     OW10912   6.211   3.244   1.434
 3338SOL    HW110913   6.252   3.307   1.500
 3338SOL    HW210914   6.188   3.158   1.480
 3339SOL     OW10915   0.041   6.313   6.868
 3339SOL    HW110916   7.006   6.391   6.844
 3339SOL    HW210917   7.010   6.245   6.917
 3340SOL     OW10918   3.588   0.141   1.848
 3340SOL    HW110919   3.578   0.042   1.840
 3340SOL    HW210920   3.576   0.168   1.944
 3341SOL     OW10921   1.263   0.028   3.667
 3341SOL    HW110922   1.319   6.975   3.637
 3341SOL    HW210923   1.314   0.083   3.733
 3342SOL     OW10924   2.274   6.989   3.906
 3342SOL    HW110925   2.307   6.910   3.957
 3342SOL    HW210926   2.343   0.039   3.910
 3343SOL     OW10927   4.920   3.029   0.165
 3343SOL    HW110928   5.019   3.022   0.162
 3343SOL    HW210929   4.886   3.067   0.079
 3344SOL     OW10930   5.486   4.094   4.694
 3344SOL    HW110931   5.466   4.126   4.602
 3344SOL    HW210932   5.558   4.151   4.735
 3345SOL     OW10933   2.503   3.814   6.105
 3345SOL    HW110934   2.581   3.875   6.101
 3345SOL    HW210935   2.418   3.867   6.093
 3346SOL     OW10936   0.960   1.012   1.682
 3346SOL    HW110937   0.973   1.111   1.671
 3346SOL    HW210938   1.039   0.973   1.727
 3347SOL     OW10939   6.967   4.407   3.676
 3347SOL    HW110940   7.008   4.363   3.756
 3347SOL    HW210941   0.015   4.430   3.610
 3348SOL     OW10942   3.206   3.127   3.437
 3348SOL    HW110943   3.261   3.102   3.357
 3348SOL    HW210944   3.212   3.054   3.505
 3349SOL     OW10945   0.313   4.441   4.543
 3349SOL    HW110946   0.383   4.486   4.598
 3349SOL    HW210947   0.325   4.464   4.447
 3350SOL     OW10948   1.502   1.661   6.381
 3350SOL    HW110949   1.527   1.610   6.463
 3350SOL    HW210950   1.452   1.601   6.319
 3351SOL     OW10951   4.925   0.622   2.015
 3351SOL    HW110952   4.950   0.662   2.103
 3351SOL    HW210953   4.857   0.550   2.028
 3352SOL     OW10954   6.890   3.432   0.293
 3352SOL    HW110955   6.910   3.516   0.244
 3352SOL    HW210956   6.976   3.388   0.320
 3353SOL     OW10957   1.658   0.017   2.032
 3353SOL    HW110958   1.689   0.019   1.936
 3353SOL    HW210959   1.693   6.958   2.076
 3354SOL     OW10960   0.101   2.724   3.887
 3354SOL    HW110961   0.087   2.720   3.788
 3354SOL    HW210962   0.077   2.636   3.928
 3355SOL     OW10963   0.725   1.371   0.178
 3355SOL    HW110964   0.764   1.360   0.086
 3355SOL    HW210965   0.799   1.386   0.244
 3356SOL     OW10966   2.571   2.860   0.331
 3356SOL    HW110967   2.508   2.824   0.400
 3356SOL    HW210968   2.665   2.841   0.358
 3357SOL     OW10969   2.462   4.586   1.695
 3357SOL    HW110970   2.367   4.567   1.716
 3357SOL    HW210971   2.499   4.513   1.637
 3358SOL     OW10972   4.672   6.208   1.782
 3358SOL    HW110973   4.631   6.167   1.864
 3358SOL    HW210974   4.770   6.219   1.796
 3359SOL     OW10975   0.306   0.512   3.538
 3359SOL    HW110976   0.359   0.596   3.542
 3359SOL    HW210977   0.312   0.472   3.446
 3360SOL     OW10978   0.035   1.021   1.205
 3360SOL    HW110979   0.000   1.089   1.270
 3360SOL    HW210980   0.027   0.930   1.245
 3361SOL     OW10981   6.729   5.050   2.879
 3361SOL    HW110982   6.821   5.088   2.875
 3361SOL    HW210983   6.727   4.973   2.942
 3362SOL     OW10984   3.075   1.292   4.751
 3362SOL    HW110985   3.116   1.204   4.773
 3362SOL    HW210986   3.147   1.359   4.732
 3363SOL     OW10987   0.397   0.098   6.352
 3363SOL    HW110988   0.448   0.036   6.292
 3363SOL    HW210989   0.435   0.093   6.444
 3364SOL     OW10990   0.967   4.952   5.627
 3364SOL    HW110991   1.031   4.889   5.670
 3364SOL    HW210992   0.961   5.036   5.681
 3365SOL     OW10993   0.252   2.697   4.458
 3365SOL    HW110994   0.320   2.665   4.391
 3365SOL    HW210995   0.229   2.792   4.439
 3366SOL     OW10996   6.139   0.709   4.521
 3366SOL    HW110997   6.070   0.767   4.565
 3366SOL    HW210998   6.178   0.758   4.443
 3367SOL     OW10999   2.207   2.767   1.689
 3367SOL    HW111000   2.123   2.808   1.725
 3367SOL    HW211001   2.257   2.723   1.763
 3368SOL     OW11002   6.960   5.501   6.604
 3368SOL    HW111003   6.881   5.529   6.551
 3368SOL    HW211004   0.020   5.514   6.549
 3369SOL     OW11005   3.464   2.063   6.553
 3369SOL    HW111006   3.502   2.004   6.482
 3369SOL    HW211007   3.465   2.016   6.641
 3370SOL     OW11008   6.324   6.310   5.165
 3370SOL    HW111009   6.386   6.386   5.183
 3370SOL    HW211010   6.368   6.245   5.102
 3371SOL     OW11011   1.110   4.298   2.924
 3371SOL    HW111012   1.120   4.361   2.846
 3371SOL    HW211013   1.069   4.212   2.892
 3372SOL     OW11014   0.781   1.753   2.136
 3372SOL    HW111015   0.848   1.828   2.138
 3372SOL    HW211016   0.749   1.733   2.228
 3373SOL     OW11017   6.721   1.514   4.210
 3373SOL    HW111018   6.736   1.456   4.130
 3373SOL    HW211019   6.803   1.569   4.228
 3374SOL     OW11020   3.402   5.524   4.785
 3374SOL    HW111021   3.495   5.501   4.757
 3374SOL    HW211022   3.340   5.451   4.757
 3375SOL     OW11023   4.363   4.682   4.803
 3375SOL    HW111024   4.377   4.651   4.709
 3375SOL    HW211025   4.350   4.603   4.863
 3376SOL     OW11026   4.068   3.662   2.697
 3376SOL    HW111027   4.058   3.577   2.749
 3376SOL    HW211028   4.146   3.654   2.634
 3377SOL     OW11029   0.620   6.164   4.632
 3377SOL    HW111030   0.634   6.201   4.724
 3377SOL    HW211031   0.604   6.066   4.638
 3378SOL     OW11032   6.507   0.795   1.741
 3378SOL    HW111033   6.439   0.766   1.674
 3378SOL    HW211034   6.597   0.802   1.697
 3379SOL     OW11035   0.440   4.717   6.171
 3379SOL    HW111036   0.420   4.776   6.093
 3379SOL    HW211037   0.423   4.767   6.256
 3380SOL     OW11038   6.328   5.621   6.256
 3380SOL    HW111039   6.257   5.608   6.187
 3380SOL    HW211040   6.413   5.651   6.212
 3381SOL     OW11041   1.873   2.354   0.309
 3381SOL    HW111042   1.907   2.424   0.373
 3381SOL    HW211043   1.773   2.352   0.312
 3382SOL     OW11044   0.665   1.535   0.484
 3382SOL    HW111045   0.619   1.467   0.541
 3382SOL    HW211046   0.610   1.618   0.478
 3383SOL     OW11047   5.583   5.117   2.320
 3383SOL    HW111048   5.628   5.028   2.316
 3383SOL    HW211049   5.637   5.180   2.376
 3384SOL     OW11050   3.251   3.151   4.825
 3384SOL    HW111051   3.160   3.192   4.828
 3384SOL    HW211052   3.289   3.147   4.918
 3385SOL     OW11053   0.304   4.009   3.803
 3385SOL    HW111054   0.238   4.013   3.878
 3385SOL    HW211055   0.368   4.085   3.810
 3386SOL     OW11056   5.877   3.536   5.805
 3386SOL    HW111057   5.956   3.581   5.764
 3386SOL    HW211058   5.793   3.586   5.782
 3387SOL     OW11059   2.381   1.457   2.958
 3387SOL    HW111060   2.342   1.372   2.923
 3387SOL    HW211061   2.312   1.529   2.952
 3388SOL     OW11062   5.277   3.565   1.373
 3388SOL    HW111063   5.280   3.474   1.334
 3388SOL    HW211064   5.369   3.603   1.378
 3389SOL     OW11065   4.682   4.582   4.257
 3389SOL    HW111066   4.758   4.644   4.275
 3389SOL    HW211067   4.598   4.635   4.248
 3390SOL     OW11068   4.800   3.756   5.767
 3390SOL    HW111069   4.851   3.763   5.853
 3390SOL    HW211070   4.719   3.814   5.772
 3391SOL     OW11071   5.012   1.954   4.762
 3391SOL    HW111072   5.078   1.905   4.819
 3391SOL    HW211073   5.038   2.050   4.757
 3392SOL     OW11074   2.935   0.940   3.617
 3392SOL    HW111075   2.982   1.027   3.629
 3392SOL    HW211076   2.871   0.926   3.692
 3393SOL     OW11077   6.659   6.551   0.834
 3393SOL    HW111078   6.737   6.614   0.833
 3393SOL    HW211079   6.574   6.603   0.839
 3394SOL     OW11080   5.864   3.539   1.214
 3394SOL    HW111081   5.955   3.545   1.175
 3394SOL    HW211082   5.861   3.466   1.283
 3395SOL     OW11083   6.656   2.901   4.104
 3395SOL    HW111084   6.736   2.911   4.045
 3395SOL    HW211085   6.574   2.890   4.047
 3396SOL     OW11086   0.111   3.111   3.700
 3396SOL    HW111087   0.126   3.079   3.794
 3396SOL    HW211088   0.182   3.075   3.640
 3397SOL     OW11089   2.989   1.289   5.428
 3397SOL    HW111090   3.026   1.230   5.500
 3397SOL    HW211091   3.020   1.256   5.339
 3398SOL     OW11092   1.075   6.713   4.423
 3398SOL    HW111093   1.085   6.671   4.332
 3398SOL    HW211094   1.130   6.663   4.489
 3399SOL     OW11095   4.951   4.370   3.765
 3399SOL    HW111096   4.936   4.439   3.836
 3399SOL    HW211097   4.921   4.281   3.798
 3400SOL     OW11098   4.330   1.390   5.597
 3400SOL    HW111099   4.372   1.373   5.686
 3400SOL    HW211100   4.375   1.468   5.553
 3401SOL     OW11101   0.256   3.915   0.861
 3401SOL    HW111102   0.223   3.958   0.777
 3401SOL    HW211103   0.355   3.901   0.854
 3402SOL     OW11104   4.937   5.949   0.728
 3402SOL    HW111105   4.994   6.027   0.700
 3402SOL    HW211106   4.994   5.880   0.771
 3403SOL     OW11107   3.637   0.504   4.656
 3403SOL    HW111108   3.589   0.592   4.649
 3403SOL    HW211109   3.577   0.431   4.622
 3404SOL     OW11110   3.825   1.391   0.736
 3404SOL    HW111111   3.921   1.420   0.737
 3404SOL    HW211112   3.783   1.416   0.649
 3405SOL     OW11113   6.416   3.402   4.776
 3405SOL    HW111114   6.389   3.369   4.867
 3405SOL    HW211115   6.334   3.424   4.723
 3406SOL     OW11116   1.518   4.234   1.846
 3406SOL    HW111117   1.608   4.275   1.861
 3406SOL    HW211118   1.505   4.217   1.749
 3407SOL     OW11119   1.795   4.948   1.410
 3407SOL    HW111120   1.817   4.958   1.313
 3407SOL    HW211121   1.747   4.861   1.424
 3408SOL     OW11122   4.623   4.303   4.117
 3408SOL    HW111123   4.703   4.245   4.135
 3408SOL    HW211124   4.627   4.385   4.175
 3409SOL     OW11125   3.573   6.679   5.439
 3409SOL    HW111126   3.493   6.732   5.466
 3409SOL    HW211127   3.649   6.700   5.501
 3410SOL     OW11128   6.003   6.077   6.808
 3410SOL    HW111129   5.982   6.028   6.892
 3410SOL    HW211130   6.006   6.013   6.731
 3411SOL     OW11131   6.944   2.808   2.170
 3411SOL    HW111132   6.925   2.743   2.096
 3411SOL    HW211133   6.857   2.846   2.203
 3412SOL     OW11134   4.446   3.022   6.749
 3412SOL    HW111135   4.349   3.033   6.727
 3412SOL    HW211136   4.499   3.021   6.664
 3413SOL     OW11137   4.329   1.340   2.607
 3413SOL    HW111138   4.419   1.379   2.629
 3413SOL    HW211139   4.315   1.342   2.508
 3414SOL     OW11140   2.276   1.072   5.223
 3414SOL    HW111141   2.268   1.133   5.144
 3414SOL    HW211142   2.366   1.027   5.221
 3415SOL     OW11143   1.479   4.400   4.816
 3415SOL    HW111144   1.560   4.423   4.761
 3415SOL    HW211145   1.471   4.300   4.822
 3416SOL     OW11146   6.456   4.719   6.248
 3416SOL    HW111147   6.550   4.744   6.271
 3416SOL    HW211148   6.396   4.738   6.326
 3417SOL     OW11149   6.516   5.945   2.702
 3417SOL    HW111150   6.422   5.979   2.692
 3417SOL    HW211151   6.514   5.845   2.710
 3418SOL     OW11152   4.392   0.344   4.595
 3418SOL    HW111153   4.429   0.402   4.667
 3418SOL    HW211154   4.462   0.328   4.525
 3419SOL     OW11155   3.191   5.740   5.720
 3419SOL    HW111156   3.284   5.745   5.755
 3419SOL    HW211157   3.165   5.644   5.706
 3420SOL     OW11158   5.462   2.421   3.712
 3420SOL    HW111159   5.509   2.394   3.628
 3420SOL    HW211160   5.431   2.339   3.760
 3421SOL     OW11161   6.441   0.270   6.103
 3421SOL    HW111162   6.441   0.364   6.138
 3421SOL    HW211163   6.356   0.253   6.054
 3422SOL     OW11164   2.378   6.735   1.398
 3422SOL    HW111165   2.331   6.647   1.404
 3422SOL    HW211166   2.424   6.754   1.485
 3423SOL     OW11167   2.207   0.260   0.488
 3423SOL    HW111168   2.260   0.295   0.411
 3423SOL    HW211169   2.177   0.336   0.546
 3424SOL     OW11170   3.305   0.308   2.419
 3424SOL    HW111171   3.325   0.387   2.476
 3424SOL    HW211172   3.382   0.289   2.359
 3425SOL     OW11173   4.833   4.507   2.405
 3425SOL    HW111174   4.754   4.446   2.417
 3425SOL    HW211175   4.914   4.453   2.385
 3426SOL     OW11176   3.523   2.932   0.122
 3426SOL    HW111177   3.470   2.988   0.185
 3426SOL    HW211178   3.524   2.974   0.032
 3427SOL     OW11179   6.702   6.254   7.017
 3427SOL    HW111180   6.626   6.252   6.953
 3427SOL    HW211181   6.771   6.187   6.990
 3428SOL     OW11182   3.903   4.806   1.557
 3428SOL    HW111183   3.888   4.828   1.654
 3428SOL    HW211184   3.948   4.882   1.512
 3429SOL     OW11185   0.439   1.578   6.970
 3429SOL    HW111186   0.536   1.562   6.951
 3429SOL    HW211187   0.386   1.566   6.886
 3430SOL     OW11188   0.501   6.968   6.173
 3430SOL    HW111189   0.572   6.993   6.108
 3430SOL    HW211190   0.490   6.868   6.173
 3431SOL     OW11191   2.606   6.599   0.733
 3431SOL    HW111192   2.661   6.566   0.657
 3431SOL    HW211193   2.598   6.527   0.802
 3432SOL     OW11194   2.829   2.618   6.205
 3432SOL    HW111195   2.755   2.627   6.139
 3432SOL    HW211196   2.913   2.657   6.166
 3433SOL     OW11197   1.568   6.959   6.430
 3433SOL    HW111198   1.555   6.953   6.331
 3433SOL    HW211199   1.502   6.899   6.476
 3434SOL     OW11200   3.783   2.628   0.980
 3434SOL    HW111201   3.821   2.556   0.921
 3434SOL    HW211202   3.717   2.682   0.928
 3435SOL     OW11203   0.200   2.090   2.233
 3435SOL    HW111204   0.214   2.187   2.251
 3435SOL    HW211205   0.279   2.038   2.266
 3436SOL     OW11206   4.076   6.585   5.156
 3436SOL    HW111207   4.107   6.597   5.062
 3436SOL    HW211208   4.154   6.559   5.214
 3437SOL     OW11209   4.461   0.589   6.403
 3437SOL    HW111210   4.519   0.653   6.453
 3437SOL    HW211211   4.480   0.496   6.434
 3438SOL     OW11212   1.266   2.456   6.590
 3438SOL    HW111213   1.266   2.509   6.505
 3438SOL    HW211214   1.290   2.517   6.666
 3439SOL     OW11215   2.622   0.469   5.182
 3439SOL    HW111216   2.605   0.480   5.280
 3439SOL    HW211217   2.715   0.436   5.168
 3440SOL     OW11218   4.694   3.662   1.095
 3440SOL    HW111219   4.633   3.667   1.016
 3440SOL    HW211220   4.643   3.629   1.175
 3441SOL     OW11221   5.408   0.595   3.278
 3441SOL    HW111222   5.377   0.563   3.368
 3441SOL    HW211223   5.428   0.516   3.220
 3442SOL     OW11224   2.692   5.090   2.526
 3442SOL    HW111225   2.611   5.148   2.534
 3442SOL    HW211226   2.674   5.001   2.570
 3443SOL     OW11227   6.040   0.655   2.480
 3443SOL    HW111228   6.121   0.609   2.518
 3443SOL    HW211229   5.985   0.589   2.429
 3444SOL     OW11230   5.387   4.786   6.948
 3444SOL    HW111231   5.346   4.827   6.867
 3444SOL    HW211232   5.363   4.689   6.953
 3445SOL     OW11233   5.909   4.384   4.005
 3445SOL    HW111234   5.860   4.346   3.927
 3445SOL    HW211235   5.998   4.338   4.014
 3446SOL     OW11236   6.382   0.912   3.172
 3446SOL    HW111237   6.349   0.848   3.240
 3446SOL    HW211238   6.374   1.006   3.207
 3447SOL     OW11239   4.727   4.611   1.071
 3447SOL    HW111240   4.816   4.652   1.090
 3447SOL    HW211241   4.671   4.675   1.019
 3448SOL     OW11242   3.182   0.037   0.851
 3448SOL    HW111243   3.241   0.112   0.879
 3448SOL    HW211244   3.115   0.070   0.785
 3449SOL     OW11245   5.382   6.378   3.096
 3449SOL    HW111246   5.293   6.344   3.065
 3449SOL    HW211247   5.391   6.475   3.073
 3450SOL     OW11248   0.972   2.712   0.794
 3450SOL    HW111249   1.044   2.755   0.848
 3450SOL    HW211250   1.007   2.694   0.701
 3451SOL     OW11251   0.310   5.417   3.326
 3451SOL    HW111252   0.330   5.462   3.413
 3451SOL    HW211253   0.309   5.318   3.339
 3452SOL     OW11254   5.873   1.704   7.012
 3452SOL    HW111255   5.898   1.750   0.073
 3452SOL    HW211256   5.955   1.671   6.966
 3453SOL     OW11257   6.501   5.781   5.433
 3453SOL    HW111258   6.582   5.776   5.375
 3453SOL    HW211259   6.528   5.807   5.525
 3454SOL     OW11260   1.968   0.380   5.809
 3454SOL    HW111261   1.891   0.320   5.787
 3454SOL    HW211262   1.970   0.456   5.745
 3455SOL     OW11263   1.546   3.243   4.381
 3455SOL    HW111264   1.604   3.320   4.353
 3455SOL    HW211265   1.601   3.160   4.384
 3456SOL     OW11266   5.413   6.379   1.849
 3456SOL    HW111267   5.378   6.463   1.890
 3456SOL    HW211268   5.454   6.400   1.760
 3457SOL     OW11269   2.470   5.364   3.951
 3457SOL    HW111270   2.420   5.290   3.996
 3457SOL    HW211271   2.561   5.372   3.993
 3458SOL     OW11272   5.119   6.674   7.000
 3458SOL    HW111273   5.047   6.740   6.981
 3458SOL    HW211274   5.168   6.701   0.060
 3459SOL     OW11275   0.162   4.398   3.437
 3459SOL    HW111276   0.253   4.386   3.477
 3459SOL    HW211277   0.153   4.337   3.358
 3460SOL     OW11278   3.209   3.475   0.631
 3460SOL    HW111279   3.254   3.544   0.574
 3460SOL    HW211280   3.214   3.386   0.585
 3461SOL     OW11281   4.716   5.832   3.931
 3461SOL    HW111282   4.813   5.855   3.942
 3461SOL    HW211283   4.667   5.910   3.892
 3462SOL     OW11284   6.397   3.771   1.964
 3462SOL    HW111285   6.485   3.745   1.922
 3462SOL    HW211286   6.413   3.800   2.058
 3463SOL     OW11287   1.177   3.295   2.760
 3463SOL    HW111288   1.274   3.277   2.741
 3463SOL    HW211289   1.146   3.235   2.833
 3464SOL     OW11290   6.208   2.376   6.918
 3464SOL    HW111291   6.216   2.278   6.937
 3464SOL    HW211292   6.179   2.390   6.824
 3465SOL     OW11293   1.361   3.343   2.093
 3465SOL    HW111294   1.274   3.368   2.135
 3465SOL    HW211295   1.428   3.415   2.110
 3466SOL     OW11296   6.647   4.915   5.862
 3466SOL    HW111297   6.730   4.952   5.821
 3466SOL    HW211298   6.620   4.831   5.814
 3467SOL     OW11299   1.647   1.746   0.562
 3467SOL    HW111300   1.584   1.806   0.512
 3467SOL    HW211301   1.729   1.797   0.587
 3468SOL     OW11302   5.720   1.604   2.996
 3468SOL    HW111303   5.807   1.648   3.017
 3468SOL    HW211304   5.645   1.665   3.021
 3469SOL     OW11305   5.002   0.638   4.844
 3469SOL    HW111306   5.020   0.542   4.863
 3469SOL    HW211307   4.910   0.663   4.876
 3470SOL     OW11308   0.323   2.668   2.162
 3470SOL    HW111309   0.336   2.575   2.129
 3470SOL    HW211310   0.296   2.727   2.085
 3471SOL     OW11311   4.491   4.508   3.467
 3471SOL    HW111312   4.526   4.462   3.385
 3471SOL    HW211313   4.548   4.485   3.545
 3472SOL     OW11314   3.537   1.177   1.840
 3472SOL    HW111315   3.556   1.081   1.820
 3472SOL    HW211316   3.438   1.192   1.839
 3473SOL     OW11317   5.905   3.251   2.633
 3473SOL    HW111318   5.828   3.249   2.697
 3473SOL    HW211319   5.882   3.196   2.552
 3474SOL     OW11320   7.015   4.134   2.706
 3474SOL    HW111321   0.082   4.163   2.677
 3474SOL    HW211322   6.946   4.195   2.667
 3475SOL     OW11323   0.961   4.623   4.860
 3475SOL    HW111324   0.950   4.708   4.808
 3475SOL    HW211325   1.023   4.638   4.937
 3476SOL     OW11326   1.994   1.845   2.350
 3476SOL    HW111327   2.043   1.858   2.264
 3476SOL    HW211328   2.053   1.799   2.416
 3477SOL     OW11329   0.991   4.231   0.875
 3477SOL    HW111330   0.979   4.264   0.781
 3477SOL    HW211331   1.065   4.281   0.919
 3478SOL     OW11332   2.627   6.293   6.929
 3478SOL    HW111333   2.540   6.273   6.885
 3478SOL    HW211334   2.698   6.233   6.892
 3479SOL     OW11335   0.682   0.987   2.989
 3479SOL    HW111336   0.719   1.026   3.073
 3479SOL    HW211337   0.652   1.062   2.928
 3480SOL     OW11338   0.609   6.655   5.358
 3480SOL    HW111339   0.632   6.558   5.371
 3480SOL    HW211340   0.510   6.664   5.346
 3481SOL     OW11341   5.331   0.592   0.366
 3481SOL    HW111342   5.269   0.536   0.421
 3481SOL    HW211343   5.308   0.689   0.378
 3482SOL     OW11344   6.212   1.515   2.205
 3482SOL    HW111345   6.124   1.504   2.251
 3482SOL    HW211346   6.245   1.609   2.219
 3483SOL     OW11347   5.292   1.904   2.696
 3483SOL    HW111348   5.322   1.897   2.601
 3483SOL    HW211349   5.372   1.901   2.757
 3484SOL     OW11350   1.286   2.848   0.162
 3484SOL    HW111351   1.364   2.797   0.126
 3484SOL    HW211352   1.210   2.844   0.098
 3485SOL     OW11353   1.285   2.178   4.348
 3485SOL    HW111354   1.194   2.148   4.319
 3485SOL    HW211355   1.330   2.225   4.272
 3486SOL     OW11356   1.434   0.460   3.794
 3486SOL    HW111357   1.338   0.457   3.765
 3486SOL    HW211358   1.493   0.452   3.713
 3487SOL     OW11359   6.317   2.244   0.370
 3487SOL    HW111360   6.256   2.301   0.426
 3487SOL    HW211361   6.277   2.153   0.360
 3488SOL     OW11362   5.593   1.054   5.328
 3488SOL    HW111363   5.604   1.138   5.381
 3488SOL    HW211364   5.676   1.036   5.276
 3489SOL     OW11365   3.759   0.053   2.139
 3489SOL    HW111366   3.773   0.002   2.224
 3489SOL    HW211367   3.796   0.000   2.063
 3490SOL     OW11368   3.573   4.510   1.479
 3490SOL    HW111369   3.584   4.524   1.577
 3490SOL    HW211370   3.631   4.574   1.429
 3491SOL     OW11371   3.889   3.079   5.932
 3491SOL    HW111372   3.888   3.128   6.018
 3491SOL    HW211373   3.936   3.134   5.862
 3492SOL     OW11374   6.108   4.366   0.628
 3492SOL    HW111375   6.132   4.330   0.717
 3492SOL    HW211376   6.034   4.312   0.588
 3493SOL     OW11377   5.731   4.091   3.992
 3493SOL    HW111378   5.798   4.080   4.065
 3493SOL    HW211379   5.640   4.102   4.031
 3494SOL     OW11380   2.643   0.832   2.066
 3494SOL    HW111381   2.696   0.916   2.054
 3494SOL    HW211382   2.550   0.856   2.096
 3495SOL     OW11383   6.960   4.166   2.219
 3495SOL    HW111384   6.997   4.132   2.305
 3495SOL    HW211385   0.005   4.156   2.147
 3496SOL     OW11386   6.110   5.440   0.819
 3496SOL    HW111387   6.100   5.539   0.824
 3496SOL    HW211388   6.126   5.412   0.724
 3497SOL     OW11389   2.324   1.422   4.110
 3497SOL    HW111390   2.350   1.516   4.092
 3497SOL    HW211391   2.399   1.375   4.157
 3498SOL     OW11392   3.443   0.983   2.150
 3498SOL    HW111393   3.530   1.009   2.192
 3498SOL    HW211394   3.458   0.904   2.090
 3499SOL     OW11395   6.133   4.615   4.415
 3499SOL    HW111396   6.165   4.616   4.509
 3499SOL    HW211397   6.166   4.697   4.367
 3500SOL     OW11398   1.824   3.291   3.061
 3500SOL    HW111399   1.809   3.373   3.006
 3500SOL    HW211400   1.914   3.294   3.104
 3501SOL     OW11401   3.348   6.737   5.590
 3501SOL    HW111402   3.292   6.683   5.527
 3501SOL    HW211403   3.323   6.716   5.684
 3502SOL     OW11404   6.718   2.693   1.525
 3502SOL    HW111405   6.636   2.750   1.512
 3502SOL    HW211406   6.760   2.675   1.436
 3503SOL     OW11407   6.270   6.258   5.443
 3503SOL    HW111408   6.305   6.166   5.457
 3503SOL    HW211409   6.275   6.281   5.346
 3504SOL     OW11410   2.360   0.675   1.999
 3504SOL    HW111411   2.354   0.585   1.955
 3504SOL    HW211412   2.392   0.664   2.093
 3505SOL     OW11413   5.263   4.344   5.325
 3505SOL    HW111414   5.291   4.345   5.421
 3505SOL    HW211415   5.204   4.422   5.307
 3506SOL     OW11416   5.467   4.492   4.941
 3506SOL    HW111417   5.556   4.447   4.934
 3506SOL    HW211418   5.394   4.427   4.919
 3507SOL     OW11419   2.961   0.595   0.577
 3507SOL    HW111420   2.880   0.559   0.624
 3507SOL    HW211421   2.993   0.677   0.624
 3508SOL     OW11422   1.932   1.240   6.031
 3508SOL    HW111423   1.910   1.161   5.974
 3508SOL    HW211424   1.906   1.324   5.984
 3509SOL     OW11425   5.705   6.738   6.997
 3509SOL    HW111426   5.622   6.793   6.991
 3509SOL    HW211427   5.693   6.654   6.944
 3510SOL     OW11428   1.644   0.867   1.818
 3510SOL    HW111429   1.670   0.795   1.754
 3510SOL    HW211430   1.648   0.832   1.911
 3511SOL     OW11431   2.020   4.149   1.717
 3511SOL    HW111432   2.089   4.213   1.750
 3511SOL    HW211433   2.053   4.055   1.727
 3512SOL     OW11434   0.276   4.289   0.753
 3512SOL    HW111435   0.250   4.200   0.717
 3512SOL    HW211436   0.318   4.343   0.680
 3513SOL     OW11437   5.848   2.166   0.640
 3513SOL    HW111438   5.770   2.103   0.638
 3513SOL    HW211439   5.899   2.159   0.555
 3514SOL     OW11440   7.011   0.897   1.718
 3514SOL    HW111441   0.054   0.923   1.648
 3514SOL    HW211442   7.003   0.970   1.786
 3515SOL     OW11443   4.708   6.119   3.024
 3515SOL    HW111444   4.665   6.066   2.950
 3515SOL    HW211445   4.654   6.108   3.108
 3516SOL     OW11446   4.342   6.576   0.661
 3516SOL    HW111447   4.251   6.543   0.687
 3516SOL    HW211448   4.373   6.645   0.726
 3517SOL     OW11449   6.764   1.125   1.560
 3517SOL    HW111450   6.778   1.028   1.581
 3517SOL    HW211451   6.734   1.173   1.642
 3518SOL     OW11452   5.286   2.711   5.207
 3518SOL    HW111453   5.196   2.668   5.220
 3518SOL    HW211454   5.354   2.664   5.264
 3519SOL     OW11455   1.475   0.042   5.641
 3519SOL    HW111456   1.439   0.054   5.548
 3519SOL    HW211457   1.422   6.995   5.689
 3520SOL     OW11458   3.431   6.176   0.050
 3520SOL    HW111459   3.471   6.255   0.004
 3520SOL    HW211460   3.383   6.119   7.006
 3521SOL     OW11461   4.550   2.905   6.963
 3521SOL    HW111462   4.640   2.874   6.933
 3521SOL    HW211463   4.506   2.955   6.888
 3522SOL     OW11464   0.337   5.695   0.159
 3522SOL    HW111465   0.309   5.787   0.133
 3522SOL    HW211466   0.365   5.645   0.077
 3523SOL     OW11467   1.169   4.608   5.017
 3523SOL    HW111468   1.212   4.540   4.958
 3523SOL    HW211469   1.220   4.615   5.103
 3524SOL     OW11470   4.842   1.793   2.206
 3524SOL    HW111471   4.867   1.724   2.139
 3524SOL    HW211472   4.925   1.841   2.237
 3525SOL     OW11473   6.514   3.395   3.863
 3525SOL    HW111474   6.580   3.402   3.788
 3525SOL    HW211475   6.429   3.440   3.837
 3526SOL     OW11476   1.993   6.933   3.898
 3526SOL    HW111477   1.938   6.929   3.815
 3526SOL    HW211478   2.089   6.945   3.875
 3527SOL     OW11479   5.909   3.554   6.618
 3527SOL    HW111480   5.919   3.498   6.535
 3527SOL    HW211481   5.836   3.621   6.603
 3528SOL     OW11482   1.537   6.537   5.271
 3528SOL    HW111483   1.610   6.554   5.205
 3528SOL    HW211484   1.463   6.603   5.256
 3529SOL     OW11485   3.915   0.068   1.009
 3529SOL    HW111486   3.927   0.033   0.916
 3529SOL    HW211487   3.992   0.038   1.066
 3530SOL     OW11488   6.599   5.595   0.879
 3530SOL    HW111489   6.574   5.662   0.949
 3530SOL    HW211490   6.631   5.642   0.797
 3531SOL     OW11491   5.180   2.109   0.587
 3531SOL    HW111492   5.276   2.116   0.558
 3531SOL    HW211493   5.169   2.152   0.676
 3532SOL     OW11494   2.537   0.124   1.925
 3532SOL    HW111495   2.574   0.068   1.999
 3532SOL    HW211496   2.506   0.065   1.851
 3533SOL     OW11497   0.328   1.308   2.411
 3533SOL    HW111498   0.272   1.259   2.478
 3533SOL    HW211499   0.288   1.297   2.320
 3534SOL     OW11500   0.879   2.026   0.580
 3534SOL    HW111501   0.878   2.052   0.483
 3534SOL    HW211502   0.790   1.989   0.606
 3535SOL     OW11503   2.065   5.276   6.234
 3535SOL    HW111504   2.012   5.322   6.163
 3535SOL    HW211505   2.163   5.280   6.210
 3536SOL     OW11506   3.393   1.569   3.026
 3536SOL    HW111507   3.456   1.544   2.953
 3536SOL    HW211508   3.398   1.667   3.043
 3537SOL     OW11509   2.175   5.745   2.611
 3537SOL    HW111510   2.140   5.836   2.588
 3537SOL    HW211511   2.267   5.734   2.575
 3538SOL     OW11512   2.212   6.433   5.429
 3538SOL    HW111513   2.155   6.360   5.468
 3538SOL    HW211514   2.307   6.417   5.453
 3539SOL     OW11515   3.752   3.174   5.449
 3539SOL    HW111516   3.790   3.232   5.521
 3539SOL    HW211517   3.703   3.231   5.382
 3540SOL     OW11518   1.815   2.940   4.873
 3540SOL    HW111519   1.778   3.027   4.905
 3540SOL    HW211520   1.909   2.931   4.905
 3541SOL     OW11521   2.376   2.687   5.968
 3541SOL    HW111522   2.317   2.653   5.894
 3541SOL    HW211523   2.401   2.781   5.949
 3542SOL     OW11524   1.252   5.582   3.485
 3542SOL    HW111525   1.222   5.494   3.522
 3542SOL    HW211526   1.207   5.598   3.398
 3543SOL     OW11527   0.313   2.545   4.806
 3543SOL    HW111528   0.328   2.477   4.878
 3543SOL    HW211529   0.382   2.617   4.814
 3544SOL     OW11530   1.665   3.930   6.107
 3544SOL    HW111531   1.583   3.987   6.107
 3544SOL    HW211532   1.670   3.880   6.193
 3545SOL     OW11533   4.514   5.419   6.613
 3545SOL    HW111534   4.522   5.488   6.685
 3545SOL    HW211535   4.466   5.458   6.534
 3546SOL     OW11536   1.775   4.849   3.893
 3546SOL    HW111537   1.785   4.889   3.983
 3546SOL    HW211538   1.691   4.884   3.850
 3547SOL     OW11539   5.958   4.767   3.852
 3547SOL    HW111540   5.944   4.752   3.754
 3547SOL    HW211541   6.055   4.752   3.874
 3548SOL     OW11542   5.608   1.531   6.237
 3548SOL    HW111543   5.576   1.621   6.206
 3548SOL    HW211544   5.560   1.507   6.321
 3549SOL     OW11545   6.594   4.370   5.656
 3549SOL    HW111546   6.683   4.329   5.632
 3549SOL    HW211547   6.528   4.297   5.674
 3550SOL     OW11548   5.035   2.076   2.704
 3550SOL    HW111549   4.982   2.155   2.733
 3550SOL    HW211550   5.048   2.014   2.781
 3551SOL     OW11551   4.242   6.681   2.947
 3551SOL    HW111552   4.315   6.723   3.000
 3551SOL    HW211553   4.175   6.751   2.920
 3552SOL     OW11554   5.105   6.378   1.412
 3552SOL    HW111555   5.151   6.416   1.492
 3552SOL    HW211556   5.172   6.330   1.355
 3553SOL     OW11557   5.707   3.707   1.775
 3553SOL    HW111558   5.677   3.619   1.812
 3553SOL    HW211559   5.806   3.703   1.757
 3554SOL     OW11560   4.043   2.589   1.173
 3554SOL    HW111561   4.007   2.591   1.267
 3554SOL    HW211562   3.971   2.559   1.110
 3555SOL     OW11563   1.038   4.064   3.675
 3555SOL    HW111564   1.095   4.086   3.754
 3555SOL    HW211565   1.093   4.068   3.592
 3556SOL     OW11566   4.258   0.706   4.280
 3556SOL    HW111567   4.328   0.641   4.252
 3556SOL    HW211568   4.217   0.677   4.366
 3557SOL     OW11569   0.626   0.267   3.737
 3557SOL    HW111570   0.599   0.254   3.833
 3557SOL    HW211571   0.635   0.365   3.718
 3558SOL     OW11572   1.604   5.527   0.739
 3558SOL    HW111573   1.698   5.545   0.767
 3558SOL    HW211574   1.544   5.598   0.777
 3559SOL     OW11575   1.053   6.742   4.773
 3559SOL    HW111576   1.113   6.817   4.802
 3559SOL    HW211577   1.107   6.674   4.722
 3560SOL     OW11578   1.427   5.733   1.138
 3560SOL    HW111579   1.409   5.642   1.175
 3560SOL    HW211580   1.359   5.797   1.174
 3561SOL     OW11581   3.806   4.930   5.390
 3561SOL    HW111582   3.878   4.868   5.357
 3561SOL    HW211583   3.839   5.025   5.383
 3562SOL     OW11584   5.353   0.825   4.214
 3562SOL    HW111585   5.358   0.916   4.254
 3562SOL    HW211586   5.339   0.758   4.287
 3563SOL     OW11587   4.889   0.543   1.173
 3563SOL    HW111588   4.979   0.585   1.165
 3563SOL    HW211589   4.845   0.541   1.083
 3564SOL     OW11590   1.540   4.743   4.281
 3564SOL    HW111591   1.551   4.644   4.290
 3564SOL    HW211592   1.613   4.779   4.223
 3565SOL     OW11593   3.653   6.506   4.598
 3565SOL    HW111594   3.594   6.586   4.594
 3565SOL    HW211595   3.609   6.429   4.552
 3566SOL     OW11596   6.682   3.594   6.732
 3566SOL    HW111597   6.598   3.545   6.706
 3566SOL    HW211598   6.663   3.650   6.813
 3567SOL     OW11599   0.980   2.926   0.181
 3567SOL    HW111600   1.005   2.829   0.180
 3567SOL    HW211601   1.035   2.973   0.250
 3568SOL     OW11602   4.845   5.538   3.739
 3568SOL    HW111603   4.825   5.535   3.641
 3568SOL    HW211604   4.828   5.448   3.779
 3569SOL     OW11605   2.800   2.933   6.209
 3569SOL    HW111606   2.806   2.895   6.117
 3569SOL    HW211607   2.861   2.884   6.270
 3570SOL     OW11608   5.627   0.522   4.724
 3570SOL    HW111609   5.578   0.505   4.638
 3570SOL    HW211610   5.693   0.595   4.710
 3571SOL     OW11611   2.324   0.585   4.822
 3571SOL    HW111612   2.422   0.570   4.818
 3571SOL    HW211613   2.303   0.654   4.891
 3572SOL     OW11614   5.495   3.659   2.680
 3572SOL    HW111615   5.517   3.647   2.584
 3572SOL    HW211616   5.434   3.738   2.691
 3573SOL     OW11617   5.728   3.932   2.526
 3573SOL    HW111618   5.791   4.009   2.524
 3573SOL    HW211619   5.769   3.854   2.480
 3574SOL     OW11620   1.369   3.799   0.247
 3574SOL    HW111621   1.357   3.700   0.251
 3574SOL    HW211622   1.466   3.821   0.251
 3575SOL     OW11623   5.198   6.195   1.863
 3575SOL    HW111624   5.264   6.120   1.857
 3575SOL    HW211625   5.248   6.282   1.873
 3576SOL     OW11626   0.791   2.281   0.416
 3576SOL    HW111627   0.724   2.226   0.465
 3576SOL    HW211628   0.744   2.349   0.360
 3577SOL     OW11629   2.050   2.746   6.178
 3577SOL    HW111630   1.964   2.793   6.158
 3577SOL    HW211631   2.066   2.675   6.110
 3578SOL     OW11632   4.819   2.030   1.119
 3578SOL    HW111633   4.812   1.953   1.182
 3578SOL    HW211634   4.814   2.116   1.170
 3579SOL     OW11635   6.831   2.849   2.621
 3579SOL    HW111636   6.800   2.761   2.657
 3579SOL    HW211637   6.912   2.834   2.563
 3580SOL     OW11638   6.614   3.193   0.158
 3580SOL    HW111639   6.546   3.124   0.135
 3580SOL    HW211640   6.617   3.263   0.087
 3581SOL     OW11641   0.703   6.319   2.809
 3581SOL    HW111642   0.612   6.310   2.848
 3581SOL    HW211643   0.734   6.414   2.817
 3582SOL     OW11644   2.222   4.860   5.393
 3582SOL    HW111645   2.208   4.850   5.491
 3582SOL    HW211646   2.139   4.896   5.350
 3583SOL     OW11647   1.580   4.679   0.415
 3583SOL    HW111648   1.599   4.581   0.423
 3583SOL    HW211649   1.538   4.712   0.499
 3584SOL     OW11650   5.542   4.621   5.600
 3584SOL    HW111651   5.462   4.630   5.541
 3584SOL    HW211652   5.593   4.707   5.602
 3585SOL     OW11653   3.357   1.938   4.823
 3585SOL    HW111654   3.308   1.962   4.907
 3585SOL    HW211655   3.391   1.844   4.830
 3586SOL     OW11656   0.016   2.326   4.915
 3586SOL    HW111657   0.018   2.419   4.950
 3586SOL    HW211658   0.099   2.278   4.944
 3587SOL     OW11659   2.843   5.516   6.265
 3587SOL    HW111660   2.894   5.440   6.307
 3587SOL    HW211661   2.896   5.601   6.276
 3588SOL     OW11662   6.664   3.474   5.077
 3588SOL    HW111663   6.619   3.445   5.162
 3588SOL    HW211664   6.684   3.571   5.081
 3589SOL     OW11665   6.343   6.955   6.765
 3589SOL    HW111666   6.295   0.016   6.793
 3589SOL    HW211667   6.332   6.885   6.835
 3590SOL     OW11668   0.263   3.691   0.486
 3590SOL    HW111669   0.343   3.737   0.523
 3590SOL    HW211670   0.292   3.616   0.426
 3591SOL     OW11671   5.224   3.517   0.935
 3591SOL    HW111672   5.259   3.426   0.914
 3591SOL    HW211673   5.159   3.511   1.011
 3592SOL     OW11674   0.452   6.776   2.722
 3592SOL    HW111675   0.444   6.833   2.803
 3592SOL    HW211676   0.448   6.679   2.748
 3593SOL     OW11677   0.919   4.473   5.913
 3593SOL    HW111678   0.998   4.521   5.873
 3593SOL    HW211679   0.860   4.539   5.960
 3594SOL     OW11680   5.337   0.586   4.065
 3594SOL    HW111681   5.239   0.579   4.083
 3594SOL    HW211682   5.368   0.679   4.088
 3595SOL     OW11683   5.887   5.518   6.732
 3595SOL    HW111684   5.820   5.534   6.659
 3595SOL    HW211685   5.894   5.599   6.789
 3596SOL     OW11686   4.578   2.445   3.795
 3596SOL    HW111687   4.630   2.368   3.831
 3596SOL    HW211688   4.628   2.530   3.813
 3597SOL     OW11689   1.965   2.742   5.766
 3597SOL    HW111690   2.017   2.826   5.747
 3597SOL    HW211691   2.029   2.667   5.783
 3598SOL     OW11692   1.937   6.166   5.245
 3598SOL    HW111693   1.965   6.090   5.187
 3598SOL    HW211694   1.837   6.168   5.251
 3599SOL     OW11695   4.323   2.395   7.009
 3599SOL    HW111696   4.273   2.398   0.072
 3599SOL    HW211697   4.400   2.459   7.013
 3600SOL     OW11698   0.972   3.530   1.185
 3600SOL    HW111699   0.911   3.602   1.218
 3600SOL    HW211700   1.063   3.567   1.171
 3601SOL     OW11701   5.484   2.151   5.795
 3601SOL    HW111702   5.399   2.156   5.743
 3601SOL    HW211703   5.491   2.229   5.857
 3602SOL     OW11704   1.717   3.306   0.379
 3602SOL    HW111705   1.654   3.319   0.302
 3602SOL    HW211706   1.796   3.367   0.368
 3603SOL     OW11707   3.665   1.036   5.601
 3603SOL    HW111708   3.750   1.089   5.604
 3603SOL    HW211709   3.589   1.092   5.635
 3604SOL     OW11710   5.932   0.966   3.509
 3604SOL    HW111711   5.974   0.992   3.596
 3604SOL    HW211712   5.904   0.870   3.513
 3605SOL     OW11713   1.147   5.581   4.152
 3605SOL    HW111714   1.129   5.585   4.054
 3605SOL    HW211715   1.070   5.620   4.203
 3606SOL     OW11716   1.556   6.935   2.889
 3606SOL    HW111717   1.513   6.903   2.973
 3606SOL    HW211718   1.508   6.897   2.810
 3607SOL     OW11719   5.466   2.919   2.046
 3607SOL    HW111720   5.555   2.963   2.040
 3607SOL    HW211721   5.404   2.976   2.101
 3608SOL     OW11722   5.203   1.685   3.916
 3608SOL    HW111723   5.109   1.674   3.884
 3608SOL    HW211724   5.267   1.661   3.843
 3609SOL     OW11725   1.869   0.087   4.705
 3609SOL    HW111726   1.955   0.037   4.694
 3609SOL    HW211727   1.817   0.083   4.619
 3610SOL     OW11728   1.740   6.999   5.234
 3610SOL    HW111729   1.818   0.037   5.249
 3610SOL    HW211730   1.667   7.021   5.299
 3611SOL     OW11731   4.275   4.777   4.049
 3611SOL    HW111732   4.183   4.818   4.057
 3611SOL    HW211733   4.338   4.845   4.012
 3612SOL     OW11734   6.581   1.151   6.583
 3612SOL    HW111735   6.579   1.224   6.514
 3612SOL    HW211736   6.501   1.093   6.572
 3613SOL     OW11737   3.888   5.118   1.817
 3613SOL    HW111738   3.832   5.173   1.879
 3613SOL    HW211739   3.858   5.023   1.819
 3614SOL     OW11740   3.014   3.394   0.086
 3614SOL    HW111741   3.091   3.457   0.077
 3614SOL    HW211742   2.985   3.390   0.181
 3615SOL     OW11743   5.757   2.830   6.252
 3615SOL    HW111744   5.818   2.823   6.331
 3615SOL    HW211745   5.801   2.788   6.172
 3616SOL     OW11746   1.568   1.077   6.217
 3616SOL    HW111747   1.568   0.987   6.173
 3616SOL    HW211748   1.662   1.103   6.241
 3617SOL     OW11749   4.420   0.332   6.185
 3617SOL    HW111750   4.411   0.358   6.281
 3617SOL    HW211751   4.451   0.237   6.180
 3618SOL     OW11752   2.681   3.463   5.347
 3618SOL    HW111753   2.609   3.469   5.417
 3618SOL    HW211754   2.685   3.369   5.312
 3619SOL     OW11755   5.575   3.305   0.127
 3619SOL    HW111756   5.527   3.295   0.040
 3619SOL    HW211757   5.511   3.291   0.202
 3620SOL     OW11758   6.297   5.533   5.148
 3620SOL    HW111759   6.216   5.508   5.095
 3620SOL    HW211760   6.273   5.599   5.218
 3621SOL     OW11761   3.331   3.200   4.359
 3621SOL    HW111762   3.360   3.173   4.268
 3621SOL    HW211763   3.240   3.242   4.355
 3622SOL     OW11764   1.221   0.350   0.815
 3622SOL    HW111765   1.130   0.365   0.776
 3622SOL    HW211766   1.290   0.380   0.749
 3623SOL     OW11767   0.138   5.320   5.219
 3623SOL    HW111768   0.201   5.306   5.295
 3623SOL    HW211769   0.131   5.418   5.199
 3624SOL     OW11770   1.456   0.049   2.215
 3624SOL    HW111771   1.512   0.055   2.132
 3624SOL    HW211772   1.407   0.135   2.229
 3625SOL     OW11773   0.227   3.397   6.659
 3625SOL    HW111774   0.263   3.394   6.565
 3625SOL    HW211775   0.169   3.318   6.675
 3626SOL     OW11776   0.577   3.466   4.178
 3626SOL    HW111777   0.509   3.478   4.106
 3626SOL    HW211778   0.533   3.428   4.260
 3627SOL     OW11779   4.732   3.445   1.475
 3627SOL    HW111780   4.679   3.404   1.549
 3627SOL    HW211781   4.817   3.483   1.511
 3628SOL     OW11782   1.653   1.094   2.664
 3628SOL    HW111783   1.748   1.116   2.643
 3628SOL    HW211784   1.650   1.038   2.747
 3629SOL     OW11785   1.197   0.669   4.138
 3629SOL    HW111786   1.171   0.753   4.186
 3629SOL    HW211787   1.118   0.633   4.088
 3630SOL     OW11788   6.280   2.819   3.734
 3630SOL    HW111789   6.354   2.764   3.772
 3630SOL    HW211790   6.216   2.844   3.807
 3631SOL     OW11791   1.612   6.533   3.667
 3631SOL    HW111792   1.663   6.459   3.711
 3631SOL    HW211793   1.606   6.515   3.569
 3632SOL     OW11794   4.525   3.941   0.840
 3632SOL    HW111795   4.504   4.011   0.907
 3632SOL    HW211796   4.619   3.908   0.855
 3633SOL     OW11797   4.346   2.354   5.740
 3633SOL    HW111798   4.259   2.308   5.756
 3633SOL    HW211799   4.329   2.451   5.720
 3634SOL     OW11800   2.014   6.410   6.042
 3634SOL    HW111801   2.056   6.434   5.955
 3634SOL    HW211802   2.078   6.429   6.117
 3635SOL     OW11803   2.137   1.471   0.792
 3635SOL    HW111804   2.037   1.471   0.790
 3635SOL    HW211805   2.172   1.421   0.713
 3636SOL     OW11806   0.132   5.554   1.020
 3636SOL    HW111807   0.076   5.508   0.951
 3636SOL    HW211808   0.150   5.648   0.990
 3637SOL     OW11809   1.133   2.828   0.996
 3637SOL    HW111810   1.088   2.765   1.060
 3637SOL    HW211811   1.224   2.794   0.974
 3638SOL     OW11812   6.926   3.749   2.393
 3638SOL    HW111813   6.879   3.823   2.346
 3638SOL    HW211814   6.866   3.670   2.401
 3639SOL     OW11815   3.711   4.695   6.144
 3639SOL    HW111816   3.674   4.752   6.071
 3639SOL    HW211817   3.710   4.599   6.114
 3640SOL     OW11818   4.943   2.140   0.767
 3640SOL    HW111819   4.903   2.076   0.833
 3640SOL    HW211820   4.974   2.222   0.815
 3641SOL     OW11821   5.336   4.928   1.225
 3641SOL    HW111822   5.347   4.831   1.243
 3641SOL    HW211823   5.298   4.973   1.306
 3642SOL     OW11824   5.354   1.986   6.524
 3642SOL    HW111825   5.365   2.031   6.436
 3642SOL    HW211826   5.405   2.036   6.594
 3643SOL     OW11827   3.919   6.762   5.830
 3643SOL    HW111828   4.002   6.721   5.793
 3643SOL    HW211829   3.855   6.691   5.858
 3644SOL     OW11830   2.855   0.694   1.415
 3644SOL    HW111831   2.901   0.641   1.486
 3644SOL    HW211832   2.893   0.670   1.325
 3645SOL     OW11833   1.568   3.668   4.559
 3645SOL    HW111834   1.469   3.676   4.577
 3645SOL    HW211835   1.595   3.737   4.492
 3646SOL     OW11836   2.067   4.825   4.598
 3646SOL    HW111837   2.059   4.800   4.695
 3646SOL    HW211838   2.159   4.801   4.565
 3647SOL     OW11839   2.360   6.382   6.735
 3647SOL    HW111840   2.313   6.457   6.781
 3647SOL    HW211841   2.428   6.420   6.672
 3648SOL     OW11842   4.796   5.683   3.123
 3648SOL    HW111843   4.744   5.630   3.055
 3648SOL    HW211844   4.735   5.712   3.196
 3649SOL     OW11845   5.750   4.157   0.198
 3649SOL    HW111846   5.672   4.095   0.197
 3649SOL    HW211847   5.834   4.106   0.216
 3650SOL     OW11848   5.513   4.417   0.934
 3650SOL    HW111849   5.582   4.473   0.887
 3650SOL    HW211850   5.454   4.373   0.865
 3651SOL     OW11851   1.932   2.094   5.378
 3651SOL    HW111852   2.005   2.113   5.313
 3651SOL    HW211853   1.970   2.092   5.471
 3652SOL     OW11854   5.882   0.420   2.472
 3652SOL    HW111855   5.800   0.432   2.529
 3652SOL    HW211856   5.863   0.454   2.380
 3653SOL     OW11857   0.979   1.088   2.776
 3653SOL    HW111858   1.043   1.021   2.813
 3653SOL    HW211859   0.990   1.175   2.824
 3654SOL     OW11860   4.634   5.989   0.703
 3654SOL    HW111861   4.622   6.040   0.618
 3654SOL    HW211862   4.732   5.982   0.725
 3655SOL     OW11863   2.963   1.045   4.500
 3655SOL    HW111864   3.049   1.095   4.493
 3655SOL    HW211865   2.968   0.980   4.576
 3656SOL     OW11866   0.938   5.128   1.241
 3656SOL    HW111867   1.014   5.097   1.298
 3656SOL    HW211868   0.871   5.175   1.297
 3657SOL     OW11869   5.101   5.755   5.486
 3657SOL    HW111870   5.037   5.832   5.480
 3657SOL    HW211871   5.162   5.769   5.565
 3658SOL     OW11872   1.723   4.769   6.547
 3658SOL    HW111873   1.786   4.846   6.556
 3658SOL    HW211874   1.758   4.705   6.478
 3659SOL     OW11875   0.529   1.369   6.416
 3659SOL    HW111876   0.494   1.276   6.426
 3659SOL    HW211877   0.565   1.401   6.504
 3660SOL     OW11878   5.858   6.442   5.626
 3660SOL    HW111879   5.914   6.447   5.543
 3660SOL    HW211880   5.864   6.529   5.676
 3661SOL     OW11881   0.051   0.714   4.491
 3661SOL    HW111882   0.060   0.626   4.536
 3661SOL    HW211883   0.082   0.708   4.396
 3662SOL     OW11884   3.629   1.072   4.970
 3662SOL    HW111885   3.618   1.104   5.064
 3662SOL    HW211886   3.642   1.150   4.909
 3663SOL     OW11887   2.528   2.338   6.564
 3663SOL    HW111888   2.428   2.342   6.559
 3663SOL    HW211889   2.566   2.411   6.508
 3664SOL     OW11890   4.050   1.758   2.140
 3664SOL    HW111891   4.076   1.775   2.235
 3664SOL    HW211892   4.067   1.841   2.086
 3665SOL     OW11893   0.269   6.155   5.888
 3665SOL    HW111894   0.300   6.231   5.831
 3665SOL    HW211895   0.176   6.173   5.921
 3666SOL     OW11896   1.192   2.891   3.201
 3666SOL    HW111897   1.099   2.925   3.215
 3666SOL    HW211898   1.219   2.907   3.106
 3667SOL     OW11899   0.834   1.520   3.879
 3667SOL    HW111900   0.803   1.574   3.801
 3667SOL    HW211901   0.920   1.475   3.857
 3668SOL     OW11902   1.319   0.483   1.790
 3668SOL    HW111903   1.324   0.402   1.848
 3668SOL    HW211904   1.226   0.496   1.758
 3669SOL     OW11905   6.308   1.607   4.393
 3669SOL    HW111906   6.376   1.619   4.321
 3669SOL    HW211907   6.241   1.538   4.365
 3670SOL     OW11908   3.118   4.887   1.413
 3670SOL    HW111909   3.169   4.802   1.402
 3670SOL    HW211910   3.105   4.929   1.323
 3671SOL     OW11911   6.629   1.184   2.677
 3671SOL    HW111912   6.596   1.102   2.630
 3671SOL    HW211913   6.576   1.199   2.760
 3672SOL     OW11914   5.698   1.284   2.328
 3672SOL    HW111915   5.612   1.336   2.323
 3672SOL    HW211916   5.686   1.195   2.284
 3673SOL     OW11917   3.977   5.344   6.808
 3673SOL    HW111918   3.978   5.350   6.908
 3673SOL    HW211919   4.012   5.430   6.770
 3674SOL     OW11920   1.043   5.849   6.109
 3674SOL    HW111921   1.069   5.795   6.029
 3674SOL    HW211922   1.085   5.940   6.104
 3675SOL     OW11923   7.007   2.224   3.139
 3675SOL    HW111924   7.010   2.313   3.186
 3675SOL    HW211925   6.933   2.169   3.178
 3676SOL     OW11926   5.097   2.999   3.116
 3676SOL    HW111927   5.121   2.923   3.176
 3676SOL    HW211928   5.014   2.977   3.065
 3677SOL     OW11929   2.196   0.762   4.995
 3677SOL    HW111930   2.111   0.710   4.988
 3677SOL    HW211931   2.253   0.723   5.068
 3678SOL     OW11932   1.508   1.431   4.652
 3678SOL    HW111933   1.574   1.499   4.619
 3678SOL    HW211934   1.453   1.398   4.575
 3679SOL     OW11935   5.873   6.925   3.176
 3679SOL    HW111936   5.869   6.966   3.267
 3679SOL    HW211937   5.805   6.969   3.117
 3680SOL     OW11938   4.923   2.223   3.520
 3680SOL    HW111939   4.888   2.288   3.452
 3680SOL    HW211940   4.971   2.273   3.593
 3681SOL     OW11941   0.667   0.432   6.218
 3681SOL    HW111942   0.628   0.518   6.249
 3681SOL    HW211943   0.719   0.447   6.134
 3682SOL     OW11944   5.057   2.332   0.941
 3682SOL    HW111945   5.103   2.273   1.008
 3682SOL    HW211946   4.965   2.354   0.974
 3683SOL     OW11947   0.097   0.909   4.676
 3683SOL    HW111948   0.045   0.919   4.761
 3683SOL    HW211949   0.069   0.825   4.630
 3684SOL     OW11950   1.912   6.500   6.507
 3684SOL    HW111951   1.912   6.553   6.592
 3684SOL    HW211952   1.893   6.404   6.527
 3685SOL     OW11953   2.768   5.866   5.359
 3685SOL    HW111954   2.814   5.933   5.417
 3685SOL    HW211955   2.805   5.871   5.266
 3686SOL     OW11956   6.646   4.189   4.071
 3686SOL    HW111957   6.573   4.182   4.139
 3686SOL    HW211958   6.628   4.126   3.996
 3687SOL     OW11959   5.091   6.656   3.356
 3687SOL    HW111960   5.034   6.652   3.438
 3687SOL    HW211961   5.144   6.572   3.348
 3688SOL     OW11962   6.198   3.640   0.475
 3688SOL    HW111963   6.214   3.686   0.388
 3688SOL    HW211964   6.127   3.570   0.464
 3689SOL     OW11965   2.229   1.911   5.373
 3689SOL    HW111966   2.219   1.830   5.317
 3689SOL    HW211967   2.207   1.889   5.468
 3690SOL     OW11968   5.217   5.736   0.871
 3690SOL    HW111969   5.226   5.675   0.950
 3690SOL    HW211970   5.168   5.689   0.798
 3691SOL     OW11971   2.598   2.128   6.015
 3691SOL    HW111972   2.657   2.176   6.080
 3691SOL    HW211973   2.502   2.140   6.042
 3692SOL     OW11974   7.010   4.290   6.008
 3692SOL    HW111975   7.000   4.320   6.103
 3692SOL    HW211976   0.083   4.271   5.989
 3693SOL     OW11977   1.166   2.025   2.614
 3693SOL    HW111978   1.231   2.100   2.616
 3693SOL    HW211979   1.082   2.054   2.568
 3694SOL     OW11980   1.061   0.495   1.731
 3694SOL    HW111981   1.002   0.564   1.689
 3694SOL    HW211982   1.007   0.440   1.795
 3695SOL     OW11983   6.343   2.387   2.158
 3695SOL    HW111984   6.372   2.410   2.065
 3695SOL    HW211985   6.332   2.471   2.211
 3696SOL     OW11986   5.420   0.940   4.959
 3696SOL    HW111987   5.374   0.974   5.042
 3696SOL    HW211988   5.377   0.854   4.931
 3697SOL     OW11989   6.022   6.102   3.538
 3697SOL    HW111990   5.942   6.064   3.492
 3697SOL    HW211991   6.045   6.044   3.616
 3698SOL     OW11992   2.273   0.921   3.836
 3698SOL    HW111993   2.175   0.907   3.829
 3698SOL    HW211994   2.295   0.966   3.923
 3699SOL     OW11995   2.450   2.166   3.670
 3699SOL    HW111996   2.532   2.109   3.662
 3699SOL    HW211997   2.385   2.142   3.597
 3700SOL     OW11998   1.481   5.629   5.350
 3700SOL    HW111999   1.504   5.701   5.285
 3700SOL    HW212000   1.493   5.540   5.307
 3701SOL     OW12001   0.592   6.276   1.996
 3701SOL    HW112002   0.650   6.323   2.062
 3701SOL    HW212003   0.496   6.296   2.016
 3702SOL     OW12004   5.057   6.268   4.022
 3702SOL    HW112005   5.135   6.209   4.002
 3702SOL    HW212006   4.977   6.237   3.971
 3703SOL     OW12007   1.052   1.157   6.173
 3703SOL    HW112008   0.959   1.147   6.207
 3703SOL    HW212009   1.051   1.157   6.073
 3704SOL     OW12010   4.947   3.497   1.028
 3704SOL    HW112011   4.882   3.421   1.027
 3704SOL    HW212012   4.914   3.568   1.090
 3705SOL     OW12013   4.899   4.800   3.376
 3705SOL    HW112014   4.915   4.895   3.350
 3705SOL    HW212015   4.803   4.777   3.361
 3706SOL     OW12016   0.557   3.986   0.024
 3706SOL    HW112017   0.467   3.969   7.006
 3706SOL    HW212018   0.606   4.053   6.992
 3707SOL     OW12019   3.749   4.921   4.138
 3707SOL    HW112020   3.695   4.956   4.062
 3707SOL    HW212021   3.700   4.846   4.182
 3708SOL     OW12022   4.266   7.018   1.406
 3708SOL    HW112023   4.193   0.024   1.467
 3708SOL    HW212024   4.312   0.076   1.369
 3709SOL     OW12025   1.998   0.185   1.790
 3709SOL    HW112026   2.011   0.269   1.737
 3709SOL    HW212027   2.084   0.134   1.794
 3710SOL     OW12028   0.452   5.248   5.765
 3710SOL    HW112029   0.360   5.215   5.788
 3710SOL    HW212030   0.481   5.315   5.833
 3711SOL     OW12031   1.558   6.435   4.989
 3711SOL    HW112032   1.488   6.436   5.059
 3711SOL    HW212033   1.637   6.382   5.020
 3712SOL     OW12034   2.468   5.280   6.455
 3712SOL    HW112035   2.505   5.198   6.413
 3712SOL    HW212036   2.382   5.258   6.502
 3713SOL     OW12037   0.190   6.645   5.060
 3713SOL    HW112038   0.134   6.659   4.978
 3713SOL    HW212039   0.237   6.557   5.053
 3714SOL     OW12040   0.789   4.616   6.798
 3714SOL    HW112041   0.785   4.665   6.712
 3714SOL    HW212042   0.762   4.676   6.873
 3715SOL     OW12043   0.131   5.567   2.876
 3715SOL    HW112044   0.167   5.573   2.969
 3715SOL    HW212045   0.133   5.472   2.845
 3716SOL     OW12046   6.008   5.348   4.359
 3716SOL    HW112047   6.018   5.356   4.259
 3716SOL    HW212048   5.916   5.316   4.381
 3717SOL     OW12049   5.147   1.433   0.189
 3717SOL    HW112050   5.246   1.446   0.185
 3717SOL    HW212051   5.115   1.445   0.283
 3718SOL     OW12052   0.556   0.131   6.834
 3718SOL    HW112053   0.648   0.160   6.860
 3718SOL    HW212054   0.561   0.063   6.761
 3719SOL     OW12055   4.306   3.097   6.213
 3719SOL    HW112056   4.225   3.157   6.214
 3719SOL    HW212057   4.280   3.008   6.177
 3720SOL     OW12058   5.283   3.820   1.023
 3720SOL    HW112059   5.375   3.812   1.062
 3720SOL    HW212060   5.260   3.735   0.976
 3721SOL     OW12061   6.892   5.245   6.908
 3721SOL    HW112062   6.817   5.260   6.844
 3721SOL    HW212063   6.856   5.213   6.995
 3722SOL     OW12064   4.433   0.237   1.353
 3722SOL    HW112065   4.354   0.265   1.298
 3722SOL    HW212066   4.444   0.300   1.430
 3723SOL     OW12067   4.213   5.094   0.284
 3723SOL    HW112068   4.251   5.078   0.375
 3723SOL    HW212069   4.279   5.066   0.214
 3724SOL     OW12070   1.436   4.893   5.209
 3724SOL    HW112071   1.493   4.938   5.277
 3724SOL    HW212072   1.341   4.925   5.219
 3725SOL     OW12073   0.377   6.178   6.737
 3725SOL    HW112074   0.349   6.268   6.768
 3725SOL    HW212075   0.353   6.110   6.807
 3726SOL     OW12076   5.310   4.296   4.840
 3726SOL    HW112077   5.217   4.311   4.875
 3726SOL    HW212078   5.305   4.252   4.750
 3727SOL     OW12079   6.831   3.423   4.838
 3727SOL    HW112080   6.797   3.417   4.932
 3727SOL    HW212081   6.828   3.518   4.808
 3728SOL     OW12082   2.723   3.504   0.094
 3728SOL    HW112083   2.741   3.411   0.060
 3728SOL    HW212084   2.809   3.556   0.096
 3729SOL     OW12085   0.601   0.096   4.392
 3729SOL    HW112086   0.614   7.022   4.372
 3729SOL    HW212087   0.598   0.109   4.491
 3730SOL     OW12088   3.975   5.868   5.709
 3730SOL    HW112089   3.944   5.959   5.736
 3730SOL    HW212090   3.926   5.839   5.626
 3731SOL     OW12091   0.458   1.454   0.203
 3731SOL    HW112092   0.546   1.405   0.204
 3731SOL    HW212093   0.437   1.483   0.110
 3732SOL     OW12094   1.530   2.071   0.598
 3732SOL    HW112095   1.464   2.009   0.640
 3732SOL    HW212096   1.594   2.104   0.667
 3733SOL     OW12097   1.769   2.989   3.562
 3733SOL    HW112098   1.698   2.986   3.632
 3733SOL    HW212099   1.758   3.073   3.508
 3734SOL     OW12100   3.991   0.536   1.329
 3734SOL    HW112101   3.912   0.591   1.306
 3734SOL    HW212102   3.980   0.499   1.422
 3735SOL     OW12103   4.316   0.388   2.619
 3735SOL    HW112104   4.322   0.363   2.522
 3735SOL    HW212105   4.281   0.311   2.672
 3736SOL     OW12106   6.673   0.863   1.024
 3736SOL    HW112107   6.596   0.843   1.084
 3736SOL    HW212108   6.696   0.781   0.971
 3737SOL     OW12109   6.140   2.577   4.065
 3737SOL    HW112110   6.067   2.539   4.122
 3737SOL    HW212111   6.163   2.669   4.098
 3738SOL     OW12112   6.219   5.852   0.739
 3738SOL    HW112113   6.250   5.807   0.655
 3738SOL    HW212114   6.247   5.948   0.738
 3739SOL     OW12115   3.079   4.537   1.642
 3739SOL    HW112116   3.008   4.587   1.593
 3739SOL    HW212117   3.038   4.484   1.716
 3740SOL     OW12118   5.900   6.019   0.034
 3740SOL    HW112119   5.896   6.083   0.110
 3740SOL    HW212120   5.814   6.022   7.006
 3741SOL     OW12121   4.956   3.457   6.793
 3741SOL    HW112122   4.902   3.523   6.845
 3741SOL    HW212123   4.919   3.365   6.808
 3742SOL     OW12124   4.828   5.646   0.298
 3742SOL    HW112125   4.864   5.739   0.306
 3742SOL    HW212126   4.854   5.607   0.210
 3743SOL     OW12127   4.829   4.501   1.749
 3743SOL    HW112128   4.751   4.441   1.732
 3743SOL    HW212129   4.807   4.563   1.824
 3744SOL     OW12130   0.784   6.452   2.133
 3744SOL    HW112131   0.863   6.407   2.093
 3744SOL    HW212132   0.748   6.521   2.069
 3745SOL     OW12133   4.872   3.736   2.308
 3745SOL    HW112134   4.884   3.784   2.395
 3745SOL    HW212135   4.848   3.802   2.237
 3746SOL     OW12136   0.008   0.511   3.526
 3746SOL    HW112137   0.107   0.502   3.530
 3746SOL    HW212138   6.989   0.421   3.534
 3747SOL     OW12139   4.800   6.404   5.836
 3747SOL    HW112140   4.717   6.420   5.889
 3747SOL    HW212141   4.875   6.379   5.897
 3748SOL     OW12142   5.898   0.839   1.823
 3748SOL    HW112143   5.846   0.776   1.765
 3748SOL    HW212144   5.935   0.789   1.901
 3749SOL     OW12145   1.617   5.469   2.886
 3749SOL    HW112146   1.668   5.551   2.859
 3749SOL    HW212147   1.653   5.434   2.972
 3750SOL     OW12148   5.770   4.591   0.970
 3750SOL    HW112149   5.831   4.540   1.030
 3750SOL    HW212150   5.775   4.689   0.993
 3751SOL     OW12151   0.374   2.508   1.041
 3751SOL    HW112152   0.414   2.432   1.093
 3751SOL    HW212153   0.406   2.594   1.079
 3752SOL     OW12154   0.427   6.746   6.795
 3752SOL    HW112155   0.479   6.688   6.732
 3752SOL    HW212156   0.490   6.807   6.843
 3753SOL     OW12157   0.556   6.417   5.141
 3753SOL    HW112158   0.607   6.496   5.108
 3753SOL    HW212159   0.619   6.354   5.187
 3754SOL     OW12160   5.528   6.417   1.613
 3754SOL    HW112161   5.546   6.322   1.589
 3754SOL    HW212162   5.511   6.470   1.530
 3755SOL     OW12163   5.714   5.318   4.354
 3755SOL    HW112164   5.631   5.298   4.302
 3755SOL    HW212165   5.709   5.274   4.444
 3756SOL     OW12166   2.169   0.451   6.204
 3756SOL    HW112167   2.097   0.393   6.168
 3756SOL    HW212168   2.177   0.437   6.303
 3757SOL     OW12169   3.429   5.730   5.834
 3757SOL    HW112170   3.461   5.754   5.926
 3757SOL    HW212171   3.508   5.711   5.776
 3758SOL     OW12172   2.021   1.686   4.760
 3758SOL    HW112173   2.000   1.637   4.676
 3758SOL    HW212174   1.941   1.685   4.820
 3759SOL     OW12175   4.739   5.372   5.624
 3759SOL    HW112176   4.817   5.418   5.581
 3759SOL    HW212177   4.737   5.276   5.594
 3760SOL     OW12178   1.540   4.034   3.786
 3760SOL    HW112179   1.625   3.986   3.809
 3760SOL    HW212180   1.559   4.131   3.773
 3761SOL     OW12181   0.793   6.567   4.996
 3761SOL    HW112182   0.882   6.586   5.038
 3761SOL    HW212183   0.806   6.512   4.914
 3762SOL     OW12184   0.822   4.333   6.763
 3762SOL    HW112185   0.890   4.276   6.811
 3762SOL    HW212186   0.834   4.429   6.791
 3763SOL     OW12187   6.936   4.676   6.862
 3763SOL    HW112188   6.929   4.639   6.955
 3763SOL    HW212189   6.851   4.659   6.813
 3764SOL     OW12190   1.934   0.880   4.854
 3764SOL    HW112191   1.848   0.831   4.872
 3764SOL    HW212192   1.954   0.877   4.756
 3765SOL     OW12193   5.156   0.843   2.499
 3765SOL    HW112194   5.114   0.828   2.410
 3765SOL    HW212195   5.087   0.835   2.571
 3766SOL     OW12196   0.762   0.515   4.076
 3766SOL    HW112197   0.735   0.419   4.083
 3766SOL    HW212198   0.693   0.572   4.121
 3767SOL     OW12199   2.343   4.611   0.322
 3767SOL    HW112200   2.344   4.693   0.266
 3767SOL    HW212201   2.430   4.602   0.370
 3768SOL     OW12202   3.720   6.156   6.078
 3768SOL    HW112203   3.788   6.084   6.093
 3768SOL    HW212204   3.680   6.146   5.986
 3769SOL     OW12205   5.834   5.718   5.425
 3769SOL    HW112206   5.897   5.745   5.498
 3769SOL    HW212207   5.740   5.742   5.453
 3770SOL     OW12208   1.936   0.461   6.691
 3770SOL    HW112209   1.913   0.363   6.689
 3770SOL    HW212210   1.972   0.485   6.781
 3771SOL     OW12211   5.463   1.774   0.662
 3771SOL    HW112212   5.488   1.728   0.747
 3771SOL    HW212213   5.376   1.822   0.674
 3772SOL     OW12214   6.346   1.508   0.773
 3772SOL    HW112215   6.345   1.489   0.675
 3772SOL    HW212216   6.412   1.448   0.818
 3773SOL     OW12217   5.498   3.371   5.939
 3773SOL    HW112218   5.590   3.340   5.961
 3773SOL    HW212219   5.498   3.423   5.854
 3774SOL     OW12220   1.093   6.931   6.508
 3774SOL    HW112221   1.102   6.832   6.519
 3774SOL    HW212222   1.107   6.956   6.412
 3775SOL     OW12223   5.527   3.695   2.095
 3775SOL    HW112224   5.578   3.778   2.122
 3775SOL    HW212225   5.519   3.692   1.995
 3776SOL     OW12226   2.715   1.163   1.420
 3776SOL    HW112227   2.651   1.119   1.357
 3776SOL    HW212228   2.716   1.262   1.403
 3777SOL     OW12229   2.758   4.722   4.587
 3777SOL    HW112230   2.695   4.761   4.655
 3777SOL    HW212231   2.852   4.741   4.614
 3778SOL     OW12232   2.159   5.986   2.757
 3778SOL    HW112233   2.172   5.891   2.786
 3778SOL    HW212234   2.077   6.023   2.801
 3779SOL     OW12235   2.570   4.888   6.708
 3779SOL    HW112236   2.642   4.824   6.737
 3779SOL    HW212237   2.490   4.836   6.678
 3780SOL     OW12238   3.816   5.074   4.784
 3780SOL    HW112239   3.760   5.117   4.854
 3780SOL    HW212240   3.882   5.013   4.827
 3781SOL     OW12241   2.069   6.542   4.068
 3781SOL    HW112242   1.998   6.612   4.066
 3781SOL    HW212243   2.053   6.477   3.994
 3782SOL     OW12244   2.628   2.245   4.314
 3782SOL    HW112245   2.679   2.211   4.393
 3782SOL    HW212246   2.553   2.303   4.345
 3783SOL     OW12247   6.711   6.620   4.801
 3783SOL    HW112248   6.754   6.676   4.729
 3783SOL    HW212249   6.721   6.523   4.779
 3784SOL     OW12250   5.032   1.418   2.801
 3784SOL    HW112251   5.080   1.348   2.749
 3784SOL    HW212252   5.011   1.496   2.740
 3785SOL     OW12253   2.136   1.116   0.057
 3785SOL    HW112254   2.110   1.019   0.063
 3785SOL    HW212255   2.086   1.160   7.006
 3786SOL     OW12256   2.871   5.857   3.196
 3786SOL    HW112257   2.892   5.946   3.154
 3786SOL    HW212258   2.797   5.869   3.263
 3787SOL     OW12259   5.529   6.448   3.513
 3787SOL    HW112260   5.524   6.513   3.589
 3787SOL    HW212261   5.608   6.388   3.526
 3788SOL     OW12262   6.627   3.100   3.470
 3788SOL    HW112263   6.632   3.200   3.465
 3788SOL    HW212264   6.608   3.063   3.379
 3789SOL     OW12265   1.802   4.568   3.992
 3789SOL    HW112266   1.874   4.538   4.055
 3789SOL    HW212267   1.796   4.668   3.994
 3790SOL     OW12268   1.807   4.009   4.998
 3790SOL    HW112269   1.895   3.994   5.043
 3790SOL    HW212270   1.741   4.047   5.063
 3791SOL     OW12271   5.800   0.028   0.894
 3791SOL    HW112272   5.888   0.039   0.940
 3791SOL    HW212273   5.731   7.022   0.960
 3792SOL     OW12274   6.711   0.670   4.776
 3792SOL    HW112275   6.732   0.758   4.817
 3792SOL    HW212276   6.678   0.683   4.683
 3793SOL     OW12277   2.320   0.437   2.943
 3793SOL    HW112278   2.337   0.535   2.949
 3793SOL    HW212279   2.237   0.414   2.994
 3794SOL     OW12280   3.610   5.437   1.926
 3794SOL    HW112281   3.690   5.443   1.866
 3794SOL    HW212282   3.552   5.517   1.910
 3795SOL     OW12283   4.030   6.510   6.739
 3795SOL    HW112284   3.932   6.531   6.744
 3795SOL    HW212285   4.069   6.509   6.831
 3796SOL     OW12286   2.243   2.273   1.709
 3796SOL    HW112287   2.163   2.286   1.650
 3796SOL    HW212288   2.239   2.338   1.785
 3797SOL     OW12289   6.565   5.426   2.344
 3797SOL    HW112290   6.586   5.513   2.298
 3797SOL    HW212291   6.625   5.415   2.423
 3798SOL     OW12292   2.700   5.137   3.208
 3798SOL    HW112293   2.666   5.107   3.119
 3798SOL    HW212294   2.631   5.193   3.253
 3799SOL     OW12295   1.106   2.424   4.243
 3799SOL    HW112296   1.040   2.352   4.267
 3799SOL    HW212297   1.062   2.491   4.184
 3800SOL     OW12298   5.160   2.201   5.148
 3800SOL    HW112299   5.235   2.258   5.183
 3800SOL    HW212300   5.080   2.211   5.207
 3801SOL     OW12301   6.608   6.112   5.397
 3801SOL    HW112302   6.620   6.126   5.299
 3801SOL    HW212303   6.525   6.059   5.413
 3802SOL     OW12304   0.494   1.720   4.784
 3802SOL    HW112305   0.577   1.775   4.794
 3802SOL    HW212306   0.443   1.752   4.704
 3803SOL     OW12307   3.775   1.342   2.071
 3803SOL    HW112308   3.705   1.344   1.999
 3803SOL    HW212309   3.864   1.327   2.030
 3804SOL     OW12310   4.842   2.156   4.465
 3804SOL    HW112311   4.768   2.192   4.409
 3804SOL    HW212312   4.922   2.139   4.407
 3805SOL     OW12313   2.856   3.905   1.717
 3805SOL    HW112314   2.899   3.990   1.747
 3805SOL    HW212315   2.905   3.827   1.756
 3806SOL     OW12316   2.558   2.692   0.121
 3806SOL    HW112317   2.568   2.755   0.045
 3806SOL    HW212318   2.558   2.742   0.207
 3807SOL     OW12319   2.365   1.784   4.497
 3807SOL    HW112320   2.399   1.732   4.576
 3807SOL    HW212321   2.314   1.723   4.437
 3808SOL     OW12322   3.132   0.427   2.283
 3808SOL    HW112323   3.149   0.400   2.189
 3808SOL    HW212324   3.190   0.374   2.344
 3809SOL     OW12325   5.636   2.128   6.942
 3809SOL    HW112326   5.687   2.193   6.998
 3809SOL    HW212327   5.697   2.055   6.912
 3810SOL     OW12328   4.014   2.852   5.431
 3810SOL    HW112329   4.034   2.941   5.390
 3810SOL    HW212330   3.915   2.837   5.431
 3811SOL     OW12331   0.762   4.462   4.230
 3811SOL    HW112332   0.729   4.556   4.219
 3811SOL    HW212333   0.862   4.461   4.227
 3812SOL     OW12334   5.598   1.510   5.593
 3812SOL    HW112335   5.619   1.549   5.683
 3812SOL    HW212336   5.677   1.459   5.559
 3813SOL     OW12337   4.235   4.225   1.148
 3813SOL    HW112338   4.214   4.133   1.114
 3813SOL    HW212339   4.282   4.218   1.236
 3814SOL     OW12340   0.413   6.458   1.004
 3814SOL    HW112341   0.404   6.475   1.102
 3814SOL    HW212342   0.426   6.360   0.988
 3815SOL     OW12343   4.714   1.839   0.567
 3815SOL    HW112344   4.783   1.827   0.639
 3815SOL    HW212345   4.638   1.776   0.583
 3816SOL     OW12346   0.179   6.696   1.410
 3816SOL    HW112347   0.200   6.691   1.508
 3816SOL    HW212348   0.190   6.790   1.378
 3817SOL     OW12349   4.772   2.893   4.100
 3817SOL    HW112350   4.852   2.835   4.087
 3817SOL    HW212351   4.767   2.960   4.026
 3818SOL     OW12352   4.474   6.590   1.603
 3818SOL    HW112353   4.388   6.622   1.564
 3818SOL    HW212354   4.505   6.653   1.673
 3819SOL     OW12355   5.514   4.817   0.565
 3819SOL    HW112356   5.565   4.742   0.607
 3819SOL    HW212357   5.490   4.885   0.636
 3820SOL     OW12358   6.381   6.497   3.541
 3820SOL    HW112359   6.322   6.454   3.610
 3820SOL    HW212360   6.452   6.551   3.587
 3821SOL     OW12361   1.557   3.185   2.159
 3821SOL    HW112362   1.480   3.233   2.117
 3821SOL    HW212363   1.591   3.116   2.095
 3822SOL     OW12364   1.361   5.319   2.245
 3822SOL    HW112365   1.294   5.393   2.236
 3822SOL    HW212366   1.318   5.233   2.219
 3823SOL     OW12367   4.158   2.169   5.033
 3823SOL    HW112368   4.104   2.190   5.114
 3823SOL    HW212369   4.205   2.252   5.002
 3824SOL     OW12370   6.136   1.716   5.370
 3824SOL    HW112371   6.112   1.761   5.456
 3824SOL    HW212372   6.153   1.619   5.388
 3825SOL     OW12373   0.270   0.200   0.059
 3825SOL    HW112374   0.315   0.287   0.037
 3825SOL    HW212375   0.261   0.145   6.999
 3826SOL     OW12376   0.232   3.522   0.041
 3826SOL    HW112377   0.279   3.488   0.122
 3826SOL    HW212378   0.297   3.573   7.007
 3827SOL     OW12379   3.798   3.932   1.041
 3827SOL    HW112380   3.744   3.853   1.012
 3827SOL    HW212381   3.867   3.902   1.107
 3828SOL     OW12382   4.523   2.410   0.543
 3828SOL    HW112383   4.558   2.500   0.520
 3828SOL    HW212384   4.599   2.351   0.570
 3829SOL     OW12385   2.031   5.024   4.232
 3829SOL    HW112386   2.024   5.076   4.317
 3829SOL    HW212387   2.039   5.088   4.155
 3830SOL     OW12388   1.004   0.158   5.587
 3830SOL    HW112389   1.018   0.222   5.662
 3830SOL    HW212390   0.995   0.065   5.624
 3831SOL     OW12391   4.450   1.968   2.479
 3831SOL    HW112392   4.425   1.872   2.466
 3831SOL    HW212393   4.544   1.974   2.513
 3832SOL     OW12394   6.788   0.799   1.990
 3832SOL    HW112395   6.720   0.873   1.990
 3832SOL    HW212396   6.861   0.822   1.926
 3833SOL     OW12397   0.972   5.195   6.775
 3833SOL    HW112398   0.975   5.248   6.691
 3833SOL    HW212399   1.048   5.130   6.777
 3834SOL     OW12400   2.900   1.904   0.090
 3834SOL    HW112401   2.835   1.953   0.147
 3834SOL    HW212402   2.852   1.869   0.009
 3835SOL     OW12403   3.397   5.343   5.328
 3835SOL    HW112404   3.496   5.338   5.339
 3835SOL    HW212405   3.367   5.277   5.260
 3836SOL     OW12406   2.139   3.567   5.309
 3836SOL    HW112407   2.118   3.499   5.380
 3836SOL    HW212408   2.128   3.525   5.219
 3837SOL     OW12409   4.585   3.614   0.525
 3837SOL    HW112410   4.566   3.542   0.459
 3837SOL    HW212411   4.564   3.703   0.483
 3838SOL     OW12412   5.480   3.515   4.900
 3838SOL    HW112413   5.515   3.545   4.989
 3838SOL    HW212414   5.398   3.567   4.878
 3839SOL     OW12415   4.792   0.264   4.846
 3839SOL    HW112416   4.881   0.297   4.875
 3839SOL    HW212417   4.737   0.242   4.927
 3840SOL     OW12418   0.724   0.648   5.122
 3840SOL    HW112419   0.798   0.714   5.136
 3840SOL    HW212420   0.763   0.557   5.105
 3841SOL     OW12421   0.488   4.058   5.059
 3841SOL    HW112422   0.579   4.022   5.042
 3841SOL    HW212423   0.432   3.989   5.105
 3842SOL     OW12424   1.079   5.440   0.233
 3842SOL    HW112425   1.135   5.405   0.158
 3842SOL    HW212426   1.020   5.514   0.199
 3843SOL     OW12427   0.336   3.278   0.916
 3843SOL    HW112428   0.390   3.344   0.970
 3843SOL    HW212429   0.377   3.269   0.825
 3844SOL     OW12430   1.196   5.312   5.541
 3844SOL    HW112431   1.264   5.359   5.597
 3844SOL    HW212432   1.236   5.292   5.451
 3845SOL     OW12433   3.256   2.987   2.761
 3845SOL    HW112434   3.241   3.039   2.676
 3845SOL    HW212435   3.181   3.006   2.825
 3846SOL     OW12436   0.058   5.123   4.034
 3846SOL    HW112437   0.156   5.145   4.040
 3846SOL    HW212438   0.047   5.035   3.989
 3847SOL     OW12439   6.149   0.929   6.587
 3847SOL    HW112440   6.197   0.907   6.672
 3847SOL    HW212441   6.177   0.865   6.515
 3848SOL     OW12442   2.056   5.404   2.566
 3848SOL    HW112443   2.117   5.377   2.491
 3848SOL    HW212444   2.111   5.431   2.645
 3849SOL     OW12445   0.337   1.642   5.853
 3849SOL    HW112446   0.262   1.614   5.793
 3849SOL    HW212447   0.305   1.715   5.913
 3850SOL     OW12448   2.639   3.460   1.762
 3850SOL    HW112449   2.648   3.553   1.727
 3850SOL    HW212450   2.543   3.442   1.785
 3851SOL     OW12451   1.979   4.085   2.847
 3851SOL    HW112452   2.009   4.042   2.931
 3851SOL    HW212453   1.894   4.042   2.815
 3852SOL     OW12454   4.455   0.059   4.738
 3852SOL    HW112455   4.487   0.148   4.707
 3852SOL    HW212456   4.367   0.069   4.784
 3853SOL     OW12457   0.707   3.318   2.334
 3853SOL    HW112458   0.796   3.308   2.378
 3853SOL    HW212459   0.656   3.390   2.381
 3854SOL     OW12460   0.837   3.232   3.246
 3854SOL    HW112461   0.867   3.218   3.341
 3854SOL    HW212462   0.742   3.203   3.237
 3855SOL     OW12463   5.902   4.718   6.296
 3855SOL    HW112464   5.962   4.726   6.217
 3855SOL    HW212465   5.830   4.651   6.277
 3856SOL     OW12466   0.206   0.216   6.052
 3856SOL    HW112467   0.238   0.132   6.094
 3856SOL    HW212468   0.108   0.211   6.036
 3857SOL     OW12469   1.546   6.864   4.905
 3857SOL    HW112470   1.641   6.853   4.933
 3857SOL    HW212471   1.542   6.908   4.815
 3858SOL     OW12472   0.800   6.333   6.328
 3858SOL    HW112473   0.773   6.262   6.393
 3858SOL    HW212474   0.839   6.290   6.247
 3859SOL     OW12475   6.621   2.424   3.861
 3859SOL    HW112476   6.522   2.423   3.849
 3859SOL    HW212477   6.643   2.457   3.953
 3860SOL     OW12478   2.630   5.760   4.991
 3860SOL    HW112479   2.598   5.851   5.015
 3860SOL    HW212480   2.724   5.765   4.957
 3861SOL     OW12481   5.602   4.945   1.161
 3861SOL    HW112482   5.602   5.018   1.230
 3861SOL    HW212483   5.509   4.911   1.149
 3862SOL     OW12484   6.930   0.349   6.578
 3862SOL    HW112485   6.850   0.332   6.636
 3862SOL    HW212486   6.932   0.445   6.552
 3863SOL     OW12487   2.973   3.646   0.470
 3863SOL    HW112488   2.964   3.552   0.438
 3863SOL    HW212489   3.047   3.691   0.420
 3864SOL     OW12490   4.213   1.859   6.539
 3864SOL    HW112491   4.232   1.936   6.478
 3864SOL    HW212492   4.127   1.816   6.513
 3865SOL     OW12493   3.975   0.187   2.324
 3865SOL    HW112494   4.001   0.253   2.254
 3865SOL    HW212495   4.013   0.098   2.302
 3866SOL     OW12496   3.968   0.206   0.616
 3866SOL    HW112497   3.980   0.302   0.640
 3866SOL    HW212498   4.033   0.180   0.545
 3867SOL     OW12499   1.999   3.847   3.428
 3867SOL    HW112500   2.064   3.863   3.502
 3867SOL    HW212501   2.005   3.751   3.399
 3868SOL     OW12502   1.846   6.313   1.632
 3868SOL    HW112503   1.764   6.347   1.676
 3868SOL    HW212504   1.926   6.331   1.690
 3869SOL     OW12505   6.965   2.479   3.251
 3869SOL    HW112506   6.869   2.451   3.256
 3869SOL    HW212507   6.976   2.550   3.182
 3870SOL     OW12508   2.788   4.707   6.795
 3870SOL    HW112509   2.719   4.719   6.867
 3870SOL    HW212510   2.765   4.627   6.740
 3871SOL     OW12511   3.232   6.800   2.927
 3871SOL    HW112512   3.323   6.827   2.961
 3871SOL    HW212513   3.219   6.835   2.835
 3872SOL     OW12514   3.842   3.332   1.236
 3872SOL    HW112515   3.901   3.353   1.158
 3872SOL    HW212516   3.811   3.237   1.230
 3873SOL     OW12517   5.222   5.560   1.098
 3873SOL    HW112518   5.292   5.488   1.101
 3873SOL    HW212519   5.131   5.519   1.092
 3874SOL     OW12520   4.368   6.506   6.994
 3874SOL    HW112521   4.384   6.439   0.043
 3874SOL    HW212522   4.448   6.566   6.985
 3875SOL     OW12523   1.510   4.287   2.214
 3875SOL    HW112524   1.470   4.196   2.226
 3875SOL    HW212525   1.482   4.346   2.289
 3876SOL     OW12526   6.027   4.973   5.124
 3876SOL    HW112527   6.006   5.042   5.055
 3876SOL    HW212528   5.943   4.949   5.173
 3877SOL     OW12529   5.871   1.110   1.934
 3877SOL    HW112530   5.796   1.173   1.912
 3877SOL    HW212531   5.853   1.021   1.892
 3878SOL     OW12532   3.682   6.572   6.353
 3878SOL    HW112533   3.748   6.615   6.291
 3878SOL    HW212534   3.729   6.539   6.434
 3879SOL     OW12535   4.546   5.290   1.690
 3879SOL    HW112536   4.493   5.267   1.609
 3879SOL    HW212537   4.543   5.389   1.706
 3880SOL     OW12538   5.889   3.776   2.366
 3880SOL    HW112539   5.879   3.732   2.277
 3880SOL    HW212540   5.956   3.727   2.421
 3881SOL     OW12541   1.772   5.000   1.145
 3881SOL    HW112542   1.822   4.920   1.110
 3881SOL    HW212543   1.674   4.980   1.144
 3882SOL     OW12544   6.116   1.119   6.113
 3882SOL    HW112545   6.209   1.152   6.132
 3882SOL    HW212546   6.121   1.033   6.061
 3883SOL     OW12547   4.860   1.457   3.675
 3883SOL    HW112548   4.842   1.480   3.579
 3883SOL    HW212549   4.860   1.358   3.686
 3884SOL     OW12550   2.001   5.980   5.066
 3884SOL    HW112551   1.952   5.945   4.986
 3884SOL    HW212552   2.086   5.929   5.077
 3885SOL     OW12553   6.952   0.999   4.159
 3885SOL    HW112554   6.962   1.047   4.072
 3885SOL    HW212555   6.934   1.066   4.231
 3886SOL     OW12556   0.130   0.387   5.278
 3886SOL    HW112557   0.209   0.424   5.327
 3886SOL    HW212558   0.146   0.393   5.179
 3887SOL     OW12559   4.036   1.494   5.245
 3887SOL    HW112560   4.037   1.425   5.317
 3887SOL    HW212561   3.957   1.479   5.185
 3888SOL     OW12562   6.239   1.765   0.717
 3888SOL    HW112563   6.256   1.774   0.619
 3888SOL    HW212564   6.262   1.672   0.747
 3889SOL     OW12565   0.680   5.237   6.456
 3889SOL    HW112566   0.688   5.222   6.358
 3889SOL    HW212567   0.590   5.274   6.477
 3890SOL     OW12568   5.654   5.515   3.105
 3890SOL    HW112569   5.604   5.438   3.066
 3890SOL    HW212570   5.729   5.540   3.043
 3891SOL     OW12571   5.268   5.622   4.943
 3891SOL    HW112572   5.252   5.655   5.036
 3891SOL    HW212573   5.357   5.654   4.911
 3892SOL     OW12574   6.096   6.768   3.125
 3892SOL    HW112575   6.150   6.825   3.064
 3892SOL    HW212576   6.005   6.808   3.137
 3893SOL     OW12577   3.203   5.476   4.132
 3893SOL    HW112578   3.302   5.467   4.133
 3893SOL    HW212579   3.173   5.524   4.214
 3894SOL     OW12580   4.561   3.443   0.325
 3894SOL    HW112581   4.536   3.346   0.316
 3894SOL    HW212582   4.518   3.495   0.251
 3895SOL     OW12583   1.389   0.932   5.469
 3895SOL    HW112584   1.329   0.964   5.542
 3895SOL    HW212585   1.344   0.947   5.381
 3896SOL     OW12586   6.873   2.625   5.218
 3896SOL    HW112587   6.931   2.588   5.145
 3896SOL    HW212588   6.834   2.712   5.188
 3897SOL     OW12589   3.610   6.807   2.169
 3897SOL    HW112590   3.531   6.822   2.109
 3897SOL    HW212591   3.615   6.711   2.194
 3898SOL     OW12592   4.123   3.462   4.396
 3898SOL    HW112593   4.220   3.458   4.370
 3898SOL    HW212594   4.066   3.432   4.320
 3899SOL     OW12595   4.634   1.616   5.856
 3899SOL    HW112596   4.705   1.684   5.874
 3899SOL    HW212597   4.609   1.570   5.941
 3900SOL     OW12598   6.310   2.564   3.427
 3900SOL    HW112599   6.397   2.515   3.440
 3900SOL    HW212600   6.327   2.662   3.422
 3901SOL     OW12601   1.241   6.498   4.967
 3901SOL    HW112602   1.143   6.511   4.978
 3901SOL    HW212603   1.258   6.429   4.896
 3902SOL     OW12604   5.371   4.923   1.890
 3902SOL    HW112605   5.287   4.872   1.909
 3902SOL    HW212606   5.395   4.913   1.794
 3903SOL     OW12607   4.458   3.225   6.942
 3903SOL    HW112608   4.435   3.160   6.869
 3903SOL    HW212609   4.413   3.312   6.924
 3904SOL     OW12610   1.152   6.295   0.704
 3904SOL    HW112611   1.212   6.359   0.751
 3904SOL    HW212612   1.079   6.346   0.658
 3905SOL     OW12613   6.546   0.072   5.948
 3905SOL    HW112614   6.490   0.118   6.018
 3905SOL    HW212615   6.561   0.135   5.872
 3906SOL     OW12616   1.673   5.182   4.276
 3906SOL    HW112617   1.630   5.151   4.361
 3906SOL    HW212618   1.749   5.243   4.297
 3907SOL     OW12619   6.941   1.272   4.304
 3907SOL    HW112620   6.852   1.300   4.340
 3907SOL    HW212621   6.993   1.226   4.376
 3908SOL     OW12622   1.127   0.250   5.132
 3908SOL    HW112623   1.215   0.214   5.102
 3908SOL    HW212624   1.059   0.176   5.133
 3909SOL     OW12625   5.404   3.110   5.881
 3909SOL    HW112626   5.373   3.106   5.786
 3909SOL    HW212627   5.421   3.205   5.907
 3910SOL     OW12628   3.636   2.751   0.800
 3910SOL    HW112629   3.704   2.770   0.730
 3910SOL    HW212630   3.549   2.794   0.775
 3911SOL     OW12631   6.127   1.109   1.521
 3911SOL    HW112632   6.052   1.174   1.506
 3911SOL    HW212633   6.214   1.158   1.516
 3912SOL     OW12634   4.011   2.158   0.159
 3912SOL    HW112635   4.052   2.067   0.150
 3912SOL    HW212636   4.068   2.214   0.219
 3913SOL     OW12637   4.560   5.472   0.689
 3913SOL    HW112638   4.495   5.484   0.614
 3913SOL    HW212639   4.631   5.542   0.683
 3914SOL     OW12640   5.683   0.803   0.726
 3914SOL    HW112641   5.721   0.720   0.686
 3914SOL    HW212642   5.667   0.871   0.654
 3915SOL     OW12643   4.808   5.029   0.146
 3915SOL    HW112644   4.786   4.943   0.100
 3915SOL    HW212645   4.840   5.010   0.239
 3916SOL     OW12646   1.927   0.896   2.741
 3916SOL    HW112647   1.981   0.980   2.741
 3916SOL    HW212648   1.847   0.909   2.800
 3917SOL     OW12649   2.857   4.780   0.755
 3917SOL    HW112650   2.859   4.682   0.776
 3917SOL    HW212651   2.918   4.829   0.817
 3918SOL     OW12652   5.397   0.296   0.527
 3918SOL    HW112653   5.305   0.317   0.496
 3918SOL    HW212654   5.394   0.271   0.624
 3919SOL     OW12655   4.004   0.396   1.614
 3919SOL    HW112656   3.919   0.391   1.667
 3919SOL    HW212657   4.067   0.460   1.659
 3920SOL     OW12658   3.049   0.990   5.649
 3920SOL    HW112659   3.086   0.900   5.626
 3920SOL    HW212660   2.959   1.001   5.607
 3921SOL     OW12661   0.595   2.551   6.567
 3921SOL    HW112662   0.585   2.643   6.604
 3921SOL    HW212663   0.534   2.540   6.488
 3922SOL     OW12664   4.361   5.115   2.322
 3922SOL    HW112665   4.375   5.091   2.226
 3922SOL    HW212666   4.328   5.035   2.372
 3923SOL     OW12667   4.798   0.526   1.651
 3923SOL    HW112668   4.850   0.442   1.672
 3923SOL    HW212669   4.703   0.502   1.630
 3924SOL     OW12670   6.480   4.389   4.366
 3924SOL    HW112671   6.451   4.433   4.451
 3924SOL    HW212672   6.560   4.331   4.384
 3925SOL     OW12673   4.480   3.693   0.916
 3925SOL    HW112674   4.409   3.686   0.987
 3925SOL    HW212675   4.494   3.789   0.891
 3926SOL     OW12676   0.500   0.294   5.262
 3926SOL    HW112677   0.429   0.262   5.324
 3926SOL    HW212678   0.562   0.356   5.311
 3927SOL     OW12679   6.629   2.943   4.998
 3927SOL    HW112680   6.628   2.886   5.081
 3927SOL    HW212681   6.631   3.039   5.023
 3928SOL     OW12682   2.134   6.300   2.813
 3928SOL    HW112683   2.112   6.205   2.789
 3928SOL    HW212684   2.081   6.328   2.893
 3929SOL     OW12685   0.527   2.089   5.403
 3929SOL    HW112686   0.577   2.019   5.454
 3929SOL    HW212687   0.454   2.046   5.351
 3930SOL     OW12688   1.098   3.585   3.757
 3930SOL    HW112689   1.107   3.488   3.779
 3930SOL    HW212690   1.167   3.609   3.688
 3931SOL     OW12691   1.392   2.264   1.611
 3931SOL    HW112692   1.303   2.264   1.658
 3931SOL    HW212693   1.388   2.326   1.532
 3932SOL     OW12694   1.404   5.833   4.336
 3932SOL    HW112695   1.361   5.862   4.250
 3932SOL    HW212696   1.500   5.810   4.319
 3933SOL     OW12697   2.383   4.959   0.474
 3933SOL    HW112698   2.401   5.046   0.522
 3933SOL    HW212699   2.362   4.978   0.378
 3934SOL     OW12700   0.515   1.925   1.957
 3934SOL    HW112701   0.520   1.933   2.056
 3934SOL    HW212702   0.575   1.850   1.926
 3935SOL     OW12703   6.575   3.412   6.974
 3935SOL    HW112704   6.490   3.464   6.974
 3935SOL    HW212705   6.589   3.369   6.885
 3936SOL     OW12706   0.095   5.336   5.681
 3936SOL    HW112707   0.149   5.331   5.597
 3936SOL    HW212708   0.094   5.247   5.726
 3937SOL     OW12709   0.082   6.961   2.396
 3937SOL    HW112710   0.158   6.998   2.449
 3937SOL    HW212711   0.051   6.875   2.437
 3938SOL     OW12712   7.001   4.104   3.000
 3938SOL    HW112713   0.054   4.157   3.037
 3938SOL    HW212714   7.004   4.104   2.901
 3939SOL     OW12715   0.544   1.065   2.278
 3939SOL    HW112716   0.486   1.130   2.229
 3939SOL    HW212717   0.544   1.087   2.375
 3940SOL     OW12718   3.193   4.626   1.367
 3940SOL    HW112719   3.124   4.579   1.422
 3940SOL    HW212720   3.250   4.559   1.320
 3941SOL     OW12721   5.957   6.826   4.375
 3941SOL    HW112722   5.953   6.738   4.422
 3941SOL    HW212723   5.896   6.891   4.421
 3942SOL     OW12724   0.386   5.975   6.236
 3942SOL    HW112725   0.441   6.002   6.157
 3942SOL    HW212726   0.441   5.982   6.319
 3943SOL     OW12727   1.479   3.244   0.491
 3943SOL    HW112728   1.576   3.243   0.469
 3943SOL    HW212729   1.456   3.329   0.539
 3944SOL     OW12730   6.197   2.113   6.958
 3944SOL    HW112731   6.119   2.075   7.007
 3944SOL    HW212732   6.205   2.069   6.869
 3945SOL     OW12733   0.125   1.285   2.988
 3945SOL    HW112734   0.140   1.284   2.889
 3945SOL    HW212735   0.031   1.259   3.008
 3946SOL     OW12736   1.120   3.057   0.749
 3946SOL    HW112737   1.118   3.070   0.848
 3946SOL    HW212738   1.128   2.959   0.729
 3947SOL     OW12739   5.893   5.189   1.180
 3947SOL    HW112740   5.878   5.241   1.096
 3947SOL    HW212741   5.982   5.143   1.176
 3948SOL     OW12742   1.607   2.293   6.008
 3948SOL    HW112743   1.674   2.360   5.978
 3948SOL    HW212744   1.609   2.288   6.108
 3949SOL     OW12745   6.123   6.187   2.484
 3949SOL    HW112746   6.140   6.232   2.396
 3949SOL    HW212747   6.161   6.242   2.558
 3950SOL     OW12748   3.247   4.151   1.142
 3950SOL    HW112749   3.153   4.164   1.108
 3950SOL    HW212750   3.274   4.232   1.194
 3951SOL     OW12751   0.759   1.980   5.512
 3951SOL    HW112752   0.841   1.976   5.455
 3951SOL    HW212753   0.769   2.053   5.580
 3952SOL     OW12754   6.668   3.532   5.613
 3952SOL    HW112755   6.676   3.446   5.562
 3952SOL    HW212756   6.732   3.599   5.576
 3953SOL     OW12757   3.599   4.244   6.146
 3953SOL    HW112758   3.556   4.213   6.061
 3953SOL    HW212759   3.652   4.327   6.128
 3954SOL     OW12760   0.809   3.621   5.485
 3954SOL    HW112761   0.813   3.627   5.386
 3954SOL    HW212762   0.719   3.589   5.514
 3955SOL     OW12763   5.421   4.737   0.193
 3955SOL    HW112764   5.379   4.766   0.107
 3955SOL    HW212765   5.385   4.794   0.268
 3956SOL     OW12766   0.507   2.877   5.640
 3956SOL    HW112767   0.514   2.907   5.544
 3956SOL    HW212768   0.506   2.957   5.700
 3957SOL     OW12769   1.732   0.349   3.355
 3957SOL    HW112770   1.826   0.350   3.321
 3957SOL    HW212771   1.673   0.400   3.292
 3958SOL     OW12772   6.007   6.375   5.382
 3958SOL    HW112773   6.027   6.389   5.285
 3958SOL    HW212774   6.088   6.395   5.437
 3959SOL     OW12775   2.855   5.110   6.986
 3959SOL    HW112776   2.768   5.067   7.013
 3959SOL    HW212777   2.930   5.067   0.013
 3960SOL     OW12778   3.931   3.486   0.076
 3960SOL    HW112779   3.868   3.454   0.146
 3960SOL    HW212780   3.968   3.407   0.026
 3961SOL     OW12781   4.636   0.574   1.338
 3961SOL    HW112782   4.622   0.537   1.430
 3961SOL    HW212783   4.718   0.532   1.299
 3962SOL     OW12784   0.759   0.175   6.258
 3962SOL    HW112785   0.713   0.264   6.249
 3962SOL    HW212786   0.740   0.120   6.176
 3963SOL     OW12787   4.291   5.644   3.250
 3963SOL    HW112788   4.388   5.651   3.275
 3963SOL    HW212789   4.264   5.547   3.249
 3964SOL     OW12790   5.205   5.746   5.224
 3964SOL    HW112791   5.138   5.718   5.293
 3964SOL    HW212792   5.157   5.785   5.145
 3965SOL     OW12793   3.417   3.417   0.231
 3965SOL    HW112794   3.495   3.470   0.198
 3965SOL    HW212795   3.443   3.367   0.314
 3966SOL     OW12796   6.080   3.862   5.184
 3966SOL    HW112797   6.176   3.865   5.212
 3966SOL    HW212798   6.049   3.955   5.163
 3967SOL     OW12799   0.393   5.525   6.169
 3967SOL    HW112800   0.296   5.532   6.148
 3967SOL    HW212801   0.445   5.587   6.110
 3968SOL     OW12802   6.131   1.243   1.868
 3968SOL    HW112803   6.044   1.195   1.856
 3968SOL    HW212804   6.167   1.224   1.959
 3969SOL     OW12805   0.362   5.279   2.497
 3969SOL    HW112806   0.313   5.366   2.504
 3969SOL    HW212807   0.429   5.273   2.572
 3970SOL     OW12808   5.209   4.359   2.869
 3970SOL    HW112809   5.118   4.391   2.893
 3970SOL    HW212810   5.214   4.260   2.880
 3971SOL     OW12811   1.348   5.782   3.017
 3971SOL    HW112812   1.349   5.693   2.974
 3971SOL    HW212813   1.370   5.853   2.950
 3972SOL     OW12814   0.831   0.008   0.086
 3972SOL    HW112815   0.893   6.953   0.095
 3972SOL    HW212816   0.805   0.042   0.176
 3973SOL     OW12817   2.877   3.525   4.433
 3973SOL    HW112818   2.941   3.593   4.396
 3973SOL    HW212819   2.854   3.550   4.528
 3974SOL     OW12820   6.221   1.556   6.610
 3974SOL    HW112821   6.157   1.509   6.550
 3974SOL    HW212822   6.298   1.496   6.631
 3975SOL     OW12823   6.852   0.594   5.922
 3975SOL    HW112824   6.806   0.548   5.997
 3975SOL    HW212825   6.924   0.535   5.885
 3976SOL     OW12826   1.116   3.176   0.397
 3976SOL    HW112827   1.118   3.182   0.497
 3976SOL    HW212828   1.112   3.268   0.358
 3977SOL     OW12829   3.404   6.089   6.441
 3977SOL    HW112830   3.484   6.084   6.382
 3977SOL    HW212831   3.353   6.003   6.434
 3978SOL     OW12832   6.197   2.858   6.363
 3978SOL    HW112833   6.135   2.927   6.327
 3978SOL    HW212834   6.275   2.849   6.302
 3979SOL     OW12835   0.433   6.972   2.190
 3979SOL    HW112836   0.412   6.949   2.285
 3979SOL    HW212837   0.483   0.035   2.187
 3980SOL     OW12838   4.912   3.234   4.509
 3980SOL    HW112839   4.962   3.155   4.472
 3980SOL    HW212840   4.939   3.249   4.604
 3981SOL     OW12841   7.023   1.869   6.730
 3981SOL    HW112842   6.956   1.921   6.783
 3981SOL    HW212843   0.012   1.779   6.771
 3982SOL     OW12844   2.403   1.852   3.825
 3982SOL    HW112845   2.367   1.864   3.732
 3982SOL    HW212846   2.502   1.867   3.824
 3983SOL     OW12847   3.047   5.973   4.400
 3983SOL    HW112848   2.948   5.961   4.386
 3983SOL    HW212849   3.063   6.057   4.453
 3984SOL     OW12850   2.253   6.510   1.452
 3984SOL    HW112851   2.182   6.576   1.477
 3984SOL    HW212852   2.220   6.417   1.468
 3985SOL     OW12853   2.501   3.163   1.535
 3985SOL    HW112854   2.498   3.092   1.465
 3985SOL    HW212855   2.579   3.149   1.595
 3986SOL     OW12856   0.490   2.126   1.757
 3986SOL    HW112857   0.520   2.219   1.781
 3986SOL    HW212858   0.494   2.068   1.838
 3987SOL     OW12859   2.694   4.763   6.433
 3987SOL    HW112860   2.680   4.859   6.459
 3987SOL    HW212861   2.778   4.756   6.378
 3988SOL     OW12862   4.299   2.834   0.643
 3988SOL    HW112863   4.349   2.920   0.632
 3988SOL    HW212864   4.210   2.852   0.684
 3989SOL     OW12865   5.223   6.728   6.697
 3989SOL    HW112866   5.195   6.718   6.793
 3989SOL    HW212867   5.191   6.649   6.645
 3990SOL     OW12868   0.776   3.486   3.446
 3990SOL    HW112869   0.734   3.469   3.357
 3990SOL    HW212870   0.793   3.399   3.493
 3991SOL     OW12871   7.008   2.074   4.004
 3991SOL    HW112872   6.920   2.079   3.956
 3991SOL    HW212873   0.044   2.007   3.959
 3992SOL     OW12874   4.314   3.720   6.318
 3992SOL    HW112875   4.381   3.758   6.382
 3992SOL    HW212876   4.277   3.635   6.356
 3993SOL     OW12877   2.719   2.338   2.904
 3993SOL    HW112878   2.705   2.371   2.998
 3993SOL    HW212879   2.666   2.394   2.841
 3994SOL     OW12880   2.274   2.990   3.806
 3994SOL    HW112881   2.337   3.051   3.757
 3994SOL    HW212882   2.316   2.900   3.816
 3995SOL     OW12883   2.197   4.056   3.382
 3995SOL    HW112884   2.233   4.080   3.472
 3995SOL    HW212885   2.130   3.983   3.391
 3996SOL     OW12886   0.361   1.199   3.092
 3996SOL    HW112887   0.383   1.102   3.077
 3996SOL    HW212888   0.272   1.219   3.052
 3997SOL     OW12889   5.561   3.800   3.229
 3997SOL    HW112890   5.564   3.701   3.210
 3997SOL    HW212891   5.623   3.848   3.167
 3998SOL     OW12892   6.505   2.051   3.234
 3998SOL    HW112893   6.590   2.094   3.263
 3998SOL    HW212894   6.512   1.952   3.244
 3999SOL     OW12895   5.518   3.693   2.396
 3999SOL    HW112896   5.525   3.597   2.370
 3999SOL    HW212897   5.553   3.750   2.322
 4000SOL     OW12898   2.284   5.649   2.349
 4000SOL    HW112899   2.190   5.677   2.329
 4000SOL    HW212900   2.285   5.551   2.373
 4001SOL     OW12901   2.652   3.874   5.331
 4001SOL    HW112902   2.732   3.929   5.309
 4001SOL    HW212903   2.576   3.899   5.271
 4002SOL     OW12904   3.800   2.927   4.321
 4002SOL    HW112905   3.714   2.907   4.368
 4002SOL    HW212906   3.805   2.872   4.237
 4003SOL     OW12907   2.270   0.879   5.571
 4003SOL    HW112908   2.331   0.933   5.514
 4003SOL    HW212909   2.183   0.928   5.582
 4004SOL     OW12910   0.069   3.832   2.902
 4004SOL    HW112911   0.059   3.827   2.803
 4004SOL    HW212912   7.018   3.887   2.940
 4005SOL     OW12913   4.605   3.746   1.607
 4005SOL    HW112914   4.664   3.741   1.688
 4005SOL    HW212915   4.545   3.666   1.606
 4006SOL     OW12916   4.826   5.230   2.734
 4006SOL    HW112917   4.751   5.186   2.783
 4006SOL    HW212918   4.822   5.204   2.637
 4007SOL     OW12919   0.595   1.674   3.055
 4007SOL    HW112920   0.515   1.728   3.028
 4007SOL    HW212921   0.576   1.577   3.042
 4008SOL     OW12922   2.411   7.017   0.877
 4008SOL    HW112923   2.376   0.017   0.787
 4008SOL    HW212924   2.336   7.016   0.943
 4009SOL     OW12925   4.502   1.782   1.077
 4009SOL    HW112926   4.499   1.873   1.035
 4009SOL    HW212927   4.463   1.787   1.169
 4010SOL     OW12928   3.331   4.384   1.299
 4010SOL    HW112929   3.308   4.378   1.396
 4010SOL    HW212930   3.424   4.420   1.289
 4011SOL     OW12931   6.510   6.091   0.536
 4011SOL    HW112932   6.610   6.089   0.534
 4011SOL    HW212933   6.476   6.153   0.466
 4012SOL     OW12934   4.121   6.486   1.688
 4012SOL    HW112935   4.174   6.542   1.625
 4012SOL    HW212936   4.170   6.477   1.775
 4013SOL     OW12937   1.735   0.665   0.989
 4013SOL    HW112938   1.813   0.693   1.044
 4013SOL    HW212939   1.690   0.586   1.031
 4014SOL     OW12940   2.723   5.564   3.375
 4014SOL    HW112941   2.686   5.582   3.283
 4014SOL    HW212942   2.810   5.611   3.386
 4015SOL     OW12943   4.364   5.394   6.358
 4015SOL    HW112944   4.325   5.303   6.363
 4015SOL    HW212945   4.405   5.409   6.268
 4016SOL     OW12946   3.293   5.781   6.160
 4016SOL    HW112947   3.382   5.814   6.129
 4016SOL    HW212948   3.298   5.682   6.174
 4017SOL     OW12949   0.793   5.407   5.874
 4017SOL    HW112950   0.727   5.457   5.819
 4017SOL    HW212951   0.858   5.359   5.814
 4018SOL     OW12952   3.672   6.081   1.824
 4018SOL    HW112953   3.704   5.987   1.814
 4018SOL    HW212954   3.697   6.134   1.742
 4019SOL     OW12955   5.545   3.107   2.490
 4019SOL    HW112956   5.504   3.016   2.483
 4019SOL    HW212957   5.638   3.104   2.454
 4020SOL     OW12958   6.887   4.105   4.163
 4020SOL    HW112959   6.893   4.019   4.214
 4020SOL    HW212960   6.792   4.131   4.153
 4021SOL     OW12961   3.512   3.830   5.937
 4021SOL    HW112962   3.431   3.793   5.981
 4021SOL    HW212963   3.572   3.755   5.909
 4022SOL     OW12964   3.365   6.752   0.610
 4022SOL    HW112965   3.336   6.840   0.573
 4022SOL    HW212966   3.338   6.679   0.547
 4023SOL     OW12967   0.412   1.931   5.723
 4023SOL    HW112968   0.447   1.855   5.669
 4023SOL    HW212969   0.478   2.006   5.722
 4024SOL     OW12970   1.471   5.231   4.055
 4024SOL    HW112971   1.395   5.283   4.092
 4024SOL    HW212972   1.538   5.212   4.127
 4025SOL     OW12973   1.060   6.029   4.084
 4025SOL    HW112974   1.108   5.942   4.085
 4025SOL    HW212975   1.112   6.095   4.029
 4026SOL     OW12976   6.516   6.119   4.046
 4026SOL    HW112977   6.438   6.057   4.058
 4026SOL    HW212978   6.596   6.066   4.016
 4027SOL     OW12979   2.648   2.110   6.632
 4027SOL    HW112980   2.623   2.106   6.728
 4027SOL    HW212981   2.609   2.192   6.590
 4028SOL     OW12982   4.691   1.600   3.285
 4028SOL    HW112983   4.627   1.528   3.312
 4028SOL    HW212984   4.658   1.646   3.202
 4029SOL     OW12985   2.837   4.062   6.651
 4029SOL    HW112986   2.872   4.096   6.564
 4029SOL    HW212987   2.770   4.127   6.688
 4030SOL     OW12988   6.947   0.977   2.397
 4030SOL    HW112989   6.905   0.935   2.478
 4030SOL    HW212990   0.021   0.992   2.414
 4031SOL     OW12991   5.523   0.314   2.169
 4031SOL    HW112992   5.466   0.295   2.250
 4031SOL    HW212993   5.484   0.267   2.090
 4032SOL     OW12994   6.380   6.723   1.637
 4032SOL    HW112995   6.303   6.660   1.629
 4032SOL    HW212996   6.452   6.681   1.692
 4033SOL     OW12997   2.986   2.063   2.810
 4033SOL    HW112998   2.887   2.065   2.797
 4033SOL    HW212999   3.013   2.133   2.876
 4034SOL     OW13000   6.501   2.647   5.282
 4034SOL    HW113001   6.450   2.687   5.206
 4034SOL    HW213002   6.596   2.679   5.278
 4035SOL     OW13003   6.615   2.355   1.538
 4035SOL    HW113004   6.644   2.419   1.609
 4035SOL    HW213005   6.538   2.300   1.571
 4036SOL     OW13006   3.734   4.860   2.404
 4036SOL    HW113007   3.738   4.871   2.305
 4036SOL    HW213008   3.816   4.814   2.437
 4037SOL     OW13009   2.982   0.864   5.963
 4037SOL    HW113010   2.895   0.816   5.957
 4037SOL    HW213011   3.052   0.803   6.000
 4038SOL     OW13012   4.626   3.432   6.760
 4038SOL    HW113013   4.540   3.427   6.709
 4038SOL    HW213014   4.690   3.364   6.723
 4039SOL     OW13015   5.302   5.939   1.341
 4039SOL    HW113016   5.303   5.977   1.434
 4039SOL    HW213017   5.323   5.841   1.345
 4040SOL     OW13018   3.347   5.780   4.687
 4040SOL    HW113019   3.366   5.862   4.741
 4040SOL    HW213020   3.389   5.701   4.730
 4041SOL     OW13021   1.764   6.541   1.431
 4041SOL    HW113022   1.666   6.544   1.411
 4041SOL    HW213023   1.787   6.452   1.471
 4042SOL     OW13024   5.760   6.441   3.140
 4042SOL    HW113025   5.745   6.540   3.134
 4042SOL    HW213026   5.806   6.408   3.058
 4043SOL     OW13027   6.592   2.121   6.881
 4043SOL    HW113028   6.601   2.200   6.820
 4043SOL    HW213029   6.599   2.152   6.976
 4044SOL     OW13030   5.079   4.859   2.581
 4044SOL    HW113031   5.099   4.956   2.593
 4044SOL    HW213032   5.139   4.805   2.640
 4045SOL     OW13033   3.967   6.425   6.215
 4045SOL    HW113034   4.003   6.361   6.147
 4045SOL    HW213035   3.924   6.503   6.168
 4046SOL     OW13036   0.745   1.737   2.629
 4046SOL    HW113037   0.826   1.772   2.583
 4046SOL    HW213038   0.689   1.813   2.662
 4047SOL     OW13039   2.032   2.309   0.030
 4047SOL    HW113040   2.038   2.377   6.979
 4047SOL    HW213041   1.981   2.348   0.106
 4048SOL     OW13042   5.431   1.035   1.993
 4048SOL    HW113043   5.419   1.116   2.050
 4048SOL    HW213044   5.396   1.054   1.901
 4049SOL     OW13045   4.421   6.343   6.553
 4049SOL    HW113046   4.367   6.414   6.599
 4049SOL    HW213047   4.370   6.257   6.555
 4050SOL     OW13048   1.054   6.154   2.182
 4050SOL    HW113049   1.087   6.081   2.123
 4050SOL    HW213050   1.124   6.225   2.190
 4051SOL     OW13051   4.881   1.319   6.618
 4051SOL    HW113052   4.944   1.245   6.595
 4051SOL    HW213053   4.903   1.400   6.563
 4052SOL     OW13054   5.859   2.094   3.397
 4052SOL    HW113055   5.872   2.192   3.384
 4052SOL    HW213056   5.936   2.057   3.449
 4053SOL     OW13057   1.821   5.952   4.832
 4053SOL    HW113058   1.751   5.919   4.768
 4053SOL    HW213059   1.907   5.904   4.816
 4054SOL     OW13060   4.858   4.588   1.456
 4054SOL    HW113061   4.874   4.561   1.551
 4054SOL    HW213062   4.888   4.514   1.396
 4055SOL     OW13063   1.285   3.928   1.752
 4055SOL    HW113064   1.295   3.829   1.743
 4055SOL    HW213065   1.189   3.954   1.742
 4056SOL     OW13066   4.842   3.902   1.229
 4056SOL    HW113067   4.794   3.826   1.186
 4056SOL    HW213068   4.927   3.869   1.269
 4057SOL     OW13069   6.677   3.206   6.750
 4057SOL    HW113070   6.606   3.262   6.706
 4057SOL    HW213071   6.759   3.261   6.766
 4058SOL     OW13072   2.331   6.350   4.887
 4058SOL    HW113073   2.238   6.351   4.926
 4058SOL    HW213074   2.398   6.353   4.961
 4059SOL     OW13075   7.013   3.072   3.086
 4059SOL    HW113076   6.987   3.168   3.095
 4059SOL    HW213077   7.002   3.043   2.991
 4060SOL     OW13078   6.160   5.182   5.548
 4060SOL    HW113079   6.091   5.245   5.513
 4060SOL    HW213080   6.185   5.116   5.477
 4061SOL     OW13081   2.579   4.608   2.075
 4061SOL    HW113082   2.645   4.569   2.011
 4061SOL    HW213083   2.513   4.664   2.025
 4062SOL     OW13084   2.784   0.177   1.793
 4062SOL    HW113085   2.832   0.251   1.839
 4062SOL    HW213086   2.688   0.175   1.822
 4063SOL     OW13087   6.118   6.843   0.617
 4063SOL    HW113088   6.178   6.788   0.676
 4063SOL    HW213089   6.056   6.782   0.568
 4064SOL     OW13090   2.872   2.259   4.740
 4064SOL    HW113091   2.963   2.227   4.715
 4064SOL    HW213092   2.864   2.264   4.839
 4065SOL     OW13093   0.566   0.352   1.356
 4065SOL    HW113094   0.542   0.449   1.358
 4065SOL    HW213095   0.623   0.330   1.436
 4066SOL     OW13096   6.575   3.876   3.084
 4066SOL    HW113097   6.595   3.832   2.996
 4066SOL    HW213098   6.660   3.908   3.125
 4067SOL     OW13099   5.630   3.942   3.496
 4067SOL    HW113100   5.688   3.873   3.453
 4067SOL    HW213101   5.542   3.946   3.449
 4068SOL     OW13102   2.005   2.409   4.153
 4068SOL    HW113103   2.098   2.410   4.119
 4068SOL    HW213104   2.002   2.361   4.241
 4069SOL     OW13105   3.302   5.840   7.008
 4069SOL    HW113106   3.390   5.804   0.016
 4069SOL    HW213107   3.238   5.764   6.993
 4070SOL     OW13108   0.735   3.265   2.806
 4070SOL    HW113109   0.753   3.167   2.811
 4070SOL    HW213110   0.808   3.315   2.854
 4071SOL     OW13111   1.504   0.750   4.723
 4071SOL    HW113112   1.534   0.813   4.652
 4071SOL    HW213113   1.412   0.774   4.753
 4072SOL     OW13114   0.545   5.165   5.155
 4072SOL    HW113115   0.586   5.114   5.231
 4072SOL    HW213116   0.610   5.168   5.078
 4073SOL     OW13117   2.738   5.361   6.032
 4073SOL    HW113118   2.766   5.405   5.947
 4073SOL    HW213119   2.782   5.407   6.109
 4074SOL     OW13120   0.496   4.549   1.416
 4074SOL    HW113121   0.545   4.636   1.422
 4074SOL    HW213122   0.509   4.498   1.501
 4075SOL     OW13123   4.774   1.881   1.358
 4075SOL    HW113124   4.796   1.942   1.435
 4075SOL    HW213125   4.826   1.797   1.367
 4076SOL     OW13126   3.528   3.365   5.623
 4076SOL    HW113127   3.579   3.329   5.701
 4076SOL    HW213128   3.593   3.395   5.552
 4077SOL     OW13129   4.181   1.714   1.219
 4077SOL    HW113130   4.190   1.614   1.224
 4077SOL    HW213131   4.113   1.738   1.150
 4078SOL     OW13132   2.433   5.153   2.342
 4078SOL    HW113133   2.433   5.078   2.276
 4078SOL    HW213134   2.514   5.210   2.328
 4079SOL     OW13135   2.330   1.390   3.415
 4079SOL    HW113136   2.350   1.309   3.470
 4079SOL    HW213137   2.413   1.418   3.366
 4080SOL     OW13138   5.173   2.347   5.715
 4080SOL    HW113139   5.219   2.425   5.674
 4080SOL    HW213140   5.202   2.263   5.669
 4081SOL     OW13141   1.455   2.618   4.112
 4081SOL    HW113142   1.362   2.639   4.141
 4081SOL    HW213143   1.520   2.644   4.184
 4082SOL     OW13144   0.786   4.028   0.646
 4082SOL    HW113145   0.813   3.994   0.556
 4082SOL    HW213146   0.789   3.953   0.712
 4083SOL     OW13147   6.041   3.235   3.117
 4083SOL    HW113148   6.084   3.292   3.047
 4083SOL    HW213149   5.996   3.157   3.074
 4084SOL     OW13150   5.714   1.741   3.798
 4084SOL    HW113151   5.793   1.795   3.825
 4084SOL    HW213152   5.717   1.723   3.699
 4085SOL     OW13153   3.833   5.383   0.718
 4085SOL    HW113154   3.903   5.373   0.789
 4085SOL    HW213155   3.785   5.469   0.731
 4086SOL     OW13156   2.819   6.179   1.187
 4086SOL    HW113157   2.744   6.115   1.208
 4086SOL    HW213158   2.840   6.233   1.269
 4087SOL     OW13159   2.736   2.359   3.405
 4087SOL    HW113160   2.651   2.394   3.445
 4087SOL    HW213161   2.772   2.425   3.340
 4088SOL     OW13162   0.018   1.554   0.991
 4088SOL    HW113163   7.007   1.522   1.080
 4088SOL    HW213164   0.076   1.483   0.951
 4089SOL     OW13165   6.515   6.386   3.306
 4089SOL    HW113166   6.607   6.421   3.325
 4089SOL    HW213167   6.455   6.408   3.382
 4090SOL     OW13168   2.759   3.947   5.732
 4090SOL    HW113169   2.846   3.910   5.700
 4090SOL    HW213170   2.760   4.046   5.724
 4091SOL     OW13171   6.735   6.698   0.544
 4091SOL    HW113172   6.700   6.787   0.513
 4091SOL    HW213173   6.793   6.712   0.624
 4092SOL     OW13174   6.592   3.212   5.046
 4092SOL    HW113175   6.631   3.300   5.022
 4092SOL    HW213176   6.493   3.213   5.030
 4093SOL     OW13177   4.511   0.742   3.676
 4093SOL    HW113178   4.523   0.834   3.638
 4093SOL    HW213179   4.453   0.747   3.757
 4094SOL     OW13180   2.307   5.480   4.868
 4094SOL    HW113181   2.329   5.541   4.792
 4094SOL    HW213182   2.224   5.511   4.913
 4095SOL     OW13183   1.033   3.516   6.985
 4095SOL    HW113184   0.948   3.523   6.932
 4095SOL    HW213185   1.099   3.459   6.936
 4096SOL     OW13186   4.163   5.306   1.241
 4096SOL    HW113187   4.088   5.353   1.288
 4096SOL    HW213188   4.250   5.345   1.270
 4097SOL     OW13189   3.923   3.918   6.326
 4097SOL    HW113190   3.847   3.887   6.268
 4097SOL    HW213191   3.923   3.865   6.411
 4098SOL     OW13192   0.306   3.116   2.282
 4098SOL    HW113193   0.212   3.150   2.285
 4098SOL    HW213194   0.356   3.164   2.210
 4099SOL     OW13195   2.877   4.642   1.478
 4099SOL    HW113196   2.856   4.721   1.421
 4099SOL    HW213197   2.870   4.559   1.423
 4100SOL     OW13198   6.231   5.947   5.064
 4100SOL    HW113199   6.188   5.931   4.975
 4100SOL    HW213200   6.286   6.030   5.061
 4101SOL     OW13201   5.657   0.974   0.272
 4101SOL    HW113202   5.607   1.041   0.216
 4101SOL    HW213203   5.641   0.882   0.236
 4102SOL     OW13204   0.019   0.634   1.842
 4102SOL    HW113205   6.942   0.628   1.841
 4102SOL    HW213206   0.048   0.716   1.792
 4103SOL     OW13207   0.267   0.999   1.785
 4103SOL    HW113208   0.357   1.022   1.747
 4103SOL    HW213209   0.277   0.924   1.850
 4104SOL     OW13210   1.261   4.487   2.654
 4104SOL    HW113211   1.354   4.466   2.684
 4104SOL    HW213212   1.263   4.569   2.596
 4105SOL     OW13213   3.961   5.465   1.418
 4105SOL    HW113214   4.007   5.446   1.505
 4105SOL    HW213215   3.878   5.410   1.412
 4106SOL     OW13216   0.114   2.228   5.285
 4106SOL    HW113217   0.158   2.212   5.197
 4106SOL    HW213218   0.015   2.218   5.276
 4107SOL     OW13219   1.183   5.764   0.707
 4107SOL    HW113220   1.167   5.860   0.686
 4107SOL    HW213221   1.105   5.728   0.759
 4108SOL     OW13222   0.204   5.089   5.783
 4108SOL    HW113223   0.164   5.004   5.749
 4108SOL    HW213224   0.206   5.088   5.883
 4109SOL     OW13225   4.710   6.410   5.256
 4109SOL    HW113226   4.737   6.335   5.317
 4109SOL    HW213227   4.709   6.376   5.161
 4110SOL     OW13228   4.692   3.593   6.457
 4110SOL    HW113229   4.687   3.538   6.540
 4110SOL    HW213230   4.612   3.652   6.450
 4111SOL     OW13231   3.977   2.995   6.431
 4111SOL    HW113232   3.917   3.048   6.371
 4111SOL    HW213233   3.978   2.900   6.400
 4112SOL     OW13234   4.960   1.124   5.703
 4112SOL    HW113235   5.029   1.055   5.724
 4112SOL    HW213236   5.003   1.199   5.653
 4113SOL     OW13237   4.641   6.431   4.656
 4113SOL    HW113238   4.685   6.490   4.588
 4113SOL    HW213239   4.613   6.346   4.612
 4114SOL     OW13240   3.861   2.129   3.620
 4114SOL    HW113241   3.945   2.181   3.602
 4114SOL    HW213242   3.819   2.102   3.533
 4115SOL     OW13243   4.513   5.767   2.061
 4115SOL    HW113244   4.467   5.741   2.146
 4115SOL    HW213245   4.607   5.733   2.062
 4116SOL     OW13246   4.627   2.244   1.759
 4116SOL    HW113247   4.545   2.200   1.795
 4116SOL    HW213248   4.666   2.188   1.686
 4117SOL     OW13249   0.535   4.937   1.724
 4117SOL    HW113250   0.554   4.928   1.822
 4117SOL    HW213251   0.483   5.021   1.707
 4118SOL     OW13252   1.736   6.137   0.673
 4118SOL    HW113253   1.762   6.047   0.640
 4118SOL    HW213254   1.703   6.193   0.597
 4119SOL     OW13255   4.243   1.411   3.293
 4119SOL    HW113256   4.289   1.410   3.382
 4119SOL    HW213257   4.297   1.464   3.228
 4120SOL     OW13258   4.210   0.476   0.550
 4120SOL    HW113259   4.116   0.499   0.576
 4120SOL    HW213260   4.232   0.520   0.463
 4121SOL     OW13261   5.994   1.063   4.895
 4121SOL    HW113262   6.026   1.156   4.879
 4121SOL    HW213263   5.970   1.052   4.991
 4122SOL     OW13264   0.794   6.793   5.695
 4122SOL    HW113265   0.730   6.857   5.653
 4122SOL    HW213266   0.880   6.841   5.716
 4123SOL     OW13267   4.840   4.856   5.539
 4123SOL    HW113268   4.748   4.842   5.574
 4123SOL    HW213269   4.859   4.954   5.533
 4124SOL     OW13270   5.903   5.060   6.106
 4124SOL    HW113271   5.985   5.003   6.100
 4124SOL    HW213272   5.839   5.035   6.034
 4125SOL     OW13273   4.384   1.101   2.045
 4125SOL    HW113274   4.434   1.172   1.995
 4125SOL    HW213275   4.329   1.047   1.980
 4126SOL     OW13276   1.275   4.749   4.191
 4126SOL    HW113277   1.288   4.668   4.134
 4126SOL    HW213278   1.361   4.773   4.235
 4127SOL     OW13279   4.879   4.427   4.629
 4127SOL    HW113280   4.816   4.502   4.608
 4127SOL    HW213281   4.827   4.343   4.642
 4128SOL     OW13282   1.900   3.734   2.401
 4128SOL    HW113283   1.900   3.650   2.455
 4128SOL    HW213284   1.985   3.739   2.348
 4129SOL     OW13285   5.389   1.203   6.598
 4129SOL    HW113286   5.347   1.262   6.667
 4129SOL    HW213287   5.343   1.114   6.596
 4130SOL     OW13288   0.042   3.666   5.589
 4130SOL    HW113289   6.990   3.692   5.528
 4130SOL    HW213290   0.032   3.570   5.615
 4131SOL     OW13291   1.094   6.088   3.716
 4131SOL    HW113292   1.150   6.013   3.753
 4131SOL    HW213293   1.128   6.113   3.626
 4132SOL     OW13294   5.362   4.790   3.630
 4132SOL    HW113295   5.264   4.784   3.613
 4132SOL    HW213296   5.406   4.841   3.557
 4133SOL     OW13297   2.822   6.767   1.551
 4133SOL    HW113298   2.798   6.753   1.455
 4133SOL    HW213299   2.882   6.693   1.582
 4134SOL     OW13300   1.905   2.512   0.551
 4134SOL    HW113301   1.811   2.498   0.584
 4134SOL    HW213302   1.968   2.461   0.608
 4135SOL     OW13303   1.872   0.537   2.890
 4135SOL    HW113304   1.915   0.600   2.826
 4135SOL    HW213305   1.942   0.482   2.936
 4136SOL     OW13306   0.830   2.053   3.040
 4136SOL    HW113307   0.829   1.960   3.075
 4136SOL    HW213308   0.736   2.082   3.019
 4137SOL     OW13309   2.169   3.530   1.148
 4137SOL    HW113310   2.140   3.623   1.128
 4137SOL    HW213311   2.191   3.522   1.246
 4138SOL     OW13312   3.869   5.609   3.513
 4138SOL    HW113313   3.795   5.542   3.513
 4138SOL    HW213314   3.931   5.591   3.436
 4139SOL     OW13315   2.238   2.276   5.577
 4139SOL    HW113316   2.171   2.348   5.559
 4139SOL    HW213317   2.253   2.224   5.493
 4140SOL     OW13318   2.920   0.453   5.143
 4140SOL    HW113319   2.920   0.355   5.162
 4140SOL    HW213320   2.963   0.502   5.219
 4141SOL     OW13321   5.064   5.983   1.187
 4141SOL    HW113322   5.074   6.057   1.122
 4141SOL    HW213323   5.144   5.979   1.247
 4142SOL     OW13324   6.962   5.825   0.531
 4142SOL    HW113325   7.006   5.800   0.617
 4142SOL    HW213326   6.892   5.758   0.508
 4143SOL     OW13327   6.708   2.903   6.975
 4143SOL    HW113328   6.736   2.981   6.919
 4143SOL    HW213329   6.759   2.903   0.038
 4144SOL     OW13330   5.730   3.007   0.350
 4144SOL    HW113331   5.635   3.035   0.342
 4144SOL    HW213332   5.735   2.925   0.407
 4145SOL     OW13333   0.088   5.824   2.031
 4145SOL    HW113334   0.153   5.819   1.955
 4145SOL    HW213335   0.006   5.872   2.001
 4146SOL     OW13336   6.276   0.364   5.204
 4146SOL    HW113337   6.243   0.384   5.296
 4146SOL    HW213338   6.374   0.383   5.200
 4147SOL     OW13339   3.876   1.803   5.326
 4147SOL    HW113340   3.873   1.714   5.279
 4147SOL    HW213341   3.823   1.870   5.274
 4148SOL     OW13342   0.631   6.956   3.880
 4148SOL    HW113343   0.547   7.006   3.897
 4148SOL    HW213344   0.650   6.955   3.782
 4149SOL     OW13345   0.606   3.150   0.102
 4149SOL    HW113346   0.537   3.110   0.043
 4149SOL    HW213347   0.643   3.080   0.164
 4150SOL     OW13348   6.525   0.680   5.946
 4150SOL    HW113349   6.597   0.611   5.935
 4150SOL    HW213350   6.445   0.653   5.892
 4151SOL     OW13351   4.717   6.319   6.485
 4151SOL    HW113352   4.733   6.221   6.499
 4151SOL    HW213353   4.622   6.341   6.506
 4152SOL     OW13354   2.942   5.395   1.427
 4152SOL    HW113355   2.865   5.412   1.489
 4152SOL    HW213356   2.967   5.481   1.382
 4153SOL     OW13357   5.042   5.150   6.103
 4153SOL    HW113358   5.118   5.209   6.131
 4153SOL    HW213359   5.045   5.136   6.004
 4154SOL     OW13360   6.962   4.044   5.391
 4154SOL    HW113361   6.974   3.992   5.476
 4154SOL    HW213362   0.021   4.097   5.373
 4155SOL     OW13363   5.774   2.924   3.298
 4155SOL    HW113364   5.756   2.825   3.295
 4155SOL    HW213365   5.840   2.943   3.370
 4156SOL     OW13366   5.200   0.100   5.382
 4156SOL    HW113367   5.178   0.021   5.326
 4156SOL    HW213368   5.298   0.118   5.378
 4157SOL     OW13369   4.135   6.787   3.656
 4157SOL    HW113370   4.179   6.697   3.648
 4157SOL    HW213371   4.203   6.854   3.687
 4158SOL     OW13372   1.841   5.589   4.295
 4158SOL    HW113373   1.748   5.567   4.266
 4158SOL    HW213374   1.862   5.683   4.270
 4159SOL     OW13375   1.689   3.373   3.923
 4159SOL    HW113376   1.784   3.403   3.913
 4159SOL    HW213377   1.628   3.452   3.920
 4160SOL     OW13378   6.620   0.504   1.117
 4160SOL    HW113379   6.717   0.525   1.105
 4160SOL    HW213380   6.567   0.557   1.051
 4161SOL     OW13381   2.162   6.429   6.259
 4161SOL    HW113382   2.158   6.494   6.334
 4161SOL    HW213383   2.199   6.342   6.293
 4162SOL     OW13384   6.551   0.394   5.223
 4162SOL    HW113385   6.598   0.401   5.135
 4162SOL    HW213386   6.586   0.314   5.273
 4163SOL     OW13387   5.954   1.496   3.210
 4163SOL    HW113388   5.981   1.475   3.304
 4163SOL    HW213389   5.857   1.475   3.197
 4164SOL     OW13390   1.103   6.698   5.879
 4164SOL    HW113391   1.201   6.685   5.866
 4164SOL    HW213392   1.070   6.638   5.951
 4165SOL     OW13393   4.780   0.178   0.671
 4165SOL    HW113394   4.705   0.168   0.606
 4165SOL    HW213395   4.759   0.126   0.754
 4166SOL     OW13396   5.627   2.801   0.838
 4166SOL    HW113397   5.695   2.743   0.794
 4166SOL    HW213398   5.604   2.762   0.928
 4167SOL     OW13399   2.596   3.462   0.344
 4167SOL    HW113400   2.643   3.473   0.256
 4167SOL    HW213401   2.640   3.388   0.396
 4168SOL     OW13402   0.884   4.912   1.077
 4168SOL    HW113403   0.911   4.986   1.139
 4168SOL    HW213404   0.811   4.945   1.017
 4169SOL     OW13405   5.494   3.590   4.359
 4169SOL    HW113406   5.541   3.611   4.273
 4169SOL    HW213407   5.423   3.522   4.343
 4170SOL     OW13408   3.558   3.107   5.038
 4170SOL    HW113409   3.553   3.037   4.966
 4170SOL    HW213410   3.574   3.196   4.995
 4171SOL     OW13411   5.465   4.487   1.175
 4171SOL    HW113412   5.553   4.461   1.215
 4171SOL    HW213413   5.461   4.453   1.081
 4172SOL     OW13414   6.911   2.027   6.340
 4172SOL    HW113415   6.967   2.104   6.371
 4172SOL    HW213416   6.826   2.062   6.300
 4173SOL     OW13417   6.019   3.290   4.836
 4173SOL    HW113418   6.071   3.249   4.911
 4173SOL    HW213419   6.080   3.307   4.758
 4174SOL     OW13420   5.661   1.013   3.828
 4174SOL    HW113421   5.642   0.942   3.896
 4174SOL    HW213422   5.582   1.073   3.819
 4175SOL     OW13423   2.668   6.467   4.736
 4175SOL    HW113424   2.671   6.419   4.649
 4175SOL    HW213425   2.675   6.401   4.811
 4176SOL     OW13426   3.385   6.829   2.404
 4176SOL    HW113427   3.483   6.830   2.424
 4176SOL    HW213428   3.333   6.833   2.489
 4177SOL     OW13429   0.526   5.287   5.512
 4177SOL    HW113430   0.517   5.277   5.611
 4177SOL    HW213431   0.586   5.365   5.492
 4178SOL     OW13432   3.363   1.010   4.268
 4178SOL    HW113433   3.324   0.918   4.264
 4178SOL    HW213434   3.460   1.006   4.243
 4179SOL     OW13435   4.891   3.441   4.211
 4179SOL    HW113436   4.985   3.464   4.235
 4179SOL    HW213437   4.886   3.343   4.190
 4180SOL     OW13438   5.496   3.994   2.405
 4180SOL    HW113439   5.407   3.957   2.433
 4180SOL    HW213440   5.569   3.948   2.455
 4181SOL     OW13441   2.179   1.716   5.852
 4181SOL    HW113442   2.235   1.764   5.920
 4181SOL    HW213443   2.219   1.626   5.833
 4182SOL     OW13444   0.304   0.257   2.907
 4182SOL    HW113445   0.223   0.255   2.964
 4182SOL    HW213446   0.385   0.233   2.961
 4183SOL     OW13447   3.203   1.348   1.582
 4183SOL    HW113448   3.222   1.319   1.676
 4183SOL    HW213449   3.236   1.441   1.569
 4184SOL     OW13450   4.112   4.675   1.375
 4184SOL    HW113451   4.117   4.621   1.291
 4184SOL    HW213452   4.026   4.727   1.376
 4185SOL     OW13453   0.671   5.150   3.291
 4185SOL    HW113454   0.703   5.059   3.316
 4185SOL    HW213455   0.749   5.209   3.273
 4186SOL     OW13456   2.194   4.389   0.188
 4186SOL    HW113457   2.256   4.464   0.209
 4186SOL    HW213458   2.175   4.387   0.090
 4187SOL     OW13459   3.488   3.391   5.982
 4187SOL    HW113460   3.415   3.356   6.041
 4187SOL    HW213461   3.539   3.314   5.944
 4188SOL     OW13462   5.076   0.118   4.549
 4188SOL    HW113463   5.051   0.195   4.607
 4188SOL    HW213464   5.161   0.077   4.582
 4189SOL     OW13465   3.109   1.801   4.623
 4189SOL    HW113466   3.202   1.820   4.592
 4189SOL    HW213467   3.046   1.862   4.576
 4190SOL     OW13468   2.479   6.854   6.367
 4190SOL    HW113469   2.554   6.842   6.302
 4190SOL    HW213470   2.445   6.948   6.362
 4191SOL     OW13471   5.699   3.649   2.880
 4191SOL    HW113472   5.625   3.661   2.814
 4191SOL    HW213473   5.745   3.736   2.897
 4192SOL     OW13474   6.914   1.665   3.533
 4192SOL    HW113475   6.881   1.758   3.552
 4192SOL    HW213476   6.911   1.648   3.435
 4193SOL     OW13477   2.421   6.403   1.061
 4193SOL    HW113478   2.352   6.452   1.008
 4193SOL    HW213479   2.496   6.375   1.001
 4194SOL     OW13480   6.514   2.022   4.913
 4194SOL    HW113481   6.478   2.006   4.821
 4194SOL    HW213482   6.610   1.996   4.916
 4195SOL     OW13483   3.726   0.624   1.760
 4195SOL    HW113484   3.756   0.661   1.847
 4195SOL    HW213485   3.731   0.524   1.763
 4196SOL     OW13486   6.118   2.566   4.384
 4196SOL    HW113487   6.060   2.527   4.313
 4196SOL    HW213488   6.063   2.619   4.448
 4197SOL     OW13489   5.195   4.573   3.893
 4197SOL    HW113490   5.213   4.479   3.923
 4197SOL    HW213491   5.276   4.629   3.910
 4198SOL     OW13492   6.421   3.698   0.225
 4198SOL    HW113493   6.518   3.676   0.234
 4198SOL    HW213494   6.391   3.674   0.132
 4199SOL     OW13495   2.287   3.365   5.977
 4199SOL    HW113496   2.231   3.448   5.975
 4199SOL    HW213497   2.383   3.389   5.987
 4200SOL     OW13498   2.826   6.479   5.468
 4200SOL    HW113499   2.802   6.571   5.437
 4200SOL    HW213500   2.918   6.479   5.506
 4201SOL     OW13501   5.660   6.534   3.913
 4201SOL    HW113502   5.623   6.441   3.908
 4201SOL    HW213503   5.706   6.547   4.001
 4202SOL     OW13504   4.267   4.739   5.668
 4202SOL    HW113505   4.296   4.708   5.759
 4202SOL    HW213506   4.274   4.838   5.663
 4203SOL     OW13507   4.173   5.847   2.853
 4203SOL    HW113508   4.218   5.908   2.919
 4203SOL    HW213509   4.116   5.900   2.791
 4204SOL     OW13510   3.255   2.800   1.857
 4204SOL    HW113511   3.241   2.899   1.861
 4204SOL    HW213512   3.348   2.777   1.886
 4205SOL     OW13513   3.921   4.942   4.365
 4205SOL    HW113514   3.884   4.926   4.273
 4205SOL    HW213515   3.847   4.956   4.430
 4206SOL     OW13516   4.686   0.952   5.991
 4206SOL    HW113517   4.590   0.936   6.011
 4206SOL    HW213518   4.697   0.977   5.895
 4207SOL     OW13519   2.280   1.473   1.725
 4207SOL    HW113520   2.318   1.425   1.646
 4207SOL    HW213521   2.182   1.490   1.710
 4208SOL     OW13522   1.372   2.231   1.017
 4208SOL    HW113523   1.460   2.270   0.989
 4208SOL    HW213524   1.348   2.155   0.956
 4209SOL     OW13525   1.400   1.322   5.061
 4209SOL    HW113526   1.381   1.224   5.053
 4209SOL    HW213527   1.497   1.338   5.046
 4210SOL     OW13528   3.169   3.305   1.979
 4210SOL    HW113529   3.083   3.354   1.988
 4210SOL    HW213530   3.230   3.354   1.917
 4211SOL     OW13531   5.258   5.382   5.664
 4211SOL    HW113532   5.191   5.419   5.599
 4211SOL    HW213533   5.341   5.357   5.615
 4212SOL     OW13534   6.775   2.264   2.302
 4212SOL    HW113535   6.812   2.349   2.266
 4212SOL    HW213536   6.747   2.277   2.397
 4213SOL     OW13537   2.358   0.584   2.584
 4213SOL    HW113538   2.372   0.485   2.596
 4213SOL    HW213539   2.430   0.633   2.633
 4214SOL     OW13540   1.014   3.801   6.390
 4214SOL    HW113541   0.990   3.893   6.421
 4214SOL    HW213542   1.054   3.807   6.298
 4215SOL     OW13543   0.247   6.018   4.545
 4215SOL    HW113544   0.313   6.091   4.522
 4215SOL    HW213545   0.180   6.054   4.610
 4216SOL     OW13546   1.501   1.890   4.212
 4216SOL    HW113547   1.517   1.934   4.301
 4216SOL    HW213548   1.413   1.843   4.214
 4217SOL     OW13549   6.564   6.941   2.954
 4217SOL    HW113550   6.502   6.899   3.020
 4217SOL    HW213551   6.607   6.870   2.899
 4218SOL     OW13552   5.267   6.885   1.634
 4218SOL    HW113553   5.252   6.969   1.582
 4218SOL    HW213554   5.355   6.845   1.607
 4219SOL     OW13555   2.852   4.842   5.180
 4219SOL    HW113556   2.828   4.817   5.274
 4219SOL    HW213557   2.828   4.767   5.119
 4220SOL     OW13558   6.512   3.508   2.937
 4220SOL    HW113559   6.557   3.591   2.906
 4220SOL    HW213560   6.553   3.428   2.892
 4221SOL     OW13561   6.320   5.858   6.420
 4221SOL    HW113562   6.365   5.797   6.485
 4221SOL    HW213563   6.231   5.820   6.394
 4222SOL     OW13564   6.162   1.979   2.319
 4222SOL    HW113565   6.204   2.011   2.404
 4222SOL    HW213566   6.063   1.973   2.331
 4223SOL     OW13567   3.963   3.023   3.123
 4223SOL    HW113568   3.968   3.038   3.024
 4223SOL    HW213569   3.868   3.008   3.149
 4224SOL     OW13570   4.949   3.104   4.208
 4224SOL    HW113571   4.993   3.048   4.277
 4224SOL    HW213572   4.852   3.081   4.203
 4225SOL     OW13573   5.484   0.697   5.219
 4225SOL    HW113574   5.552   0.624   5.217
 4225SOL    HW213575   5.488   0.748   5.133
 4226SOL     OW13576   1.989   1.718   3.926
 4226SOL    HW113577   1.905   1.705   3.873
 4226SOL    HW213578   2.066   1.679   3.876
 4227SOL     OW13579   3.489   4.238   6.515
 4227SOL    HW113580   3.482   4.165   6.448
 4227SOL    HW213581   3.577   4.233   6.561
 4228SOL     OW13582   5.594   6.367   4.168
 4228SOL    HW113583   5.601   6.315   4.083
 4228SOL    HW213584   5.682   6.365   4.215
 4229SOL     OW13585   3.955   5.092   5.988
 4229SOL    HW113586   3.864   5.134   5.992
 4229SOL    HW213587   4.023   5.159   6.017
 4230SOL     OW13588   2.334   0.115   4.656
 4230SOL    HW113589   2.256   0.060   4.626
 4230SOL    HW213590   2.300   0.202   4.693
 4231SOL     OW13591   5.172   6.600   5.555
 4231SOL    HW113592   5.125   6.651   5.482
 4231SOL    HW213593   5.110   6.531   5.592
 4232SOL     OW13594   1.215   5.548   2.186
 4232SOL    HW113595   1.278   5.559   2.110
 4232SOL    HW213596   1.131   5.600   2.168
 4233SOL     OW13597   6.030   0.537   0.427
 4233SOL    HW113598   6.130   0.525   0.424
 4233SOL    HW213599   5.986   0.459   0.383
 4234SOL     OW13600   1.953   5.418   6.013
 4234SOL    HW113601   1.880   5.390   5.950
 4234SOL    HW213602   1.941   5.514   6.038
 4235SOL     OW13603   6.283   4.297   5.708
 4235SOL    HW113604   6.280   4.389   5.748
 4235SOL    HW213605   6.225   4.236   5.762
 4236SOL     OW13606   0.024   3.124   3.984
 4236SOL    HW113607   6.984   3.163   3.917
 4236SOL    HW213608   7.007   3.130   4.075
 4237SOL     OW13609   5.940   4.089   4.218
 4237SOL    HW113610   6.014   4.057   4.278
 4237SOL    HW213611   5.976   4.155   4.153
 4238SOL     OW13612   4.288   4.632   3.822
 4238SOL    HW113613   4.251   4.675   3.904
 4238SOL    HW213614   4.357   4.565   3.847
 4239SOL     OW13615   4.601   6.861   4.492
 4239SOL    HW113616   4.628   6.779   4.441
 4239SOL    HW213617   4.679   6.897   4.542
 4240SOL     OW13618   2.816   5.843   6.506
 4240SOL    HW113619   2.856   5.928   6.472
 4240SOL    HW213620   2.719   5.857   6.525
 4241SOL     OW13621   5.437   0.315   1.078
 4241SOL    HW113622   5.476   0.298   1.168
 4241SOL    HW213623   5.466   0.405   1.046
 4242SOL     OW13624   2.448   6.599   2.786
 4242SOL    HW113625   2.408   6.558   2.704
 4242SOL    HW213626   2.424   6.543   2.866
 4243SOL     OW13627   0.355   4.049   2.507
 4243SOL    HW113628   0.438   4.027   2.454
 4243SOL    HW213629   0.275   4.026   2.452
 4244SOL     OW13630   5.082   6.184   0.696
 4244SOL    HW113631   5.036   6.214   0.613
 4244SOL    HW213632   5.181   6.184   0.680
 4245SOL     OW13633   6.448   2.938   0.359
 4245SOL    HW113634   6.530   2.933   0.417
 4245SOL    HW213635   6.462   2.882   0.278
 4246SOL     OW13636   5.444   2.455   3.170
 4246SOL    HW113637   5.347   2.461   3.146
 4246SOL    HW213638   5.499   2.484   3.092
 4247SOL     OW13639   2.743   5.363   4.075
 4247SOL    HW113640   2.776   5.316   4.157
 4247SOL    HW213641   2.814   5.361   4.005
 4248SOL     OW13642   1.702   0.541   3.122
 4248SOL    HW113643   1.692   0.612   3.192
 4248SOL    HW213644   1.748   0.580   3.042
 4249SOL     OW13645   0.485   1.562   3.969
 4249SOL    HW113646   0.554   1.494   3.992
 4249SOL    HW213647   0.420   1.524   3.903
 4250SOL     OW13648   0.408   5.693   3.987
 4250SOL    HW113649   0.356   5.760   3.934
 4250SOL    HW213650   0.426   5.612   3.930
 4251SOL     OW13651   5.317   2.715   6.874
 4251SOL    HW113652   5.255   2.660   6.930
 4251SOL    HW213653   5.293   2.704   6.778
 4252SOL     OW13654   6.105   5.675   5.734
 4252SOL    HW113655   6.092   5.600   5.670
 4252SOL    HW213656   6.089   5.762   5.687
 4253SOL     OW13657   3.768   6.377   1.914
 4253SOL    HW113658   3.724   6.303   1.965
 4253SOL    HW213659   3.867   6.366   1.918
 4254SOL     OW13660   2.159   3.683   0.449
 4254SOL    HW113661   2.117   3.594   0.434
 4254SOL    HW213662   2.120   3.750   0.385
 4255SOL     OW13663   0.684   4.534   3.694
 4255SOL    HW113664   0.739   4.454   3.719
 4255SOL    HW213665   0.722   4.615   3.738
 4256SOL     OW13666   0.649   5.400   1.002
 4256SOL    HW113667   0.592   5.477   0.973
 4256SOL    HW213668   0.732   5.397   0.946
 4257SOL     OW13669   5.989   1.500   5.042
 4257SOL    HW113670   5.929   1.566   5.087
 4257SOL    HW213671   5.986   1.516   4.943
 4258SOL     OW13672   3.445   5.421   1.148
 4258SOL    HW113673   3.418   5.458   1.060
 4258SOL    HW213674   3.437   5.321   1.146
 4259SOL     OW13675   1.731   0.034   1.773
 4259SOL    HW113676   1.699   7.018   1.687
 4259SOL    HW213677   1.803   0.101   1.755
 4260SOL     OW13678   4.958   0.237   4.226
 4260SOL    HW113679   4.990   0.142   4.228
 4260SOL    HW213680   4.984   0.283   4.310
 4261SOL     OW13681   1.946   0.522   4.777
 4261SOL    HW113682   1.904   0.477   4.698
 4261SOL    HW213683   2.025   0.576   4.747
 4262SOL     OW13684   1.568   5.106   5.958
 4262SOL    HW113685   1.487   5.162   5.948
 4262SOL    HW213686   1.544   5.009   5.945
 4263SOL     OW13687   2.845   2.324   3.672
 4263SOL    HW113688   2.933   2.365   3.698
 4263SOL    HW213689   2.825   2.348   3.577
 4264SOL     OW13690   5.816   1.147   4.470
 4264SOL    HW113691   5.738   1.108   4.420
 4264SOL    HW213692   5.854   1.223   4.418
 4265SOL     OW13693   3.389   0.062   1.167
 4265SOL    HW113694   3.323   0.094   1.099
 4265SOL    HW213695   3.482   0.087   1.138
 4266SOL     OW13696   1.179   0.242   0.330
 4266SOL    HW113697   1.128   0.159   0.355
 4266SOL    HW213698   1.218   0.230   0.239
 4267SOL     OW13699   2.274   4.105   3.927
 4267SOL    HW113700   2.324   4.158   3.995
 4267SOL    HW213701   2.223   4.031   3.972
 4268SOL     OW13702   1.335   4.822   6.756
 4268SOL    HW113703   1.305   4.769   6.676
 4268SOL    HW213704   1.394   4.765   6.813
 4269SOL     OW13705   3.637   1.541   3.715
 4269SOL    HW113706   3.683   1.603   3.651
 4269SOL    HW213707   3.541   1.568   3.724
 4270SOL     OW13708   3.674   2.797   1.192
 4270SOL    HW113709   3.694   2.723   1.128
 4270SOL    HW213710   3.710   2.883   1.154
 4271SOL     OW13711   5.973   0.509   1.420
 4271SOL    HW113712   6.048   0.537   1.360
 4271SOL    HW213713   5.886   0.512   1.369
 4272SOL     OW13714   6.990   3.423   5.668
 4272SOL    HW113715   6.939   3.482   5.730
 4272SOL    HW213716   6.936   3.342   5.647
 4273SOL     OW13717   4.594   6.637   5.131
 4273SOL    HW113718   4.608   6.565   5.062
 4273SOL    HW213719   4.627   6.605   5.219
 4274SOL     OW13720   0.398   6.565   1.853
 4274SOL    HW113721   0.339   6.532   1.926
 4274SOL    HW213722   0.364   6.653   1.820
 4275SOL     OW13723   0.314   2.365   3.920
 4275SOL    HW113724   0.410   2.373   3.946
 4275SOL    HW213725   0.307   2.332   3.826
 4276SOL     OW13726   2.813   5.060   3.893
 4276SOL    HW113727   2.862   5.079   3.808
 4276SOL    HW213728   2.714   5.064   3.876
 4277SOL     OW13729   6.684   4.818   3.868
 4277SOL    HW113730   6.780   4.843   3.856
 4277SOL    HW213731   6.668   4.727   3.829
 4278SOL     OW13732   6.365   6.522   3.043
 4278SOL    HW113733   6.268   6.523   3.017
 4278SOL    HW213734   6.373   6.491   3.138
 4279SOL     OW13735   1.381   1.671   2.745
 4279SOL    HW113736   1.304   1.709   2.797
 4279SOL    HW213737   1.429   1.604   2.801
 4280SOL     OW13738   6.399   6.431   6.664
 4280SOL    HW113739   6.337   6.409   6.739
 4280SOL    HW213740   6.349   6.479   6.592
 4281SOL     OW13741   4.553   5.618   3.838
 4281SOL    HW113742   4.575   5.537   3.784
 4281SOL    HW213743   4.636   5.669   3.858
 4282SOL     OW13744   3.013   3.927   0.622
 4282SOL    HW113745   2.989   3.842   0.574
 4282SOL    HW213746   3.068   3.905   0.703
 4283SOL     OW13747   5.369   0.558   2.538
 4283SOL    HW113748   5.316   0.577   2.621
 4283SOL    HW213749   5.388   0.644   2.491
 4284SOL     OW13750   4.338   5.405   0.506
 4284SOL    HW113751   4.276   5.415   0.428
 4284SOL    HW213752   4.288   5.366   0.584
 4285SOL     OW13753   3.418   0.587   6.140
 4285SOL    HW113754   3.516   0.607   6.140
 4285SOL    HW213755   3.397   0.518   6.210
 4286SOL     OW13756   6.466   1.229   0.192
 4286SOL    HW113757   6.523   1.227   0.274
 4286SOL    HW213758   6.387   1.169   0.205
 4287SOL     OW13759   4.361   0.491   0.132
 4287SOL    HW113760   4.324   0.557   0.197
 4287SOL    HW213761   4.442   0.448   0.170
 4288SOL     OW13762   6.518   6.265   1.877
 4288SOL    HW113763   6.439   6.246   1.818
 4288SOL    HW213764   6.598   6.218   1.840
 4289SOL     OW13765   0.405   2.667   5.272
 4289SOL    HW113766   0.350   2.641   5.351
 4289SOL    HW213767   0.495   2.698   5.302
 4290SOL     OW13768   0.217   0.159   3.395
 4290SOL    HW113769   0.133   0.149   3.342
 4290SOL    HW213770   0.257   0.249   3.378
 4291SOL     OW13771   4.505   3.203   6.008
 4291SOL    HW113772   4.407   3.223   6.019
 4291SOL    HW213773   4.518   3.144   5.928
 4292SOL     OW13774   4.718   1.996   6.949
 4292SOL    HW113775   4.704   2.092   6.923
 4292SOL    HW213776   4.684   1.982   0.018
 4293SOL     OW13777   5.378   3.935   6.872
 4293SOL    HW113778   5.297   3.923   6.815
 4293SOL    HW213779   5.388   4.032   6.895
 4294SOL     OW13780   3.178   2.057   6.251
 4294SOL    HW113781   3.160   2.051   6.349
 4294SOL    HW213782   3.114   1.998   6.201
 4295SOL     OW13783   4.225   6.519   2.330
 4295SOL    HW113784   4.319   6.542   2.306
 4295SOL    HW213785   4.219   6.504   2.429
 4296SOL     OW13786   2.986   6.595   0.900
 4296SOL    HW113787   3.006   6.650   0.981
 4296SOL    HW213788   2.928   6.518   0.927
 4297SOL     OW13789   6.701   5.075   0.979
 4297SOL    HW113790   6.707   5.174   0.990
 4297SOL    HW213791   6.789   5.039   0.949
 4298SOL     OW13792   3.659   6.199   1.298
 4298SOL    HW113793   3.725   6.252   1.245
 4298SOL    HW213794   3.589   6.261   1.335
 4299SOL     OW13795   0.351   2.409   6.761
 4299SOL    HW113796   0.432   2.468   6.769
 4299SOL    HW213797   0.280   2.456   6.709
 4300SOL     OW13798   3.354   0.472   1.122
 4300SOL    HW113799   3.386   0.566   1.122
 4300SOL    HW213800   3.271   0.465   1.177
 4301SOL     OW13801   2.934   6.091   1.518
 4301SOL    HW113802   2.867   6.026   1.483
 4301SOL    HW213803   3.000   6.043   1.576
 4302SOL     OW13804   0.151   6.766   6.766
 4302SOL    HW113805   0.244   6.736   6.784
 4302SOL    HW213806   0.088   6.689   6.779
 4303SOL     OW13807   6.863   5.181   3.774
 4303SOL    HW113808   6.794   5.127   3.822
 4303SOL    HW213809   6.894   5.255   3.834
 4304SOL     OW13810   3.178   3.824   1.605
 4304SOL    HW113811   3.181   3.920   1.632
 4304SOL    HW213812   3.256   3.776   1.644
 4305SOL     OW13813   0.556   0.005   5.726
 4305SOL    HW113814   0.537   6.938   5.763
 4305SOL    HW213815   0.615   7.020   5.646
 4306SOL     OW13816   4.853   3.824   4.502
 4306SOL    HW113817   4.855   3.832   4.601
 4306SOL    HW213818   4.876   3.730   4.476
 4307SOL     OW13819   6.190   3.035   5.713
 4307SOL    HW113820   6.157   2.978   5.637
 4307SOL    HW213821   6.147   3.125   5.708
 4308SOL     OW13822   4.939   5.436   1.800
 4308SOL    HW113823   4.972   5.510   1.859
 4308SOL    HW213824   4.969   5.348   1.837
 4309SOL     OW13825   0.748   3.182   6.888
 4309SOL    HW113826   0.700   3.164   6.973
 4309SOL    HW213827   0.730   3.276   6.858
 4310SOL     OW13828   1.591   2.139   2.968
 4310SOL    HW113829   1.548   2.199   2.900
 4310SOL    HW213830   1.540   2.053   2.973
 4311SOL     OW13831   1.239   6.501   2.110
 4311SOL    HW113832   1.191   6.449   2.181
 4311SOL    HW213833   1.199   6.593   2.103
 4312SOL     OW13834   0.935   4.909   2.155
 4312SOL    HW113835   0.924   4.873   2.247
 4312SOL    HW213836   1.000   4.853   2.104
 4313SOL     OW13837   5.108   1.698   0.377
 4313SOL    HW113838   5.041   1.624   0.386
 4313SOL    HW213839   5.200   1.661   0.389
 4314SOL     OW13840   6.550   2.721   5.913
 4314SOL    HW113841   6.546   2.633   5.961
 4314SOL    HW213842   6.622   2.778   5.954
 4315SOL     OW13843   1.954   1.756   2.909
 4315SOL    HW113844   2.048   1.733   2.934
 4315SOL    HW213845   1.909   1.802   2.985
 4316SOL     OW13846   5.420   0.587   2.244
 4316SOL    HW113847   5.497   0.621   2.297
 4316SOL    HW213848   5.451   0.513   2.183
 4317SOL     OW13849   4.507   0.695   5.551
 4317SOL    HW113850   4.550   0.740   5.473
 4317SOL    HW213851   4.465   0.763   5.611
 4318SOL     OW13852   0.614   0.940   4.297
 4318SOL    HW113853   0.536   0.881   4.313
 4318SOL    HW213854   0.591   1.034   4.322
 4319SOL     OW13855   1.676   2.315   1.817
 4319SOL    HW113856   1.655   2.248   1.745
 4319SOL    HW213857   1.614   2.302   1.894
 4320SOL     OW13858   3.854   6.133   0.517
 4320SOL    HW113859   3.775   6.170   0.566
 4320SOL    HW213860   3.906   6.208   0.476
 4321SOL     OW13861   6.885   5.929   3.057
 4321SOL    HW113862   6.828   5.938   2.975
 4321SOL    HW213863   6.913   5.833   3.067
 4322SOL     OW13864   0.850   2.718   5.246
 4322SOL    HW113865   0.764   2.671   5.262
 4322SOL    HW213866   0.926   2.660   5.277
 4323SOL     OW13867   4.151   5.590   7.015
 4323SOL    HW113868   4.243   5.625   7.000
 4323SOL    HW213869   4.099   5.595   6.930
 4324SOL     OW13870   0.316   3.688   5.637
 4324SOL    HW113871   0.218   3.690   5.620
 4324SOL    HW213872   0.360   3.623   5.576
 4325SOL     OW13873   3.069   0.971   3.185
 4325SOL    HW113874   3.036   0.898   3.126
 4325SOL    HW213875   2.996   1.001   3.245
 4326SOL     OW13876   5.117   2.955   2.401
 4326SOL    HW113877   5.026   2.970   2.439
 4326SOL    HW213878   5.132   3.017   2.324
 4327SOL     OW13879   3.443   5.205   3.542
 4327SOL    HW113880   3.344   5.217   3.539
 4327SOL    HW213881   3.465   5.126   3.600
 4328SOL     OW13882   6.277   5.064   4.998
 4328SOL    HW113883   6.180   5.056   5.024
 4328SOL    HW213884   6.320   5.136   5.052
 4329SOL     OW13885   5.726   3.013   5.292
 4329SOL    HW113886   5.733   3.087   5.225
 4329SOL    HW213887   5.671   2.938   5.254
 4330SOL     OW13888   2.324   6.158   5.281
 4330SOL    HW113889   2.257   6.223   5.244
 4330SOL    HW213890   2.412   6.204   5.293
 4331SOL     OW13891   6.826   0.354   1.533
 4331SOL    HW113892   6.751   0.297   1.565
 4331SOL    HW213893   6.790   0.427   1.474
 4332SOL     OW13894   6.150   3.561   3.154
 4332SOL    HW113895   6.232   3.617   3.159
 4332SOL    HW213896   6.135   3.531   3.059
 4333SOL     OW13897   4.800   2.203   5.115
 4333SOL    HW113898   4.822   2.132   5.048
 4333SOL    HW213899   4.841   2.180   5.203
 4334SOL     OW13900   0.963   2.879   2.574
 4334SOL    HW113901   0.986   2.785   2.548
 4334SOL    HW213902   0.998   2.898   2.665
 4335SOL     OW13903   3.212   2.849   0.388
 4335SOL    HW113904   3.161   2.856   0.302
 4335SOL    HW213905   3.175   2.774   0.443
 4336SOL     OW13906   1.798   5.219   5.869
 4336SOL    HW113907   1.885   5.174   5.893
 4336SOL    HW213908   1.722   5.169   5.910
 4337SOL     OW13909   1.502   6.003   2.387
 4337SOL    HW113910   1.406   5.975   2.380
 4337SOL    HW213911   1.548   5.983   2.300
 4338SOL     OW13912   6.251   0.211   5.905
 4338SOL    HW113913   6.256   0.131   5.845
 4338SOL    HW213914   6.166   0.260   5.889
 4339SOL     OW13915   3.920   2.241   6.928
 4339SOL    HW113916   3.934   2.264   0.001
 4339SOL    HW213917   3.979   2.165   6.902
 4340SOL     OW13918   6.165   3.466   0.864
 4340SOL    HW113919   6.132   3.548   0.818
 4340SOL    HW213920   6.265   3.466   0.867
 4341SOL     OW13921   0.642   5.737   1.705
 4341SOL    HW113922   0.701   5.755   1.784
 4341SOL    HW213923   0.681   5.781   1.624
 4342SOL     OW13924   4.975   3.485   2.770
 4342SOL    HW113925   5.041   3.410   2.783
 4342SOL    HW213926   4.938   3.482   2.677
 4343SOL     OW13927   3.917   0.371   5.625
 4343SOL    HW113928   3.835   0.367   5.567
 4343SOL    HW213929   3.999   0.370   5.567
 4344SOL     OW13930   0.495   3.121   3.970
 4344SOL    HW113931   0.483   3.040   3.912
 4344SOL    HW213932   0.554   3.097   4.047
 4345SOL     OW13933   3.076   3.542   2.612
 4345SOL    HW113934   3.019   3.624   2.606
 4345SOL    HW213935   3.167   3.568   2.644
 4346SOL     OW13936   2.188   2.781   2.988
 4346SOL    HW113937   2.121   2.835   3.039
 4346SOL    HW213938   2.140   2.717   2.927
 4347SOL     OW13939   6.141   5.384   1.131
 4347SOL    HW113940   6.094   5.406   1.045
 4347SOL    HW213941   6.128   5.287   1.152
 4348SOL     OW13942   6.983   6.222   3.814
 4348SOL    HW113943   6.965   6.173   3.899
 4348SOL    HW213944   6.958   6.318   3.825
 4349SOL     OW13945   0.174   4.080   3.586
 4349SOL    HW113946   0.215   4.050   3.672
 4349SOL    HW213947   0.222   4.160   3.552
 4350SOL     OW13948   6.155   1.490   4.658
 4350SOL    HW113949   6.210   1.572   4.677
 4350SOL    HW213950   6.058   1.511   4.672
 4351SOL     OW13951   1.193   6.366   1.432
 4351SOL    HW113952   1.177   6.271   1.407
 4351SOL    HW213953   1.245   6.411   1.360
 4352SOL     OW13954   5.329   4.213   1.254
 4352SOL    HW113955   5.384   4.292   1.281
 4352SOL    HW213956   5.314   4.155   1.334
 4353SOL     OW13957   3.193   3.391   6.857
 4353SOL    HW113958   3.145   3.418   6.773
 4353SOL    HW213959   3.215   3.473   6.910
 4354SOL     OW13960   0.364   0.439   4.331
 4354SOL    HW113961   0.373   0.489   4.418
 4354SOL    HW213962   0.418   0.485   4.261
 4355SOL     OW13963   1.170   0.145   4.152
 4355SOL    HW113964   1.147   0.166   4.057
 4355SOL    HW213965   1.224   0.220   4.191
 4356SOL     OW13966   5.215   2.960   6.086
 4356SOL    HW113967   5.276   2.998   6.016
 4356SOL    HW213968   5.162   3.034   6.127
 4357SOL     OW13969   6.607   1.632   2.268
 4357SOL    HW113970   6.549   1.556   2.296
 4357SOL    HW213971   6.628   1.624   2.170
 4358SOL     OW13972   0.249   1.372   0.317
 4358SOL    HW113973   0.199   1.458   0.307
 4358SOL    HW213974   0.331   1.373   0.260
 4359SOL     OW13975   2.428   0.667   6.397
 4359SOL    HW113976   2.379   0.601   6.454
 4359SOL    HW213977   2.373   0.750   6.387
 4360SOL     OW13978   0.756   2.632   3.572
 4360SOL    HW113979   0.740   2.651   3.669
 4360SOL    HW213980   0.852   2.609   3.558
 4361SOL     OW13981   1.744   2.167   0.731
 4361SOL    HW113982   1.736   2.262   0.702
 4361SOL    HW213983   1.839   2.148   0.757
 4362SOL     OW13984   0.920   6.221   4.247
 4362SOL    HW113985   0.983   6.185   4.179
 4362SOL    HW213986   0.939   6.179   4.336
 4363SOL     OW13987   4.147   0.561   3.174
 4363SOL    HW113988   4.176   0.622   3.248
 4363SOL    HW213989   4.137   0.614   3.090
 4364SOL     OW13990   2.933   3.820   2.636
 4364SOL    HW113991   2.943   3.779   2.545
 4364SOL    HW213992   2.855   3.882   2.636
 4365SOL     OW13993   2.902   1.824   1.672
 4365SOL    HW113994   2.924   1.908   1.622
 4365SOL    HW213995   2.969   1.810   1.745
 4366SOL     OW13996   5.561   5.777   5.497
 4366SOL    HW113997   5.537   5.873   5.478
 4366SOL    HW213998   5.512   5.717   5.434
 4367SOL     OW13999   2.901   4.907   2.968
 4367SOL    HW114000   2.847   4.885   3.049
 4367SOL    HW214001   2.996   4.878   2.982
 4368SOL     OW14002   4.640   5.903   2.530
 4368SOL    HW114003   4.731   5.864   2.544
 4368SOL    HW214004   4.649   5.992   2.484
 4369SOL     OW14005   5.207   5.384   2.991
 4369SOL    HW114006   5.141   5.452   3.020
 4369SOL    HW214007   5.161   5.312   2.940
 4370SOL     OW14008   3.794   4.253   1.735
 4370SOL    HW114009   3.830   4.181   1.676
 4370SOL    HW214010   3.849   4.336   1.725
 4371SOL     OW14011   2.845   0.647   2.016
 4371SOL    HW114012   2.775   0.705   2.056
 4371SOL    HW214013   2.918   0.704   1.977
 4372SOL     OW14014   1.588   2.443   4.956
 4372SOL    HW114015   1.589   2.408   5.050
 4372SOL    HW214016   1.506   2.498   4.942
 4373SOL     OW14017   4.803   0.714   6.123
 4373SOL    HW114018   4.748   0.787   6.084
 4373SOL    HW214019   4.754   0.627   6.116
 4374SOL     OW14020   2.607   1.897   1.126
 4374SOL    HW114021   2.525   1.898   1.070
 4374SOL    HW214022   2.639   1.990   1.142
 4375SOL     OW14023   3.841   0.322   3.613
 4375SOL    HW114024   3.886   0.248   3.563
 4375SOL    HW214025   3.815   0.394   3.549
 4376SOL     OW14026   6.463   6.327   0.953
 4376SOL    HW114027   6.503   6.317   1.045
 4376SOL    HW214028   6.536   6.343   0.887
 4377SOL     OW14029   5.892   6.296   0.151
 4377SOL    HW114030   5.871   6.389   0.179
 4377SOL    HW214031   5.944   6.250   0.223
 4378SOL     OW14032   1.814   5.252   2.197
 4378SOL    HW114033   1.789   5.328   2.258
 4378SOL    HW214034   1.805   5.281   2.102
 4379SOL     OW14035   1.865   0.958   1.653
 4379SOL    HW114036   1.777   0.955   1.700
 4379SOL    HW214037   1.927   0.891   1.695
 4380SOL     OW14038   2.223   5.822   5.074
 4380SOL    HW114039   2.266   5.874   5.000
 4380SOL    HW214040   2.281   5.824   5.155
 4381SOL     OW14041   3.700   5.486   4.449
 4381SOL    HW114042   3.676   5.456   4.541
 4381SOL    HW214043   3.641   5.563   4.423
 4382SOL     OW14044   4.786   4.082   4.432
 4382SOL    HW114045   4.763   4.113   4.524
 4382SOL    HW214046   4.786   3.982   4.430
 4383SOL     OW14047   1.548   1.877   6.073
 4383SOL    HW114048   1.547   1.911   6.167
 4383SOL    HW214049   1.523   1.780   6.073
 4384SOL     OW14050   4.039   0.195   1.411
 4384SOL    HW114051   4.103   0.222   1.339
 4384SOL    HW214052   4.023   0.272   1.473
 4385SOL     OW14053   6.898   1.557   3.962
 4385SOL    HW114054   6.925   1.515   3.876
 4385SOL    HW214055   6.825   1.624   3.945
 4386SOL     OW14056   1.157   4.035   6.882
 4386SOL    HW114057   1.106   3.990   6.809
 4386SOL    HW214058   1.196   3.966   6.943
 4387SOL     OW14059   6.591   2.791   0.990
 4387SOL    HW114060   6.631   2.882   0.997
 4387SOL    HW214061   6.532   2.787   0.909
 4388SOL     OW14062   4.076   0.602   6.470
 4388SOL    HW114063   4.119   0.624   6.383
 4388SOL    HW214064   3.997   0.543   6.454
 4389SOL     OW14065   5.552   2.077   1.322
 4389SOL    HW114066   5.559   2.176   1.327
 4389SOL    HW214067   5.639   2.038   1.291
 4390SOL     OW14068   4.744   1.985   2.030
 4390SOL    HW114069   4.654   1.942   2.020
 4390SOL    HW214070   4.798   1.933   2.096
 4391SOL     OW14071   1.034   5.990   6.516
 4391SOL    HW114072   1.071   5.909   6.470
 4391SOL    HW214073   1.106   6.058   6.527
 4392SOL     OW14074   4.972   3.207   4.795
 4392SOL    HW114075   4.931   3.116   4.795
 4392SOL    HW214076   5.044   3.212   4.865
 4393SOL     OW14077   4.797   6.879   4.120
 4393SOL    HW114078   4.873   6.901   4.181
 4393SOL    HW214079   4.788   6.780   4.112
 4394SOL     OW14080   6.058   6.057   3.067
 4394SOL    HW114081   6.097   6.135   3.116
 4394SOL    HW214082   5.962   6.076   3.046
 4395SOL     OW14083   4.581   1.545   1.435
 4395SOL    HW114084   4.533   1.633   1.434
 4395SOL    HW214085   4.535   1.482   1.498
 4396SOL     OW14086   1.974   1.947   4.311
 4396SOL    HW114087   1.982   1.906   4.402
 4396SOL    HW214088   2.012   1.883   4.243
 4397SOL     OW14089   0.275   1.708   4.104
 4397SOL    HW114090   0.358   1.656   4.082
 4397SOL    HW214091   0.300   1.793   4.151
 4398SOL     OW14092   1.251   4.271   4.525
 4398SOL    HW114093   1.217   4.343   4.586
 4398SOL    HW214094   1.349   4.281   4.512
 4399SOL     OW14095   2.748   0.516   0.709
 4399SOL    HW114096   2.701   0.565   0.782
 4399SOL    HW214097   2.724   0.419   0.712
 4400SOL     OW14098   2.142   6.672   4.288
 4400SOL    HW114099   2.181   6.754   4.245
 4400SOL    HW214100   2.126   6.602   4.219
 4401SOL     OW14101   5.905   6.117   5.351
 4401SOL    HW114102   5.923   6.216   5.354
 4401SOL    HW214103   5.806   6.102   5.363
 4402SOL     OW14104   1.163   5.788   2.695
 4402SOL    HW114105   1.138   5.694   2.674
 4402SOL    HW214106   1.122   5.814   2.782
 4403SOL     OW14107   6.698   0.035   3.539
 4403SOL    HW114108   6.764   0.010   3.469
 4403SOL    HW214109   6.607   0.005   3.510
 4404SOL     OW14110   1.071   4.101   4.391
 4404SOL    HW114111   1.015   4.045   4.453
 4404SOL    HW214112   1.117   4.172   4.442
 4405SOL     OW14113   3.102   4.640   5.601
 4405SOL    HW114114   3.042   4.662   5.677
 4405SOL    HW214115   3.171   4.574   5.631
 4406SOL     OW14116   4.812   4.999   1.395
 4406SOL    HW114117   4.776   5.013   1.487
 4406SOL    HW214118   4.882   4.927   1.396
 4407SOL     OW14119   0.032   5.989   0.335
 4407SOL    HW114120   7.018   5.927   0.405
 4407SOL    HW214121   0.110   6.039   0.372
 4408SOL     OW14122   4.299   0.290   0.852
 4408SOL    HW114123   4.349   0.337   0.925
 4408SOL    HW214124   4.201   0.289   0.873
 4409SOL     OW14125   4.151   1.381   1.908
 4409SOL    HW114126   4.140   1.476   1.877
 4409SOL    HW214127   4.193   1.327   1.835
 4410SOL     OW14128   2.474   4.376   0.033
 4410SOL    HW114129   2.454   4.299   0.094
 4410SOL    HW214130   2.561   4.418   0.060
 4411SOL     OW14131   3.449   3.523   2.963
 4411SOL    HW114132   3.518   3.530   2.891
 4411SOL    HW214133   3.394   3.606   2.965
 4412SOL     OW14134   4.679   1.255   5.699
 4412SOL    HW114135   4.720   1.293   5.616
 4412SOL    HW214136   4.735   1.280   5.778
 4413SOL     OW14137   4.277   6.058   4.643
 4413SOL    HW114138   4.198   6.118   4.651
 4413SOL    HW214139   4.250   5.973   4.599
 4414SOL     OW14140   4.541   5.051   2.672
 4414SOL    HW114141   4.561   5.109   2.592
 4414SOL    HW214142   4.551   4.955   2.646
 4415SOL     OW14143   5.827   3.899   6.337
 4415SOL    HW114144   5.878   3.843   6.271
 4415SOL    HW214145   5.734   3.914   6.302
 4416SOL     OW14146   2.816   1.509   4.058
 4416SOL    HW114147   2.885   1.453   4.012
 4416SOL    HW214148   2.851   1.601   4.071
 4417SOL     OW14149   6.535   4.700   2.159
 4417SOL    HW114150   6.572   4.651   2.238
 4417SOL    HW214151   6.435   4.699   2.163
 4418SOL     OW14152   4.440   6.419   3.887
 4418SOL    HW114153   4.368   6.359   3.919
 4418SOL    HW214154   4.429   6.509   3.929
 4419SOL     OW14155   5.644   5.508   0.574
 4419SOL    HW114156   5.569   5.563   0.612
 4419SOL    HW214157   5.617   5.412   0.573
 4420SOL     OW14158   4.560   0.563   0.500
 4420SOL    HW114159   4.527   0.523   0.585
 4420SOL    HW214160   4.584   0.659   0.515
 4421SOL     OW14161   2.760   1.505   2.222
 4421SOL    HW114162   2.858   1.520   2.239
 4421SOL    HW214163   2.721   1.586   2.178
 4422SOL     OW14164   3.012   3.148   5.939
 4422SOL    HW114165   2.933   3.208   5.949
 4422SOL    HW214166   2.988   3.070   5.882
 4423SOL     OW14167   1.640   2.020   5.869
 4423SOL    HW114168   1.596   1.967   5.941
 4423SOL    HW214169   1.615   2.116   5.878
 4424SOL     OW14170   5.093   6.538   3.049
 4424SOL    HW114171   5.100   6.439   3.055
 4424SOL    HW214172   5.052   6.573   3.134
 4425SOL     OW14173   3.656   5.503   6.126
 4425SOL    HW114174   3.708   5.424   6.159
 4425SOL    HW214175   3.588   5.472   6.059
 4426SOL     OW14176   0.451   0.820   5.712
 4426SOL    HW114177   0.471   0.913   5.746
 4426SOL    HW214178   0.533   0.783   5.668
 4427SOL     OW14179   0.559   0.864   3.272
 4427SOL    HW114180   0.543   0.954   3.314
 4427SOL    HW214181   0.565   0.874   3.173
 4428SOL     OW14182   2.794   4.820   4.333
 4428SOL    HW114183   2.815   4.916   4.354
 4428SOL    HW214184   2.770   4.772   4.418
 4429SOL     OW14185   2.836   0.120   3.528
 4429SOL    HW114186   2.742   0.091   3.546
 4429SOL    HW214187   2.899   0.066   3.584
 4430SOL     OW14188   4.550   2.557   3.448
 4430SOL    HW114189   4.611   2.573   3.526
 4430SOL    HW214190   4.567   2.465   3.411
 4431SOL     OW14191   2.722   1.218   2.799
 4431SOL    HW114192   2.656   1.203   2.873
 4431SOL    HW214193   2.811   1.240   2.838
 4432SOL     OW14194   3.688   2.936   3.408
 4432SOL    HW114195   3.752   2.984   3.468
 4432SOL    HW214196   3.709   2.959   3.313
 4433SOL     OW14197   6.191   0.417   3.462
 4433SOL    HW114198   6.144   0.352   3.521
 4433SOL    HW214199   6.254   0.472   3.518
 4434SOL     OW14200   4.878   1.434   4.060
 4434SOL    HW114201   4.973   1.464   4.073
 4434SOL    HW214202   4.820   1.476   4.129
 4435SOL     OW14203   3.816   3.038   0.783
 4435SOL    HW114204   3.866   2.981   0.718
 4435SOL    HW214205   3.805   3.130   0.746
 4436SOL     OW14206   3.080   1.906   6.722
 4436SOL    HW114207   3.145   1.866   6.787
 4436SOL    HW214208   3.048   1.835   6.659
 4437SOL     OW14209   4.177   0.664   4.649
 4437SOL    HW114210   4.101   0.611   4.611
 4437SOL    HW214211   4.141   0.730   4.716
 4438SOL     OW14212   4.777   1.676   0.121
 4438SOL    HW114213   4.767   1.627   0.208
 4438SOL    HW214214   4.725   1.761   0.124
 4439SOL     OW14215   0.797   5.219   1.450
 4439SOL    HW114216   0.750   5.177   1.528
 4439SOL    HW214217   0.875   5.273   1.483
 4440SOL     OW14218   1.917   5.600   0.230
 4440SOL    HW114219   1.875   5.532   0.291
 4440SOL    HW214220   1.957   5.673   0.285
 4441SOL     OW14221   6.424   2.087   2.097
 4441SOL    HW114222   6.411   2.179   2.133
 4441SOL    HW214223   6.485   2.090   2.018
 4442SOL     OW14224   3.654   6.229   3.291
 4442SOL    HW114225   3.651   6.304   3.357
 4442SOL    HW214226   3.747   6.220   3.255
 4443SOL     OW14227   1.608   1.982   6.660
 4443SOL    HW114228   1.637   2.059   6.717
 4443SOL    HW214229   1.583   2.015   6.569
 4444SOL     OW14230   4.230   6.102   6.567
 4444SOL    HW114231   4.145   6.069   6.608
 4444SOL    HW214232   4.299   6.029   6.570
 4445SOL     OW14233   1.367   0.753   6.137
 4445SOL    HW114234   1.426   0.821   6.092
 4445SOL    HW214235   1.333   0.689   6.069
 4446SOL     OW14236   5.848   0.910   1.488
 4446SOL    HW114237   5.901   0.939   1.568
 4446SOL    HW214238   5.901   0.927   1.405
 4447SOL     OW14239   5.058   3.430   5.432
 4447SOL    HW114240   5.101   3.390   5.351
 4447SOL    HW214241   5.056   3.529   5.422
 4448SOL     OW14242   3.003   4.174   0.514
 4448SOL    HW114243   3.096   4.209   0.532
 4448SOL    HW214244   2.987   4.092   0.568
 4449SOL     OW14245   3.538   0.423   5.689
 4449SOL    HW114246   3.606   0.433   5.762
 4449SOL    HW214247   3.489   0.337   5.701
 4450SOL     OW14248   3.350   3.162   2.986
 4450SOL    HW114249   3.407   3.236   3.021
 4450SOL    HW214250   3.364   3.153   2.887
 4451SOL     OW14251   5.963   4.132   2.910
 4451SOL    HW114252   5.922   4.182   2.834
 4451SOL    HW214253   6.018   4.194   2.965
 4452SOL     OW14254   6.341   6.617   5.039
 4452SOL    HW114255   6.421   6.561   5.016
 4452SOL    HW214256   6.264   6.590   4.982
 4453SOL     OW14257   6.193   2.771   1.355
 4453SOL    HW114258   6.275   2.810   1.314
 4453SOL    HW214259   6.129   2.745   1.282
 4454SOL     OW14260   5.239   2.074   0.873
 4454SOL    HW114261   5.199   2.120   0.952
 4454SOL    HW214262   5.238   1.975   0.887
 4455SOL     OW14263   3.269   5.980   1.196
 4455SOL    HW114264   3.347   6.002   1.137
 4455SOL    HW214265   3.296   5.987   1.292
 4456SOL     OW14266   2.297   5.363   2.438
 4456SOL    HW114267   2.349   5.343   2.521
 4456SOL    HW214268   2.299   5.284   2.377
 4457SOL     OW14269   4.345   2.665   6.672
 4457SOL    HW114270   4.376   2.703   6.585
 4457SOL    HW214271   4.255   2.623   6.660
 4458SOL     OW14272   2.132   2.794   6.428
 4458SOL    HW114273   2.055   2.813   6.490
 4458SOL    HW214274   2.098   2.788   6.334
 4459SOL     OW14275   5.250   7.012   4.132
 4459SOL    HW114276   5.258   6.989   4.035
 4459SOL    HW214277   5.288   0.079   4.149
 4460SOL     OW14278   2.420   3.132   6.306
 4460SOL    HW114279   2.360   3.125   6.227
 4460SOL    HW214280   2.514   3.148   6.276
 4461SOL     OW14281   1.020   0.056   2.362
 4461SOL    HW114282   1.112   0.016   2.371
 4461SOL    HW214283   1.003   0.119   2.438
 4462SOL     OW14284   6.672   4.295   0.734
 4462SOL    HW114285   6.641   4.215   0.683
 4462SOL    HW214286   6.618   4.306   0.817
 4463SOL     OW14287   1.704   2.698   6.900
 4463SOL    HW114288   1.741   2.621   6.848
 4463SOL    HW214289   1.726   2.784   6.853
 4464SOL     OW14290   6.027   4.902   0.575
 4464SOL    HW114291   5.941   4.952   0.578
 4464SOL    HW214292   6.020   4.819   0.632
 4465SOL     OW14293   1.841   6.714   2.406
 4465SOL    HW114294   1.911   6.651   2.440
 4465SOL    HW214295   1.822   6.783   2.476
 4466SOL     OW14296   0.779   0.945   2.657
 4466SOL    HW114297   0.842   1.014   2.693
 4466SOL    HW214298   0.707   0.990   2.604
 4467SOL     OW14299   1.122   6.719   3.246
 4467SOL    HW114300   1.167   6.808   3.252
 4467SOL    HW214301   1.173   6.653   3.300
 4468SOL     OW14302   0.965   1.953   0.050
 4468SOL    HW114303   0.963   1.858   0.018
 4468SOL    HW214304   1.018   2.008   7.009
 4469SOL     OW14305   2.969   6.910   1.983
 4469SOL    HW114306   2.985   6.813   1.965
 4469SOL    HW214307   2.941   6.955   1.898
 4470SOL     OW14308   5.277   3.712   1.665
 4470SOL    HW114309   5.323   3.796   1.636
 4470SOL    HW214310   5.314   3.634   1.615
 4471SOL     OW14311   0.290   2.759   0.260
 4471SOL    HW114312   0.248   2.684   0.312
 4471SOL    HW214313   0.267   2.748   0.163
 4472SOL     OW14314   1.448   4.102   2.817
 4472SOL    HW114315   1.365   4.086   2.764
 4472SOL    HW214316   1.477   4.197   2.807
 4473SOL     OW14317   0.086   0.508   4.955
 4473SOL    HW114318   0.054   0.542   4.866
 4473SOL    HW214319   0.133   0.421   4.942
 4474SOL     OW14320   2.978   6.995   2.616
 4474SOL    HW114321   2.880   6.986   2.632
 4474SOL    HW214322   2.999   0.066   2.591
 4475SOL     OW14323   1.387   3.928   1.341
 4475SOL    HW114324   1.462   3.919   1.407
 4475SOL    HW214325   1.302   3.946   1.390
 4476SOL     OW14326   5.340   6.607   2.933
 4476SOL    HW114327   5.375   6.690   2.977
 4476SOL    HW214328   5.240   6.606   2.938
 4477SOL     OW14329   1.851   0.184   6.605
 4477SOL    HW114330   1.784   0.118   6.638
 4477SOL    HW214331   1.940   0.165   6.648
 4478SOL     OW14332   2.484   6.600   2.242
 4478SOL    HW114333   2.442   6.635   2.326
 4478SOL    HW214334   2.447   6.509   2.222
 4479SOL     OW14335   1.275   0.330   6.133
 4479SOL    HW114336   1.259   0.397   6.061
 4479SOL    HW214337   1.191   0.315   6.184
 4480SOL     OW14338   1.928   3.757   4.382
 4480SOL    HW114339   1.913   3.698   4.462
 4480SOL    HW214340   1.850   3.749   4.320
 4481SOL     OW14341   2.097   6.666   4.583
 4481SOL    HW114342   2.107   6.677   4.484
 4481SOL    HW214343   2.167   6.603   4.617
 4482SOL     OW14344   0.871   3.915   4.185
 4482SOL    HW114345   0.807   3.846   4.151
 4482SOL    HW214346   0.874   3.992   4.121
 4483SOL     OW14347   0.270   3.525   1.089
 4483SOL    HW114348   0.240   3.588   1.018
 4483SOL    HW214349   0.234   3.434   1.070
 4484SOL     OW14350   3.600   2.326   5.356
 4484SOL    HW114351   3.502   2.308   5.348
 4484SOL    HW214352   3.647   2.292   5.274
 4485SOL     OW14353   4.970   2.833   6.698
 4485SOL    HW114354   4.993   2.927   6.726
 4485SOL    HW214355   4.909   2.837   6.619
 4486SOL     OW14356   6.883   4.134   4.855
 4486SOL    HW114357   6.875   4.228   4.887
 4486SOL    HW214358   6.814   4.078   4.902
 4487SOL     OW14359   2.502   3.700   6.808
 4487SOL    HW114360   2.462   3.759   6.738
 4487SOL    HW214361   2.466   3.724   6.898
 4488SOL     OW14362   5.558   2.916   6.029
 4488SOL    HW114363   5.616   2.932   6.110
 4488SOL    HW214364   5.499   2.995   6.015
 4489SOL     OW14365   5.506   5.932   4.404
 4489SOL    HW114366   5.504   5.848   4.458
 4489SOL    HW214367   5.481   6.009   4.463
 4490SOL     OW14368   5.750   1.587   1.603
 4490SOL    HW114369   5.784   1.666   1.550
 4490SOL    HW214370   5.796   1.585   1.692
 4491SOL     OW14371   0.718   3.652   2.900
 4491SOL    HW114372   0.734   3.555   2.886
 4491SOL    HW214373   0.769   3.683   2.980
 4492SOL     OW14374   5.134   2.610   0.300
 4492SOL    HW114375   5.103   2.695   0.343
 4492SOL    HW214376   5.108   2.533   0.358
 4493SOL     OW14377   4.158   5.001   4.661
 4493SOL    HW114378   4.138   5.065   4.587
 4493SOL    HW214379   4.253   5.013   4.691
 4494SOL     OW14380   6.820   2.418   5.967
 4494SOL    HW114381   6.799   2.369   5.882
 4494SOL    HW214382   6.911   2.458   5.961
 4495SOL     OW14383   4.821   6.858   2.703
 4495SOL    HW114384   4.824   6.843   2.604
 4495SOL    HW214385   4.909   6.835   2.743
 4496SOL     OW14386   5.102   4.945   0.339
 4496SOL    HW114387   5.081   4.912   0.248
 4496SOL    HW214388   5.200   4.934   0.357
 4497SOL     OW14389   5.514   5.890   0.100
 4497SOL    HW114390   5.585   5.960   0.113
 4497SOL    HW214391   5.530   5.842   0.014
 4498SOL     OW14392   0.222   3.442   6.374
 4498SOL    HW114393   0.215   3.517   6.308
 4498SOL    HW214394   0.233   3.356   6.325
 4499SOL     OW14395   6.326   3.109   4.287
 4499SOL    HW114396   6.391   3.122   4.362
 4499SOL    HW214397   6.257   3.042   4.313
 4500SOL     OW14398   2.917   3.600   4.099
 4500SOL    HW114399   2.853   3.666   4.139
 4500SOL    HW214400   2.927   3.619   4.002
 4501SOL     OW14401   1.148   3.786   6.139
 4501SOL    HW114402   1.160   3.692   6.106
 4501SOL    HW214403   1.150   3.849   6.062
 4502SOL     OW14404   1.827   2.515   5.952
 4502SOL    HW114405   1.919   2.497   5.985
 4502SOL    HW214406   1.830   2.574   5.871
 4503SOL     OW14407   2.422   1.027   3.182
 4503SOL    HW114408   2.407   1.047   3.278
 4503SOL    HW214409   2.336   1.029   3.132
 4504SOL     OW14410   6.669   2.491   5.637
 4504SOL    HW114411   6.724   2.504   5.555
 4504SOL    HW214412   6.649   2.579   5.679
 4505SOL     OW14413   0.495   5.993   4.922
 4505SOL    HW114414   0.461   5.927   4.855
 4505SOL    HW214415   0.423   6.013   4.989
 4506SOL     OW14416   4.028   1.778   4.594
 4506SOL    HW114417   3.932   1.805   4.584
 4506SOL    HW214418   4.079   1.852   4.639
 4507SOL     OW14419   5.156   5.029   1.401
 4507SOL    HW114420   5.119   5.059   1.489
 4507SOL    HW214421   5.087   4.977   1.351
 4508SOL     OW14422   1.387   4.173   7.011
 4508SOL    HW114423   1.336   4.259   7.014
 4508SOL    HW214424   1.388   4.131   0.079
 4509SOL     OW14425   4.588   1.800   4.497
 4509SOL    HW114426   4.678   1.827   4.532
 4509SOL    HW214427   4.544   1.739   4.563
 4510SOL     OW14428   5.427   0.287   5.092
 4510SOL    HW114429   5.401   0.270   5.187
 4510SOL    HW214430   5.490   0.216   5.062
 4511SOL     OW14431   0.394   3.003   7.013
 4511SOL    HW114432   0.300   2.977   0.010
 4511SOL    HW214433   0.405   3.014   6.914
 4512SOL     OW14434   2.406   6.597   6.148
 4512SOL    HW114435   2.401   6.512   6.201
 4512SOL    HW214436   2.405   6.575   6.051
 4513SOL     OW14437   4.738   6.538   1.464
 4513SOL    HW114438   4.644   6.523   1.496
 4513SOL    HW214439   4.774   6.452   1.426
 4514SOL     OW14440   3.667   1.273   4.804
 4514SOL    HW114441   3.689   1.253   4.709
 4514SOL    HW214442   3.685   1.370   4.822
 4515SOL     OW14443   6.476   4.468   0.027
 4515SOL    HW114444   6.567   4.435   0.001
 4515SOL    HW214445   6.484   4.561   0.064
 4516SOL     OW14446   0.963   0.981   5.826
 4516SOL    HW114447   0.902   0.958   5.902
 4516SOL    HW214448   1.022   1.058   5.853
 4517SOL     OW14449   2.671   6.575   5.781
 4517SOL    HW114450   2.638   6.615   5.696
 4517SOL    HW214451   2.715   6.646   5.836
 4518SOL     OW14452   0.410   2.303   4.251
 4518SOL    HW114453   0.469   2.234   4.209
 4518SOL    HW214454   0.316   2.270   4.252
 4519SOL     OW14455   0.046   1.724   2.564
 4519SOL    HW114456   0.020   1.800   2.506
 4519SOL    HW214457   0.131   1.683   2.530
 4520SOL     OW14458   5.775   4.767   2.906
 4520SOL    HW114459   5.719   4.837   2.862
 4520SOL    HW214460   5.819   4.806   2.987
 4521SOL     OW14461   4.905   2.081   6.001
 4521SOL    HW114462   4.880   2.145   5.928
 4521SOL    HW214463   4.850   2.100   6.082
 4522SOL     OW14464   5.224   6.763   3.966
 4522SOL    HW114465   5.168   6.837   3.930
 4522SOL    HW214466   5.174   6.676   3.959
 4523SOL     OW14467   2.532   4.169   6.454
 4523SOL    HW114468   2.518   4.070   6.467
 4523SOL    HW214469   2.625   4.186   6.423
 4524SOL     OW14470   5.364   1.501   5.775
 4524SOL    HW114471   5.324   1.425   5.826
 4524SOL    HW214472   5.420   1.465   5.701
 4525SOL     OW14473   6.466   1.624   4.162
 4525SOL    HW114474   6.491   1.720   4.151
 4525SOL    HW214475   6.548   1.569   4.173
 4526SOL     OW14476   5.165   0.193   1.280
 4526SOL    HW114477   5.230   0.260   1.243
 4526SOL    HW214478   5.077   0.237   1.297
 4527SOL     OW14479   4.119   0.973   3.653
 4527SOL    HW114480   4.180   0.894   3.645
 4527SOL    HW214481   4.159   1.040   3.716
 4528SOL     OW14482   4.595   6.682   6.953
 4528SOL    HW114483   4.677   6.645   6.907
 4528SOL    HW214484   4.623   6.751   7.019
 4529SOL     OW14485   2.678   1.130   3.265
 4529SOL    HW114486   2.680   1.190   3.184
 4529SOL    HW214487   2.588   1.087   3.272
 4530SOL     OW14488   0.476   3.291   5.643
 4530SOL    HW114489   0.527   3.216   5.684
 4530SOL    HW214490   0.405   3.322   5.707
 4531SOL     OW14491   1.271   4.053   3.501
 4531SOL    HW114492   1.298   4.071   3.596
 4531SOL    HW214493   1.317   3.970   3.469
 4532SOL     OW14494   6.980   1.547   1.718
 4532SOL    HW114495   6.903   1.567   1.658
 4532SOL    HW214496   6.988   1.619   1.788
 4533SOL     OW14497   1.702   0.701   3.588
 4533SOL    HW114498   1.609   0.709   3.553
 4533SOL    HW214499   1.700   0.656   3.678
 4534SOL     OW14500   6.326   3.539   5.179
 4534SOL    HW114501   6.359   3.627   5.213
 4534SOL    HW214502   6.227   3.532   5.190
 4535SOL     OW14503   4.335   2.110   2.684
 4535SOL    HW114504   4.387   2.063   2.613
 4535SOL    HW214505   4.238   2.089   2.673
 4536SOL     OW14506   4.601   1.442   4.495
 4536SOL    HW114507   4.637   1.384   4.569
 4536SOL    HW214508   4.508   1.471   4.517
 4537SOL     OW14509   3.613   3.071   6.353
 4537SOL    HW114510   3.662   3.063   6.266
 4537SOL    HW214511   3.517   3.096   6.334
 4538SOL     OW14512   3.192   2.158   3.985
 4538SOL    HW114513   3.144   2.178   3.899
 4538SOL    HW214514   3.287   2.132   3.965
 4539SOL     OW14515   2.836   2.263   4.126
 4539SOL    HW114516   2.807   2.245   4.032
 4539SOL    HW214517   2.758   2.252   4.187
 4540SOL     OW14518   3.471   3.597   3.706
 4540SOL    HW114519   3.515   3.518   3.664
 4540SOL    HW214520   3.372   3.583   3.706
 4541SOL     OW14521   5.280   0.412   0.153
 4541SOL    HW114522   5.310   0.491   0.206
 4541SOL    HW214523   5.359   0.367   0.112
 4542SOL     OW14524   6.415   6.100   1.622
 4542SOL    HW114525   6.433   6.098   1.524
 4542SOL    HW214526   6.361   6.020   1.648
 4543SOL     OW14527   4.859   1.547   6.925
 4543SOL    HW114528   4.773   1.536   6.875
 4543SOL    HW214529   4.844   1.607   7.003
 4544SOL     OW14530   2.364   5.878   6.557
 4544SOL    HW114531   2.435   5.914   6.618
 4544SOL    HW214532   2.274   5.899   6.595
 4545SOL     OW14533   4.532   2.236   5.122
 4545SOL    HW114534   4.499   2.160   5.066
 4545SOL    HW214535   4.630   2.249   5.107
 4546SOL     OW14536   0.960   6.929   6.110
 4546SOL    HW114537   0.901   6.861   6.152
 4546SOL    HW214538   0.906   7.011   6.090
 4547SOL     OW14539   5.411   2.741   1.831
 4547SOL    HW114540   5.395   2.785   1.743
 4547SOL    HW214541   5.438   2.809   1.898
 4548SOL     OW14542   1.115   5.120   4.069
 4548SOL    HW114543   1.170   5.169   4.136
 4548SOL    HW214544   1.088   5.182   3.996
 4549SOL     OW14545   6.369   3.711   3.085
 4549SOL    HW114546   6.453   3.765   3.074
 4549SOL    HW214547   6.351   3.660   3.001
 4550SOL     OW14548   0.891   5.736   3.790
 4550SOL    HW114549   0.824   5.753   3.863
 4550SOL    HW214550   0.851   5.761   3.702
 4551SOL     OW14551   6.965   1.938   5.176
 4551SOL    HW114552   6.928   2.021   5.134
 4551SOL    HW214553   6.890   1.879   5.205
 4552SOL     OW14554   0.403   3.026   5.859
 4552SOL    HW114555   0.423   3.113   5.903
 4552SOL    HW214556   0.413   2.952   5.926
 4553SOL     OW14557   4.111   4.956   6.743
 4553SOL    HW114558   4.142   5.025   6.808
 4553SOL    HW214559   4.181   4.941   6.674
 4554SOL     OW14560   4.010   0.759   2.304
 4554SOL    HW114561   3.987   0.760   2.402
 4554SOL    HW214562   3.953   0.826   2.256
 4555SOL     OW14563   4.461   1.362   6.736
 4555SOL    HW114564   4.464   1.282   6.795
 4555SOL    HW214565   4.545   1.415   6.748
 4556SOL     OW14566   3.852   1.226   3.777
 4556SOL    HW114567   3.901   1.296   3.725
 4556SOL    HW214568   3.839   1.145   3.720
 4557SOL     OW14569   5.192   0.406   4.599
 4557SOL    HW114570   5.127   0.480   4.579
 4557SOL    HW214571   5.226   0.417   4.692
 4558SOL     OW14572   6.469   3.885   6.638
 4558SOL    HW114573   6.458   3.833   6.553
 4558SOL    HW214574   6.460   3.983   6.619
 4559SOL     OW14575   1.837   6.634   1.964
 4559SOL    HW114576   1.922   6.591   1.996
 4559SOL    HW214577   1.859   6.707   1.899
 4560SOL     OW14578   5.101   4.047   2.978
 4560SOL    HW114579   5.171   3.976   2.976
 4560SOL    HW214580   5.123   4.113   3.049
 4561SOL     OW14581   2.610   0.631   0.968
 4561SOL    HW114582   2.526   0.585   0.937
 4561SOL    HW214583   2.637   0.594   1.056
 4562SOL     OW14584   3.078   5.713   5.276
 4562SOL    HW114585   3.016   5.697   5.200
 4562SOL    HW214586   3.161   5.657   5.264
 4563SOL     OW14587   5.392   3.303   0.348
 4563SOL    HW114588   5.303   3.347   0.362
 4563SOL    HW214589   5.457   3.338   0.416
 4564SOL     OW14590   1.201   5.300   1.112
 4564SOL    HW114591   1.152   5.231   1.058
 4564SOL    HW214592   1.135   5.362   1.154
 4565SOL     OW14593   0.475   1.773   5.488
 4565SOL    HW114594   0.449   1.721   5.407
 4565SOL    HW214595   0.571   1.755   5.510
 4566SOL     OW14596   6.773   0.598   0.337
 4566SOL    HW114597   6.810   0.571   0.248
 4566SOL    HW214598   6.837   0.659   0.383
 4567SOL     OW14599   0.516   1.210   0.977
 4567SOL    HW114600   0.431   1.166   1.006
 4567SOL    HW214601   0.533   1.291   1.033
 4568SOL     OW14602   1.918   4.143   5.292
 4568SOL    HW114603   1.930   4.213   5.363
 4568SOL    HW214604   1.959   4.175   5.207
 4569SOL     OW14605   1.526   2.421   3.907
 4569SOL    HW114606   1.626   2.415   3.905
 4569SOL    HW214607   1.498   2.489   3.975
 4570SOL     OW14608   6.789   6.100   3.261
 4570SOL    HW114609   6.820   6.053   3.178
 4570SOL    HW214610   6.716   6.047   3.304
 4571SOL     OW14611   3.419   3.914   4.914
 4571SOL    HW114612   3.406   3.893   5.012
 4571SOL    HW214613   3.449   3.831   4.867
 4572SOL     OW14614   0.342   0.148   0.771
 4572SOL    HW114615   0.414   0.159   0.839
 4572SOL    HW214616   0.253   0.152   0.817
 4573SOL     OW14617   5.924   5.894   0.431
 4573SOL    HW114618   5.838   5.941   0.414
 4573SOL    HW214619   5.908   5.818   0.494
 4574SOL     OW14620   0.127   4.910   0.728
 4574SOL    HW114621   0.142   4.822   0.683
 4574SOL    HW214622   0.169   4.983   0.675
 4575SOL     OW14623   6.940   2.016   0.537
 4575SOL    HW114624   6.884   2.027   0.619
 4575SOL    HW214625   0.010   1.991   0.563
 4576SOL     OW14626   2.998   5.754   6.260
 4576SOL    HW114627   3.093   5.768   6.232
 4576SOL    HW214628   2.938   5.803   6.196
 4577SOL     OW14629   0.422   3.669   2.898
 4577SOL    HW114630   0.356   3.731   2.939
 4577SOL    HW214631   0.514   3.694   2.927
 4578SOL     OW14632   0.910   3.814   3.417
 4578SOL    HW114633   0.953   3.724   3.404
 4578SOL    HW214634   0.869   3.818   3.507
 4579SOL     OW14635   4.615   1.504   2.924
 4579SOL    HW114636   4.670   1.510   2.841
 4579SOL    HW214637   4.612   1.409   2.956
 4580SOL     OW14638   6.290   4.970   0.648
 4580SOL    HW114639   6.192   4.987   0.643
 4580SOL    HW214640   6.308   4.872   0.647
 4581SOL     OW14641   3.316   4.891   2.635
 4581SOL    HW114642   3.362   4.980   2.638
 4581SOL    HW214643   3.368   4.829   2.576
 4582SOL     OW14644   5.966   6.534   4.459
 4582SOL    HW114645   5.983   6.511   4.363
 4582SOL    HW214646   6.034   6.489   4.517
 4583SOL     OW14647   2.956   1.780   5.028
 4583SOL    HW114648   2.940   1.848   5.099
 4583SOL    HW214649   2.926   1.815   4.939
 4584SOL     OW14650   0.136   5.596   6.085
 4584SOL    HW114651   0.060   5.569   6.144
 4584SOL    HW214652   0.165   5.689   6.108
 4585SOL     OW14653   2.815   6.482   3.130
 4585SOL    HW114654   2.752   6.528   3.193
 4585SOL    HW214655   2.864   6.551   3.076
 4586SOL     OW14656   3.201   4.747   1.114
 4586SOL    HW114657   3.156   4.695   1.187
 4586SOL    HW214658   3.253   4.823   1.153
 4587SOL     OW14659   4.180   3.422   1.830
 4587SOL    HW114660   4.193   3.363   1.909
 4587SOL    HW214661   4.116   3.379   1.766
 4588SOL     OW14662   4.024   3.617   5.410
 4588SOL    HW114663   4.017   3.700   5.355
 4588SOL    HW214664   3.943   3.560   5.395
 4589SOL     OW14665   5.290   2.179   2.781
 4589SOL    HW114666   5.244   2.268   2.776
 4589SOL    HW214667   5.243   2.114   2.721
 4590SOL     OW14668   4.490   6.041   1.961
 4590SOL    HW114669   4.416   6.026   1.895
 4590SOL    HW214670   4.500   5.959   2.018
 4591SOL     OW14671   0.044   5.988   5.574
 4591SOL    HW114672   6.979   6.033   5.582
 4591SOL    HW214673   0.110   6.030   5.636
 4592SOL     OW14674   4.006   2.856   1.391
 4592SOL    HW114675   4.029   2.892   1.301
 4592SOL    HW214676   4.064   2.778   1.412
 4593SOL     OW14677   4.431   5.187   3.361
 4593SOL    HW114678   4.338   5.221   3.351
 4593SOL    HW214679   4.462   5.202   3.455
 4594SOL     OW14680   3.992   1.119   1.957
 4594SOL    HW114681   4.052   1.198   1.953
 4594SOL    HW214682   4.019   1.053   1.886
 4595SOL     OW14683   3.707   2.829   6.753
 4595SOL    HW114684   3.642   2.900   6.781
 4595SOL    HW214685   3.752   2.791   6.834
 4596SOL     OW14686   5.999   6.352   1.890
 4596SOL    HW114687   6.084   6.326   1.843
 4596SOL    HW214688   5.935   6.391   1.825
 4597SOL     OW14689   5.188   5.508   6.640
 4597SOL    HW114690   5.165   5.558   6.723
 4597SOL    HW214691   5.199   5.411   6.662
 4598SOL     OW14692   1.089   5.221   6.253
 4598SOL    HW114693   1.072   5.293   6.186
 4598SOL    HW214694   1.018   5.223   6.324
 4599SOL     OW14695   1.224   3.658   1.161
 4599SOL    HW114696   1.215   3.728   1.091
 4599SOL    HW214697   1.312   3.611   1.150
 4600SOL     OW14698   3.299   5.476   6.152
 4600SOL    HW114699   3.343   5.464   6.063
 4600SOL    HW214700   3.351   5.427   6.222
 4601SOL     OW14701   1.824   0.868   5.269
 4601SOL    HW114702   1.884   0.899   5.196
 4601SOL    HW214703   1.779   0.783   5.241
 4602SOL     OW14704   1.236   6.650   1.538
 4602SOL    HW114705   1.174   6.693   1.472
 4602SOL    HW214706   1.277   6.721   1.596
 4603SOL     OW14707   3.489   6.402   1.375
 4603SOL    HW114708   3.420   6.475   1.376
 4603SOL    HW214709   3.537   6.401   1.463
 4604SOL     OW14710   4.162   1.026   1.067
 4604SOL    HW114711   4.137   0.931   1.083
 4604SOL    HW214712   4.181   1.040   0.970
 4605SOL     OW14713   4.749   0.657   3.883
 4605SOL    HW114714   4.724   0.708   3.966
 4605SOL    HW214715   4.806   0.715   3.825
 4606SOL     OW14716   0.190   6.662   2.977
 4606SOL    HW114717   0.138   6.745   2.997
 4606SOL    HW214718   0.159   6.589   3.039
 4607SOL     OW14719   2.665   2.031   0.737
 4607SOL    HW114720   2.598   2.068   0.801
 4607SOL    HW214721   2.713   1.954   0.781
 4608SOL     OW14722   1.009   5.389   5.156
 4608SOL    HW114723   1.068   5.380   5.076
 4608SOL    HW214724   0.961   5.303   5.172
 4609SOL     OW14725   4.195   5.647   6.292
 4609SOL    HW114726   4.248   5.568   6.321
 4609SOL    HW214727   4.107   5.617   6.255
 4610SOL     OW14728   0.197   2.300   0.218
 4610SOL    HW114729   0.210   2.398   0.206
 4610SOL    HW214730   0.221   2.274   0.312
 4611SOL     OW14731   6.495   4.320   0.295
 4611SOL    HW114732   6.446   4.316   0.382
 4611SOL    HW214733   6.451   4.386   0.234
 4612SOL     OW14734   1.803   5.966   6.845
 4612SOL    HW114735   1.854   5.908   6.781
 4612SOL    HW214736   1.706   5.969   6.818
 4613SOL     OW14737   2.354   5.790   2.869
 4613SOL    HW114738   2.447   5.786   2.906
 4613SOL    HW214739   2.354   5.753   2.776
 4614SOL     OW14740   1.848   5.095   6.330
 4614SOL    HW114741   1.760   5.141   6.318
 4614SOL    HW214742   1.922   5.158   6.307
 4615SOL     OW14743   1.652   1.347   0.610
 4615SOL    HW114744   1.626   1.427   0.665
 4615SOL    HW214745   1.652   1.373   0.513
 4616SOL     OW14746   6.763   0.799   6.377
 4616SOL    HW114747   6.852   0.845   6.373
 4616SOL    HW214748   6.699   0.846   6.316
 4617SOL     OW14749   1.039   2.653   2.253
 4617SOL    HW114750   1.118   2.639   2.192
 4617SOL    HW214751   0.962   2.686   2.199
 4618SOL     OW14752   1.543   2.343   5.215
 4618SOL    HW114753   1.530   2.431   5.261
 4618SOL    HW214754   1.563   2.273   5.282
 4619SOL     OW14755   4.530   6.903   3.624
 4619SOL    HW114756   4.460   6.934   3.689
 4619SOL    HW214757   4.621   6.918   3.664
 4620SOL     OW14758   3.483   4.116   6.879
 4620SOL    HW114759   3.445   4.053   6.812
 4620SOL    HW214760   3.408   4.156   6.932
 4621SOL     OW14761   6.360   2.260   4.680
 4621SOL    HW114762   6.436   2.320   4.656
 4621SOL    HW214763   6.372   2.171   4.636
 4622SOL     OW14764   1.630   2.731   0.883
 4622SOL    HW114765   1.713   2.752   0.935
 4622SOL    HW214766   1.550   2.746   0.940
 4623SOL     OW14767   0.410   5.271   1.028
 4623SOL    HW114768   0.404   5.172   1.018
 4623SOL    HW214769   0.506   5.298   1.037
 4624SOL     OW14770   4.703   0.738   4.149
 4624SOL    HW114771   4.616   0.773   4.115
 4624SOL    HW214772   4.746   0.806   4.209
 4625SOL     OW14773   1.651   4.182   0.123
 4625SOL    HW114774   1.641   4.223   0.032
 4625SOL    HW214775   1.674   4.254   0.189
 4626SOL     OW14776   6.156   4.749   1.594
 4626SOL    HW114777   6.143   4.653   1.566
 4626SOL    HW214778   6.193   4.801   1.517
 4627SOL     OW14779   3.477   5.790   5.421
 4627SOL    HW114780   3.518   5.770   5.333
 4627SOL    HW214781   3.407   5.721   5.442
 4628SOL     OW14782   5.695   4.504   2.901
 4628SOL    HW114783   5.722   4.600   2.890
 4628SOL    HW214784   5.726   4.471   2.990
 4629SOL     OW14785   1.979   4.913   5.859
 4629SOL    HW114786   1.967   4.898   5.957
 4629SOL    HW214787   1.997   5.010   5.842
 4630SOL     OW14788   2.851   5.658   3.833
 4630SOL    HW114789   2.837   5.736   3.773
 4630SOL    HW214790   2.798   5.670   3.917
 4631SOL     OW14791   2.472   6.619   3.412
 4631SOL    HW114792   2.473   6.672   3.497
 4631SOL    HW214793   2.378   6.613   3.377
 4632SOL     OW14794   4.475   4.956   3.228
 4632SOL    HW114795   4.469   5.027   3.297
 4632SOL    HW214796   4.459   4.995   3.138
 4633SOL     OW14797   6.697   1.715   4.947
 4633SOL    HW114798   6.740   1.625   4.939
 4633SOL    HW214799   6.765   1.786   4.927
 4634SOL     OW14800   2.902   4.448   6.426
 4634SOL    HW114801   2.925   4.446   6.524
 4634SOL    HW214802   2.984   4.426   6.373
 4635SOL     OW14803   5.921   3.186   2.162
 4635SOL    HW114804   5.924   3.276   2.119
 4635SOL    HW214805   5.978   3.122   2.111
 4636SOL     OW14806   2.766   5.113   6.724
 4636SOL    HW114807   2.690   5.049   6.712
 4636SOL    HW214808   2.798   5.109   6.818
 4637SOL     OW14809   1.474   0.608   6.616
 4637SOL    HW114810   1.424   0.633   6.533
 4637SOL    HW214811   1.503   0.512   6.608
 4638SOL     OW14812   4.053   2.739   6.273
 4638SOL    HW114813   4.039   2.749   6.174
 4638SOL    HW214814   4.151   2.727   6.291
 4639SOL     OW14815   1.326   4.205   5.745
 4639SOL    HW114816   1.343   4.288   5.800
 4639SOL    HW214817   1.408   4.184   5.691
 4640SOL     OW14818   5.104   4.972   3.936
 4640SOL    HW114819   5.070   4.893   3.884
 4640SOL    HW214820   5.043   4.991   4.012
 4641SOL     OW14821   2.546   5.064   4.514
 4641SOL    HW114822   2.645   5.061   4.498
 4641SOL    HW214823   2.529   5.085   4.610
 4642SOL     OW14824   6.462   5.563   4.904
 4642SOL    HW114825   6.406   5.559   4.987
 4642SOL    HW214826   6.543   5.619   4.922
 4643SOL     OW14827   4.678   2.462   0.136
 4643SOL    HW114828   4.702   2.557   0.157
 4643SOL    HW214829   4.684   2.447   0.038
 4644SOL     OW14830   1.477   5.384   5.188
 4644SOL    HW114831   1.424   5.309   5.229
 4644SOL    HW214832   1.422   5.427   5.116
 4645SOL     OW14833   1.838   0.078   4.405
 4645SOL    HW114834   1.765   0.010   4.398
 4645SOL    HW214835   1.909   0.058   4.338
 4646SOL     OW14836   2.692   6.879   2.347
 4646SOL    HW114837   2.776   6.825   2.358
 4646SOL    HW214838   2.630   6.861   2.423
 4647SOL     OW14839   0.999   6.558   2.807
 4647SOL    HW114840   0.905   6.571   2.775
 4647SOL    HW214841   1.027   6.638   2.860
 4648SOL     OW14842   3.347   6.697   1.594
 4648SOL    HW114843   3.418   6.762   1.566
 4648SOL    HW214844   3.305   6.658   1.512
 4649SOL     OW14845   4.880   0.827   5.794
 4649SOL    HW114846   4.966   0.779   5.778
 4649SOL    HW214847   4.893   0.895   5.865
 4650SOL     OW14848   3.846   5.898   2.970
 4650SOL    HW114849   3.850   5.881   2.871
 4650SOL    HW214850   3.765   5.952   2.991
 4651SOL     OW14851   0.572   2.379   1.847
 4651SOL    HW114852   0.635   2.337   1.912
 4651SOL    HW214853   0.605   2.470   1.822
 4652SOL     OW14854   0.747   6.703   3.689
 4652SOL    HW114855   0.834   6.682   3.734
 4652SOL    HW214856   0.764   6.757   3.606
 4653SOL     OW14857   6.688   5.918   0.218
 4653SOL    HW114858   6.788   5.922   0.208
 4653SOL    HW214859   6.649   5.870   0.140
 4654SOL     OW14860   0.729   0.139   0.327
 4654SOL    HW114861   0.631   0.127   0.334
 4654SOL    HW214862   0.773   0.118   0.415
 4655SOL     OW14863   0.772   4.799   2.683
 4655SOL    HW114864   0.764   4.882   2.737
 4655SOL    HW214865   0.699   4.796   2.615
 4656SOL     OW14866   0.912   6.783   3.030
 4656SOL    HW114867   0.864   6.870   3.016
 4656SOL    HW214868   0.963   6.787   3.116
 4657SOL     OW14869   5.650   6.802   1.914
 4657SOL    HW114870   5.727   6.818   1.852
 4657SOL    HW214871   5.660   6.859   1.996
 4658SOL     OW14872   3.874   0.333   2.885
 4658SOL    HW114873   3.815   0.407   2.917
 4658SOL    HW214874   3.818   0.252   2.867
 4659SOL     OW14875   1.757   3.139   5.039
 4659SOL    HW114876   1.698   3.129   5.119
 4659SOL    HW214877   1.851   3.156   5.069
 4660SOL     OW14878   1.304   1.867   4.866
 4660SOL    HW114879   1.324   1.813   4.784
 4660SOL    HW214880   1.356   1.952   4.864
 4661SOL     OW14881   3.718   3.847   4.809
 4661SOL    HW114882   3.653   3.787   4.763
 4661SOL    HW214883   3.769   3.900   4.741
 4662SOL     OW14884   4.726   0.575   5.234
 4662SOL    HW114885   4.637   0.621   5.231
 4662SOL    HW214886   4.799   0.641   5.215
 4663SOL     OW14887   6.677   1.876   2.668
 4663SOL    HW114888   6.647   1.802   2.729
 4663SOL    HW214889   6.717   1.836   2.585
 4664SOL     OW14890   2.226   2.217   6.578
 4664SOL    HW114891   2.163   2.155   6.623
 4664SOL    HW214892   2.185   2.308   6.570
 4665SOL     OW14893   4.738   6.888   6.717
 4665SOL    HW114894   4.791   6.878   6.633
 4665SOL    HW214895   4.705   6.982   6.725
 4666SOL     OW14896   2.416   1.136   0.100
 4666SOL    HW114897   2.468   1.066   0.051
 4666SOL    HW214898   2.319   1.128   0.075
 4667SOL     OW14899   6.465   4.821   6.884
 4667SOL    HW114900   6.411   4.841   6.802
 4667SOL    HW214901   6.417   4.855   6.965
 4668SOL     OW14902   0.185   1.511   4.458
 4668SOL    HW114903   0.137   1.546   4.378
 4668SOL    HW214904   0.197   1.585   4.524
 4669SOL     OW14905   2.718   6.680   0.325
 4669SOL    HW114906   2.642   6.738   0.355
 4669SOL    HW214907   2.803   6.731   0.332
 4670SOL     OW14908   3.192   1.053   4.798
 4670SOL    HW114909   3.229   1.018   4.711
 4670SOL    HW214910   3.192   0.980   4.866
 4671SOL     OW14911   5.886   3.309   1.382
 4671SOL    HW114912   5.908   3.225   1.430
 4671SOL    HW214913   5.801   3.297   1.330
 4672SOL     OW14914   2.374   4.617   6.136
 4672SOL    HW114915   2.296   4.554   6.132
 4672SOL    HW214916   2.341   4.711   6.126
 4673SOL     OW14917   3.814   0.038   1.458
 4673SOL    HW114918   3.744   0.110   1.459
 4673SOL    HW214919   3.904   0.080   1.447
 4674SOL     OW14920   5.525   6.096   6.164
 4674SOL    HW114921   5.510   6.006   6.124
 4674SOL    HW214922   5.540   6.164   6.091
 4675SOL     OW14923   0.987   3.496   0.916
 4675SOL    HW114924   0.914   3.445   0.871
 4675SOL    HW214925   0.965   3.507   1.013
 4676SOL     OW14926   0.870   5.366   3.183
 4676SOL    HW114927   0.964   5.398   3.183
 4676SOL    HW214928   0.813   5.428   3.238
 4677SOL     OW14929   1.604   1.564   0.757
 4677SOL    HW114930   1.634   1.638   0.696
 4677SOL    HW214931   1.513   1.584   0.793
 4678SOL     OW14932   2.297   4.418   2.822
 4678SOL    HW114933   2.209   4.466   2.828
 4678SOL    HW214934   2.352   4.457   2.748
 4679SOL     OW14935   4.896   6.582   2.187
 4679SOL    HW114936   4.840   6.546   2.112
 4679SOL    HW214937   4.885   6.681   2.192
 4680SOL     OW14938   3.820   0.844   1.283
 4680SOL    HW114939   3.727   0.850   1.318
 4680SOL    HW214940   3.829   0.903   1.202
 4681SOL     OW14941   4.724   4.954   6.804
 4681SOL    HW114942   4.797   4.887   6.819
 4681SOL    HW214943   4.764   5.042   6.781
 4682SOL     OW14944   5.658   3.480   6.239
 4682SOL    HW114945   5.630   3.565   6.193
 4682SOL    HW214946   5.592   3.408   6.218
 4683SOL     OW14947   6.237   5.141   2.991
 4683SOL    HW114948   6.298   5.078   3.038
 4683SOL    HW214949   6.276   5.233   2.993
 4684SOL     OW14950   4.342   5.826   5.803
 4684SOL    HW114951   4.409   5.800   5.872
 4684SOL    HW214952   4.253   5.841   5.847
 4685SOL     OW14953   1.901   3.527   6.214
 4685SOL    HW114954   1.831   3.496   6.150
 4685SOL    HW214955   1.957   3.598   6.170
 4686SOL     OW14956   3.809   5.728   0.300
 4686SOL    HW114957   3.906   5.717   0.278
 4686SOL    HW214958   3.763   5.640   0.290
 4687SOL     OW14959   3.958   1.777   3.701
 4687SOL    HW114960   3.965   1.725   3.786
 4687SOL    HW214961   3.864   1.776   3.668
 4688SOL     OW14962   6.105   2.785   6.076
 4688SOL    HW114963   6.145   2.856   6.017
 4688SOL    HW214964   6.060   2.829   6.154
 4689SOL     OW14965   5.512   0.126   1.554
 4689SOL    HW114966   5.467   0.150   1.640
 4689SOL    HW214967   5.513   0.206   1.494
 4690SOL     OW14968   1.739   1.048   0.587
 4690SOL    HW114969   1.784   0.984   0.649
 4690SOL    HW214970   1.774   1.140   0.603
 4691SOL     OW14971   4.567   4.368   0.586
 4691SOL    HW114972   4.591   4.406   0.676
 4691SOL    HW214973   4.540   4.273   0.597
 4692SOL     OW14974   6.132   4.308   3.034
 4692SOL    HW114975   6.197   4.379   3.007
 4692SOL    HW214976   6.104   4.323   3.129
 4693SOL     OW14977   1.523   1.296   4.396
 4693SOL    HW114978   1.616   1.285   4.359
 4693SOL    HW214979   1.484   1.207   4.417
 4694SOL     OW14980   2.465   2.000   0.562
 4694SOL    HW114981   2.506   1.944   0.490
 4694SOL    HW214982   2.533   2.016   0.634
 4695SOL     OW14983   1.745   5.835   0.676
 4695SOL    HW114984   1.725   5.793   0.587
 4695SOL    HW214985   1.661   5.841   0.729
 4696SOL     OW14986   0.427   5.362   6.382
 4696SOL    HW114987   0.364   5.285   6.393
 4696SOL    HW214988   0.411   5.405   6.293
 4697SOL     OW14989   1.215   3.700   2.376
 4697SOL    HW114990   1.308   3.715   2.340
 4697SOL    HW214991   1.219   3.634   2.450
 4698SOL     OW14992   3.787   0.107   3.314
 4698SOL    HW114993   3.874   0.139   3.352
 4698SOL    HW214994   3.789   0.007   3.305
 4699SOL     OW14995   0.392   6.798   2.445
 4699SOL    HW114996   0.421   6.771   2.537
 4699SOL    HW214997   0.359   6.718   2.395
 4700SOL     OW14998   6.982   1.892   2.368
 4700SOL    HW114999   7.007   1.833   2.292
 4700SOL    HW215000   6.902   1.946   2.344
 4701SOL     OW15001   3.334   2.081   2.090
 4701SOL    HW115002   3.414   2.140   2.098
 4701SOL    HW215003   3.345   2.022   2.011
 4702SOL     OW15004   4.762   4.981   0.687
 4702SOL    HW115005   4.779   4.997   0.784
 4702SOL    HW215006   4.708   4.897   0.676
 4703SOL     OW15007   1.636   5.586   2.539
 4703SOL    HW115008   1.701   5.644   2.490
 4703SOL    HW215009   1.551   5.579   2.486
 4704SOL     OW15010   0.384   6.233   5.546
 4704SOL    HW115011   0.454   6.194   5.606
 4704SOL    HW215012   0.320   6.287   5.600
 4705SOL     OW15013   3.335   2.324   0.763
 4705SOL    HW115014   3.338   2.386   0.685
 4705SOL    HW215015   3.403   2.352   0.831
 4706SOL     OW15016   1.331   0.091   0.884
 4706SOL    HW115017   1.422   0.128   0.865
 4706SOL    HW215018   1.263   0.164   0.882
 4707SOL     OW15019   1.630   6.013   1.825
 4707SOL    HW115020   1.707   5.954   1.799
 4707SOL    HW215021   1.621   6.087   1.758
 4708SOL     OW15022   1.094   2.354   5.475
 4708SOL    HW115023   1.160   2.280   5.459
 4708SOL    HW215024   1.103   2.386   5.570
 4709SOL     OW15025   4.730   5.329   4.482
 4709SOL    HW115026   4.644   5.334   4.430
 4709SOL    HW215027   4.801   5.288   4.424
 4710SOL     OW15028   6.371   6.902   4.783
 4710SOL    HW115029   6.306   6.970   4.817
 4710SOL    HW215030   6.440   6.885   4.853
 4711SOL     OW15031   6.385   2.836   3.477
 4711SOL    HW115032   6.325   2.840   3.557
 4711SOL    HW215033   6.385   2.925   3.431
 4712SOL     OW15034   4.324   4.745   5.938
 4712SOL    HW115035   4.228   4.764   5.958
 4712SOL    HW215036   4.382   4.813   5.983
 4713SOL     OW15037   5.610   5.739   1.183
 4713SOL    HW115038   5.605   5.839   1.181
 4713SOL    HW215039   5.521   5.702   1.211
 4714SOL     OW15040   6.791   1.674   6.699
 4714SOL    HW115041   6.866   1.619   6.735
 4714SOL    HW215042   6.737   1.620   6.635
 4715SOL     OW15043   6.078   2.508   1.081
 4715SOL    HW115044   6.157   2.517   1.019
 4715SOL    HW215045   6.109   2.473   1.169
 4716SOL     OW15046   4.984   5.670   5.893
 4716SOL    HW115047   5.082   5.654   5.882
 4716SOL    HW215048   4.934   5.587   5.869
 4717SOL     OW15049   1.791   5.208   5.385
 4717SOL    HW115050   1.882   5.169   5.371
 4717SOL    HW215051   1.786   5.297   5.339
 4718SOL     OW15052   4.965   2.947   0.964
 4718SOL    HW115053   5.055   2.962   1.004
 4718SOL    HW215054   4.934   3.031   0.919
 4719SOL     OW15055   5.357   3.508   3.087
 4719SOL    HW115056   5.353   3.441   3.013
 4719SOL    HW215057   5.304   3.474   3.165
 4720SOL     OW15058   2.874   4.222   6.088
 4720SOL    HW115059   2.854   4.132   6.049
 4720SOL    HW215060   2.789   4.272   6.101
 4721SOL     OW15061   5.903   2.740   1.513
 4721SOL    HW115062   5.850   2.793   1.580
 4721SOL    HW215063   5.886   2.775   1.421
 4722SOL     OW15064   1.262   5.061   0.147
 4722SOL    HW115065   1.305   4.978   0.180
 4722SOL    HW215066   1.325   5.109   0.086
 4723SOL     OW15067   3.429   4.246   5.185
 4723SOL    HW115068   3.464   4.228   5.093
 4723SOL    HW215069   3.496   4.215   5.253
 4724SOL     OW15070   6.886   6.478   3.825
 4724SOL    HW115071   6.910   6.575   3.833
 4724SOL    HW215072   6.797   6.463   3.867
 4725SOL     OW15073   6.171   4.921   0.312
 4725SOL    HW115074   6.143   4.924   0.408
 4725SOL    HW215075   6.091   4.932   0.253
 4726SOL     OW15076   1.086   2.971   5.951
 4726SOL    HW115077   1.113   2.879   5.923
 4726SOL    HW215078   1.113   2.986   6.046
 4727SOL     OW15079   0.544   5.986   0.073
 4727SOL    HW115080   0.588   5.967   7.009
 4727SOL    HW215081   0.580   5.925   0.143
 4728SOL     OW15082   6.369   1.875   2.628
 4728SOL    HW115083   6.469   1.877   2.618
 4728SOL    HW215084   6.331   1.964   2.604
 4729SOL     OW15085   5.006   0.057   0.030
 4729SOL    HW115086   5.068   0.117   7.002
 4729SOL    HW215087   4.924   0.108   0.056
 4730SOL     OW15088   3.491   6.378   5.077
 4730SOL    HW115089   3.480   6.300   5.140
 4730SOL    HW215090   3.532   6.455   5.126
 4731SOL     OW15091   3.155   0.797   0.693
 4731SOL    HW115092   3.168   0.840   0.604
 4731SOL    HW215093   3.101   0.858   0.752
 4732SOL     OW15094   0.756   3.921   5.072
 4732SOL    HW115095   0.824   3.866   5.024
 4732SOL    HW215096   0.704   3.862   5.135
 4733SOL     OW15097   1.641   4.476   2.927
 4733SOL    HW115098   1.588   4.418   2.989
 4733SOL    HW215099   1.711   4.526   2.978
 4734SOL     OW15100   5.205   3.507   6.902
 4734SOL    HW115101   5.121   3.485   6.851
 4734SOL    HW215102   5.182   3.566   6.980
 4735SOL     OW15103   6.852   5.613   3.602
 4735SOL    HW115104   6.885   5.525   3.565
 4735SOL    HW215105   6.863   5.684   3.532
 4736SOL     OW15106   5.882   1.922   4.454
 4736SOL    HW115107   5.833   1.931   4.541
 4736SOL    HW215108   5.956   1.856   4.464
 4737SOL     OW15109   1.982   3.954   0.761
 4737SOL    HW115110   1.893   3.998   0.760
 4737SOL    HW215111   2.054   4.024   0.763
 4738SOL     OW15112   3.578   6.855   3.900
 4738SOL    HW115113   3.642   6.897   3.835
 4738SOL    HW215114   3.571   6.757   3.882
 4739SOL     OW15115   5.703   2.234   4.046
 4739SOL    HW115116   5.690   2.181   3.962
 4739SOL    HW215117   5.692   2.331   4.027
 4740SOL     OW15118   0.773   0.912   1.091
 4740SOL    HW115119   0.697   0.871   1.040
 4740SOL    HW215120   0.859   0.870   1.062
 4741SOL     OW15121   4.513   5.135   1.337
 4741SOL    HW115122   4.553   5.061   1.393
 4741SOL    HW215123   4.577   5.159   1.264
 4742SOL     OW15124   2.903   5.141   1.437
 4742SOL    HW115125   2.926   5.237   1.452
 4742SOL    HW215126   2.939   5.086   1.513
 4743SOL     OW15127   2.285   1.005   5.840
 4743SOL    HW115128   2.284   0.988   5.742
 4743SOL    HW215129   2.331   1.092   5.859
 4744SOL     OW15130   2.362   2.802   5.228
 4744SOL    HW115131   2.428   2.833   5.296
 4744SOL    HW215132   2.344   2.875   5.162
 4745SOL     OW15133   2.539   4.719   5.590
 4745SOL    HW115134   2.443   4.688   5.593
 4745SOL    HW215135   2.550   4.786   5.517
 4746SOL     OW15136   5.768   5.932   0.774
 4746SOL    HW115137   5.840   5.883   0.724
 4746SOL    HW215138   5.809   5.992   0.842
 4747SOL     OW15139   0.882   3.132   6.636
 4747SOL    HW115140   0.815   3.141   6.710
 4747SOL    HW215141   0.905   3.223   6.602
 4748SOL     OW15142   1.472   0.506   1.350
 4748SOL    HW115143   1.451   0.411   1.325
 4748SOL    HW215144   1.485   0.511   1.449
 4749SOL     OW15145   3.071   6.353   6.001
 4749SOL    HW115146   3.053   6.450   5.990
 4749SOL    HW215147   3.037   6.302   5.922
 4750SOL     OW15148   6.918   2.062   4.263
 4750SOL    HW115149   6.950   2.066   4.168
 4750SOL    HW215150   6.994   2.037   4.323
 4751SOL     OW15151   2.072   3.191   0.009
 4751SOL    HW115152   2.104   3.097   0.020
 4751SOL    HW215153   2.060   3.212   6.936
 4752SOL     OW15154   2.937   6.683   0.652
 4752SOL    HW115155   2.923   6.599   0.599
 4752SOL    HW215156   2.963   6.659   0.746
 4753SOL     OW15157   5.733   6.930   4.580
 4753SOL    HW115158   5.686   7.006   4.625
 4753SOL    HW215159   5.755   6.860   4.647
 4754SOL     OW15160   6.489   0.535   6.211
 4754SOL    HW115161   6.477   0.634   6.201
 4754SOL    HW215162   6.585   0.515   6.226
 4755SOL     OW15163   2.393   0.086   6.280
 4755SOL    HW115164   2.372   0.073   6.184
 4755SOL    HW215165   2.421   0.181   6.296
 4756SOL     OW15166   5.692   2.271   1.879
 4756SOL    HW115167   5.790   2.258   1.865
 4756SOL    HW215168   5.642   2.239   1.799
 4757SOL     OW15169   2.319   2.028   1.872
 4757SOL    HW115170   2.276   2.100   1.819
 4757SOL    HW215171   2.270   1.942   1.858
 4758SOL     OW15172   3.211   5.924   5.052
 4758SOL    HW115173   3.233   5.960   5.143
 4758SOL    HW215174   3.114   5.900   5.048
 4759SOL     OW15175   5.161   5.440   4.547
 4759SOL    HW115176   5.141   5.343   4.534
 4759SOL    HW215177   5.076   5.489   4.568
 4760SOL     OW15178   3.266   1.580   1.466
 4760SOL    HW115179   3.207   1.660   1.474
 4760SOL    HW215180   3.309   1.579   1.376
 4761SOL     OW15181   6.822   0.597   0.029
 4761SOL    HW115182   6.814   0.691   7.020
 4761SOL    HW215183   6.883   0.546   6.992
 4762SOL     OW15184   2.453   4.878   3.224
 4762SOL    HW115185   2.372   4.917   3.267
 4762SOL    HW215186   2.428   4.835   3.137
 4763SOL     OW15187   5.781   5.804   3.214
 4763SOL    HW115188   5.864   5.751   3.194
 4763SOL    HW215189   5.718   5.797   3.137
 4764SOL     OW15190   4.707   4.164   5.185
 4764SOL    HW115191   4.687   4.131   5.093
 4764SOL    HW215192   4.781   4.110   5.225
 4765SOL     OW15193   4.646   6.392   4.967
 4765SOL    HW115194   4.634   6.419   4.872
 4765SOL    HW215195   4.732   6.342   4.977
 4766SOL     OW15196   3.841   0.865   3.968
 4766SOL    HW115197   3.866   0.821   4.054
 4766SOL    HW215198   3.886   0.954   3.962
 4767SOL     OW15199   4.191   6.054   0.548
 4767SOL    HW115200   4.205   5.972   0.603
 4767SOL    HW215201   4.151   6.030   0.460
 4768SOL     OW15202   5.464   1.782   5.041
 4768SOL    HW115203   5.380   1.834   5.027
 4768SOL    HW215204   5.509   1.812   5.125
 4769SOL     OW15205   4.325   5.255   1.508
 4769SOL    HW115206   4.252   5.201   1.551
 4769SOL    HW215207   4.370   5.201   1.438
 4770SOL     OW15208   2.080   0.119   3.706
 4770SOL    HW115209   2.138   0.140   3.785
 4770SOL    HW215210   2.123   0.153   3.622
 4771SOL     OW15211   2.964   4.896   6.073
 4771SOL    HW115212   2.958   4.858   6.166
 4771SOL    HW215213   2.877   4.938   6.048
 4772SOL     OW15214   2.607   6.472   1.552
 4772SOL    HW115215   2.522   6.436   1.589
 4772SOL    HW215216   2.601   6.572   1.546
 4773SOL     OW15217   6.822   5.495   4.692
 4773SOL    HW115218   6.726   5.492   4.663
 4773SOL    HW215219   6.868   5.571   4.646
 4774SOL     OW15220   0.696   2.914   2.596
 4774SOL    HW115221   0.791   2.901   2.567
 4774SOL    HW215222   0.651   2.978   2.534
 4775SOL     OW15223   5.740   0.253   3.260
 4775SOL    HW115224   5.832   0.263   3.296
 4775SOL    HW215225   5.745   0.233   3.162
 4776SOL     OW15226   2.232   6.463   3.058
 4776SOL    HW115227   2.267   6.487   3.148
 4776SOL    HW215228   2.134   6.445   3.064
 4777SOL     OW15229   2.272   4.095   0.991
 4777SOL    HW115230   2.313   4.003   0.985
 4777SOL    HW215231   2.227   4.116   0.904
 4778SOL     OW15232   5.451   2.265   1.688
 4778SOL    HW115233   5.394   2.343   1.715
 4778SOL    HW215234   5.478   2.276   1.593
 4779SOL     OW15235   6.070   6.992   1.848
 4779SOL    HW115236   6.108   0.043   1.792
 4779SOL    HW215237   6.092   7.009   1.944
 4780SOL     OW15238   0.732   6.988   6.422
 4780SOL    HW115239   0.730   6.903   6.369
 4780SOL    HW215240   0.770   0.038   6.366
 4781SOL     OW15241   2.853   5.800   1.045
 4781SOL    HW115242   2.806   5.772   0.962
 4781SOL    HW215243   2.919   5.873   1.024
 4782SOL     OW15244   4.668   6.875   0.107
 4782SOL    HW115245   4.743   6.857   0.170
 4782SOL    HW215246   4.667   6.972   0.083
 4783SOL     OW15247   4.391   4.725   0.396
 4783SOL    HW115248   4.456   4.794   0.364
 4783SOL    HW215249   4.381   4.653   0.327
 4784SOL     OW15250   6.253   5.212   6.831
 4784SOL    HW115251   6.202   5.139   6.785
 4784SOL    HW215252   6.190   5.282   6.863
 4785SOL     OW15253   6.601   6.250   1.182
 4785SOL    HW115254   6.692   6.212   1.169
 4785SOL    HW215255   6.598   6.300   1.269
 4786SOL     OW15256   1.787   2.312   2.250
 4786SOL    HW115257   1.841   2.392   2.276
 4786SOL    HW215258   1.815   2.233   2.306
 4787SOL     OW15259   3.371   2.094   3.676
 4787SOL    HW115260   3.277   2.128   3.663
 4787SOL    HW215261   3.385   2.070   3.772
 4788SOL     OW15262   1.353   5.299   6.266
 4788SOL    HW115263   1.342   5.391   6.303
 4788SOL    HW215264   1.265   5.266   6.232
 4789SOL     OW15265   5.674   0.736   0.124
 4789SOL    HW115266   5.664   0.795   0.044
 4789SOL    HW215267   5.726   0.654   0.099
 4790SOL     OW15268   6.304   3.627   7.011
 4790SOL    HW115269   6.363   3.685   6.954
 4790SOL    HW215270   6.269   3.551   6.956
 4791SOL     OW15271   5.704   1.859   1.524
 4791SOL    HW115272   5.612   1.896   1.535
 4791SOL    HW215273   5.768   1.908   1.583
 4792SOL     OW15274   1.436   3.035   2.550
 4792SOL    HW115275   1.424   3.119   2.602
 4792SOL    HW215276   1.465   2.962   2.611
 4793SOL     OW15277   1.213   2.382   5.726
 4793SOL    HW115278   1.295   2.438   5.712
 4793SOL    HW215279   1.167   2.411   5.810
 4794SOL     OW15280   3.747   0.757   3.126
 4794SOL    HW115281   3.685   0.835   3.130
 4794SOL    HW215282   3.811   0.761   3.202
 4795SOL     OW15283   6.841   2.283   3.880
 4795SOL    HW115284   6.913   2.347   3.908
 4795SOL    HW215285   6.754   2.331   3.878
 4796SOL     OW15286   4.852   1.814   6.807
 4796SOL    HW115287   4.797   1.882   6.855
 4796SOL    HW215288   4.838   1.724   6.848
 4797SOL     OW15289   1.637   5.900   5.239
 4797SOL    HW115290   1.673   5.979   5.189
 4797SOL    HW215291   1.587   5.931   5.320
 4798SOL     OW15292   0.598   4.030   5.728
 4798SOL    HW115293   0.532   4.047   5.655
 4798SOL    HW215294   0.665   4.104   5.730
 4799SOL     OW15295   5.267   1.745   5.653
 4799SOL    HW115296   5.310   1.664   5.693
 4799SOL    HW215297   5.173   1.752   5.684
 4800SOL     OW15298   3.285   3.173   5.988
 4800SOL    HW115299   3.188   3.183   5.965
 4800SOL    HW215300   3.335   3.141   5.907
 4801SOL     OW15301   2.501   1.817   0.284
 4801SOL    HW115302   2.534   1.726   0.312
 4801SOL    HW215303   2.408   1.830   0.319
 4802SOL     OW15304   1.447   6.775   2.000
 4802SOL    HW115305   1.452   6.677   1.981
 4802SOL    HW215306   1.457   6.791   2.098
 4803SOL     OW15307   0.986   6.427   0.330
 4803SOL    HW115308   0.941   6.371   0.399
 4803SOL    HW215309   1.084   6.427   0.345
 4804SOL     OW15310   4.162   4.915   6.159
 4804SOL    HW115311   4.149   4.899   6.257
 4804SOL    HW215312   4.089   4.972   6.124
 4805SOL     OW15313   6.808   6.736   1.048
 4805SOL    HW115314   6.903   6.746   1.078
 4805SOL    HW215315   6.764   6.664   1.102
 4806SOL     OW15316   6.289   3.553   3.898
 4806SOL    HW115317   6.220   3.532   3.967
 4806SOL    HW215318   6.315   3.649   3.906
 4807SOL     OW15319   1.438   5.034   1.372
 4807SOL    HW115320   1.473   5.032   1.278
 4807SOL    HW215321   1.506   5.076   1.432
 4808SOL     OW15322   6.031   3.684   0.720
 4808SOL    HW115323   5.933   3.684   0.703
 4808SOL    HW215324   6.077   3.626   0.653
 4809SOL     OW15325   3.701   4.092   7.021
 4809SOL    HW115326   3.620   4.072   6.965
 4809SOL    HW215327   3.687   4.058   0.091
 4810SOL     OW15328   1.755   4.549   1.859
 4810SOL    HW115329   1.675   4.593   1.817
 4810SOL    HW215330   1.760   4.454   1.829
 4811SOL     OW15331   2.612   4.564   2.395
 4811SOL    HW115332   2.619   4.548   2.297
 4811SOL    HW215333   2.679   4.633   2.423
 4812SOL     OW15334   6.893   4.951   5.460
 4812SOL    HW115335   6.938   5.001   5.385
 4812SOL    HW215336   6.850   5.017   5.522
 4813SOL     OW15337   5.098   1.316   1.997
 4813SOL    HW115338   5.029   1.244   1.997
 4813SOL    HW215339   5.104   1.357   1.906
 4814SOL     OW15340   5.738   4.769   0.181
 4814SOL    HW115341   5.792   4.721   0.250
 4814SOL    HW215342   5.641   4.750   0.197
 4815SOL     OW15343   5.393   4.607   2.150
 4815SOL    HW115344   5.307   4.631   2.195
 4815SOL    HW215345   5.379   4.525   2.094
 4816SOL     OW15346   6.192   5.594   2.915
 4816SOL    HW115347   6.128   5.535   2.864
 4816SOL    HW215348   6.160   5.688   2.912
 4817SOL     OW15349   0.369   2.150   6.293
 4817SOL    HW115350   0.433   2.178   6.364
 4817SOL    HW215351   0.275   2.163   6.325
 4818SOL     OW15352   0.940   6.941   4.463
 4818SOL    HW115353   0.844   6.925   4.487
 4818SOL    HW215354   0.987   6.854   4.453
 4819SOL     OW15355   1.563   3.204   0.803
 4819SOL    HW115356   1.660   3.225   0.789
 4819SOL    HW215357   1.512   3.288   0.819
 4820SOL     OW15358   0.235   2.819   1.934
 4820SOL    HW115359   0.306   2.848   1.870
 4820SOL    HW215360   0.170   2.893   1.948
 4821SOL     OW15361   1.243   5.909   2.341
 4821SOL    HW115362   1.225   5.896   2.243
 4821SOL    HW215363   1.169   5.963   2.381
 4822SOL     OW15364   1.407   3.871   4.105
 4822SOL    HW115365   1.339   3.816   4.057
 4822SOL    HW215366   1.367   3.907   4.190
 4823SOL     OW15367   1.463   1.957   2.632
 4823SOL    HW115368   1.531   1.889   2.659
 4823SOL    HW215369   1.371   1.920   2.644
 4824SOL     OW15370   5.391   1.908   5.479
 4824SOL    HW115371   5.440   1.894   5.393
 4824SOL    HW215372   5.327   1.833   5.494
 4825SOL     OW15373   1.021   1.323   4.159
 4825SOL    HW115374   0.991   1.348   4.251
 4825SOL    HW215375   1.103   1.376   4.135
 4826SOL     OW15376   4.908   0.336   0.397
 4826SOL    HW115377   4.927   0.413   0.335
 4826SOL    HW215378   4.875   0.371   0.485
 4827SOL     OW15379   6.273   1.586   0.239
 4827SOL    HW115380   6.324   1.658   0.192
 4827SOL    HW215381   6.251   1.513   0.174
 4828SOL     OW15382   4.326   0.719   1.402
 4828SOL    HW115383   4.415   0.764   1.398
 4828SOL    HW215384   4.309   0.671   1.316
 4829SOL     OW15385   3.883   6.445   6.492
 4829SOL    HW115386   3.921   6.459   6.400
 4829SOL    HW215387   3.951   6.470   6.560
 4830SOL     OW15388   4.065   5.776   3.945
 4830SOL    HW115389   4.043   5.798   3.850
 4830SOL    HW215390   3.986   5.796   4.002
 4831SOL     OW15391   2.499   5.052   5.676
 4831SOL    HW115392   2.498   5.011   5.585
 4831SOL    HW215393   2.590   5.087   5.695
 4832SOL     OW15394   3.843   3.327   4.445
 4832SOL    HW115395   3.745   3.344   4.435
 4832SOL    HW215396   3.883   3.394   4.507
 4833SOL     OW15397   5.665   1.959   3.603
 4833SOL    HW115398   5.754   1.935   3.641
 4833SOL    HW215399   5.677   1.995   3.510
 4834SOL     OW15400   2.670   6.085   2.280
 4834SOL    HW115401   2.688   5.989   2.304
 4834SOL    HW215402   2.728   6.111   2.202
 4835SOL     OW15403   5.993   3.285   6.122
 4835SOL    HW115404   6.023   3.303   6.216
 4835SOL    HW215405   6.063   3.317   6.058
 4836SOL     OW15406   5.016   1.523   5.481
 4836SOL    HW115407   5.020   1.575   5.566
 4836SOL    HW215408   5.056   1.577   5.407
 4837SOL     OW15409   6.565   3.083   2.765
 4837SOL    HW115410   6.630   3.029   2.818
 4837SOL    HW215411   6.473   3.071   2.803
 4838SOL     OW15412   1.296   5.190   6.533
 4838SOL    HW115413   1.309   5.216   6.437
 4838SOL    HW215414   1.384   5.162   6.572
 4839SOL     OW15415   1.208   3.326   0.188
 4839SOL    HW115416   1.285   3.264   0.205
 4839SOL    HW215417   1.139   3.279   0.132
 4840SOL     OW15418   5.165   4.093   5.383
 4840SOL    HW115419   5.239   4.027   5.365
 4840SOL    HW215420   5.186   4.179   5.338
 4841SOL     OW15421   3.066   5.428   3.174
 4841SOL    HW115422   3.002   5.462   3.105
 4841SOL    HW215423   3.080   5.498   3.244
 4842SOL     OW15424   2.565   5.577   3.114
 4842SOL    HW115425   2.495   5.615   3.174
 4842SOL    HW215426   2.522   5.539   3.032
 4843SOL     OW15427   6.399   2.739   1.988
 4843SOL    HW115428   6.477   2.790   1.953
 4843SOL    HW215429   6.409   2.726   2.087
 4844SOL     OW15430   1.499   3.734   5.604
 4844SOL    HW115431   1.580   3.677   5.592
 4844SOL    HW215432   1.435   3.716   5.529
 4845SOL     OW15433   4.718   4.832   4.916
 4845SOL    HW115434   4.766   4.915   4.888
 4845SOL    HW215435   4.624   4.855   4.943
 4846SOL     OW15436   0.228   1.862   3.320
 4846SOL    HW115437   0.147   1.897   3.274
 4846SOL    HW215438   0.203   1.825   3.409
 4847SOL     OW15439   2.564   0.518   5.463
 4847SOL    HW115440   2.471   0.494   5.436
 4847SOL    HW215441   2.591   0.465   5.543
 4848SOL     OW15442   1.870   1.313   3.604
 4848SOL    HW115443   1.923   1.263   3.672
 4848SOL    HW215444   1.932   1.349   3.534
 4849SOL     OW15445   2.019   0.109   0.874
 4849SOL    HW115446   1.984   0.062   0.793
 4849SOL    HW215447   1.986   0.204   0.874
 4850SOL     OW15448   4.425   0.416   1.060
 4850SOL    HW115449   4.349   0.449   1.115
 4850SOL    HW215450   4.507   0.409   1.117
 4851SOL     OW15451   3.691   5.294   6.899
 4851SOL    HW115452   3.779   5.334   6.871
 4851SOL    HW215453   3.664   5.224   6.833
 4852SOL     OW15454   3.498   5.643   4.378
 4852SOL    HW115455   3.469   5.734   4.410
 4852SOL    HW215456   3.439   5.615   4.302
 4853SOL     OW15457   3.443   1.032   2.838
 4853SOL    HW115458   3.536   1.065   2.856
 4853SOL    HW215459   3.428   1.028   2.740
 4854SOL     OW15460   5.765   6.553   1.845
 4854SOL    HW115461   5.677   6.593   1.870
 4854SOL    HW215462   5.834   6.626   1.841
 4855SOL     OW15463   0.252   3.244   4.742
 4855SOL    HW115464   0.235   3.337   4.710
 4855SOL    HW215465   0.315   3.248   4.820
 4856SOL     OW15466   0.540   3.512   2.478
 4856SOL    HW115467   0.465   3.578   2.480
 4856SOL    HW215468   0.527   3.445   2.552
 4857SOL     OW15469   3.450   2.100   3.933
 4857SOL    HW115470   3.539   2.115   3.890
 4857SOL    HW215471   3.461   2.094   4.033
 4858SOL     OW15472   0.940   0.088   4.699
 4858SOL    HW115473   0.925   0.014   4.764
 4858SOL    HW215474   0.957   0.049   4.608
 4859SOL     OW15475   1.248   4.963   1.767
 4859SOL    HW115476   1.197   4.913   1.698
 4859SOL    HW215477   1.344   4.970   1.739
 4860SOL     OW15478   3.993   4.734   0.033
 4860SOL    HW115479   4.070   4.696   7.006
 4860SOL    HW215480   4.025   4.806   0.094
 4861SOL     OW15481   6.515   4.633   5.762
 4861SOL    HW115482   6.541   4.603   5.853
 4861SOL    HW215483   6.532   4.560   5.696
 4862SOL     OW15484   2.718   4.827   4.839
 4862SOL    HW115485   2.748   4.749   4.894
 4862SOL    HW215486   2.660   4.886   4.895
 4863SOL     OW15487   4.989   3.547   2.482
 4863SOL    HW115488   5.084   3.579   2.480
 4863SOL    HW215489   4.931   3.614   2.435
 4864SOL     OW15490   3.208   1.486   1.869
 4864SOL    HW115491   3.271   1.563   1.871
 4864SOL    HW215492   3.116   1.517   1.891
 4865SOL     OW15493   3.018   5.279   5.790
 4865SOL    HW115494   3.047   5.259   5.884
 4865SOL    HW215495   2.950   5.211   5.762
 4866SOL     OW15496   6.238   4.840   1.847
 4866SOL    HW115497   6.235   4.762   1.909
 4866SOL    HW215498   6.208   4.811   1.756
 4867SOL     OW15499   5.045   5.575   3.136
 4867SOL    HW115500   4.962   5.632   3.136
 4867SOL    HW215501   5.070   5.552   3.230
 4868SOL     OW15502   1.038   5.497   1.274
 4868SOL    HW115503   1.098   5.570   1.242
 4868SOL    HW215504   0.961   5.537   1.324
 4869SOL     OW15505   0.259   2.197   0.463
 4869SOL    HW115506   0.225   2.272   0.520
 4869SOL    HW215507   0.304   2.128   0.520
 4870SOL     OW15508   3.988   6.094   1.766
 4870SOL    HW115509   3.914   6.061   1.707
 4870SOL    HW215510   4.074   6.093   1.716
 4871SOL     OW15511   1.185   1.668   3.297
 4871SOL    HW115512   1.177   1.716   3.210
 4871SOL    HW215513   1.214   1.573   3.280
 4872SOL     OW15514   0.836   0.042   2.986
 4872SOL    HW115515   0.771   0.092   2.928
 4872SOL    HW215516   0.903   0.106   3.023
 4873SOL     OW15517   0.164   4.680   5.067
 4873SOL    HW115518   0.110   4.670   4.984
 4873SOL    HW215519   0.123   4.628   5.141
 4874SOL     OW15520   5.665   3.905   2.167
 4874SOL    HW115521   5.749   3.958   2.180
 4874SOL    HW215522   5.588   3.956   2.206
 4875SOL     OW15523   5.650   1.333   1.077
 4875SOL    HW115524   5.597   1.390   1.140
 4875SOL    HW215525   5.652   1.239   1.112
 4876SOL     OW15526   5.792   0.454   5.678
 4876SOL    HW115527   5.724   0.387   5.647
 4876SOL    HW215528   5.753   0.546   5.674
 4877SOL     OW15529   6.517   1.724   1.129
 4877SOL    HW115530   6.435   1.762   1.087
 4877SOL    HW215531   6.572   1.678   1.059
 4878SOL     OW15532   0.235   1.891   2.033
 4878SOL    HW115533   0.335   1.890   2.030
 4878SOL    HW215534   0.205   1.951   2.107
 4879SOL     OW15535   4.302   4.714   2.786
 4879SOL    HW115536   4.346   4.682   2.870
 4879SOL    HW215537   4.215   4.667   2.775
 4880SOL     OW15538   5.379   1.612   0.402
 4880SOL    HW115539   5.464   1.606   0.350
 4880SOL    HW215540   5.398   1.645   0.495
 4881SOL     OW15541   2.728   6.282   5.801
 4881SOL    HW115542   2.811   6.258   5.751
 4881SOL    HW215543   2.713   6.381   5.795
 4882SOL     OW15544   6.431   1.567   5.218
 4882SOL    HW115545   6.433   1.666   5.210
 4882SOL    HW215546   6.405   1.541   5.311
 4883SOL     OW15547   6.006   4.405   2.425
 4883SOL    HW115548   6.018   4.331   2.491
 4883SOL    HW215549   5.910   4.411   2.399
 4884SOL     OW15550   4.599   0.184   1.677
 4884SOL    HW115551   4.600   0.100   1.731
 4884SOL    HW215552   4.689   0.199   1.637
 4885SOL     OW15553   2.004   6.650   1.528
 4885SOL    HW115554   1.912   6.613   1.514
 4885SOL    HW215555   2.001   6.750   1.524
 4886SOL     OW15556   0.100   6.319   6.598
 4886SOL    HW115557   0.083   6.304   6.696
 4886SOL    HW215558   0.142   6.238   6.559
 4887SOL     OW15559   6.712   2.031   3.944
 4887SOL    HW115560   6.755   2.113   3.905
 4887SOL    HW215561   6.640   2.059   4.007
 4888SOL     OW15562   1.621   6.466   3.402
 4888SOL    HW115563   1.659   6.538   3.344
 4888SOL    HW215564   1.531   6.439   3.368
 4889SOL     OW15565   1.166   2.246   0.507
 4889SOL    HW115566   1.105   2.218   0.581
 4889SOL    HW215567   1.147   2.191   0.425
 4890SOL     OW15568   0.704   1.377   4.094
 4890SOL    HW115569   0.786   1.431   4.078
 4890SOL    HW215570   0.703   1.344   4.188
 4891SOL     OW15571   0.943   4.827   0.689
 4891SOL    HW115572   0.976   4.739   0.724
 4891SOL    HW215573   1.020   4.877   0.650
 4892SOL     OW15574   1.572   6.000   2.103
 4892SOL    HW115575   1.487   6.052   2.109
 4892SOL    HW215576   1.601   5.995   2.008
 4893SOL     OW15577   6.740   4.417   6.898
 4893SOL    HW115578   6.801   4.458   6.967
 4893SOL    HW215579   6.716   4.487   6.830
 4894SOL     OW15580   1.765   0.420   3.606
 4894SOL    HW115581   1.742   0.376   3.519
 4894SOL    HW215582   1.803   0.511   3.589
 4895SOL     OW15583   1.378   3.526   0.265
 4895SOL    HW115584   1.393   3.513   0.363
 4895SOL    HW215585   1.300   3.470   0.236
 4896SOL     OW15586   3.297   5.469   3.829
 4896SOL    HW115587   3.260   5.439   3.917
 4896SOL    HW215588   3.224   5.466   3.760
 4897SOL     OW15589   3.300   4.508   6.594
 4897SOL    HW115590   3.244   4.433   6.630
 4897SOL    HW215591   3.343   4.479   6.508
 4898SOL     OW15592   5.820   2.216   5.366
 4898SOL    HW115593   5.746   2.201   5.431
 4898SOL    HW215594   5.854   2.127   5.334
 4899SOL     OW15595   6.139   4.873   2.588
 4899SOL    HW115596   6.211   4.871   2.519
 4899SOL    HW215597   6.082   4.791   2.579
 4900SOL     OW15598   0.070   6.774   5.734
 4900SOL    HW115599   7.007   6.724   5.721
 4900SOL    HW215600   0.050   6.864   5.772
 4901SOL     OW15601   1.481   0.208   4.301
 4901SOL    HW115602   1.464   0.116   4.266
 4901SOL    HW215603   1.420   0.273   4.255
 4902SOL     OW15604   1.364   4.074   2.248
 4902SOL    HW115605   1.427   3.999   2.265
 4902SOL    HW215606   1.281   4.061   2.302
 4903SOL     OW15607   3.751   6.543   6.734
 4903SOL    HW115608   3.672   6.486   6.713
 4903SOL    HW215609   3.738   6.634   6.694
 4904SOL     OW15610   2.197   5.656   4.495
 4904SOL    HW115611   2.146   5.584   4.448
 4904SOL    HW215612   2.269   5.690   4.434
 4905SOL     OW15613   4.609   2.521   2.150
 4905SOL    HW115614   4.554   2.506   2.232
 4905SOL    HW215615   4.670   2.444   2.136
 4906SOL     OW15616   4.685   6.943   0.510
 4906SOL    HW115617   4.647   7.021   0.460
 4906SOL    HW215618   4.700   6.867   0.447
 4907SOL     OW15619   3.862   6.535   3.186
 4907SOL    HW115620   3.763   6.529   3.173
 4907SOL    HW215621   3.899   6.445   3.207
 4908SOL     OW15622   4.044   5.597   6.747
 4908SOL    HW115623   3.948   5.619   6.730
 4908SOL    HW215624   4.099   5.623   6.668
 4909SOL     OW15625   6.204   7.011   5.756
 4909SOL    HW115626   6.175   6.921   5.789
 4909SOL    HW215627   6.139   0.022   5.689
 4910SOL     OW15628   4.969   0.227   5.241
 4910SOL    HW115629   4.944   0.158   5.173
 4910SOL    HW215630   5.042   0.192   5.299
 4911SOL     OW15631   6.972   1.926   6.065
 4911SOL    HW115632   6.994   1.830   6.082
 4911SOL    HW215633   6.960   1.974   6.152
 4912SOL     OW15634   4.215   1.544   2.139
 4912SOL    HW115635   4.185   1.472   2.077
 4912SOL    HW215636   4.146   1.617   2.141
 4913SOL     OW15637   3.293   4.102   3.720
 4913SOL    HW115638   3.247   4.183   3.757
 4913SOL    HW215639   3.388   4.125   3.698
 4914SOL     OW15640   2.674   0.654   4.427
 4914SOL    HW115641   2.729   0.723   4.379
 4914SOL    HW215642   2.655   0.687   4.520
 4915SOL     OW15643   4.447   6.649   4.407
 4915SOL    HW115644   4.436   6.738   4.451
 4915SOL    HW215645   4.361   6.598   4.412
 4916SOL     OW15646   2.588   2.125   3.055
 4916SOL    HW115647   2.630   2.035   3.040
 4916SOL    HW215648   2.615   2.187   2.981
 4917SOL     OW15649   1.655   3.932   0.895
 4917SOL    HW115650   1.681   3.836   0.890
 4917SOL    HW215651   1.676   3.978   0.809
 4918SOL     OW15652   2.561   0.291   2.925
 4918SOL    HW115653   2.596   0.271   2.834
 4918SOL    HW215654   2.482   0.352   2.918
 4919SOL     OW15655   1.526   1.846   3.014
 4919SOL    HW115656   1.436   1.803   3.018
 4919SOL    HW215657   1.561   1.841   2.920
 4920SOL     OW15658   4.063   0.651   0.250
 4920SOL    HW115659   4.053   0.551   0.251
 4920SOL    HW215660   4.159   0.674   0.268
 4921SOL     OW15661   2.380   3.727   1.656
 4921SOL    HW115662   2.309   3.758   1.719
 4921SOL    HW215663   2.387   3.627   1.659
 4922SOL     OW15664   1.249   3.320   5.079
 4922SOL    HW115665   1.188   3.265   5.022
 4922SOL    HW215666   1.267   3.407   5.033
 4923SOL     OW15667   5.136   6.903   2.283
 4923SOL    HW115668   5.158   6.808   2.261
 4923SOL    HW215669   5.103   6.908   2.377
 4924SOL     OW15670   1.628   3.499   4.342
 4924SOL    HW115671   1.650   3.585   4.296
 4924SOL    HW215672   1.581   3.518   4.428
 4925SOL     OW15673   5.441   6.386   0.835
 4925SOL    HW115674   5.367   6.454   0.838
 4925SOL    HW215675   5.529   6.432   0.843
 4926SOL     OW15676   5.353   2.821   1.276
 4926SOL    HW115677   5.422   2.864   1.218
 4926SOL    HW215678   5.363   2.721   1.271
 4927SOL     OW15679   3.685   2.933   2.820
 4927SOL    HW115680   3.772   2.943   2.772
 4927SOL    HW215681   3.616   2.898   2.756
 4928SOL     OW15682   0.248   6.748   6.413
 4928SOL    HW115683   0.254   6.830   6.469
 4928SOL    HW215684   0.316   6.752   6.340
 4929SOL     OW15685   0.921   4.438   5.174
 4929SOL    HW115686   0.857   4.367   5.203
 4929SOL    HW215687   0.882   4.489   5.097
 4930SOL     OW15688   0.890   1.056   0.476
 4930SOL    HW115689   0.799   1.099   0.475
 4930SOL    HW215690   0.959   1.125   0.456
 4931SOL     OW15691   0.588   0.639   6.963
 4931SOL    HW115692   0.574   0.697   6.883
 4931SOL    HW215693   0.656   0.682   0.000
 4932SOL     OW15694   2.521   2.787   1.711
 4932SOL    HW115695   2.443   2.806   1.651
 4932SOL    HW215696   2.596   2.749   1.657
 4933SOL     OW15697   2.533   1.302   4.228
 4933SOL    HW115698   2.620   1.273   4.189
 4933SOL    HW215699   2.533   1.286   4.327
 4934SOL     OW15700   0.725   5.153   4.417
 4934SOL    HW115701   0.672   5.069   4.430
 4934SOL    HW215702   0.663   5.229   4.400
 4935SOL     OW15703   1.444   1.228   6.422
 4935SOL    HW115704   1.470   1.191   6.333
 4935SOL    HW215705   1.452   1.157   6.491
 4936SOL     OW15706   2.675   5.947   1.531
 4936SOL    HW115707   2.673   5.925   1.433
 4936SOL    HW215708   2.592   5.997   1.556
 4937SOL     OW15709   0.848   3.577   6.427
 4937SOL    HW115710   0.919   3.647   6.428
 4937SOL    HW215711   0.811   3.568   6.335
 4938SOL     OW15712   3.298   4.359   1.563
 4938SOL    HW115713   3.234   4.429   1.596
 4938SOL    HW215714   3.390   4.382   1.595
 4939SOL     OW15715   1.862   1.831   1.922
 4939SOL    HW115716   1.956   1.833   1.955
 4939SOL    HW215717   1.837   1.922   1.888
 4940SOL     OW15718   6.860   2.157   5.052
 4940SOL    HW115719   6.912   2.224   4.999
 4940SOL    HW215720   6.859   2.185   5.148
 4941SOL     OW15721   3.954   2.455   5.372
 4941SOL    HW115722   3.878   2.514   5.348
 4941SOL    HW215723   4.019   2.450   5.296
 4942SOL     OW15724   5.630   3.204   3.955
 4942SOL    HW115725   5.537   3.167   3.953
 4942SOL    HW215726   5.633   3.289   3.903
 4943SOL     OW15727   5.891   3.537   0.081
 4943SOL    HW115728   5.914   3.482   0.161
 4943SOL    HW215729   5.811   3.496   0.034
 4944SOL     OW15730   2.155   4.599   0.533
 4944SOL    HW115731   2.198   4.573   0.446
 4944SOL    HW215732   2.227   4.614   0.601
 4945SOL     OW15733   1.920   1.220   5.202
 4945SOL    HW115734   1.965   1.250   5.286
 4945SOL    HW215735   1.957   1.131   5.175
 4946SOL     OW15736   1.211   4.429   0.096
 4946SOL    HW115737   1.157   4.512   0.077
 4946SOL    HW215738   1.194   4.400   0.190
 4947SOL     OW15739   2.630   0.633   2.431
 4947SOL    HW115740   2.572   0.680   2.364
 4947SOL    HW215741   2.602   0.658   2.523
 4948SOL     OW15742   1.864   2.541   2.620
 4948SOL    HW115743   1.784   2.493   2.657
 4948SOL    HW215744   1.886   2.619   2.679
 4949SOL     OW15745   6.782   3.426   6.119
 4949SOL    HW115746   6.878   3.411   6.092
 4949SOL    HW215747   6.768   3.524   6.135
 4950SOL     OW15748   2.272   4.280   5.184
 4950SOL    HW115749   2.289   4.211   5.115
 4950SOL    HW215750   2.218   4.355   5.145
 4951SOL     OW15751   6.263   6.003   3.770
 4951SOL    HW115752   6.361   5.987   3.759
 4951SOL    HW215753   6.244   6.030   3.864
 4952SOL     OW15754   6.913   0.639   6.545
 4952SOL    HW115755   6.953   0.712   6.599
 4952SOL    HW215756   6.858   0.678   6.471
 4953SOL     OW15757   1.677   1.892   4.525
 4953SOL    HW115758   1.593   1.946   4.516
 4953SOL    HW215759   1.740   1.915   4.452
 4954SOL     OW15760   2.145   4.214   5.438
 4954SOL    HW115761   2.168   4.117   5.429
 4954SOL    HW215762   2.165   4.262   5.353
 4955SOL     OW15763   3.073   5.648   0.476
 4955SOL    HW115764   2.974   5.635   0.474
 4955SOL    HW215765   3.111   5.636   0.385
 4956SOL     OW15766   2.746   0.727   5.389
 4956SOL    HW115767   2.838   0.696   5.363
 4956SOL    HW215768   2.684   0.648   5.392
 4957SOL     OW15769   6.024   3.867   0.142
 4957SOL    HW115770   6.001   3.938   0.209
 4957SOL    HW215771   5.963   3.875   0.063
 4958SOL     OW15772   2.038   6.120   5.511
 4958SOL    HW115773   1.990   6.044   5.553
 4958SOL    HW215774   2.007   6.132   5.417
 4959SOL     OW15775   6.855   2.091   1.211
 4959SOL    HW115776   6.909   2.160   1.162
 4959SOL    HW215777   6.851   2.115   1.308
 4960SOL     OW15778   3.992   4.834   3.765
 4960SOL    HW115779   4.041   4.782   3.695
 4960SOL    HW215780   4.021   4.930   3.761
 4961SOL     OW15781   2.942   0.820   6.820
 4961SOL    HW115782   2.934   0.850   6.915
 4961SOL    HW215783   2.862   0.766   6.795
 4962SOL     OW15784   6.282   2.125   0.825
 4962SOL    HW115785   6.282   2.223   0.805
 4962SOL    HW215786   6.189   2.097   0.852
 4963SOL     OW15787   1.428   5.725   0.811
 4963SOL    HW115788   1.337   5.742   0.775
 4963SOL    HW215789   1.456   5.801   0.869
 4964SOL     OW15790   2.481   6.882   4.723
 4964SOL    HW115791   2.542   6.871   4.645
 4964SOL    HW215792   2.403   6.939   4.698
 4965SOL     OW15793   0.977   7.011   2.680
 4965SOL    HW115794   0.903   6.966   2.630
 4965SOL    HW215795   1.063   7.001   2.630
 4966SOL     OW15796   2.730   6.030   4.328
 4966SOL    HW115797   2.735   5.949   4.386
 4966SOL    HW215798   2.635   6.058   4.317
 4967SOL     OW15799   3.596   4.833   5.925
 4967SOL    HW115800   3.504   4.794   5.925
 4967SOL    HW215801   3.636   4.823   5.834
 4968SOL     OW15802   0.373   0.791   4.313
 4968SOL    HW115803   0.352   0.718   4.248
 4968SOL    HW215804   0.354   0.760   4.406
 4969SOL     OW15805   0.305   6.512   2.366
 4969SOL    HW115806   0.352   6.471   2.444
 4969SOL    HW215807   0.206   6.507   2.379
 4970SOL     OW15808   2.140   1.136   1.711
 4970SOL    HW115809   2.190   1.140   1.798
 4970SOL    HW215810   2.042   1.126   1.730
 4971SOL     OW15811   6.118   5.856   2.843
 4971SOL    HW115812   6.064   5.918   2.786
 4971SOL    HW215813   6.149   5.904   2.925
 4972SOL     OW15814   1.409   4.158   0.814
 4972SOL    HW115815   1.427   4.256   0.814
 4972SOL    HW215816   1.424   4.121   0.906
 4973SOL     OW15817   0.171   0.581   2.057
 4973SOL    HW115818   0.084   0.591   2.008
 4973SOL    HW215819   0.155   0.534   2.144
 4974SOL     OW15820   4.969   4.369   6.587
 4974SOL    HW115821   4.927   4.454   6.618
 4974SOL    HW215822   5.035   4.337   6.655
 4975SOL     OW15823   4.856   3.906   0.866
 4975SOL    HW115824   4.830   3.990   0.914
 4975SOL    HW215825   4.923   3.928   0.795
 4976SOL     OW15826   1.107   0.975   4.608
 4976SOL    HW115827   1.057   1.061   4.596
 4976SOL    HW215828   1.195   0.981   4.562
 4977SOL     OW15829   3.581   3.611   6.807
 4977SOL    HW115830   3.658   3.675   6.812
 4977SOL    HW215831   3.514   3.634   6.877
 4978SOL     OW15832   4.845   4.590   5.475
 4978SOL    HW115833   4.852   4.689   5.488
 4978SOL    HW215834   4.870   4.543   5.560
 4979SOL     OW15835   0.664   6.878   6.892
 4979SOL    HW115836   0.699   6.878   6.798
 4979SOL    HW215837   0.709   6.950   6.944
 4980SOL     OW15838   6.662   4.503   2.805
 4980SOL    HW115839   6.673   4.520   2.902
 4980SOL    HW215840   6.737   4.545   2.754
 4981SOL     OW15841   3.139   5.724   1.939
 4981SOL    HW115842   3.197   5.663   1.993
 4981SOL    HW215843   3.196   5.787   1.888
 4982SOL     OW15844   4.375   1.652   6.599
 4982SOL    HW115845   4.378   1.626   6.695
 4982SOL    HW215846   4.308   1.725   6.586
 4983SOL     OW15847   6.087   4.951   4.080
 4983SOL    HW115848   6.060   4.884   4.012
 4983SOL    HW215849   6.023   4.948   4.157
 4984SOL     OW15850   4.730   4.173   2.770
 4984SOL    HW115851   4.651   4.218   2.729
 4984SOL    HW215852   4.804   4.239   2.783
 4985SOL     OW15853   4.922   6.304   2.760
 4985SOL    HW115854   4.937   6.211   2.791
 4985SOL    HW215855   4.856   6.349   2.821
 4986SOL     OW15856   6.556   4.730   1.205
 4986SOL    HW115857   6.463   4.741   1.240
 4986SOL    HW215858   6.617   4.793   1.253
 4987SOL     OW15859   1.167   6.418   2.638
 4987SOL    HW115860   1.093   6.478   2.669
 4987SOL    HW215861   1.148   6.324   2.668
 4988SOL     OW15862   6.203   1.226   3.293
 4988SOL    HW115863   6.143   1.162   3.246
 4988SOL    HW215864   6.224   1.190   3.385
 4989SOL     OW15865   4.538   0.434   1.595
 4989SOL    HW115866   4.566   0.339   1.610
 4989SOL    HW215867   4.441   0.444   1.618
 4990SOL     OW15868   3.743   2.035   6.889
 4990SOL    HW115869   3.778   1.993   6.806
 4990SOL    HW215870   3.806   2.106   6.921
 4991SOL     OW15871   0.273   5.869   3.800
 4991SOL    HW115872   0.286   5.966   3.823
 4991SOL    HW215873   0.294   5.855   3.703
 4992SOL     OW15874   6.173   1.718   2.765
 4992SOL    HW115875   6.248   1.763   2.716
 4992SOL    HW215876   6.115   1.788   2.807
 4993SOL     OW15877   3.972   6.752   4.815
 4993SOL    HW115878   4.026   6.676   4.850
 4993SOL    HW215879   3.875   6.728   4.816
 4994SOL     OW15880   2.079   5.620   4.973
 4994SOL    HW115881   2.125   5.707   4.992
 4994SOL    HW215882   1.996   5.613   5.027
 4995SOL     OW15883   0.507   0.842   5.038
 4995SOL    HW115884   0.577   0.775   5.062
 4995SOL    HW215885   0.477   0.890   5.120
 4996SOL     OW15886   6.996   1.447   3.706
 4996SOL    HW115887   6.942   1.515   3.656
 4996SOL    HW215888   6.967   1.355   3.679
 4997SOL     OW15889   3.824   2.603   1.371
 4997SOL    HW115890   3.810   2.692   1.327
 4997SOL    HW215891   3.821   2.614   1.470
 4998SOL     OW15892   1.858   3.491   3.590
 4998SOL    HW115893   1.937   3.533   3.546
 4998SOL    HW215894   1.832   3.407   3.542
 4999SOL     OW15895   0.259   3.409   5.020
 4999SOL    HW115896   0.258   3.507   5.037
 4999SOL    HW215897   0.275   3.360   5.106
 5000SOL     OW15898   3.380   6.440   3.312
 5000SOL    HW115899   3.295   6.490   3.298
 5000SOL    HW215900   3.405   6.444   3.409
 5001SOL     OW15901   0.377   5.865   2.525
 5001SOL    HW115902   0.394   5.961   2.547
 5001SOL    HW215903   0.447   5.832   2.461
 5002SOL     OW15904   0.576   4.907   2.521
 5002SOL    HW115905   0.504   4.848   2.560
 5002SOL    HW215906   0.535   4.970   2.456
 5003SOL     OW15907   3.955   6.157   3.045
 5003SOL    HW115908   3.933   6.071   2.998
 5003SOL    HW215909   3.909   6.233   3.000
 5004SOL     OW15910   2.226   5.153   5.606
 5004SOL    HW115911   2.317   5.122   5.635
 5004SOL    HW215912   2.220   5.252   5.613
 5005SOL     OW15913   2.286   3.104   6.068
 5005SOL    HW115914   2.197   3.059   6.068
 5005SOL    HW215915   2.279   3.194   6.027
 5006SOL     OW15916   5.666   1.046   2.222
 5006SOL    HW115917   5.622   1.040   2.133
 5006SOL    HW215918   5.703   0.956   2.247
 5007SOL     OW15919   6.901   0.519   1.093
 5007SOL    HW115920   6.968   0.512   1.168
 5007SOL    HW215921   6.944   0.566   1.016
 5008SOL     OW15922   6.527   5.514   1.210
 5008SOL    HW115923   6.568   5.583   1.151
 5008SOL    HW215924   6.553   5.423   1.178
 5009SOL     OW15925   1.103   2.730   0.573
 5009SOL    HW115926   1.137   2.645   0.532
 5009SOL    HW215927   1.130   2.807   0.516
 5010SOL     OW15928   3.998   2.351   0.646
 5010SOL    HW115929   4.013   2.386   0.554
 5010SOL    HW215930   4.069   2.284   0.668
 5011SOL     OW15931   2.265   4.138   1.467
 5011SOL    HW115932   2.178   4.097   1.439
 5011SOL    HW215933   2.247   4.215   1.528
 5012SOL     OW15934   6.176   3.147   5.207
 5012SOL    HW115935   6.143   3.112   5.120
 5012SOL    HW215936   6.099   3.163   5.268
 5013SOL     OW15937   5.683   0.706   5.640
 5013SOL    HW115938   5.661   0.767   5.716
 5013SOL    HW215939   5.654   0.748   5.554
 5014SOL     OW15940   6.910   4.546   0.079
 5014SOL    HW115941   6.854   4.519   0.158
 5014SOL    HW215942   7.004   4.563   0.110
 5015SOL     OW15943   5.400   0.815   4.619
 5015SOL    HW115944   5.371   0.760   4.697
 5015SOL    HW215945   5.407   0.757   4.538
 5016SOL     OW15946   0.726   2.880   4.550
 5016SOL    HW115947   0.779   2.956   4.513
 5016SOL    HW215948   0.650   2.859   4.487
 5017SOL     OW15949   1.349   2.217   1.302
 5017SOL    HW115950   1.442   2.181   1.313
 5017SOL    HW215951   1.330   2.230   1.204
 5018SOL     OW15952   1.591   5.050   2.114
 5018SOL    HW115953   1.586   4.968   2.170
 5018SOL    HW215954   1.684   5.088   2.119
 5019SOL     OW15955   2.176   5.995   6.065
 5019SOL    HW115956   2.247   6.065   6.058
 5019SOL    HW215957   2.156   5.958   5.975
 5020SOL     OW15958   6.967   6.878   5.317
 5020SOL    HW115959   6.963   6.961   5.371
 5020SOL    HW215960   6.928   6.895   5.226
 5021SOL     OW15961   1.595   0.786   1.519
 5021SOL    HW115962   1.637   0.876   1.528
 5021SOL    HW215963   1.573   0.768   1.423
 5022SOL     OW15964   1.277   2.824   1.341
 5022SOL    HW115965   1.326   2.874   1.412
 5022SOL    HW215966   1.279   2.878   1.256
 5023SOL     OW15967   0.107   4.500   1.517
 5023SOL    HW115968   0.139   4.546   1.434
 5023SOL    HW215969   0.013   4.468   1.504
 5024SOL     OW15970   6.063   5.075   0.872
 5024SOL    HW115971   6.082   5.019   0.952
 5024SOL    HW215972   6.146   5.121   0.842
 5025SOL     OW15973   4.153   1.974   3.767
 5025SOL    HW115974   4.162   2.053   3.706
 5025SOL    HW215975   4.076   1.918   3.738
 5026SOL     OW15976   6.911   5.077   4.885
 5026SOL    HW115977   7.008   5.098   4.868
 5026SOL    HW215978   6.893   5.086   4.983
 5027SOL     OW15979   6.219   0.301   1.724
 5027SOL    HW115980   6.164   0.385   1.721
 5027SOL    HW215981   6.272   0.299   1.808
 5028SOL     OW15982   6.355   2.102   3.511
 5028SOL    HW115983   6.404   2.038   3.569
 5028SOL    HW215984   6.367   2.077   3.415
 5029SOL     OW15985   6.331   2.647   2.501
 5029SOL    HW115986   6.315   2.718   2.570
 5029SOL    HW215987   6.245   2.599   2.483
 5030SOL     OW15988   6.808   6.035   6.093
 5030SOL    HW115989   6.745   5.979   6.146
 5030SOL    HW215990   6.879   5.977   6.054
 5031SOL     OW15991   0.195   1.438   5.493
 5031SOL    HW115992   0.227   1.377   5.565
 5031SOL    HW215993   0.223   1.403   5.404
 5032SOL     OW15994   2.825   1.656   5.840
 5032SOL    HW115995   2.883   1.576   5.829
 5032SOL    HW215996   2.739   1.644   5.789
 5033SOL     OW15997   2.185   0.273   6.975
 5033SOL    HW115998   2.183   0.212   0.032
 5033SOL    HW215999   2.095   0.275   6.933
 5034SOL     OW16000   5.621   6.760   4.354
 5034SOL    HW116001   5.524   6.780   4.364
 5034SOL    HW216002   5.670   6.788   4.437
 5035SOL     OW16003   0.927   3.866   5.575
 5035SOL    HW116004   0.902   3.770   5.562
 5035SOL    HW216005   0.986   3.895   5.500
 5036SOL     OW16006   6.564   5.092   6.567
 5036SOL    HW116007   6.473   5.055   6.549
 5036SOL    HW216008   6.622   5.079   6.486
 5037SOL     OW16009   4.788   4.846   1.682
 5037SOL    HW116010   4.885   4.840   1.661
 5037SOL    HW216011   4.760   4.767   1.736
 5038SOL     OW16012   4.092   3.260   3.953
 5038SOL    HW116013   4.173   3.264   4.010
 5038SOL    HW216014   4.084   3.168   3.913
 5039SOL     OW16015   2.076   3.360   5.489
 5039SOL    HW116016   2.144   3.332   5.556
 5039SOL    HW216017   2.010   3.287   5.475
 5040SOL     OW16018   1.002   6.367   5.095
 5040SOL    HW116019   1.051   6.279   5.098
 5040SOL    HW216020   0.920   6.360   5.152
 5041SOL     OW16021   1.100   2.208   2.097
 5041SOL    HW116022   1.136   2.221   2.189
 5041SOL    HW216023   1.132   2.282   2.038
 5042SOL     OW16024   6.943   2.731   0.429
 5042SOL    HW116025   6.936   2.822   0.470
 5042SOL    HW216026   6.906   2.663   0.492
 5043SOL     OW16027   4.517   0.667   6.888
 5043SOL    HW116028   4.525   0.730   6.964
 5043SOL    HW216029   4.426   0.625   6.888
 5044SOL     OW16030   0.790   5.574   1.400
 5044SOL    HW116031   0.762   5.558   1.495
 5044SOL    HW216032   0.712   5.607   1.347
 5045SOL     OW16033   6.313   5.730   5.880
 5045SOL    HW116034   6.247   5.687   5.819
 5045SOL    HW216035   6.381   5.780   5.826
 5046SOL     OW16036   3.562   4.171   3.673
 5046SOL    HW116037   3.646   4.116   3.675
 5046SOL    HW216038   3.572   4.244   3.605
 5047SOL     OW16039   2.232   4.136   3.063
 5047SOL    HW116040   2.300   4.138   3.136
 5047SOL    HW216041   2.262   4.194   2.988
 5048SOL     OW16042   1.446   0.870   4.184
 5048SOL    HW116043   1.440   0.771   4.175
 5048SOL    HW216044   1.353   0.907   4.195
 5049SOL     OW16045   4.556   0.860   0.256
 5049SOL    HW116046   4.648   0.835   0.224
 5049SOL    HW216047   4.495   0.869   0.177
 5050SOL     OW16048   1.757   1.199   6.939
 5050SOL    HW116049   1.731   1.103   6.943
 5050SOL    HW216050   1.674   1.255   6.933
 5051SOL     OW16051   4.590   4.325   1.665
 5051SOL    HW116052   4.633   4.243   1.628
 5051SOL    HW216053   4.542   4.302   1.750
 5052SOL     OW16054   3.173   1.985   5.849
 5052SOL    HW116055   3.144   2.081   5.846
 5052SOL    HW216056   3.201   1.956   5.757
 5053SOL     OW16057   0.976   5.181   3.001
 5053SOL    HW116058   0.933   5.244   3.066
 5053SOL    HW216059   1.041   5.231   2.944
 5054SOL     OW16060   2.694   5.075   5.093
 5054SOL    HW116061   2.772   5.022   5.126
 5054SOL    HW216062   2.610   5.023   5.108
 5055SOL     OW16063   0.813   2.468   5.795
 5055SOL    HW116064   0.757   2.448   5.875
 5055SOL    HW216065   0.794   2.401   5.723
 5056SOL     OW16066   5.259   3.870   5.745
 5056SOL    HW116067   5.183   3.822   5.702
 5056SOL    HW216068   5.225   3.947   5.798
 5057SOL     OW16069   6.896   6.971   3.363
 5057SOL    HW116070   6.860   6.878   3.353
 5057SOL    HW216071   6.995   6.968   3.375
 5058SOL     OW16072   3.291   3.969   6.717
 5058SOL    HW116073   3.266   3.872   6.715
 5058SOL    HW216074   3.254   4.015   6.636
 5059SOL     OW16075   0.166   0.460   3.104
 5059SOL    HW116076   0.124   0.370   3.108
 5059SOL    HW216077   0.150   0.501   3.014
 5060SOL     OW16078   0.205   2.625   6.615
 5060SOL    HW116079   0.241   2.613   6.523
 5060SOL    HW216080   0.106   2.641   6.610
 5061SOL     OW16081   4.665   2.659   0.471
 5061SOL    HW116082   4.722   2.676   0.390
 5061SOL    HW216083   4.723   2.635   0.549
 5062SOL     OW16084   5.749   0.104   2.352
 5062SOL    HW116085   5.716   0.144   2.437
 5062SOL    HW216086   5.825   0.158   2.316
 5063SOL     OW16087   0.013   0.098   2.176
 5063SOL    HW116088   0.100   0.133   2.141
 5063SOL    HW216089   0.030   0.041   2.256
 5064SOL     OW16090   5.202   3.270   0.789
 5064SOL    HW116091   5.143   3.254   0.868
 5064SOL    HW216092   5.147   3.270   0.706
 5065SOL     OW16093   3.221   0.481   5.658
 5065SOL    HW116094   3.145   0.418   5.676
 5065SOL    HW216095   3.301   0.428   5.631
 5066SOL     OW16096   4.979   4.973   1.998
 5066SOL    HW116097   5.048   4.902   1.988
 5066SOL    HW216098   4.961   4.989   2.095
 5067SOL     OW16099   4.845   1.356   1.141
 5067SOL    HW116100   4.780   1.303   1.194
 5067SOL    HW216101   4.881   1.300   1.066
 5068SOL     OW16102   2.536   4.732   0.946
 5068SOL    HW116103   2.472   4.743   0.870
 5068SOL    HW216104   2.588   4.648   0.933
 5069SOL     OW16105   2.241   4.484   3.369
 5069SOL    HW116106   2.153   4.493   3.415
 5069SOL    HW216107   2.242   4.543   3.288
 5070SOL     OW16108   4.922   3.550   3.682
 5070SOL    HW116109   4.959   3.497   3.758
 5070SOL    HW216110   4.854   3.615   3.716
 5071SOL     OW16111   4.460   2.343   4.853
 5071SOL    HW116112   4.428   2.256   4.816
 5071SOL    HW216113   4.386   2.386   4.905
 5072SOL     OW16114   0.662   6.020   0.601
 5072SOL    HW116115   0.757   5.997   0.581
 5072SOL    HW216116   0.656   6.058   0.693
 5073SOL     OW16117   6.428   6.823   3.160
 5073SOL    HW116118   6.355   6.887   3.138
 5073SOL    HW216119   6.391   6.731   3.170
 5074SOL     OW16120   3.508   3.008   6.613
 5074SOL    HW116121   3.581   3.012   6.546
 5074SOL    HW216122   3.436   3.073   6.589
 5075SOL     OW16123   0.330   1.276   5.684
 5075SOL    HW116124   0.376   1.195   5.721
 5075SOL    HW216125   0.397   1.334   5.637
 5076SOL     OW16126   3.790   0.999   1.045
 5076SOL    HW116127   3.825   1.028   0.956
 5076SOL    HW216128   3.703   0.950   1.032
 5077SOL     OW16129   0.773   2.717   4.010
 5077SOL    HW116130   0.711   2.639   4.006
 5077SOL    HW216131   0.797   2.736   4.105
 5078SOL     OW16132   0.750   1.736   3.716
 5078SOL    HW116133   0.737   1.834   3.703
 5078SOL    HW216134   0.838   1.709   3.676
 5079SOL     OW16135   2.946   4.743   6.336
 5079SOL    HW116136   2.922   4.646   6.348
 5079SOL    HW216137   3.026   4.764   6.391
 5080SOL     OW16138   5.576   6.603   5.535
 5080SOL    HW116139   5.510   6.599   5.610
 5080SOL    HW216140   5.628   6.518   5.531
 5081SOL     OW16141   4.147   3.473   2.902
 5081SOL    HW116142   4.151   3.398   2.967
 5081SOL    HW216143   4.239   3.511   2.889
 5082SOL     OW16144   5.827   5.839   5.168
 5082SOL    HW116145   5.815   5.786   5.252
 5082SOL    HW216146   5.876   5.924   5.189
 5083SOL     OW16147   2.028   6.516   2.470
 5083SOL    HW116148   2.061   6.554   2.557
 5083SOL    HW216149   1.953   6.453   2.488
 5084SOL     OW16150   0.982   4.855   4.680
 5084SOL    HW116151   0.986   4.955   4.672
 5084SOL    HW216152   0.929   4.818   4.604
 5085SOL     OW16153   5.476   2.357   6.265
 5085SOL    HW116154   5.517   2.343   6.355
 5085SOL    HW216155   5.473   2.455   6.244
 5086SOL     OW16156   6.210   5.417   4.140
 5086SOL    HW116157   6.222   5.416   4.239
 5086SOL    HW216158   6.233   5.327   4.103
 5087SOL     OW16159   0.010   6.075   3.537
 5087SOL    HW116160   6.991   5.993   3.498
 5087SOL    HW216161   6.976   6.111   3.610
 5088SOL     OW16162   6.108   1.274   5.155
 5088SOL    HW116163   6.188   1.250   5.101
 5088SOL    HW216164   6.070   1.361   5.121
 5089SOL     OW16165   6.345   3.312   3.042
 5089SOL    HW116166   6.342   3.336   3.139
 5089SOL    HW216167   6.403   3.377   2.994
 5090SOL     OW16168   2.086   3.937   1.395
 5090SOL    HW116169   2.037   3.873   1.454
 5090SOL    HW216170   2.110   3.891   1.309
 5091SOL     OW16171   1.021   6.148   2.898
 5091SOL    HW116172   0.938   6.187   2.857
 5091SOL    HW216173   1.066   6.218   2.953
 5092SOL     OW16174   3.491   2.412   1.144
 5092SOL    HW116175   3.459   2.504   1.165
 5092SOL    HW216176   3.444   2.346   1.203
 5093SOL     OW16177   1.630   2.157   1.587
 5093SOL    HW116178   1.618   2.120   1.494
 5093SOL    HW216179   1.552   2.216   1.609
 5094SOL     OW16180   1.266   0.340   5.571
 5094SOL    HW116181   1.270   0.315   5.475
 5094SOL    HW216182   1.191   0.406   5.586
 5095SOL     OW16183   0.981   1.229   4.574
 5095SOL    HW116184   1.020   1.286   4.501
 5095SOL    HW216185   0.891   1.265   4.599
 5096SOL     OW16186   4.151   3.981   0.630
 5096SOL    HW116187   4.111   3.903   0.582
 5096SOL    HW216188   4.087   4.015   0.700
 5097SOL     OW16189   1.413   0.400   6.377
 5097SOL    HW116190   1.496   0.445   6.343
 5097SOL    HW216191   1.371   0.348   6.303
 5098SOL     OW16192   0.285   0.687   1.546
 5098SOL    HW116193   0.296   0.680   1.645
 5098SOL    HW216194   0.303   0.781   1.517
 5099SOL     OW16195   1.210   0.483   5.907
 5099SOL    HW116196   1.226   0.396   5.860
 5099SOL    HW216197   1.222   0.559   5.843
 5100SOL     OW16198   4.537   6.752   5.968
 5100SOL    HW116199   4.623   6.801   5.987
 5100SOL    HW216200   4.501   6.781   5.879
 5101SOL     OW16201   5.196   6.258   0.131
 5101SOL    HW116202   5.215   6.327   0.061
 5101SOL    HW216203   5.249   6.279   0.213
 5102SOL     OW16204   5.985   0.602   5.557
 5102SOL    HW116205   6.077   0.572   5.530
 5102SOL    HW216206   5.943   0.531   5.614
 5103SOL     OW16207   6.835   0.803   4.386
 5103SOL    HW116208   6.855   0.824   4.291
 5103SOL    HW216209   6.921   0.789   4.436
 5104SOL     OW16210   1.500   6.550   1.419
 5104SOL    HW116211   1.441   6.526   1.496
 5104SOL    HW216212   1.454   6.617   1.361
 5105SOL     OW16213   4.142   3.819   7.011
 5105SOL    HW116214   4.238   3.836   0.009
 5105SOL    HW216215   4.097   3.906   6.989
 5106SOL     OW16216   3.571   0.119   2.417
 5106SOL    HW116217   3.503   0.070   2.364
 5106SOL    HW216218   3.654   0.063   2.426
 5107SOL     OW16219   3.174   0.486   6.838
 5107SOL    HW116220   3.157   0.565   6.897
 5107SOL    HW216221   3.093   0.428   6.835
 5108SOL     OW16222   2.955   3.721   3.819
 5108SOL    HW116223   2.886   3.762   3.759
 5108SOL    HW216224   3.040   3.772   3.812
 5109SOL     OW16225   0.991   1.835   0.708
 5109SOL    HW116226   0.968   1.903   0.639
 5109SOL    HW216227   0.997   1.744   0.666
 5110SOL     OW16228   1.190   6.887   6.252
 5110SOL    HW116229   1.260   6.917   6.188
 5110SOL    HW216230   1.101   6.884   6.206
 5111SOL     OW16231   0.722   0.912   5.531
 5111SOL    HW116232   0.809   0.937   5.574
 5111SOL    HW216233   0.665   0.994   5.521
 5112SOL     OW16234   0.568   6.781   3.317
 5112SOL    HW116235   0.659   6.808   3.348
 5112SOL    HW216236   0.556   6.683   3.333
 5113SOL     OW16237   1.264   0.062   1.188
 5113SOL    HW116238   1.299   0.059   1.094
 5113SOL    HW216239   1.166   0.041   1.187
 5114SOL     OW16240   3.369   3.066   0.297
 5114SOL    HW116241   3.335   3.124   0.222
 5114SOL    HW216242   3.302   2.994   0.314
 5115SOL     OW16243   1.508   4.431   5.506
 5115SOL    HW116244   1.554   4.516   5.482
 5115SOL    HW216245   1.526   4.362   5.436
 5116SOL     OW16246   5.247   5.581   5.874
 5116SOL    HW116247   5.264   5.496   5.825
 5116SOL    HW216248   5.296   5.579   5.961
 5117SOL     OW16249   2.182   4.720   3.964
 5117SOL    HW116250   2.158   4.626   3.938
 5117SOL    HW216251   2.219   4.720   4.057
 5118SOL     OW16252   4.482   6.608   0.452
 5118SOL    HW116253   4.440   6.597   0.542
 5118SOL    HW216254   4.578   6.581   0.457
 5119SOL     OW16255   4.827   0.237   1.566
 5119SOL    HW116256   4.859   0.143   1.582
 5119SOL    HW216257   4.844   0.262   1.471
 5120SOL     OW16258   6.086   1.412   2.990
 5120SOL    HW116259   6.047   1.431   3.080
 5120SOL    HW216260   6.014   1.413   2.922
 5121SOL     OW16261   0.954   2.772   6.499
 5121SOL    HW116262   1.037   2.827   6.493
 5121SOL    HW216263   0.879   2.828   6.533
 5122SOL     OW16264   2.596   0.713   4.045
 5122SOL    HW116265   2.539   0.720   4.127
 5122SOL    HW216266   2.546   0.749   3.966
 5123SOL     OW16267   5.177   3.347   4.543
 5123SOL    HW116268   5.080   3.323   4.548
 5123SOL    HW216269   5.229   3.293   4.609
 5124SOL     OW16270   2.570   5.577   6.435
 5124SOL    HW116271   2.563   5.486   6.475
 5124SOL    HW216272   2.666   5.598   6.417
 5125SOL     OW16273   0.089   3.658   4.401
 5125SOL    HW116274   0.082   3.559   4.388
 5125SOL    HW216275   0.011   3.689   4.455
 5126SOL     OW16276   6.039   4.799   5.810
 5126SOL    HW116277   5.984   4.739   5.752
 5126SOL    HW216278   6.131   4.808   5.770
 5127SOL     OW16279   6.019   4.089   1.065
 5127SOL    HW116280   5.927   4.118   1.040
 5127SOL    HW216281   6.016   3.996   1.102
 5128SOL     OW16282   0.800   0.402   0.272
 5128SOL    HW116283   0.792   0.305   0.293
 5128SOL    HW216284   0.813   0.415   0.174
 5129SOL     OW16285   5.493   0.735   3.007
 5129SOL    HW116286   5.590   0.733   2.982
 5129SOL    HW216287   5.481   0.694   3.097
 5130SOL     OW16288   0.964   5.758   4.762
 5130SOL    HW116289   1.062   5.748   4.780
 5130SOL    HW216290   0.948   5.755   4.664
 5131SOL     OW16291   3.088   4.920   3.250
 5131SOL    HW116292   3.051   5.005   3.212
 5131SOL    HW216293   3.017   4.850   3.248
 5132SOL     OW16294   3.049   1.406   6.443
 5132SOL    HW116295   3.141   1.378   6.418
 5132SOL    HW216296   2.989   1.398   6.363
 5133SOL     OW16297   3.456   5.463   5.931
 5133SOL    HW116298   3.439   5.554   5.893
 5133SOL    HW216299   3.403   5.395   5.882
 5134SOL     OW16300   6.405   6.943   1.923
 5134SOL    HW116301   6.393   6.863   1.863
 5134SOL    HW216302   6.468   6.920   1.997
 5135SOL     OW16303   6.361   3.461   2.694
 5135SOL    HW116304   6.424   3.399   2.647
 5135SOL    HW216305   6.413   3.522   2.754
 5136SOL     OW16306   6.925   1.371   5.722
 5136SOL    HW116307   6.867   1.293   5.745
 5136SOL    HW216308   6.893   1.413   5.637
 5137SOL     OW16309   4.584   2.906   5.379
 5137SOL    HW116310   4.636   2.866   5.304
 5137SOL    HW216311   4.627   2.882   5.466
 5138SOL     OW16312   3.319   4.057   4.086
 5138SOL    HW116313   3.389   4.126   4.070
 5138SOL    HW216314   3.331   3.982   4.021
 5139SOL     OW16315   0.944   0.401   4.479
 5139SOL    HW116316   0.939   0.311   4.436
 5139SOL    HW216317   0.859   0.417   4.531
 5140SOL     OW16318   4.033   1.726   6.254
 5140SOL    HW116319   4.029   1.713   6.353
 5140SOL    HW216320   4.088   1.654   6.213
 5141SOL     OW16321   6.261   2.601   0.896
 5141SOL    HW116322   6.289   2.655   0.817
 5141SOL    HW216323   6.302   2.638   0.979
 5142SOL     OW16324   5.722   6.835   3.949
 5142SOL    HW116325   5.722   6.765   4.021
 5142SOL    HW216326   5.711   6.791   3.860
 5143SOL     OW16327   0.750   4.103   4.372
 5143SOL    HW116328   0.755   4.060   4.462
 5143SOL    HW216329   0.811   4.055   4.309
 5144SOL     OW16330   2.370   3.373   6.762
 5144SOL    HW116331   2.413   3.458   6.791
 5144SOL    HW216332   2.435   3.298   6.770
 5145SOL     OW16333   3.650   6.043   6.335
 5145SOL    HW116334   3.648   5.945   6.356
 5145SOL    HW216335   3.715   6.060   6.261
 5146SOL     OW16336   4.119   4.336   5.735
 5146SOL    HW116337   4.213   4.310   5.757
 5146SOL    HW216338   4.120   4.411   5.669
 5147SOL     OW16339   5.308   3.848   2.740
 5147SOL    HW116340   5.339   3.937   2.776
 5147SOL    HW216341   5.283   3.789   2.817
 5148SOL     OW16342   0.826   0.613   2.008
 5148SOL    HW116343   0.925   0.625   2.018
 5148SOL    HW216344   0.781   0.635   2.094
 5149SOL     OW16345   5.697   4.721   3.966
 5149SOL    HW116346   5.791   4.695   3.942
 5149SOL    HW216347   5.684   4.819   3.949
 5150SOL     OW16348   1.234   5.233   3.410
 5150SOL    HW116349   1.189   5.302   3.354
 5150SOL    HW216350   1.206   5.142   3.380
 5151SOL     OW16351   6.020   4.793   1.307
 5151SOL    HW116352   5.927   4.826   1.322
 5151SOL    HW216353   6.039   4.718   1.371
 5152SOL     OW16354   1.609   6.257   6.512
 5152SOL    HW116355   1.573   6.265   6.420
 5152SOL    HW216356   1.544   6.297   6.577
 5153SOL     OW16357   1.481   0.900   0.401
 5153SOL    HW116358   1.526   0.981   0.363
 5153SOL    HW216359   1.387   0.895   0.367
 5154SOL     OW16360   0.949   2.643   6.770
 5154SOL    HW116361   0.982   2.665   6.678
 5154SOL    HW216362   0.860   2.686   6.784
 5155SOL     OW16363   2.596   1.630   0.434
 5155SOL    HW116364   2.518   1.587   0.481
 5155SOL    HW216365   2.659   1.559   0.403
 5156SOL     OW16366   5.410   5.173   4.992
 5156SOL    HW116367   5.454   5.089   5.025
 5156SOL    HW216368   5.350   5.151   4.915
 5157SOL     OW16369   3.526   1.596   1.909
 5157SOL    HW116370   3.592   1.659   1.951
 5157SOL    HW216371   3.572   1.510   1.888
 5158SOL     OW16372   3.711   1.601   0.908
 5158SOL    HW116373   3.793   1.658   0.917
 5158SOL    HW216374   3.731   1.524   0.848
 5159SOL     OW16375   6.062   3.507   6.862
 5159SOL    HW116376   6.013   3.548   6.939
 5159SOL    HW216377   5.999   3.493   6.786
 5160SOL     OW16378   6.221   6.556   3.310
 5160SOL    HW116379   6.268   6.546   3.398
 5160SOL    HW216380   6.180   6.647   3.305
 5161SOL     OW16381   1.294   3.078   6.832
 5161SOL    HW116382   1.367   3.103   6.896
 5161SOL    HW216383   1.236   3.009   6.875
 5162SOL     OW16384   0.034   5.365   2.618
 5162SOL    HW116385   0.109   5.414   2.575
 5162SOL    HW216386   6.971   5.414   2.601
 5163SOL     OW16387   3.107   6.189   1.825
 5163SOL    HW116388   3.176   6.179   1.754
 5163SOL    HW216389   3.150   6.178   1.915
 5164SOL     OW16390   2.846   2.851   0.402
 5164SOL    HW116391   2.897   2.766   0.411
 5164SOL    HW216392   2.890   2.923   0.454
 5165SOL     OW16393   1.455   4.737   0.027
 5165SOL    HW116394   1.464   4.642   7.021
 5165SOL    HW216395   1.428   4.740   0.123
 5166SOL     OW16396   1.696   5.288   1.953
 5166SOL    HW116397   1.599   5.267   1.937
 5166SOL    HW216398   1.753   5.232   1.894
 5167SOL     OW16399   5.645   4.085   5.352
 5167SOL    HW116400   5.592   4.168   5.336
 5167SOL    HW216401   5.701   4.065   5.272
 5168SOL     OW16402   4.902   2.297   2.185
 5168SOL    HW116403   4.855   2.275   2.270
 5168SOL    HW216404   4.921   2.395   2.181
 5169SOL     OW16405   4.325   1.405   3.865
 5169SOL    HW116406   4.261   1.478   3.891
 5169SOL    HW216407   4.416   1.426   3.902
 5170SOL     OW16408   1.342   3.320   6.133
 5170SOL    HW116409   1.417   3.370   6.176
 5170SOL    HW216410   1.274   3.296   6.201
 5171SOL     OW16411   1.344   5.196   5.338
 5171SOL    HW116412   1.424   5.159   5.385
 5171SOL    HW216413   1.276   5.124   5.327
 5172SOL     OW16414   1.285   5.339   4.204
 5172SOL    HW116415   1.274   5.285   4.287
 5172SOL    HW216416   1.235   5.425   4.214
 5173SOL     OW16417   4.672   3.841   6.104
 5173SOL    HW116418   4.629   3.754   6.080
 5173SOL    HW216419   4.626   3.882   6.182
 5174SOL     OW16420   1.362   6.818   3.500
 5174SOL    HW116421   1.462   6.814   3.499
 5174SOL    HW216422   1.327   6.751   3.565
 5175SOL     OW16423   3.119   4.361   6.306
 5175SOL    HW116424   3.216   4.381   6.299
 5175SOL    HW216425   3.103   4.264   6.286
 5176SOL     OW16426   5.395   5.592   6.100
 5176SOL    HW116427   5.444   5.548   6.176
 5176SOL    HW216428   5.423   5.688   6.094
 5177SOL     OW16429   5.247   6.961   0.938
 5177SOL    HW116430   5.248   6.955   1.037
 5177SOL    HW216431   5.240   6.869   0.899
 5178SOL     OW16432   0.903   4.376   2.336
 5178SOL    HW116433   0.898   4.419   2.246
 5178SOL    HW216434   0.835   4.416   2.397
 5179SOL     OW16435   5.114   3.974   2.584
 5179SOL    HW116436   5.018   3.954   2.563
 5179SOL    HW216437   5.134   3.945   2.677
 5180SOL     OW16438   3.027   6.778   1.122
 5180SOL    HW116439   2.970   6.770   1.204
 5180SOL    HW216440   3.117   6.813   1.148
 5181SOL     OW16441   6.998   0.801   6.753
 5181SOL    HW116442   0.031   0.779   6.833
 5181SOL    HW216443   7.007   0.899   6.732
 5182SOL     OW16444   4.597   4.404   2.608
 5182SOL    HW116445   4.606   4.367   2.516
 5182SOL    HW216446   4.541   4.487   2.605
 5183SOL     OW16447   3.999   2.215   3.203
 5183SOL    HW116448   4.008   2.192   3.106
 5183SOL    HW216449   4.080   2.266   3.232
 5184SOL     OW16450   2.272   2.516   3.661
 5184SOL    HW116451   2.197   2.453   3.678
 5184SOL    HW216452   2.357   2.464   3.650
 5185SOL     OW16453   4.697   0.465   2.671
 5185SOL    HW116454   4.790   0.500   2.662
 5185SOL    HW216455   4.655   0.458   2.580
 5186SOL     OW16456   6.425   3.238   5.700
 5186SOL    HW116457   6.358   3.169   5.727
 5186SOL    HW216458   6.517   3.199   5.705
 5187SOL     OW16459   2.265   5.230   4.621
 5187SOL    HW116460   2.283   5.310   4.678
 5187SOL    HW216461   2.293   5.249   4.527
 5188SOL     OW16462   0.067   6.280   1.467
 5188SOL    HW116463   0.081   6.185   1.438
 5188SOL    HW216464   0.071   6.340   1.387
 5189SOL     OW16465   5.553   7.007   6.235
 5189SOL    HW116466   5.477   6.964   6.284
 5189SOL    HW216467   5.625   0.007   6.301
 5190SOL     OW16468   1.712   3.042   2.446
 5190SOL    HW116469   1.612   3.038   2.450
 5190SOL    HW216470   1.741   3.135   2.420
 5191SOL     OW16471   3.043   6.334   2.506
 5191SOL    HW116472   2.955   6.288   2.503
 5191SOL    HW216473   3.099   6.296   2.580
 5192SOL     OW16474   1.565   6.135   1.430
 5192SOL    HW116475   1.491   6.144   1.497
 5192SOL    HW216476   1.568   6.041   1.397
 5193SOL     OW16477   5.351   0.300   6.706
 5193SOL    HW116478   5.351   0.389   6.661
 5193SOL    HW216479   5.412   0.238   6.656
 5194SOL     OW16480   3.428   1.593   6.291
 5194SOL    HW116481   3.415   1.641   6.204
 5194SOL    HW216482   3.522   1.604   6.322
 5195SOL     OW16483   0.647   0.552   3.466
 5195SOL    HW116484   0.618   0.504   3.383
 5195SOL    HW216485   0.579   0.622   3.488
 5196SOL     OW16486   4.721   6.603   2.782
 5196SOL    HW116487   4.805   6.653   2.804
 5196SOL    HW216488   4.683   6.563   2.865
 5197SOL     OW16489   2.082   3.373   6.480
 5197SOL    HW116490   2.083   3.471   6.503
 5197SOL    HW216491   2.174   3.336   6.487
 5198SOL     OW16492   4.230   5.373   3.244
 5198SOL    HW116493   4.228   5.297   3.179
 5198SOL    HW216494   4.147   5.371   3.299
 5199SOL     OW16495   0.146   5.323   1.153
 5199SOL    HW116496   0.223   5.271   1.117
 5199SOL    HW216497   0.172   5.420   1.161
 5200SOL     OW16498   0.563   3.740   5.339
 5200SOL    HW116499   0.592   3.715   5.431
 5200SOL    HW216500   0.615   3.687   5.272
 5201SOL     OW16501   0.562   6.563   3.971
 5201SOL    HW116502   0.543   6.520   3.883
 5201SOL    HW216503   0.525   6.507   4.045
 5202SOL     OW16504   6.975   3.403   6.426
 5202SOL    HW116505   0.045   3.441   6.425
 5202SOL    HW216506   6.977   3.312   6.467
 5203SOL     OW16507   1.037   2.680   0.264
 5203SOL    HW116508   0.970   2.666   0.337
 5203SOL    HW216509   1.113   2.617   0.276
 5204SOL     OW16510   3.959   5.209   0.537
 5204SOL    HW116511   3.918   5.120   0.558
 5204SOL    HW216512   3.908   5.281   0.584
 5205SOL     OW16513   1.750   0.346   1.593
 5205SOL    HW116514   1.835   0.351   1.541
 5205SOL    HW216515   1.704   0.434   1.591
 5206SOL     OW16516   0.554   4.494   6.764
 5206SOL    HW116517   0.529   4.459   6.674
 5206SOL    HW216518   0.646   4.534   6.759
 5207SOL     OW16519   1.567   5.528   4.204
 5207SOL    HW116520   1.570   5.537   4.104
 5207SOL    HW216521   1.486   5.475   4.230
 5208SOL     OW16522   3.722   1.022   0.452
 5208SOL    HW116523   3.773   1.108   0.446
 5208SOL    HW216524   3.636   1.037   0.501
 5209SOL     OW16525   5.784   6.071   3.725
 5209SOL    HW116526   5.803   5.981   3.687
 5209SOL    HW216527   5.838   6.086   3.807
 5210SOL     OW16528   5.405   3.849   4.776
 5210SOL    HW116529   5.438   3.834   4.870
 5210SOL    HW216530   5.414   3.946   4.754
 5211SOL     OW16531   3.416   3.181   3.666
 5211SOL    HW116532   3.421   3.177   3.766
 5211SOL    HW216533   3.403   3.088   3.630
 5212SOL     OW16534   6.870   2.536   0.634
 5212SOL    HW116535   6.891   2.600   0.708
 5212SOL    HW216536   6.780   2.495   0.649
 5213SOL     OW16537   5.305   2.066   6.224
 5213SOL    HW116538   5.316   2.057   6.125
 5213SOL    HW216539   5.209   2.078   6.246
 5214SOL     OW16540   5.469   1.431   6.479
 5214SOL    HW116541   5.427   1.501   6.536
 5214SOL    HW216542   5.450   1.341   6.516
 5215SOL     OW16543   6.041   5.374   3.077
 5215SOL    HW116544   6.081   5.440   3.140
 5215SOL    HW216545   6.098   5.292   3.075
 5216SOL     OW16546   4.727   5.869   1.310
 5216SOL    HW116547   4.781   5.953   1.306
 5216SOL    HW216548   4.784   5.793   1.341
 5217SOL     OW16549   3.056   5.172   3.737
 5217SOL    HW116550   3.020   5.224   3.814
 5217SOL    HW216551   3.026   5.213   3.651
 5218SOL     OW16552   1.687   0.658   3.857
 5218SOL    HW116553   1.752   0.586   3.882
 5218SOL    HW216554   1.595   0.630   3.882
 5219SOL     OW16555   3.730   6.798   6.626
 5219SOL    HW116556   3.663   6.863   6.660
 5219SOL    HW216557   3.752   6.819   6.530
 5220SOL     OW16558   1.016   5.526   2.604
 5220SOL    HW116559   0.950   5.562   2.538
 5220SOL    HW216560   1.070   5.453   2.561
 5221SOL     OW16561   5.313   2.050   4.614
 5221SOL    HW116562   5.367   2.024   4.694
 5221SOL    HW216563   5.255   1.974   4.585
 5222SOL     OW16564   2.721   6.879   4.137
 5222SOL    HW116565   2.710   6.968   4.182
 5222SOL    HW216566   2.813   6.873   4.097
 5223SOL     OW16567   4.439   0.539   0.754
 5223SOL    HW116568   4.342   0.545   0.728
 5223SOL    HW216569   4.448   0.477   0.833
 5224SOL     OW16570   6.857   1.717   3.237
 5224SOL    HW116571   6.771   1.716   3.287
 5224SOL    HW216572   6.849   1.659   3.156
 5225SOL     OW16573   6.146   0.741   3.033
 5225SOL    HW116574   6.244   0.760   3.038
 5225SOL    HW216575   6.109   0.730   3.125
 5226SOL     OW16576   0.325   6.684   5.326
 5226SOL    HW116577   0.240   6.632   5.329
 5226SOL    HW216578   0.314   6.760   5.261
 5227SOL     OW16579   0.805   4.915   3.957
 5227SOL    HW116580   0.715   4.874   3.973
 5227SOL    HW216581   0.830   4.972   4.035
 5228SOL     OW16582   6.296   2.631   0.384
 5228SOL    HW116583   6.383   2.642   0.431
 5228SOL    HW216584   6.254   2.720   0.370
 5229SOL     OW16585   2.137   4.519   6.381
 5229SOL    HW116586   2.224   4.469   6.380
 5229SOL    HW216587   2.150   4.608   6.338
 5230SOL     OW16588   0.489   0.456   0.947
 5230SOL    HW116589   0.390   0.457   0.959
 5230SOL    HW216590   0.516   0.533   0.888
 5231SOL     OW16591   3.165   2.966   4.450
 5231SOL    HW116592   3.246   2.948   4.507
 5231SOL    HW216593   3.083   2.939   4.500
 5232SOL     OW16594   3.338   2.285   6.223
 5232SOL    HW116595   3.291   2.202   6.253
 5232SOL    HW216596   3.392   2.321   6.298
 5233SOL     OW16597   6.893   6.554   1.419
 5233SOL    HW116598   6.973   6.516   1.464
 5233SOL    HW216599   6.897   6.534   1.321
 5234SOL     OW16600   3.200   0.334   0.062
 5234SOL    HW116601   3.216   0.378   6.997
 5234SOL    HW216602   3.165   0.401   0.127
 5235SOL     OW16603   1.762   2.765   1.427
 5235SOL    HW116604   1.695   2.775   1.500
 5235SOL    HW216605   1.844   2.720   1.463
 5236SOL     OW16606   5.323   3.330   1.201
 5236SOL    HW116607   5.351   3.340   1.105
 5236SOL    HW216608   5.297   3.235   1.218
 5237SOL     OW16609   2.919   1.954   5.216
 5237SOL    HW116610   2.896   2.048   5.192
 5237SOL    HW216611   2.867   1.927   5.297
 5238SOL     OW16612   1.760   5.175   0.438
 5238SOL    HW116613   1.803   5.090   0.409
 5238SOL    HW216614   1.731   5.227   0.358
 5239SOL     OW16615   3.673   3.772   4.130
 5239SOL    HW116616   3.625   3.718   4.062
 5239SOL    HW216617   3.609   3.833   4.176
 5240SOL     OW16618   3.276   2.217   5.636
 5240SOL    HW116619   3.281   2.314   5.612
 5240SOL    HW216620   3.180   2.189   5.641
 5241SOL     OW16621   1.256   5.846   6.423
 5241SOL    HW116622   1.252   5.844   6.323
 5241SOL    HW216623   1.337   5.898   6.451
 5242SOL     OW16624   5.750   0.220   5.020
 5242SOL    HW116625   5.676   0.257   5.076
 5242SOL    HW216626   5.836   0.266   5.041
 5243SOL     OW16627   1.299   6.045   1.071
 5243SOL    HW116628   1.351   5.961   1.056
 5243SOL    HW216629   1.300   6.068   1.168
 5244SOL     OW16630   4.349   4.221   5.881
 5244SOL    HW116631   4.362   4.204   5.784
 5244SOL    HW216632   4.387   4.311   5.904
 5245SOL     OW16633   4.568   4.110   6.217
 5245SOL    HW116634   4.477   4.151   6.207
 5245SOL    HW216635   4.638   4.180   6.203
 5246SOL     OW16636   6.601   4.143   2.421
 5246SOL    HW116637   6.603   4.091   2.506
 5246SOL    HW216638   6.508   4.177   2.405
 5247SOL     OW16639   0.942   6.528   7.003
 5247SOL    HW116640   1.001   6.538   6.923
 5247SOL    HW216641   0.943   6.433   0.011
 5248SOL     OW16642   5.245   0.111   5.657
 5248SOL    HW116643   5.224   0.113   5.560
 5248SOL    HW216644   5.249   0.016   5.688
 5249SOL     OW16645   0.474   5.436   5.156
 5249SOL    HW116646   0.564   5.474   5.179
 5249SOL    HW216647   0.482   5.336   5.147
 5250SOL     OW16648   0.177   1.362   6.175
 5250SOL    HW116649   0.147   1.354   6.080
 5250SOL    HW216650   0.263   1.411   6.179
 5251SOL     OW16651   0.336   3.112   1.158
 5251SOL    HW116652   0.252   3.074   1.198
 5251SOL    HW216653   0.326   3.120   1.059
 5252SOL     OW16654   2.098   5.592   1.222
 5252SOL    HW116655   2.070   5.499   1.247
 5252SOL    HW216656   2.193   5.607   1.250
 5253SOL     OW16657   5.746   3.905   4.737
 5253SOL    HW116658   5.692   3.825   4.713
 5253SOL    HW216659   5.799   3.935   4.658
 5254SOL     OW16660   5.169   1.570   3.304
 5254SOL    HW116661   5.202   1.629   3.231
 5254SOL    HW216662   5.099   1.508   3.268
 5255SOL     OW16663   4.118   0.275   4.651
 5255SOL    HW116664   4.201   0.277   4.596
 5255SOL    HW216665   4.060   0.198   4.622
 5256SOL     OW16666   5.250   0.833   2.814
 5256SOL    HW116667   5.349   0.828   2.814
 5256SOL    HW216668   5.220   0.908   2.873
 5257SOL     OW16669   4.881   0.104   2.148
 5257SOL    HW116670   4.968   0.106   2.098
 5257SOL    HW216671   4.830   0.022   2.123
 5258SOL     OW16672   5.111   4.720   1.606
 5258SOL    HW116673   5.126   4.782   1.529
 5258SOL    HW216674   5.115   4.625   1.573
 5259SOL     OW16675   4.701   6.223   1.315
 5259SOL    HW116676   4.630   6.200   1.248
 5259SOL    HW216677   4.773   6.276   1.270
 5260SOL     OW16678   5.018   3.275   0.564
 5260SOL    HW116679   4.966   3.360   0.556
 5260SOL    HW216680   5.054   3.249   0.474
 5261SOL     OW16681   1.049   2.572   5.320
 5261SOL    HW116682   1.066   2.505   5.392
 5261SOL    HW216683   1.050   2.526   5.231
 5262SOL     OW16684   2.062   6.622   2.719
 5262SOL    HW116685   1.981   6.674   2.747
 5262SOL    HW216686   2.086   6.556   2.791
 5263SOL     OW16687   1.043   0.332   6.268
 5263SOL    HW116688   0.948   0.300   6.268
 5263SOL    HW216689   1.095   0.283   6.337
 5264SOL     OW16690   6.392   1.197   1.466
 5264SOL    HW116691   6.450   1.119   1.439
 5264SOL    HW216692   6.449   1.277   1.483
 5265SOL     OW16693   5.121   4.034   2.185
 5265SOL    HW116694   5.149   4.128   2.169
 5265SOL    HW216695   5.165   3.999   2.268
 5266SOL     OW16696   2.564   6.535   1.260
 5266SOL    HW116697   2.506   6.478   1.201
 5266SOL    HW216698   2.548   6.511   1.356
 5267SOL     OW16699   4.593   4.857   5.650
 5267SOL    HW116700   4.606   4.837   5.747
 5267SOL    HW216701   4.497   4.846   5.625
 5268SOL     OW16702   6.406   5.590   5.612
 5268SOL    HW116703   6.417   5.658   5.540
 5268SOL    HW216704   6.496   5.561   5.644
 5269SOL     OW16705   2.417   6.382   4.016
 5269SOL    HW116706   2.433   6.391   4.114
 5269SOL    HW216707   2.363   6.460   3.984
 5270SOL     OW16708   4.890   1.994   1.816
 5270SOL    HW116709   4.885   1.905   1.771
 5270SOL    HW216710   4.821   1.998   1.888
 5271SOL     OW16711   4.447   5.128   4.190
 5271SOL    HW116712   4.401   5.092   4.271
 5271SOL    HW216713   4.392   5.107   4.109
 5272SOL     OW16714   0.855   6.180   3.644
 5272SOL    HW116715   0.938   6.139   3.681
 5272SOL    HW216716   0.783   6.111   3.637
 5273SOL     OW16717   1.270   3.017   3.667
 5273SOL    HW116718   1.292   3.004   3.763
 5273SOL    HW216719   1.280   3.114   3.643
 5274SOL     OW16720   6.332   5.472   3.127
 5274SOL    HW116721   6.265   5.512   3.065
 5274SOL    HW216722   6.413   5.445   3.075
 5275SOL     OW16723   2.972   0.984   6.216
 5275SOL    HW116724   2.943   1.080   6.224
 5275SOL    HW216725   2.949   0.949   6.125
 5276SOL     OW16726   0.296   6.026   0.512
 5276SOL    HW116727   0.371   6.077   0.470
 5276SOL    HW216728   0.267   6.074   0.595
 5277SOL     OW16729   1.812   1.921   3.117
 5277SOL    HW116730   1.727   1.957   3.079
 5277SOL    HW216731   1.866   1.996   3.155
 5278SOL     OW16732   5.566   6.921   5.776
 5278SOL    HW116733   5.616   6.931   5.690
 5278SOL    HW216734   5.468   6.916   5.758
 5279SOL     OW16735   1.026   6.503   6.315
 5279SOL    HW116736   0.939   6.461   6.342
 5279SOL    HW216737   1.071   6.541   6.395
 5280SOL     OW16738   3.489   6.184   5.269
 5280SOL    HW116739   3.529   6.098   5.236
 5280SOL    HW216740   3.412   6.163   5.328
 5281SOL     OW16741   1.199   1.817   4.183
 5281SOL    HW116742   1.172   1.912   4.196
 5281SOL    HW216743   1.128   1.769   4.131
 5282SOL     OW16744   2.169   0.118   2.463
 5282SOL    HW116745   2.134   0.168   2.543
 5282SOL    HW216746   2.207   0.031   2.492
 5283SOL     OW16747   1.428   1.020   3.265
 5283SOL    HW116748   1.419   1.115   3.293
 5283SOL    HW216749   1.351   0.967   3.303
 5284SOL     OW16750   4.675   2.698   3.182
 5284SOL    HW116751   4.612   2.666   3.253
 5284SOL    HW216752   4.721   2.781   3.212
 5285SOL     OW16753   1.068   3.526   4.134
 5285SOL    HW116754   1.099   3.472   4.212
 5285SOL    HW216755   0.974   3.500   4.111
 5286SOL     OW16756   6.036   3.287   1.036
 5286SOL    HW116757   6.114   3.231   1.063
 5286SOL    HW216758   6.054   3.327   0.946
 5287SOL     OW16759   3.133   5.250   1.192
 5287SOL    HW116760   3.046   5.296   1.211
 5287SOL    HW216761   3.160   5.196   1.272
 5288SOL     OW16762   4.389   0.499   3.010
 5288SOL    HW116763   4.306   0.500   3.067
 5288SOL    HW216764   4.379   0.565   2.936
 5289SOL     OW16765   2.600   5.071   6.334
 5289SOL    HW116766   2.580   4.995   6.272
 5289SOL    HW216767   2.694   5.103   6.318
 5290SOL     OW16768   1.725   3.548   5.576
 5290SOL    HW116769   1.737   3.459   5.531
 5290SOL    HW216770   1.767   3.546   5.666
 5291SOL     OW16771   2.778   4.528   5.937
 5291SOL    HW116772   2.738   4.510   6.027
 5291SOL    HW216773   2.707   4.520   5.867
 5292SOL     OW16774   5.695   4.567   6.157
 5292SOL    HW116775   5.758   4.568   6.080
 5292SOL    HW216776   5.618   4.507   6.136
 5293SOL     OW16777   1.712   6.722   5.132
 5293SOL    HW116778   1.724   6.817   5.159
 5293SOL    HW216779   1.764   6.705   5.048
 5294SOL     OW16780   4.813   1.780   5.507
 5294SOL    HW116781   4.741   1.712   5.518
 5294SOL    HW216782   4.840   1.784   5.411
 5295SOL     OW16783   3.546   0.938   3.199
 5295SOL    HW116784   3.549   1.007   3.128
 5295SOL    HW216785   3.544   0.982   3.289
 5296SOL     OW16786   3.275   4.147   0.051
 5296SOL    HW116787   3.247   4.168   0.145
 5296SOL    HW216788   3.230   4.063   0.020
 5297SOL     OW16789   1.638   3.498   0.128
 5297SOL    HW116790   1.681   3.474   0.042
 5297SOL    HW216791   1.539   3.489   0.120
 5298SOL     OW16792   1.832   6.021   6.424
 5298SOL    HW116793   1.924   5.999   6.390
 5298SOL    HW216794   1.796   6.100   6.374
 5299SOL     OW16795   2.996   2.623   0.478
 5299SOL    HW116796   3.018   2.569   0.397
 5299SOL    HW216797   2.910   2.589   0.518
 5300SOL     OW16798   0.456   5.887   1.208
 5300SOL    HW116799   0.490   5.793   1.212
 5300SOL    HW216800   0.513   5.946   1.265
 5301SOL     OW16801   4.191   1.509   6.145
 5301SOL    HW116802   4.262   1.439   6.144
 5301SOL    HW216803   4.205   1.573   6.069
 5302SOL     OW16804   5.806   6.012   3.417
 5302SOL    HW116805   5.749   6.089   3.386
 5302SOL    HW216806   5.778   5.929   3.370
 5303SOL     OW16807   0.159   5.143   4.883
 5303SOL    HW116808   0.163   5.105   4.975
 5303SOL    HW216809   0.171   5.242   4.887
 5304SOL     OW16810   5.927   1.071   0.309
 5304SOL    HW116811   5.828   1.060   0.315
 5304SOL    HW216812   5.972   0.985   0.332
 5305SOL     OW16813   0.968   5.268   2.286
 5305SOL    HW116814   0.907   5.207   2.337
 5305SOL    HW216815   1.050   5.286   2.340
 5306SOL     OW16816   0.896   4.632   5.570
 5306SOL    HW116817   0.907   4.650   5.472
 5306SOL    HW216818   0.978   4.586   5.604
 5307SOL     OW16819   3.789   1.881   0.108
 5307SOL    HW116820   3.762   1.929   0.024
 5307SOL    HW216821   3.758   1.786   0.104
 5308SOL     OW16822   1.274   4.084   2.570
 5308SOL    HW116823   1.201   4.049   2.629
 5308SOL    HW216824   1.237   4.156   2.511
 5309SOL     OW16825   3.864   4.860   1.848
 5309SOL    HW116826   3.776   4.837   1.890
 5309SOL    HW216827   3.938   4.836   1.911
 5310SOL     OW16828   5.971   3.429   1.616
 5310SOL    HW116829   5.951   3.390   1.526
 5310SOL    HW216830   5.941   3.366   1.687
 5311SOL     OW16831   5.969   6.576   0.228
 5311SOL    HW116832   6.025   6.658   0.240
 5311SOL    HW216833   6.023   6.505   0.184
 5312SOL     OW16834   1.002   5.510   1.960
 5312SOL    HW116835   1.054   5.556   1.888
 5312SOL    HW216836   1.036   5.417   1.971
 5313SOL     OW16837   1.140   2.911   6.205
 5313SOL    HW116838   1.177   2.879   6.292
 5313SOL    HW216839   1.091   2.836   6.160
 5314SOL     OW16840   4.107   6.773   0.116
 5314SOL    HW116841   4.052   6.796   0.197
 5314SOL    HW216842   4.204   6.785   0.137
 5315SOL     OW16843   5.125   3.394   1.827
 5315SOL    HW116844   5.123   3.491   1.802
 5315SOL    HW216845   5.048   3.375   1.889
 5316SOL     OW16846   1.120   3.472   5.276
 5316SOL    HW116847   1.149   3.415   5.198
 5316SOL    HW216848   1.036   3.520   5.252
 5317SOL     OW16849   5.926   1.982   5.261
 5317SOL    HW116850   5.894   1.892   5.291
 5317SOL    HW216851   6.021   1.994   5.288
 5318SOL     OW16852   0.846   2.456   0.801
 5318SOL    HW116853   0.840   2.413   0.891
 5318SOL    HW216854   0.883   2.548   0.810
 5319SOL     OW16855   4.004   6.101   0.807
 5319SOL    HW116856   4.090   6.152   0.816
 5319SOL    HW216857   3.966   6.115   0.716
 5320SOL     OW16858   4.351   4.982   0.883
 5320SOL    HW116859   4.271   5.025   0.925
 5320SOL    HW216860   4.380   5.036   0.804
 5321SOL     OW16861   2.310   4.737   4.494
 5321SOL    HW116862   2.281   4.764   4.402
 5321SOL    HW216863   2.384   4.670   4.488
 5322SOL     OW16864   5.281   5.960   0.257
 5322SOL    HW116865   5.353   5.965   0.188
 5322SOL    HW216866   5.266   6.051   0.296
 5323SOL     OW16867   3.742   1.887   5.923
 5323SOL    HW116868   3.654   1.901   5.878
 5323SOL    HW216869   3.753   1.790   5.944
 5324SOL     OW16870   3.548   2.438   0.877
 5324SOL    HW116871   3.524   2.433   0.975
 5324SOL    HW216872   3.642   2.408   0.865
 5325SOL     OW16873   4.429   0.470   4.245
 5325SOL    HW116874   4.509   0.451   4.302
 5325SOL    HW216875   4.381   0.384   4.226
 5326SOL     OW16876   6.590   5.414   3.338
 5326SOL    HW116877   6.632   5.362   3.412
 5326SOL    HW216878   6.502   5.372   3.313
 5327SOL     OW16879   5.958   3.170   5.387
 5327SOL    HW116880   5.951   3.187   5.485
 5327SOL    HW216881   5.897   3.095   5.362
 5328SOL     OW16882   3.892   4.022   5.910
 5328SOL    HW116883   3.857   4.013   6.003
 5328SOL    HW216884   3.823   4.064   5.852
 5329SOL     OW16885   0.454   4.407   6.534
 5329SOL    HW116886   0.388   4.359   6.476
 5329SOL    HW216887   0.543   4.361   6.528
 5330SOL     OW16888   4.575   3.874   0.372
 5330SOL    HW116889   4.566   3.964   0.330
 5330SOL    HW216890   4.494   3.819   0.353
 5331SOL     OW16891   6.264   1.806   6.499
 5331SOL    HW116892   6.253   1.769   6.407
 5331SOL    HW216893   6.267   1.731   6.565
 5332SOL     OW16894   0.642   3.149   1.480
 5332SOL    HW116895   0.623   3.100   1.395
 5332SOL    HW216896   0.619   3.245   1.469
 5333SOL     OW16897   0.923   0.857   2.948
 5333SOL    HW116898   0.828   0.888   2.942
 5333SOL    HW216899   0.968   0.904   3.024
 5334SOL     OW16900   3.349   0.494   4.134
 5334SOL    HW116901   3.266   0.479   4.188
 5334SOL    HW216902   3.338   0.454   4.043
 5335SOL     OW16903   0.018   6.031   0.885
 5335SOL    HW116904   0.075   6.071   0.814
 5335SOL    HW216905   0.007   5.933   0.869
 5336SOL     OW16906   1.805   3.534   2.888
 5336SOL    HW116907   1.707   3.554   2.900
 5336SOL    HW216908   1.858   3.596   2.946
 5337SOL     OW16909   4.968   4.404   1.301
 5337SOL    HW116910   4.905   4.326   1.308
 5337SOL    HW216911   4.972   4.434   1.206
 5338SOL     OW16912   5.897   1.839   0.271
 5338SOL    HW116913   5.923   1.777   0.345
 5338SOL    HW216914   5.805   1.875   0.289
 5339SOL     OW16915   6.716   1.764   3.931
 5339SOL    HW116916   6.686   1.853   3.965
 5339SOL    HW216917   6.682   1.750   3.838
 5340SOL     OW16918   4.499   4.524   1.174
 5340SOL    HW116919   4.490   4.506   1.272
 5340SOL    HW216920   4.592   4.556   1.155
 5341SOL     OW16921   3.715   2.709   6.515
 5341SOL    HW116922   3.620   2.731   6.498
 5341SOL    HW216923   3.739   2.733   6.609
 5342SOL     OW16924   4.106   0.220   4.186
 5342SOL    HW116925   4.189   0.213   4.242
 5342SOL    HW216926   4.086   0.131   4.144
 5343SOL     OW16927   3.548   4.042   4.546
 5343SOL    HW116928   3.538   3.954   4.593
 5343SOL    HW216929   3.605   4.103   4.602
 5344SOL     OW16930   2.202   2.973   2.589
 5344SOL    HW116931   2.300   2.954   2.599
 5344SOL    HW216932   2.184   3.010   2.498
 5345SOL     OW16933   3.996   5.928   1.270
 5345SOL    HW116934   3.910   5.889   1.301
 5345SOL    HW216935   3.984   5.967   1.179
 5346SOL     OW16936   3.221   6.108   3.839
 5346SOL    HW116937   3.296   6.159   3.796
 5346SOL    HW216938   3.215   6.131   3.936
 5347SOL     OW16939   0.712   2.686   2.740
 5347SOL    HW116940   0.791   2.624   2.735
 5347SOL    HW216941   0.725   2.761   2.675
 5348SOL     OW16942   0.154   1.773   0.869
 5348SOL    HW116943   0.104   1.746   0.951
 5348SOL    HW216944   0.126   1.715   0.792
 5349SOL     OW16945   1.377   2.507   0.237
 5349SOL    HW116946   1.401   2.562   0.157
 5349SOL    HW216947   1.452   2.445   0.259
 5350SOL     OW16948   1.432   0.568   5.330
 5350SOL    HW116949   1.476   0.584   5.418
 5350SOL    HW216950   1.458   0.640   5.266
 5351SOL     OW16951   6.097   5.694   1.712
 5351SOL    HW116952   6.097   5.599   1.743
 5351SOL    HW216953   6.089   5.696   1.612
 5352SOL     OW16954   1.828   5.651   3.814
 5352SOL    HW116955   1.746   5.613   3.858
 5352SOL    HW216956   1.808   5.745   3.783
 5353SOL     OW16957   3.814   5.391   3.968
 5353SOL    HW116958   3.744   5.327   4.001
 5353SOL    HW216959   3.772   5.456   3.906
 5354SOL     OW16960   2.374   5.154   1.463
 5354SOL    HW116961   2.439   5.200   1.522
 5354SOL    HW216962   2.342   5.070   1.507
 5355SOL     OW16963   5.108   3.022   3.849
 5355SOL    HW116964   5.146   2.934   3.820
 5355SOL    HW216965   5.177   3.093   3.837
 5356SOL     OW16966   6.034   4.535   1.436
 5356SOL    HW116967   6.039   4.476   1.516
 5356SOL    HW216968   6.107   4.511   1.372
 5357SOL     OW16969   3.806   6.350   7.013
 5357SOL    HW116970   3.830   6.300   0.073
 5357SOL    HW216971   3.874   6.421   6.996
 5358SOL     OW16972   4.797   1.130   0.148
 5358SOL    HW116973   4.858   1.195   0.101
 5358SOL    HW216974   4.703   1.165   0.144
 5359SOL     OW16975   1.953   1.635   0.045
 5359SOL    HW116976   2.016   1.690   0.099
 5359SOL    HW216977   1.867   1.684   0.032
 5360SOL     OW16978   4.476   6.711   5.475
 5360SOL    HW116979   4.428   6.748   5.395
 5360SOL    HW216980   4.444   6.618   5.492
 5361SOL     OW16981   2.072   0.141   4.892
 5361SOL    HW116982   1.976   0.163   4.908
 5361SOL    HW216983   2.119   0.222   4.855
 5362SOL     OW16984   5.958   5.109   3.530
 5362SOL    HW116985   6.036   5.047   3.541
 5362SOL    HW216986   5.990   5.197   3.497
 5363SOL     OW16987   0.512   0.002   6.575
 5363SOL    HW116988   0.572   6.973   6.515
 5363SOL    HW216989   0.425   6.976   6.585
 5364SOL     OW16990   6.895   5.747   1.696
 5364SOL    HW116991   6.857   5.709   1.781
 5364SOL    HW216992   6.864   5.693   1.618
 5365SOL     OW16993   3.510   3.090   6.912
 5365SOL    HW116994   3.505   3.175   6.860
 5365SOL    HW216995   3.506   3.012   6.849
 5366SOL     OW16996   5.041   5.917   1.592
 5366SOL    HW116997   5.124   5.971   1.586
 5366SOL    HW216998   4.962   5.974   1.570
 5367SOL     OW16999   0.524   5.781   0.707
 5367SOL    HW117000   0.448   5.767   0.645
 5367SOL    HW217001   0.536   5.879   0.723
 5368SOL     OW17002   5.410   0.308   2.423
 5368SOL    HW117003   5.455   0.252   2.492
 5368SOL    HW217004   5.394   0.400   2.459
 5369SOL     OW17005   3.345   0.006   2.226
 5369SOL    HW117006   3.251   0.017   2.195
 5369SOL    HW217007   3.357   6.938   2.265
 5370SOL     OW17008   4.503   2.868   1.199
 5370SOL    HW117009   4.468   2.843   1.289
 5370SOL    HW217010   4.591   2.916   1.210
 5371SOL     OW17011   1.727   4.091   4.351
 5371SOL    HW117012   1.722   4.066   4.254
 5371SOL    HW217013   1.820   4.121   4.372
 5372SOL     OW17014   2.158   6.129   3.703
 5372SOL    HW117015   2.140   6.034   3.676
 5372SOL    HW217016   2.194   6.131   3.796
 5373SOL     OW17017   3.573   5.950   3.843
 5373SOL    HW117018   3.670   5.951   3.867
 5373SOL    HW217019   3.555   5.875   3.780
 5374SOL     OW17020   1.038   4.172   0.260
 5374SOL    HW117021   1.072   4.250   0.312
 5374SOL    HW217022   0.965   4.202   0.199
 5375SOL     OW17023   1.746   4.871   4.614
 5375SOL    HW117024   1.746   4.790   4.672
 5375SOL    HW217025   1.840   4.897   4.591
 5376SOL     OW17026   2.113   3.225   0.522
 5376SOL    HW117027   2.128   3.229   0.621
 5376SOL    HW217028   2.091   3.316   0.488
 5377SOL     OW17029   0.261   0.424   1.865
 5377SOL    HW117030   0.359   0.437   1.853
 5377SOL    HW217031   0.222   0.502   1.913
 5378SOL     OW17032   0.157   0.473   2.293
 5378SOL    HW117033   0.065   0.437   2.307
 5378SOL    HW217034   0.222   0.419   2.346
 5379SOL     OW17035   1.784   5.700   5.167
 5379SOL    HW117036   1.727   5.777   5.196
 5379SOL    HW217037   1.764   5.679   5.071
 5380SOL     OW17038   1.818   1.713   3.692
 5380SOL    HW117039   1.886   1.721   3.619
 5380SOL    HW217040   1.727   1.704   3.652
 5381SOL     OW17041   6.400   3.958   1.061
 5381SOL    HW117042   6.348   3.874   1.044
 5381SOL    HW217043   6.474   3.965   0.995
 5382SOL     OW17044   3.073   0.223   2.570
 5382SOL    HW117045   3.092   0.272   2.655
 5382SOL    HW217046   3.157   0.214   2.517
 5383SOL     OW17047   2.500   2.526   5.455
 5383SOL    HW117048   2.446   2.504   5.375
 5383SOL    HW217049   2.517   2.443   5.508
 5384SOL     OW17050   5.758   0.220   4.163
 5384SOL    HW117051   5.703   0.286   4.111
 5384SOL    HW217052   5.750   0.241   4.260
 5385SOL     OW17053   3.198   2.973   3.971
 5385SOL    HW117054   3.166   3.038   4.040
 5385SOL    HW217055   3.142   2.981   3.889
 5386SOL     OW17056   4.800   0.056   4.609
 5386SOL    HW117057   4.884   0.067   4.555
 5386SOL    HW217058   4.790   0.133   4.672
 5387SOL     OW17059   3.059   6.181   3.631
 5387SOL    HW117060   3.102   6.165   3.542
 5387SOL    HW217061   3.112   6.135   3.702
 5388SOL     OW17062   6.225   0.428   3.829
 5388SOL    HW117063   6.169   0.432   3.912
 5388SOL    HW217064   6.192   0.354   3.770
 5389SOL     OW17065   4.870   0.755   1.782
 5389SOL    HW117066   4.865   0.671   1.728
 5389SOL    HW217067   4.902   0.734   1.874
 5390SOL     OW17068   4.753   4.159   3.121
 5390SOL    HW117069   4.791   4.221   3.052
 5390SOL    HW217070   4.653   4.155   3.111
 5391SOL     OW17071   1.785   2.373   1.446
 5391SOL    HW117072   1.738   2.285   1.454
 5391SOL    HW217073   1.721   2.441   1.408
 5392SOL     OW17074   5.717   3.038   0.954
 5392SOL    HW117075   5.688   2.967   0.890
 5392SOL    HW217076   5.763   3.112   0.905
 5393SOL     OW17077   5.235   6.990   6.618
 5393SOL    HW117078   5.278   6.980   6.528
 5393SOL    HW217079   5.243   6.904   6.669
 5394SOL     OW17080   6.930   4.237   6.816
 5394SOL    HW117081   6.981   4.312   6.774
 5394SOL    HW217082   6.834   4.263   6.825
 5395SOL     OW17083   4.953   1.080   1.951
 5395SOL    HW117084   4.980   1.032   2.035
 5395SOL    HW217085   4.866   1.042   1.917
 5396SOL     OW17086   4.878   4.405   2.734
 5396SOL    HW117087   4.965   4.383   2.690
 5396SOL    HW217088   4.815   4.444   2.667
 5397SOL     OW17089   0.107   3.014   2.096
 5397SOL    HW117090   0.063   2.943   2.150
 5397SOL    HW217091   0.205   3.015   2.115
 5398SOL     OW17092   3.389   1.804   2.544
 5398SOL    HW117093   3.385   1.902   2.561
 5398SOL    HW217094   3.303   1.761   2.572
 5399SOL     OW17095   2.490   5.634   6.756
 5399SOL    HW117096   2.511   5.678   6.669
 5399SOL    HW217097   2.544   5.551   6.766
 5400SOL     OW17098   2.678   3.898   0.758
 5400SOL    HW117099   2.638   3.875   0.847
 5400SOL    HW217100   2.650   3.829   0.691
 5401SOL     OW17101   5.610   3.494   1.896
 5401SOL    HW117102   5.584   3.456   1.985
 5401SOL    HW217103   5.641   3.420   1.836
 5402SOL     OW17104   2.130   4.486   1.855
 5402SOL    HW117105   2.160   4.424   1.927
 5402SOL    HW217106   2.119   4.578   1.892
 5403SOL     OW17107   6.281   2.316   6.616
 5403SOL    HW117108   6.217   2.250   6.655
 5403SOL    HW217109   6.258   2.331   6.519
 5404SOL     OW17110   1.018   1.355   2.822
 5404SOL    HW117111   1.050   1.431   2.765
 5404SOL    HW217112   0.929   1.379   2.861
 5405SOL     OW17113   5.687   6.058   6.805
 5405SOL    HW117114   5.728   6.035   6.717
 5405SOL    HW217115   5.629   5.982   6.836
 5406SOL     OW17116   2.528   0.680   6.975
 5406SOL    HW117117   2.539   0.591   6.931
 5406SOL    HW217118   2.528   0.668   0.051
 5407SOL     OW17119   4.071   2.974   1.151
 5407SOL    HW117120   4.134   2.913   1.103
 5407SOL    HW217121   4.122   3.028   1.219
 5408SOL     OW17122   3.168   1.029   6.433
 5408SOL    HW117123   3.080   1.020   6.480
 5408SOL    HW217124   3.153   1.048   6.336
 5409SOL     OW17125   5.908   1.212   3.818
 5409SOL    HW117126   5.889   1.294   3.871
 5409SOL    HW217127   5.827   1.153   3.817
 5410SOL     OW17128   2.413   2.439   1.563
 5410SOL    HW117129   2.500   2.408   1.600
 5410SOL    HW217130   2.338   2.403   1.618
 5411SOL     OW17131   6.264   5.377   5.726
 5411SOL    HW117132   6.236   5.314   5.653
 5411SOL    HW217133   6.309   5.457   5.685
 5412SOL     OW17134   3.761   1.078   6.613
 5412SOL    HW117135   3.739   1.032   6.699
 5412SOL    HW217136   3.692   1.055   6.544
 5413SOL     OW17137   2.097   1.452   1.214
 5413SOL    HW117138   2.083   1.419   1.308
 5413SOL    HW217139   2.171   1.519   1.213
 5414SOL     OW17140   5.089   2.189   4.863
 5414SOL    HW117141   4.989   2.189   4.869
 5414SOL    HW217142   5.128   2.207   4.954
 5415SOL     OW17143   1.549   5.922   0.979
 5415SOL    HW117144   1.648   5.934   0.986
 5415SOL    HW217145   1.518   5.853   1.045
 5416SOL     OW17146   4.719   5.152   5.997
 5416SOL    HW117147   4.677   5.142   6.088
 5416SOL    HW217148   4.757   5.244   5.989
 5417SOL     OW17149   3.884   6.745   5.302
 5417SOL    HW117150   3.937   6.680   5.247
 5417SOL    HW217151   3.908   6.735   5.398
 5418SOL     OW17152   3.651   6.571   3.880
 5418SOL    HW117153   3.704   6.490   3.907
 5418SOL    HW217154   3.554   6.553   3.894
 5419SOL     OW17155   2.773   5.043   0.358
 5419SOL    HW117156   2.768   4.948   0.389
 5419SOL    HW217157   2.717   5.055   0.276
 5420SOL     OW17158   1.262   2.276   2.356
 5420SOL    HW117159   1.287   2.181   2.341
 5420SOL    HW217160   1.336   2.336   2.324
 5421SOL     OW17161   2.192   3.111   2.972
 5421SOL    HW117162   2.236   3.032   2.930
 5421SOL    HW217163   2.172   3.090   3.068
 5422SOL     OW17164   0.891   5.653   0.168
 5422SOL    HW117165   0.917   5.732   0.113
 5422SOL    HW217166   0.792   5.640   0.162
 5423SOL     OW17167   5.912   2.744   0.265
 5423SOL    HW117168   5.929   2.691   0.181
 5423SOL    HW217169   5.861   2.687   0.329
 5424SOL     OW17170   5.110   3.007   4.392
 5424SOL    HW117171   5.186   2.985   4.331
 5424SOL    HW217172   5.059   2.924   4.413
 5425SOL     OW17173   4.218   1.585   4.069
 5425SOL    HW117174   4.316   1.583   4.088
 5425SOL    HW217175   4.166   1.566   4.152
 5426SOL     OW17176   6.262   5.162   4.044
 5426SOL    HW117177   6.220   5.073   4.061
 5426SOL    HW217178   6.314   5.158   3.959
 5427SOL     OW17179   4.585   5.005   0.338
 5427SOL    HW117180   4.582   4.930   0.272
 5427SOL    HW217181   4.677   5.011   0.377
 5428SOL     OW17182   0.140   0.211   1.742
 5428SOL    HW117183   0.139   0.223   1.643
 5428SOL    HW217184   0.165   0.298   1.786
 5429SOL     OW17185   1.528   1.934   6.362
 5429SOL    HW117186   1.443   1.961   6.406
 5429SOL    HW217187   1.553   1.841   6.391
 5430SOL     OW17188   0.596   3.491   6.093
 5430SOL    HW117189   0.690   3.507   6.123
 5430SOL    HW217190   0.594   3.470   5.995
 5431SOL     OW17191   3.556   5.732   0.539
 5431SOL    HW117192   3.599   5.811   0.496
 5431SOL    HW217193   3.517   5.673   0.468
 5432SOL     OW17194   4.908   6.434   6.647
 5432SOL    HW117195   4.838   6.400   6.584
 5432SOL    HW217196   4.864   6.463   6.732
 5433SOL     OW17197   0.519   1.885   3.887
 5433SOL    HW117198   0.530   1.786   3.897
 5433SOL    HW217199   0.585   1.931   3.946
 5434SOL     OW17200   4.058   0.900   4.897
 5434SOL    HW117201   4.056   0.887   4.996
 5434SOL    HW217202   3.965   0.892   4.861
 5435SOL     OW17203   5.083   0.937   1.753
 5435SOL    HW117204   5.015   0.868   1.726
 5435SOL    HW217205   5.045   0.996   1.824
 5436SOL     OW17206   5.026   3.890   3.655
 5436SOL    HW117207   4.989   3.881   3.747
 5436SOL    HW217208   5.101   3.824   3.642
 5437SOL     OW17209   3.225   4.725   6.231
 5437SOL    HW117210   3.220   4.730   6.331
 5437SOL    HW217211   3.134   4.703   6.194
 5438SOL     OW17212   6.582   3.805   2.428
 5438SOL    HW117213   6.588   3.710   2.459
 5438SOL    HW217214   6.576   3.866   2.507
 5439SOL     OW17215   1.301   2.590   1.201
 5439SOL    HW117216   1.378   2.544   1.245
 5439SOL    HW217217   1.279   2.674   1.251
 5440SOL     OW17218   0.658   1.405   1.967
 5440SOL    HW117219   0.649   1.381   2.063
 5440SOL    HW217220   0.615   1.334   1.910
 5441SOL     OW17221   4.892   2.309   2.753
 5441SOL    HW117222   4.821   2.356   2.701
 5441SOL    HW217223   4.972   2.368   2.761
 5442SOL     OW17224   3.568   6.059   3.495
 5442SOL    HW117225   3.624   5.977   3.506
 5442SOL    HW217226   3.600   6.111   3.416
 5443SOL     OW17227   2.501   0.793   3.788
 5443SOL    HW117228   2.414   0.837   3.810
 5443SOL    HW217229   2.530   0.820   3.696
 5444SOL     OW17230   1.776   0.585   4.479
 5444SOL    HW117231   1.805   0.502   4.432
 5444SOL    HW217232   1.693   0.566   4.531
 5445SOL     OW17233   5.983   3.820   3.584
 5445SOL    HW117234   5.980   3.894   3.652
 5445SOL    HW217235   6.012   3.736   3.628
 5446SOL     OW17236   6.358   5.256   5.207
 5446SOL    HW117237   6.356   5.356   5.217
 5446SOL    HW217238   6.424   5.218   5.271
 5447SOL     OW17239   2.244   1.624   6.465
 5447SOL    HW117240   2.203   1.671   6.543
 5447SOL    HW217241   2.344   1.627   6.474
 5448SOL     OW17242   4.686   2.720   4.940
 5448SOL    HW117243   4.728   2.767   4.862
 5448SOL    HW217244   4.715   2.624   4.941
 5449SOL     OW17245   1.806   2.474   6.778
 5449SOL    HW117246   1.902   2.460   6.799
 5449SOL    HW217247   1.785   2.436   6.688
 5450SOL     OW17248   1.634   0.700   2.056
 5450SOL    HW117249   1.596   0.686   2.147
 5450SOL    HW217250   1.634   0.613   2.006
 5451SOL     OW17251   1.016   6.243   3.194
 5451SOL    HW117252   1.048   6.148   3.185
 5451SOL    HW217253   1.033   6.293   3.110
 5452SOL     OW17254   2.452   4.380   6.592
 5452SOL    HW117255   2.452   4.469   6.548
 5452SOL    HW217256   2.505   4.315   6.537
 5453SOL     OW17257   5.664   4.559   1.561
 5453SOL    HW117258   5.571   4.596   1.566
 5453SOL    HW217259   5.725   4.616   1.615
 5454SOL     OW17260   6.859   4.087   6.420
 5454SOL    HW117261   6.890   4.057   6.511
 5454SOL    HW217262   6.797   4.018   6.382
 5455SOL     OW17263   6.194   3.279   0.612
 5455SOL    HW117264   6.123   3.323   0.558
 5455SOL    HW217265   6.192   3.314   0.706
 5456SOL     OW17266   2.994   0.521   6.601
 5456SOL    HW117267   2.925   0.592   6.611
 5456SOL    HW217268   3.068   0.537   6.666
 5457SOL     OW17269   6.386   2.583   6.999
 5457SOL    HW117270   6.470   2.576   6.945
 5457SOL    HW217271   6.325   2.508   6.974
 5458SOL     OW17272   0.585   4.356   0.049
 5458SOL    HW117273   0.591   4.286   7.001
 5458SOL    HW217274   0.536   4.435   0.013
 5459SOL     OW17275   2.472   3.912   6.500
 5459SOL    HW117276   2.536   3.836   6.491
 5459SOL    HW217277   2.409   3.912   6.422
 5460SOL     OW17278   3.520   0.278   3.039
 5460SOL    HW117279   3.471   0.240   3.118
 5460SOL    HW217280   3.495   0.374   3.028
 5461SOL     OW17281   6.022   6.968   5.259
 5461SOL    HW117282   5.975   0.008   5.197
 5461SOL    HW217283   6.114   6.950   5.225
 5462SOL     OW17284   1.021   0.290   6.734
 5462SOL    HW117285   0.950   0.263   6.670
 5462SOL    HW217286   1.069   0.371   6.700
 5463SOL     OW17287   6.579   2.308   0.427
 5463SOL    HW117288   6.566   2.403   0.397
 5463SOL    HW217289   6.493   2.258   0.415
 5464SOL     OW17290   1.043   1.333   3.808
 5464SOL    HW117291   1.133   1.358   3.844
 5464SOL    HW217292   1.023   1.238   3.829
 5465SOL     OW17293   3.949   6.291   3.276
 5465SOL    HW117294   3.965   6.260   3.182
 5465SOL    HW217295   3.938   6.211   3.335
 5466SOL     OW17296   5.378   3.928   5.251
 5466SOL    HW117297   5.437   3.915   5.171
 5466SOL    HW217298   5.432   3.962   5.328
 5467SOL     OW17299   5.178   2.583   3.150
 5467SOL    HW117300   5.183   2.677   3.184
 5467SOL    HW217301   5.092   2.569   3.101
 5468SOL     OW17302   5.601   2.248   4.699
 5468SOL    HW117303   5.682   2.288   4.657
 5468SOL    HW217304   5.526   2.314   4.699
 5469SOL     OW17305   3.879   5.608   6.463
 5469SOL    HW117306   3.821   5.608   6.545
 5469SOL    HW217307   3.938   5.527   6.463
 5470SOL     OW17308   3.477   6.032   2.763
 5470SOL    HW117309   3.474   6.082   2.676
 5470SOL    HW217310   3.398   5.971   2.770
 5471SOL     OW17311   5.092   0.286   2.565
 5471SOL    HW117312   5.096   0.200   2.616
 5471SOL    HW217313   5.175   0.297   2.512
 5472SOL     OW17314   4.128   3.922   5.753
 5472SOL    HW117315   4.044   3.967   5.786
 5472SOL    HW217316   4.194   3.918   5.828
 5473SOL     OW17317   0.076   3.500   3.167
 5473SOL    HW117318   0.174   3.493   3.148
 5473SOL    HW217319   0.048   3.596   3.164
 5474SOL     OW17320   1.977   4.499   4.533
 5474SOL    HW117321   2.074   4.480   4.551
 5474SOL    HW217322   1.968   4.539   4.442
 5475SOL     OW17323   2.355   2.710   1.454
 5475SOL    HW117324   2.282   2.729   1.519
 5475SOL    HW217325   2.400   2.624   1.477
 5476SOL     OW17326   1.916   4.385   5.566
 5476SOL    HW117327   2.004   4.425   5.591
 5476SOL    HW217328   1.852   4.457   5.539
 5477SOL     OW17329   2.383   4.722   3.567
 5477SOL    HW117330   2.466   4.667   3.571
 5477SOL    HW217331   2.314   4.674   3.512
 5478SOL     OW17332   4.252   5.394   5.012
 5478SOL    HW117333   4.259   5.488   4.981
 5478SOL    HW217334   4.300   5.334   4.948
 5479SOL     OW17335   4.995   1.224   6.273
 5479SOL    HW117336   5.088   1.249   6.300
 5479SOL    HW217337   4.931   1.293   6.306
 5480SOL     OW17338   6.832   3.973   3.189
 5480SOL    HW117339   6.862   3.916   3.265
 5480SOL    HW217340   6.912   4.004   3.137
 5481SOL     OW17341   4.298   1.420   4.504
 5481SOL    HW117342   4.292   1.520   4.505
 5481SOL    HW217343   4.226   1.381   4.560
 5482SOL     OW17344   3.594   4.830   1.105
 5482SOL    HW117345   3.621   4.762   1.036
 5482SOL    HW217346   3.497   4.819   1.125
 5483SOL     OW17347   0.116   2.090   5.740
 5483SOL    HW117348   0.128   2.154   5.663
 5483SOL    HW217349   0.078   2.004   5.707
 5484SOL     OW17350   4.206   1.028   4.663
 5484SOL    HW117351   4.150   0.984   4.733
 5484SOL    HW217352   4.170   1.119   4.643
 5485SOL     OW17353   4.159   0.424   5.511
 5485SOL    HW117354   4.204   0.433   5.600
 5485SOL    HW217355   4.218   0.464   5.440
 5486SOL     OW17356   2.847   5.607   5.535
 5486SOL    HW117357   2.848   5.652   5.445
 5486SOL    HW217358   2.754   5.577   5.556
 5487SOL     OW17359   4.058   3.587   6.615
 5487SOL    HW117360   3.974   3.547   6.652
 5487SOL    HW217361   4.108   3.634   6.687
 5488SOL     OW17362   6.379   0.755   1.447
 5488SOL    HW117363   6.403   0.664   1.481
 5488SOL    HW217364   6.281   0.757   1.426
 5489SOL     OW17365   0.071   3.695   1.528
 5489SOL    HW117366   0.075   3.638   1.610
 5489SOL    HW217367   0.081   3.791   1.553
 5490SOL     OW17368   2.410   0.237   2.309
 5490SOL    HW117369   2.505   0.245   2.282
 5490SOL    HW217370   2.366   0.162   2.259
 5491SOL     OW17371   0.547   2.775   0.135
 5491SOL    HW117372   0.455   2.786   0.172
 5491SOL    HW217373   0.548   2.803   0.039
 5492SOL     OW17374   0.401   2.929   6.130
 5492SOL    HW117375   0.335   2.945   6.203
 5492SOL    HW217376   0.487   2.975   6.152
 5493SOL     OW17377   4.089   3.630   3.174
 5493SOL    HW117378   4.037   3.566   3.117
 5493SOL    HW217379   4.061   3.724   3.153
 5494SOL     OW17380   6.753   3.893   5.259
 5494SOL    HW117381   6.832   3.950   5.283
 5494SOL    HW217382   6.767   3.853   5.168
 5495SOL     OW17383   5.742   0.533   1.253
 5495SOL    HW117384   5.676   0.490   1.190
 5495SOL    HW217385   5.758   0.627   1.223
 5496SOL     OW17386   4.586   1.143   3.764
 5496SOL    HW117387   4.545   1.118   3.676
 5496SOL    HW217388   4.684   1.155   3.753
 5497SOL     OW17389   0.534   1.437   5.507
 5497SOL    HW117390   0.542   1.513   5.571
 5497SOL    HW217391   0.535   1.471   5.413
 5498SOL     OW17392   6.827   4.911   2.270
 5498SOL    HW117393   6.804   4.990   2.327
 5498SOL    HW217394   6.789   4.923   2.178
 5499SOL     OW17395   0.931   0.204   3.674
 5499SOL    HW117396   0.911   0.138   3.746
 5499SOL    HW217397   0.930   0.158   3.585
 5500SOL     OW17398   1.060   0.747   7.001
 5500SOL    HW117399   1.043   0.651   6.982
 5500SOL    HW217400   1.065   0.799   6.916
 5501SOL     OW17401   3.878   1.813   0.907
 5501SOL    HW117402   3.897   1.876   0.832
 5501SOL    HW217403   3.898   1.857   0.994
 5502SOL     OW17404   5.862   3.386   6.400
 5502SOL    HW117405   5.858   3.289   6.424
 5502SOL    HW217406   5.782   3.408   6.343
 5503SOL     OW17407   0.100   4.289   0.968
 5503SOL    HW117408   0.161   4.278   0.890
 5503SOL    HW217409   0.016   4.336   0.939
 5504SOL     OW17410   4.851   1.234   5.198
 5504SOL    HW117411   4.884   1.282   5.117
 5504SOL    HW217412   4.910   1.155   5.217
 5505SOL     OW17413   2.220   4.972   3.346
 5505SOL    HW117414   2.241   5.066   3.373
 5505SOL    HW217415   2.153   4.934   3.409
 5506SOL     OW17416   0.249   3.253   0.276
 5506SOL    HW117417   0.178   3.286   0.337
 5506SOL    HW217418   0.218   3.170   0.230
 5507SOL     OW17419   3.815   0.870   4.777
 5507SOL    HW117420   3.745   0.874   4.848
 5507SOL    HW217421   3.810   0.781   4.731
 5508SOL     OW17422   1.222   0.659   0.421
 5508SOL    HW117423   1.164   0.578   0.410
 5508SOL    HW217424   1.191   0.712   0.500
 5509SOL     OW17425   0.660   5.845   0.278
 5509SOL    HW117426   0.614   5.756   0.275
 5509SOL    HW217427   0.663   5.877   0.372
 5510SOL     OW17428   4.383   5.194   6.676
 5510SOL    HW117429   4.332   5.204   6.762
 5510SOL    HW217430   4.428   5.281   6.654
 5511SOL     OW17431   1.238   1.134   5.283
 5511SOL    HW117432   1.255   1.108   5.188
 5511SOL    HW217433   1.282   1.221   5.302
 5512SOL     OW17434   3.483   1.287   0.759
 5512SOL    HW117435   3.516   1.381   0.751
 5512SOL    HW217436   3.397   1.287   0.810
 5513SOL     OW17437   3.342   5.276   5.758
 5513SOL    HW117438   3.359   5.183   5.790
 5513SOL    HW217439   3.248   5.282   5.723
 5514SOL     OW17440   3.254   0.589   5.305
 5514SOL    HW117441   3.264   0.601   5.206
 5514SOL    HW217442   3.321   0.523   5.338
 5515SOL     OW17443   1.840   5.659   1.915
 5515SOL    HW117444   1.775   5.689   1.985
 5515SOL    HW217445   1.841   5.726   1.840
 5516SOL     OW17446   2.342   2.715   4.915
 5516SOL    HW117447   2.385   2.788   4.968
 5516SOL    HW217448   2.368   2.724   4.819
 5517SOL     OW17449   2.207   3.750   1.876
 5517SOL    HW117450   2.186   3.814   1.949
 5517SOL    HW217451   2.204   3.656   1.912
 5518SOL     OW17452   6.305   4.815   5.728
 5518SOL    HW117453   6.323   4.913   5.716
 5518SOL    HW217454   6.390   4.768   5.753
 5519SOL     OW17455   5.547   3.129   3.557
 5519SOL    HW117456   5.532   3.092   3.466
 5519SOL    HW217457   5.620   3.197   3.554
 5520SOL     OW17458   5.642   6.474   2.140
 5520SOL    HW117459   5.558   6.477   2.086
 5520SOL    HW217460   5.655   6.562   2.186
 5521SOL     OW17461   5.793   5.749   1.577
 5521SOL    HW117462   5.794   5.652   1.554
 5521SOL    HW217463   5.873   5.794   1.536
 5522SOL     OW17464   6.371   5.426   1.529
 5522SOL    HW117465   6.422   5.341   1.521
 5522SOL    HW217466   6.356   5.465   1.439
 5523SOL     OW17467   4.996   1.050   2.228
 5523SOL    HW117468   4.943   0.979   2.275
 5523SOL    HW217469   5.089   1.052   2.265
 5524SOL     OW17470   3.350   0.170   4.650
 5524SOL    HW117471   3.331   0.253   4.703
 5524SOL    HW217472   3.439   0.179   4.606
 5525SOL     OW17473   0.866   2.569   0.465
 5525SOL    HW117474   0.891   2.479   0.501
 5525SOL    HW217475   0.775   2.565   0.425
 5526SOL     OW17476   4.596   4.384   2.947
 5526SOL    HW117477   4.650   4.324   2.888
 5526SOL    HW217478   4.616   4.479   2.925
 5527SOL     OW17479   4.840   3.938   2.925
 5527SOL    HW117480   4.930   3.973   2.950
 5527SOL    HW217481   4.791   4.007   2.871
 5528SOL     OW17482   1.779   1.177   1.249
 5528SOL    HW117483   1.747   1.258   1.299
 5528SOL    HW217484   1.833   1.119   1.310
 5529SOL     OW17485   2.786   6.770   3.760
 5529SOL    HW117486   2.876   6.757   3.801
 5529SOL    HW217487   2.759   6.686   3.713
 5530SOL     OW17488   6.359   2.282   1.572
 5530SOL    HW117489   6.364   2.198   1.518
 5530SOL    HW217490   6.343   2.360   1.511
 5531SOL     OW17491   3.671   3.494   1.510
 5531SOL    HW117492   3.678   3.440   1.594
 5531SOL    HW217493   3.602   3.453   1.450
 5532SOL     OW17494   1.846   3.241   0.751
 5532SOL    HW117495   1.943   3.222   0.762
 5532SOL    HW217496   1.823   3.243   0.653
 5533SOL     OW17497   4.945   1.629   3.845
 5533SOL    HW117498   4.862   1.669   3.883
 5533SOL    HW217499   4.922   1.564   3.773
 5534SOL     OW17500   0.981   0.992   6.482
 5534SOL    HW117501   0.914   1.043   6.536
 5534SOL    HW217502   1.062   1.050   6.467
 5535SOL     OW17503   1.070   1.139   2.527
 5535SOL    HW117504   1.024   1.114   2.612
 5535SOL    HW217505   1.166   1.159   2.546
 5536SOL     OW17506   3.848   0.578   4.398
 5536SOL    HW117507   3.786   0.552   4.471
 5536SOL    HW217508   3.905   0.500   4.373
 5537SOL     OW17509   3.782   1.708   2.530
 5537SOL    HW117510   3.863   1.650   2.534
 5537SOL    HW217511   3.704   1.653   2.499
 5538SOL     OW17512   3.768   6.216   4.633
 5538SOL    HW117513   3.762   6.243   4.537
 5538SOL    HW217514   3.690   6.160   4.657
 5539SOL     OW17515   1.919   3.589   1.447
 5539SOL    HW117516   1.911   3.619   1.351
 5539SOL    HW217517   1.829   3.562   1.480
 5540SOL     OW17518   4.550   4.888   3.606
 5540SOL    HW117519   4.631   4.846   3.567
 5540SOL    HW217520   4.472   4.826   3.596
 5541SOL     OW17521   4.913   0.729   6.374
 5541SOL    HW117522   5.011   0.739   6.355
 5541SOL    HW217523   4.861   0.770   6.300
 5542SOL     OW17524   4.094   3.287   6.244
 5542SOL    HW117525   4.138   3.309   6.157
 5542SOL    HW217526   4.153   3.318   6.319
 5543SOL     OW17527   5.863   3.848   6.869
 5543SOL    HW117528   5.793   3.916   6.847
 5543SOL    HW217529   5.820   3.760   6.887
 5544SOL     OW17530   5.373   0.295   6.390
 5544SOL    HW117531   5.301   0.275   6.457
 5544SOL    HW217532   5.333   0.301   6.299
 5545SOL     OW17533   4.205   1.945   3.404
 5545SOL    HW117534   4.183   2.036   3.439
 5545SOL    HW217535   4.269   1.900   3.467
 5546SOL     OW17536   1.068   5.603   5.672
 5546SOL    HW117537   1.153   5.550   5.674
 5546SOL    HW217538   0.996   5.549   5.628
 5547SOL     OW17539   3.117   6.025   4.735
 5547SOL    HW117540   3.108   6.103   4.673
 5547SOL    HW217541   3.214   6.011   4.757
 5548SOL     OW17542   6.076   3.651   5.676
 5548SOL    HW117543   6.059   3.732   5.620
 5548SOL    HW217544   6.162   3.608   5.647
 5549SOL     OW17545   3.525   4.927   0.002
 5549SOL    HW117546   3.430   4.960   0.002
 5549SOL    HW217547   3.549   4.898   6.932
 5550SOL     OW17548   2.572   5.814   1.911
 5550SOL    HW117549   2.550   5.909   1.932
 5550SOL    HW217550   2.580   5.762   1.996
 5551SOL     OW17551   1.399   0.634   3.212
 5551SOL    HW117552   1.463   0.709   3.232
 5551SOL    HW217553   1.340   0.661   3.136
 5552SOL     OW17554   0.087   1.727   0.545
 5552SOL    HW117555   0.029   1.756   0.469
 5552SOL    HW217556   0.178   1.704   0.511
 5553SOL     OW17557   4.437   6.927   6.940
 5553SOL    HW117558   4.485   6.840   6.929
 5553SOL    HW217559   4.469   6.973   7.022
 5554SOL     OW17560   3.114   2.535   5.363
 5554SOL    HW117561   3.050   2.503   5.433
 5554SOL    HW217562   3.103   2.479   5.280
 5555SOL     OW17563   0.571   5.432   3.101
 5555SOL    HW117564   0.615   5.494   3.166
 5555SOL    HW217565   0.477   5.414   3.129
 5556SOL     OW17566   1.194   2.153   4.713
 5556SOL    HW117567   1.187   2.244   4.673
 5556SOL    HW217568   1.282   2.144   4.759
 5557SOL     OW17569   2.667   5.904   3.572
 5557SOL    HW117570   2.610   5.982   3.597
 5557SOL    HW217571   2.757   5.937   3.544
 5558SOL     OW17572   5.166   3.012   5.302
 5558SOL    HW117573   5.184   2.925   5.257
 5558SOL    HW217574   5.248   3.069   5.300
 5559SOL     OW17575   2.354   0.247   1.083
 5559SOL    HW117576   2.451   0.242   1.107
 5559SOL    HW217577   2.312   0.157   1.096
 5560SOL     OW17578   0.431   0.957   3.010
 5560SOL    HW117579   0.531   0.952   3.001
 5560SOL    HW217580   0.390   0.873   2.974
 5561SOL     OW17581   1.451   3.195   3.941
 5561SOL    HW117582   1.389   3.273   3.948
 5561SOL    HW217583   1.545   3.227   3.940
 5562SOL     OW17584   1.926   2.525   6.310
 5562SOL    HW117585   1.929   2.450   6.244
 5562SOL    HW217586   1.997   2.592   6.287
 5563SOL     OW17587   4.404   6.250   2.285
 5563SOL    HW117588   4.335   6.314   2.319
 5563SOL    HW217589   4.359   6.165   2.256
 5564SOL     OW17590   5.013   4.030   1.827
 5564SOL    HW117591   4.975   4.001   1.740
 5564SOL    HW217592   4.948   4.092   1.873
 5565SOL     OW17593   4.426   2.111   5.601
 5565SOL    HW117594   4.503   2.144   5.546
 5565SOL    HW217595   4.406   2.177   5.673
 5566SOL     OW17596   1.892   5.508   0.753
 5566SOL    HW117597   1.974   5.451   0.757
 5566SOL    HW217598   1.917   5.605   0.757
 5567SOL     OW17599   1.826   5.664   1.238
 5567SOL    HW117600   1.922   5.634   1.237
 5567SOL    HW217601   1.769   5.596   1.193
 5568SOL     OW17602   4.522   1.463   0.825
 5568SOL    HW117603   4.456   1.462   0.900
 5568SOL    HW217604   4.612   1.489   0.859
 5569SOL     OW17605   4.135   1.862   1.480
 5569SOL    HW117606   4.196   1.912   1.542
 5569SOL    HW217607   4.168   1.869   1.387
 5570SOL     OW17608   6.346   4.650   5.487
 5570SOL    HW117609   6.255   4.608   5.484
 5570SOL    HW217610   6.345   4.725   5.554
 5571SOL     OW17611   0.266   5.770   0.580
 5571SOL    HW117612   0.277   5.690   0.521
 5571SOL    HW217613   0.288   5.853   0.529
 5572SOL     OW17614   4.263   2.424   6.162
 5572SOL    HW117615   4.339   2.371   6.125
 5572SOL    HW217616   4.176   2.383   6.131
 5573SOL     OW17617   1.514   3.918   0.520
 5573SOL    HW117618   1.428   3.868   0.528
 5573SOL    HW217619   1.497   4.009   0.482
 5574SOL     OW17620   0.378   6.678   4.760
 5574SOL    HW117621   0.385   6.768   4.802
 5574SOL    HW217622   0.470   6.641   4.745
 5575SOL     OW17623   1.774   1.066   1.006
 5575SOL    HW117624   1.701   1.002   0.979
 5575SOL    HW217625   1.764   1.089   1.102
 5576SOL     OW17626   5.854   5.715   0.623
 5576SOL    HW117627   5.793   5.644   0.588
 5576SOL    HW217628   5.918   5.675   0.689
 5577SOL     OW17629   2.445   3.509   5.506
 5577SOL    HW117630   2.357   3.539   5.541
 5577SOL    HW217631   2.442   3.410   5.489
 5578SOL     OW17632   4.385   2.870   0.179
 5578SOL    HW117633   4.444   2.868   0.099
 5578SOL    HW217634   4.419   2.803   0.246
 5579SOL     OW17635   5.429   3.667   6.948
 5579SOL    HW117636   5.403   3.761   6.927
 5579SOL    HW217637   5.356   3.605   6.918
 5580SOL     OW17638   5.133   0.780   0.888
 5580SOL    HW117639   5.184   0.790   0.802
 5580SOL    HW217640   5.042   0.819   0.877
 5581SOL     OW17641   1.650   0.619   6.272
 5581SOL    HW117642   1.689   0.663   6.353
 5581SOL    HW217643   1.562   0.661   6.250
 5582SOL     OW17644   3.732   3.403   3.932
 5582SOL    HW117645   3.691   3.357   3.853
 5582SOL    HW217646   3.794   3.475   3.901
 5583SOL     OW17647   3.374   6.732   2.027
 5583SOL    HW117648   3.342   6.704   2.117
 5583SOL    HW217649   3.319   6.687   1.956
 5584SOL     OW17650   6.395   4.250   2.887
 5584SOL    HW117651   6.377   4.344   2.915
 5584SOL    HW217652   6.477   4.247   2.830
 5585SOL     OW17653   6.628   0.600   3.803
 5585SOL    HW117654   6.646   0.518   3.857
 5585SOL    HW217655   6.705   0.617   3.741
 5586SOL     OW17656   2.588   1.546   5.719
 5586SOL    HW117657   2.606   1.605   5.640
 5586SOL    HW217658   2.490   1.534   5.731
 5587SOL     OW17659   4.045   0.551   3.674
 5587SOL    HW117660   4.137   0.542   3.634
 5587SOL    HW217661   3.977   0.521   3.607
 5588SOL     OW17662   2.365   0.135   5.361
 5588SOL    HW117663   2.365   0.099   5.268
 5588SOL    HW217664   2.284   0.103   5.410
 5589SOL     OW17665   4.946   2.847   6.160
 5589SOL    HW117666   4.992   2.836   6.248
 5589SOL    HW217667   4.911   2.759   6.129
 5590SOL     OW17668   6.967   5.914   4.447
 5590SOL    HW117669   7.010   5.972   4.378
 5590SOL    HW217670   6.879   5.953   4.474
 5591SOL     OW17671   5.791   0.509   7.019
 5591SOL    HW117672   5.889   0.512   6.996
 5591SOL    HW217673   5.740   0.559   6.950
 5592SOL     OW17674   1.442   3.889   2.982
 5592SOL    HW117675   1.458   3.978   2.940
 5592SOL    HW217676   1.410   3.902   3.076
 5593SOL     OW17677   1.162   2.725   5.901
 5593SOL    HW117678   1.105   2.644   5.904
 5593SOL    HW217679   1.205   2.733   5.811
 5594SOL     OW17680   1.982   0.135   0.399
 5594SOL    HW117681   2.002   0.041   0.372
 5594SOL    HW217682   2.062   0.175   0.444
 5595SOL     OW17683   6.790   1.423   6.016
 5595SOL    HW117684   6.767   1.337   5.969
 5595SOL    HW217685   6.788   1.498   5.950
 5596SOL     OW17686   4.917   0.778   2.294
 5596SOL    HW117687   4.983   0.703   2.295
 5596SOL    HW217688   4.828   0.743   2.267
 5597SOL     OW17689   6.236   1.169   6.486
 5597SOL    HW117690   6.180   1.150   6.567
 5597SOL    HW217691   6.266   1.082   6.446
 5598SOL     OW17692   5.933   1.923   3.681
 5598SOL    HW117693   6.003   1.988   3.650
 5598SOL    HW217694   5.978   1.840   3.713
 5599SOL     OW17695   4.870   3.958   2.151
 5599SOL    HW117696   4.969   3.963   2.165
 5599SOL    HW217697   4.842   4.029   2.086
 5600SOL     OW17698   2.172   1.007   3.100
 5600SOL    HW117699   2.153   0.944   3.025
 5600SOL    HW217700   2.181   0.955   3.186
 5601SOL     OW17701   5.415   3.494   5.679
 5601SOL    HW117702   5.337   3.536   5.725
 5601SOL    HW217703   5.434   3.543   5.594
 5602SOL     OW17704   0.350   2.423   3.421
 5602SOL    HW117705   0.444   2.457   3.417
 5602SOL    HW217706   0.343   2.339   3.367
 5603SOL     OW17707   4.185   2.306   4.654
 5603SOL    HW117708   4.164   2.379   4.719
 5603SOL    HW217709   4.100   2.260   4.627
 5604SOL     OW17710   0.907   7.023   3.891
 5604SOL    HW117711   0.965   6.953   3.933
 5604SOL    HW217712   0.812   6.992   3.891
 5605SOL     OW17713   2.483   6.113   4.437
 5605SOL    HW117714   2.417   6.186   4.425
 5605SOL    HW217715   2.434   6.027   4.453
 5606SOL     OW17716   4.711   2.236   0.608
 5606SOL    HW117717   4.728   2.178   0.529
 5606SOL    HW217718   4.743   2.190   0.691
 5607SOL     OW17719   6.082   2.888   2.300
 5607SOL    HW117720   6.075   2.850   2.392
 5607SOL    HW217721   5.994   2.881   2.254
 5608SOL     OW17722   5.264   1.132   4.007
 5608SOL    HW117723   5.191   1.201   4.009
 5608SOL    HW217724   5.223   1.041   4.014
 5609SOL     OW17725   6.316   6.712   1.121
 5609SOL    HW117726   6.378   6.690   1.196
 5609SOL    HW217727   6.222   6.696   1.150
 5610SOL     OW17728   5.289   4.542   6.927
 5610SOL    HW117729   5.249   4.533   6.835
 5610SOL    HW217730   5.363   4.476   6.937
 5611SOL     OW17731   0.433   5.203   1.638
 5611SOL    HW117732   0.435   5.251   1.726
 5611SOL    HW217733   0.339   5.197   1.606
 5612SOL     OW17734   3.081   1.209   0.632
 5612SOL    HW117735   3.075   1.305   0.660
 5612SOL    HW217736   3.059   1.201   0.535
 5613SOL     OW17737   6.736   5.035   5.170
 5613SOL    HW117738   6.694   4.944   5.177
 5613SOL    HW217739   6.835   5.025   5.163
 5614SOL     OW17740   5.941   2.122   4.747
 5614SOL    HW117741   5.968   2.031   4.717
 5614SOL    HW217742   5.854   2.147   4.706
 5615SOL     OW17743   6.614   2.902   2.464
 5615SOL    HW117744   6.685   2.889   2.533
 5615SOL    HW217745   6.615   2.826   2.399
 5616SOL     OW17746   1.741   3.637   3.229
 5616SOL    HW117747   1.823   3.638   3.172
 5616SOL    HW217748   1.741   3.718   3.288
 5617SOL     OW17749   2.016   5.379   6.502
 5617SOL    HW117750   1.954   5.458   6.509
 5617SOL    HW217751   2.011   5.341   6.409
 5618SOL     OW17752   6.691   5.746   3.789
 5618SOL    HW117753   6.668   5.669   3.848
 5618SOL    HW217754   6.753   5.715   3.717
 5619SOL     OW17755   3.596   3.392   4.437
 5619SOL    HW117756   3.561   3.323   4.501
 5619SOL    HW217757   3.520   3.449   4.406
 5620SOL     OW17758   4.144   4.541   5.523
 5620SOL    HW117759   4.053   4.551   5.483
 5620SOL    HW217760   4.172   4.628   5.564
 5621SOL     OW17761   1.584   3.037   4.743
 5621SOL    HW117762   1.574   3.047   4.644
 5621SOL    HW217763   1.670   2.990   4.762
 5622SOL     OW17764   4.635   5.640   4.885
 5622SOL    HW117765   4.613   5.562   4.826
 5622SOL    HW217766   4.646   5.722   4.830
 5623SOL     OW17767   4.607   6.434   4.104
 5623SOL    HW117768   4.592   6.382   4.020
 5623SOL    HW217769   4.527   6.492   4.122
 5624SOL     OW17770   0.025   5.438   4.363
 5624SOL    HW117771   7.003   5.518   4.404
 5624SOL    HW217772   0.123   5.441   4.384
 5625SOL     OW17773   1.238   5.779   4.693
 5625SOL    HW117774   1.200   5.848   4.631
 5625SOL    HW217775   1.305   5.724   4.643
 5626SOL     OW17776   1.966   4.200   4.424
 5626SOL    HW117777   2.026   4.125   4.454
 5626SOL    HW217778   1.940   4.254   4.503
 5627SOL     OW17779   1.217   5.662   0.440
 5627SOL    HW117780   1.120   5.650   0.419
 5627SOL    HW217781   1.229   5.669   0.539
 5628SOL     OW17782   2.536   2.664   0.699
 5628SOL    HW117783   2.494   2.662   0.790
 5628SOL    HW217784   2.556   2.571   0.670
 5629SOL     OW17785   5.049   4.145   1.517
 5629SOL    HW117786   4.972   4.149   1.452
 5629SOL    HW217787   5.035   4.212   1.590
 5630SOL     OW17788   1.817   3.598   6.464
 5630SOL    HW117789   1.908   3.624   6.497
 5630SOL    HW217790   1.821   3.576   6.367
 5631SOL     OW17791   4.463   0.637   2.376
 5631SOL    HW117792   4.533   0.685   2.323
 5631SOL    HW217793   4.494   0.544   2.395
 5632SOL     OW17794   5.928   0.113   5.856
 5632SOL    HW117795   5.850   0.124   5.918
 5632SOL    HW217796   5.966   0.203   5.834
 5633SOL     OW17797   0.410   4.490   5.983
 5633SOL    HW117798   0.476   4.497   5.908
 5633SOL    HW217799   0.407   4.576   6.033
 5634SOL     OW17800   2.849   6.154   6.579
 5634SOL    HW117801   2.924   6.129   6.519
 5634SOL    HW217802   2.786   6.215   6.531
 5635SOL     OW17803   2.565   6.788   6.655
 5635SOL    HW117804   2.509   6.808   6.575
 5635SOL    HW217805   2.515   6.729   6.718
 5636SOL     OW17806   6.493   1.067   5.675
 5636SOL    HW117807   6.397   1.043   5.660
 5636SOL    HW217808   6.541   0.991   5.717
 5637SOL     OW17809   5.317   6.040   4.675
 5637SOL    HW117810   5.298   5.943   4.691
 5637SOL    HW217811   5.269   6.070   4.592
 5638SOL     OW17812   4.991   5.767   1.039
 5638SOL    HW117813   5.060   5.771   0.967
 5638SOL    HW217814   5.007   5.840   1.105
 5639SOL     OW17815   1.284   0.156   1.608
 5639SOL    HW117816   1.363   0.214   1.628
 5639SOL    HW217817   1.314   0.061   1.598
 5640SOL     OW17818   2.805   6.026   2.930
 5640SOL    HW117819   2.884   5.969   2.908
 5640SOL    HW217820   2.833   6.122   2.932
 5641SOL     OW17821   1.296   4.958   4.476
 5641SOL    HW117822   1.209   4.911   4.461
 5641SOL    HW217823   1.328   4.939   4.569
 5642SOL     OW17824   1.440   4.462   6.997
 5642SOL    HW117825   1.352   4.452   0.021
 5642SOL    HW217826   1.430   4.433   6.902
 5643SOL     OW17827   4.039   2.111   4.494
 5643SOL    HW117828   3.959   2.165   4.471
 5643SOL    HW217829   4.107   2.119   4.422
 5644SOL     OW17830   5.458   1.396   5.204
 5644SOL    HW117831   5.372   1.354   5.174
 5644SOL    HW217832   5.522   1.399   5.127
 5645SOL     OW17833   4.906   5.816   2.513
 5645SOL    HW117834   4.988   5.857   2.552
 5645SOL    HW217835   4.921   5.795   2.417
 5646SOL     OW17836   0.357   5.863   3.257
 5646SOL    HW117837   0.425   5.936   3.261
 5646SOL    HW217838   0.366   5.815   3.169
 5647SOL     OW17839   6.169   6.115   0.116
 5647SOL    HW117840   6.109   6.047   0.074
 5647SOL    HW217841   6.199   6.082   0.205
 5648SOL     OW17842   2.016   1.707   3.515
 5648SOL    HW117843   2.017   1.645   3.436
 5648SOL    HW217844   2.096   1.767   3.512
 5649SOL     OW17845   1.074   0.861   4.309
 5649SOL    HW117846   1.023   0.775   4.318
 5649SOL    HW217847   1.102   0.891   4.400
 5650SOL     OW17848   6.731   4.852   0.316
 5650SOL    HW117849   6.694   4.926   0.373
 5650SOL    HW217850   6.794   4.797   0.371
 5651SOL     OW17851   0.154   1.264   1.813
 5651SOL    HW117852   0.172   1.166   1.802
 5651SOL    HW217853   0.213   1.316   1.751
 5652SOL     OW17854   5.113   5.651   1.527
 5652SOL    HW117855   5.100   5.744   1.561
 5652SOL    HW217856   5.140   5.592   1.603
 5653SOL     OW17857   6.759   5.719   5.718
 5653SOL    HW117858   6.706   5.638   5.742
 5653SOL    HW217859   6.857   5.697   5.720
 5654SOL     OW17860   0.246   0.387   5.680
 5654SOL    HW117861   0.177   0.428   5.739
 5654SOL    HW217862   0.273   0.453   5.609
 5655SOL     OW17863   1.010   3.312   3.798
 5655SOL    HW117864   1.101   3.287   3.830
 5655SOL    HW217865   0.942   3.258   3.847
 5656SOL     OW17866   2.852   3.590   0.892
 5656SOL    HW117867   2.800   3.544   0.964
 5656SOL    HW217868   2.833   3.689   0.895
 5657SOL     OW17869   4.293   0.244   1.699
 5657SOL    HW117870   4.286   0.334   1.657
 5657SOL    HW217871   4.389   0.216   1.704
 5658SOL     OW17872   3.451   6.874   5.231
 5658SOL    HW117873   3.546   6.879   5.261
 5658SOL    HW217874   3.405   6.961   5.250
 5659SOL     OW17875   3.187   3.375   3.077
 5659SOL    HW117876   3.141   3.289   3.058
 5659SOL    HW217877   3.277   3.357   3.117
 5660SOL     OW17878   5.118   0.200   0.281
 5660SOL    HW117879   5.167   0.287   0.294
 5660SOL    HW217880   5.022   0.212   0.303
 5661SOL     OW17881   0.265   6.015   5.406
 5661SOL    HW117882   0.173   5.997   5.443
 5661SOL    HW217883   0.308   6.088   5.458
 5662SOL     OW17884   2.594   4.772   3.796
 5662SOL    HW117885   2.681   4.753   3.749
 5662SOL    HW217886   2.559   4.687   3.836
 5663SOL     OW17887   1.239   4.109   0.584
 5663SOL    HW117888   1.246   4.018   0.542
 5663SOL    HW217889   1.292   4.110   0.669
 5664SOL     OW17890   0.127   4.797   2.937
 5664SOL    HW117891   0.077   4.715   2.911
 5664SOL    HW217892   0.225   4.782   2.924
 5665SOL     OW17893   2.108   2.461   6.530
 5665SOL    HW117894   2.040   2.465   6.458
 5665SOL    HW217895   2.179   2.530   6.513
 5666SOL     OW17896   4.702   5.710   0.739
 5666SOL    HW117897   4.659   5.797   0.763
 5666SOL    HW217898   4.787   5.699   0.791
 5667SOL     OW17899   6.955   5.135   3.072
 5667SOL    HW117900   6.918   5.201   3.138
 5667SOL    HW217901   6.979   5.050   3.119
 5668SOL     OW17902   4.565   1.575   6.147
 5668SOL    HW117903   4.477   1.573   6.099
 5668SOL    HW217904   4.553   1.542   6.240
 5669SOL     OW17905   0.220   5.576   5.790
 5669SOL    HW117906   0.158   5.506   5.754
 5669SOL    HW217907   0.214   5.577   5.890
 5670SOL     OW17908   0.380   3.310   3.598
 5670SOL    HW117909   0.335   3.312   3.687
 5670SOL    HW217910   0.382   3.216   3.563
 5671SOL     OW17911   2.202   6.879   6.460
 5671SOL    HW117912   2.154   6.852   6.377
 5671SOL    HW217913   2.301   6.867   6.447
 5672SOL     OW17914   4.969   3.735   5.985
 5672SOL    HW117915   4.897   3.704   6.047
 5672SOL    HW217916   5.058   3.713   6.024
 5673SOL     OW17917   0.445   0.720   2.448
 5673SOL    HW117918   0.477   0.762   2.363
 5673SOL    HW217919   0.491   0.763   2.526
 5674SOL     OW17920   0.617   3.788   1.624
 5674SOL    HW117921   0.603   3.865   1.561
 5674SOL    HW217922   0.546   3.719   1.609
 5675SOL     OW17923   4.470   2.539   5.403
 5675SOL    HW117924   4.533   2.616   5.395
 5675SOL    HW217925   4.376   2.572   5.401
 5676SOL     OW17926   1.586   1.058   1.478
 5676SOL    HW117927   1.578   1.131   1.546
 5676SOL    HW217928   1.632   1.094   1.397
 5677SOL     OW17929   6.491   2.339   3.500
 5677SOL    HW117930   6.427   2.265   3.479
 5677SOL    HW217931   6.551   2.312   3.575
 5678SOL     OW17932   4.062   6.204   2.698
 5678SOL    HW117933   4.026   6.214   2.605
 5678SOL    HW217934   4.075   6.294   2.739
 5679SOL     OW17935   1.454   6.581   4.763
 5679SOL    HW117936   1.447   6.525   4.845
 5679SOL    HW217937   1.452   6.678   4.788
 5680SOL     OW17938   1.194   5.032   6.739
 5680SOL    HW117939   1.234   4.946   6.771
 5680SOL    HW217940   1.220   5.048   6.644
 5681SOL     OW17941   1.001   2.391   6.612
 5681SOL    HW117942   1.100   2.389   6.598
 5681SOL    HW217943   0.980   2.451   6.689
 5682SOL     OW17944   1.273   2.716   5.383
 5682SOL    HW117945   1.201   2.667   5.335
 5682SOL    HW217946   1.247   2.812   5.392
 5683SOL     OW17947   3.440   2.501   6.676
 5683SOL    HW117948   3.504   2.545   6.739
 5683SOL    HW217949   3.347   2.509   6.711
 5684SOL     OW17950   3.780   3.634   4.333
 5684SOL    HW117951   3.725   3.552   4.347
 5684SOL    HW217952   3.741   3.688   4.258
 5685SOL     OW17953   0.692   5.153   2.434
 5685SOL    HW117954   0.608   5.159   2.379
 5685SOL    HW217955   0.696   5.062   2.477
 5686SOL     OW17956   3.751   0.034   0.558
 5686SOL    HW117957   3.816   0.096   0.602
 5686SOL    HW217958   3.665   0.082   0.541
 5687SOL     OW17959   6.004   4.351   4.765
 5687SOL    HW117960   6.035   4.443   4.790
 5687SOL    HW217961   6.041   4.327   4.676
 5688SOL     OW17962   6.054   2.268   1.312
 5688SOL    HW117963   6.054   2.209   1.393
 5688SOL    HW217964   6.124   2.339   1.323
 5689SOL     OW17965   4.551   0.865   0.531
 5689SOL    HW117966   4.536   0.886   0.434
 5689SOL    HW217967   4.647   0.880   0.553
 5690SOL     OW17968   3.659   6.216   0.723
 5690SOL    HW117969   3.583   6.271   0.689
 5690SOL    HW217970   3.713   6.270   0.787
 5691SOL     OW17971   3.232   6.618   2.302
 5691SOL    HW117972   3.308   6.677   2.328
 5691SOL    HW217973   3.182   6.588   2.383
 5692SOL     OW17974   6.699   1.695   5.865
 5692SOL    HW117975   6.728   1.678   5.770
 5692SOL    HW217976   6.748   1.775   5.901
 5693SOL     OW17977   4.936   2.612   2.329
 5693SOL    HW117978   5.019   2.636   2.278
 5693SOL    HW217979   4.861   2.671   2.298
 5694SOL     OW17980   0.527   1.107   3.374
 5694SOL    HW117981   0.438   1.151   3.360
 5694SOL    HW217982   0.544   1.098   3.473
 5695SOL     OW17983   1.522   2.283   3.658
 5695SOL    HW117984   1.487   2.319   3.744
 5695SOL    HW217985   1.618   2.308   3.648
 5696SOL     OW17986   2.976   1.494   4.989
 5696SOL    HW117987   2.934   1.561   5.050
 5696SOL    HW217988   3.021   1.541   4.913
 5697SOL     OW17989   0.081   2.387   0.587
 5697SOL    HW117990   0.063   2.291   0.608
 5697SOL    HW217991   7.021   2.441   0.600
 5698SOL     OW17992   0.487   2.463   2.310
 5698SOL    HW117993   0.542   2.410   2.374
 5698SOL    HW217994   0.502   2.560   2.326
 5699SOL     OW17995   6.375   1.171   3.985
 5699SOL    HW117996   6.351   1.076   3.965
 5699SOL    HW217997   6.337   1.231   3.915
 5700SOL     OW17998   1.293   6.224   4.439
 5700SOL    HW117999   1.297   6.300   4.374
 5700SOL    HW218000   1.384   6.209   4.478
 5701SOL     OW18001   0.621   6.059   2.772
 5701SOL    HW118002   0.547   6.042   2.707
 5701SOL    HW218003   0.665   6.146   2.751
 5702SOL     OW18004   1.670   6.741   5.663
 5702SOL    HW118005   1.619   6.796   5.730
 5702SOL    HW218006   1.688   6.650   5.701
 5703SOL     OW18007   4.624   5.166   7.006
 5703SOL    HW118008   4.684   5.130   0.054
 5703SOL    HW218009   4.656   5.134   6.917
 5704SOL     OW18010   4.677   5.284   3.376
 5704SOL    HW118011   4.741   5.287   3.300
 5704SOL    HW218012   4.591   5.242   3.347
 5705SOL     OW18013   6.111   0.689   0.995
 5705SOL    HW118014   6.088   0.591   0.992
 5705SOL    HW218015   6.147   0.716   0.906
 5706SOL     OW18016   1.601   1.914   0.230
 5706SOL    HW118017   1.536   1.989   0.245
 5706SOL    HW218018   1.556   1.827   0.251
 5707SOL     OW18019   1.570   0.014   6.746
 5707SOL    HW118020   1.545   6.983   6.666
 5707SOL    HW218021   1.581   0.110   6.718
 5708SOL     OW18022   5.089   6.967   1.996
 5708SOL    HW118023   5.183   6.974   1.963
 5708SOL    HW218024   5.090   6.935   2.091
 5709SOL     OW18025   0.560   6.496   3.376
 5709SOL    HW118026   0.652   6.497   3.338
 5709SOL    HW218027   0.501   6.435   3.322
 5710SOL     OW18028   2.852   3.654   5.935
 5710SOL    HW118029   2.932   3.667   5.877
 5710SOL    HW218030   2.769   3.674   5.882
 5711SOL     OW18031   4.989   0.808   3.808
 5711SOL    HW118032   5.008   0.842   3.900
 5711SOL    HW218033   5.076   0.791   3.761
 5712SOL     OW18034   6.991   0.184   5.391
 5712SOL    HW118035   0.000   0.271   5.354
 5712SOL    HW218036   6.992   0.188   5.491
 5713SOL     OW18037   0.281   2.368   1.984
 5713SOL    HW118038   0.363   2.345   1.932
 5713SOL    HW218039   0.220   2.424   1.928
 5714SOL     OW18040   1.348   0.015   6.921
 5714SOL    HW118041   1.266   0.029   6.866
 5714SOL    HW218042   1.428   0.011   6.861
 5715SOL     OW18043   1.143   6.121   2.657
 5715SOL    HW118044   1.113   6.113   2.752
 5715SOL    HW218045   1.187   6.036   2.628
 5716SOL     OW18046   1.725   4.181   5.706
 5716SOL    HW118047   1.649   4.141   5.654
 5716SOL    HW218048   1.778   4.240   5.646
 5717SOL     OW18049   1.411   4.768   1.400
 5717SOL    HW118050   1.405   4.866   1.381
 5717SOL    HW218051   1.331   4.721   1.361
 5718SOL     OW18052   1.901   4.637   6.930
 5718SOL    HW118053   1.945   4.648   6.841
 5718SOL    HW218054   1.942   4.701   6.995
 5719SOL     OW18055   2.811   1.127   5.809
 5719SOL    HW118056   2.895   1.073   5.798
 5719SOL    HW218057   2.751   1.081   5.875
 5720SOL     OW18058   6.862   4.869   4.696
 5720SOL    HW118059   6.852   4.954   4.748
 5720SOL    HW218060   6.911   4.888   4.611
 5721SOL     OW18061   0.900   3.372   0.334
 5721SOL    HW118062   0.873   3.292   0.280
 5721SOL    HW218063   0.887   3.455   0.280
 5722SOL     OW18064   5.578   1.146   4.867
 5722SOL    HW118065   5.549   1.216   4.932
 5722SOL    HW218066   5.522   1.064   4.879
 5723SOL     OW18067   3.480   4.805   0.657
 5723SOL    HW118068   3.559   4.840   0.706
 5723SOL    HW218069   3.488   4.827   0.559
 5724SOL     OW18070   4.426   2.150   6.615
 5724SOL    HW118071   4.359   2.130   6.544
 5724SOL    HW218072   4.518   2.139   6.578
 5725SOL     OW18073   5.325   5.533   3.656
 5725SOL    HW118074   5.317   5.600   3.729
 5725SOL    HW218075   5.334   5.581   3.568
 5726SOL     OW18076   6.160   3.906   4.868
 5726SOL    HW118077   6.195   3.822   4.827
 5726SOL    HW218078   6.141   3.890   4.965
 5727SOL     OW18079   5.739   2.950   2.776
 5727SOL    HW118080   5.792   2.910   2.851
 5727SOL    HW218081   5.801   2.983   2.705
 5728SOL     OW18082   5.873   1.195   5.966
 5728SOL    HW118083   5.803   1.240   6.022
 5728SOL    HW218084   5.956   1.184   6.020
 5729SOL     OW18085   0.602   1.961   0.411
 5729SOL    HW118086   0.645   1.999   0.329
 5729SOL    HW218087   0.590   1.862   0.399
 5730SOL     OW18088   3.653   5.959   5.162
 5730SOL    HW118089   3.668   5.979   5.065
 5730SOL    HW218090   3.636   5.861   5.173
 5731SOL     OW18091   1.519   6.449   4.090
 5731SOL    HW118092   1.512   6.525   4.025
 5731SOL    HW218093   1.610   6.408   4.083
 5732SOL     OW18094   6.216   4.844   4.305
 5732SOL    HW118095   6.198   4.895   4.222
 5732SOL    HW218096   6.308   4.865   4.339
 5733SOL     OW18097   3.546   0.745   6.496
 5733SOL    HW118098   3.505   0.655   6.481
 5733SOL    HW218099   3.641   0.733   6.527
 5734SOL     OW18100   1.327   6.807   5.446
 5734SOL    HW118101   1.394   6.868   5.487
 5734SOL    HW218102   1.296   6.740   5.514
 5735SOL     OW18103   3.660   1.167   2.299
 5735SOL    HW118104   3.609   1.232   2.355
 5735SOL    HW218105   3.714   1.217   2.231
 5736SOL     OW18106   5.090   4.558   6.152
 5736SOL    HW118107   5.112   4.632   6.215
 5736SOL    HW218108   5.003   4.515   6.179
 5737SOL     OW18109   5.354   6.334   1.293
 5737SOL    HW118110   5.388   6.417   1.336
 5737SOL    HW218111   5.421   6.300   1.227
 5738SOL     OW18112   3.449   1.108   6.647
 5738SOL    HW118113   3.473   1.195   6.604
 5738SOL    HW218114   3.516   1.086   6.718
 5739SOL     OW18115   1.818   6.768   5.917
 5739SOL    HW118116   1.881   6.800   5.988
 5739SOL    HW218117   1.860   6.781   5.827
 5740SOL     OW18118   4.741   3.325   0.965
 5740SOL    HW118119   4.679   3.380   0.910
 5740SOL    HW218120   4.793   3.264   0.905
 5741SOL     OW18121   0.717   3.713   4.072
 5741SOL    HW118122   0.675   3.632   4.113
 5741SOL    HW218123   0.770   3.687   3.992
 5742SOL     OW18124   3.769   6.619   3.650
 5742SOL    HW118125   3.806   6.710   3.635
 5742SOL    HW218126   3.721   6.616   3.737
 5743SOL     OW18127   3.516   4.891   6.257
 5743SOL    HW118128   3.594   4.850   6.212
 5743SOL    HW218129   3.433   4.875   6.203
 5744SOL     OW18130   5.967   0.490   3.130
 5744SOL    HW118131   6.067   0.502   3.133
 5744SOL    HW218132   5.942   0.406   3.177
 5745SOL     OW18133   2.374   2.767   3.667
 5745SOL    HW118134   2.465   2.766   3.625
 5745SOL    HW218135   2.337   2.675   3.668
 5746SOL     OW18136   4.328   6.954   3.814
 5746SOL    HW118137   4.357   6.943   3.909
 5746SOL    HW218138   4.289   0.022   3.801
 5747SOL     OW18139   1.350   6.358   1.922
 5747SOL    HW118140   1.335   6.408   2.008
 5747SOL    HW218141   1.324   6.416   1.845
 5748SOL     OW18142   0.542   6.563   0.802
 5748SOL    HW118143   0.484   6.528   0.876
 5748SOL    HW218144   0.549   6.494   0.730
 5749SOL     OW18145   1.810   6.906   4.868
 5749SOL    HW118146   1.894   6.894   4.922
 5749SOL    HW218147   1.818   6.987   4.811
 5750SOL     OW18148   6.735   4.343   5.221
 5750SOL    HW118149   6.709   4.254   5.257
 5750SOL    HW218150   6.686   4.415   5.270
 5751SOL     OW18151   1.898   3.402   4.296
 5751SOL    HW118152   1.824   3.470   4.303
 5751SOL    HW218153   1.871   3.331   4.232
 5752SOL     OW18154   5.609   0.340   1.392
 5752SOL    HW118155   5.661   0.423   1.377
 5752SOL    HW218156   5.662   0.261   1.362
 5753SOL     OW18157   2.935   4.023   5.342
 5753SOL    HW118158   2.987   3.962   5.402
 5753SOL    HW218159   2.963   4.008   5.247
 5754SOL     OW18160   1.606   6.509   1.998
 5754SOL    HW118161   1.699   6.540   1.981
 5754SOL    HW218162   1.587   6.511   2.096
 5755SOL     OW18163   2.142   1.807   6.268
 5755SOL    HW118164   2.209   1.829   6.198
 5755SOL    HW218165   2.186   1.755   6.342
 5756SOL     OW18166   6.595   0.137   2.612
 5756SOL    HW118167   6.545   0.166   2.530
 5756SOL    HW218168   6.537   0.148   2.692
 5757SOL     OW18169   0.097   5.516   4.020
 5757SOL    HW118170   0.058   5.607   4.037
 5757SOL    HW218171   0.157   5.490   4.096
 5758SOL     OW18172   2.245   6.889   3.428
 5758SOL    HW118173   2.154   6.846   3.428
 5758SOL    HW218174   2.286   6.877   3.337
 5759SOL     OW18175   4.735   6.887   2.114
 5759SOL    HW118176   4.639   6.915   2.109
 5759SOL    HW218177   4.781   6.910   2.027
 5760SOL     OW18178   6.734   3.366   1.967
 5760SOL    HW118179   6.704   3.413   2.050
 5760SOL    HW218180   6.789   3.286   1.991
 5761SOL     OW18181   5.034   5.834   5.040
 5761SOL    HW118182   4.989   5.907   4.989
 5761SOL    HW218183   4.965   5.773   5.079
 5762SOL     OW18184   4.542   4.383   0.875
 5762SOL    HW118185   4.552   4.288   0.903
 5762SOL    HW218186   4.542   4.442   0.956
 5763SOL     OW18187   5.203   6.527   0.372
 5763SOL    HW118188   5.301   6.507   0.379
 5763SOL    HW218189   5.189   6.611   0.319
 5764SOL     OW18190   4.171   5.120   3.091
 5764SOL    HW118191   4.143   5.052   3.159
 5764SOL    HW218192   4.108   5.118   3.014
 5765SOL     OW18193   6.606   4.025   0.881
 5765SOL    HW118194   6.589   4.027   0.783
 5765SOL    HW218195   6.702   3.999   0.897
 5766SOL     OW18196   2.080   2.125   4.590
 5766SOL    HW118197   2.067   2.032   4.555
 5766SOL    HW218198   2.171   2.134   4.629
 5767SOL     OW18199   2.330   0.294   6.725
 5767SOL    HW118200   2.302   0.233   6.651
 5767SOL    HW218201   2.274   0.276   6.806
 5768SOL     OW18202   6.640   6.911   3.772
 5768SOL    HW118203   6.587   6.966   3.837
 5768SOL    HW218204   6.694   6.972   3.713
 5769SOL     OW18205   2.497   5.253   5.953
 5769SOL    HW118206   2.522   5.167   5.909
 5769SOL    HW218207   2.573   5.285   6.010
 5770SOL     OW18208   0.496   6.421   6.923
 5770SOL    HW118209   0.401   6.422   6.952
 5770SOL    HW218210   0.540   6.507   6.949
 5771SOL     OW18211   1.714   6.876   3.964
 5771SOL    HW118212   1.809   6.868   3.935
 5771SOL    HW218213   1.688   6.973   3.968
 5772SOL     OW18214   4.410   1.454   1.717
 5772SOL    HW118215   4.338   1.464   1.648
 5772SOL    HW218216   4.461   1.540   1.723
 5773SOL     OW18217   4.333   1.371   2.321
 5773SOL    HW118218   4.421   1.350   2.278
 5773SOL    HW218219   4.283   1.437   2.264
 5774SOL     OW18220   1.712   0.752   4.909
 5774SOL    HW118221   1.671   0.674   4.956
 5774SOL    HW218222   1.669   0.764   4.820
 5775SOL     OW18223   1.628   5.994   2.654
 5775SOL    HW118224   1.583   6.038   2.732
 5775SOL    HW218225   1.570   6.000   2.573
 5776SOL     OW18226   1.385   0.413   3.400
 5776SOL    HW118227   1.386   0.507   3.366
 5776SOL    HW218228   1.429   0.353   3.334
 5777SOL     OW18229   1.166   0.420   3.722
 5777SOL    HW118230   1.090   0.482   3.741
 5777SOL    HW218231   1.149   0.373   3.635
 5778SOL     OW18232   1.766   0.685   0.135
 5778SOL    HW118233   1.671   0.695   0.106
 5778SOL    HW218234   1.779   0.726   0.225
 5779SOL     OW18235   4.710   2.515   6.829
 5779SOL    HW118236   4.719   2.608   6.863
 5779SOL    HW218237   4.801   2.477   6.813
 5780SOL     OW18238   5.334   5.453   4.742
 5780SOL    HW118239   5.265   5.471   4.672
 5780SOL    HW218240   5.294   5.469   4.833
 5781SOL     OW18241   6.465   4.335   4.850
 5781SOL    HW118242   6.517   4.286   4.920
 5781SOL    HW218243   6.414   4.270   4.794
 5782SOL     OW18244   1.370   1.469   0.414
 5782SOL    HW118245   1.314   1.532   0.468
 5782SOL    HW218246   1.466   1.494   0.421
 5783SOL     OW18247   1.034   1.006   2.292
 5783SOL    HW118248   1.124   0.964   2.279
 5783SOL    HW218249   1.033   1.058   2.377
 5784SOL     OW18250   0.248   6.112   6.501
 5784SOL    HW118251   0.256   6.014   6.483
 5784SOL    HW218252   0.307   6.137   6.577
 5785SOL     OW18253   2.200   1.863   0.377
 5785SOL    HW118254   2.139   1.942   0.372
 5785SOL    HW218255   2.149   1.783   0.405
 5786SOL     OW18256   0.012   4.477   0.635
 5786SOL    HW118257   0.015   4.382   0.667
 5786SOL    HW218258   6.963   4.487   0.568
 5787SOL     OW18259   2.358   2.149   5.311
 5787SOL    HW118260   2.429   2.165   5.242
 5787SOL    HW218261   2.333   2.052   5.311
 5788SOL     OW18262   2.704   1.632   2.679
 5788SOL    HW118263   2.688   1.643   2.777
 5788SOL    HW218264   2.687   1.718   2.633
 5789SOL     OW18265   3.771   4.552   6.777
 5789SOL    HW118266   3.683   4.508   6.790
 5789SOL    HW218267   3.761   4.651   6.790
 5790SOL     OW18268   1.535   3.880   4.376
 5790SOL    HW118269   1.606   3.950   4.380
 5790SOL    HW218270   1.446   3.923   4.365
 5791SOL     OW18271   4.213   0.092   1.906
 5791SOL    HW118272   4.242   0.153   1.831
 5791SOL    HW218273   4.113   0.089   1.910
 5792SOL     OW18274   6.655   2.488   2.921
 5792SOL    HW118275   6.728   2.420   2.912
 5792SOL    HW218276   6.592   2.459   2.992
 5793SOL     OW18277   5.154   1.086   3.453
 5793SOL    HW118278   5.143   1.133   3.366
 5793SOL    HW218279   5.206   1.001   3.439
 5794SOL     OW18280   3.890   1.932   0.338
 5794SOL    HW118281   3.829   1.921   0.259
 5794SOL    HW218282   3.984   1.917   0.309
 5795SOL     OW18283   6.605   5.235   6.198
 5795SOL    HW118284   6.559   5.151   6.173
 5795SOL    HW218285   6.611   5.296   6.119
 5796SOL     OW18286   3.951   0.696   0.002
 5796SOL    HW118287   3.971   0.794   0.000
 5796SOL    HW218288   3.984   0.657   0.088
 5797SOL     OW18289   4.139   1.891   5.182
 5797SOL    HW118290   4.185   1.879   5.270
 5797SOL    HW218291   4.122   1.988   5.166
 5798SOL     OW18292   0.680   4.376   5.419
 5798SOL    HW118293   0.721   4.293   5.382
 5798SOL    HW218294   0.712   4.389   5.513
 5799SOL     OW18295   5.502   1.354   3.605
 5799SOL    HW118296   5.441   1.384   3.532
 5799SOL    HW218297   5.576   1.299   3.565
 5800SOL     OW18298   5.519   5.940   0.629
 5800SOL    HW118299   5.601   5.966   0.682
 5800SOL    HW218300   5.508   5.841   0.632
 5801SOL     OW18301   1.114   2.431   4.749
 5801SOL    HW118302   1.043   2.500   4.742
 5801SOL    HW218303   1.203   2.475   4.764
 5802SOL     OW18304   0.845   4.520   0.375
 5802SOL    HW118305   0.815   4.582   0.447
 5802SOL    HW218306   0.814   4.554   0.286
 5803SOL     OW18307   1.218   4.274   2.407
 5803SOL    HW118308   1.163   4.272   2.324
 5803SOL    HW218309   1.190   4.351   2.464
 5804SOL     OW18310   6.488   4.360   3.706
 5804SOL    HW118311   6.574   4.402   3.735
 5804SOL    HW218312   6.413   4.396   3.760
 5805SOL     OW18313   3.191   3.766   6.228
 5805SOL    HW118314   3.289   3.745   6.237
 5805SOL    HW218315   3.146   3.754   6.316
 5806SOL     OW18316   0.016   6.231   5.955
 5806SOL    HW118317   0.008   6.285   6.040
 5806SOL    HW218318   7.003   6.139   5.971
 5807SOL     OW18319   1.653   3.711   1.972
 5807SOL    HW118320   1.583   3.658   1.924
 5807SOL    HW218321   1.654   3.805   1.937
 5808SOL     OW18322   5.959   4.012   3.798
 5808SOL    HW118323   5.876   4.047   3.840
 5808SOL    HW218324   6.019   4.088   3.775
 5809SOL     OW18325   0.260   2.235   5.001
 5809SOL    HW118326   0.312   2.315   5.031
 5809SOL    HW218327   0.320   2.170   4.955
 5810SOL     OW18328   3.104   1.141   4.126
 5810SOL    HW118329   3.196   1.127   4.164
 5810SOL    HW218330   3.039   1.157   4.200
 5811SOL     OW18331   2.715   0.171   4.886
 5811SOL    HW118332   2.693   0.073   4.886
 5811SOL    HW218333   2.794   0.187   4.946
 5812SOL     OW18334   5.531   0.445   4.226
 5812SOL    HW118335   5.479   0.495   4.157
 5812SOL    HW218336   5.619   0.490   4.240
 5813SOL     OW18337   1.289   1.275   0.618
 5813SOL    HW118338   1.371   1.229   0.653
 5813SOL    HW218339   1.316   1.354   0.563
 5814SOL     OW18340   6.184   4.680   0.930
 5814SOL    HW118341   6.156   4.757   0.988
 5814SOL    HW218342   6.270   4.702   0.884
 5815SOL     OW18343   4.591   2.560   4.084
 5815SOL    HW118344   4.544   2.554   4.172
 5815SOL    HW218345   4.672   2.500   4.086
 5816SOL     OW18346   4.862   5.508   0.038
 5816SOL    HW118347   4.886   5.416   0.071
 5816SOL    HW218348   4.877   5.513   6.963
 5817SOL     OW18349   5.170   3.542   5.779
 5817SOL    HW118350   5.106   3.465   5.776
 5817SOL    HW218351   5.126   3.624   5.745
 5818SOL     OW18352   6.719   6.353   4.839
 5818SOL    HW118353   6.704   6.392   4.930
 5818SOL    HW218354   6.642   6.294   4.815
 5819SOL     OW18355   4.456   0.336   6.468
 5819SOL    HW118356   4.511   0.253   6.455
 5819SOL    HW218357   4.371   0.312   6.514
 5820SOL     OW18358   4.507   6.024   3.886
 5820SOL    HW118359   4.466   6.067   3.967
 5820SOL    HW218360   4.438   5.966   3.842
 5821SOL     OW18361   0.439   0.372   2.210
 5821SOL    HW118362   0.424   0.405   2.303
 5821SOL    HW218363   0.477   0.445   2.154
 5822SOL     OW18364   0.353   2.691   2.660
 5822SOL    HW118365   0.348   2.737   2.571
 5822SOL    HW218366   0.439   2.642   2.668
 5823SOL     OW18367   0.553   0.731   6.022
 5823SOL    HW118368   0.522   0.733   6.117
 5823SOL    HW218369   0.480   0.763   5.962
 5824SOL     OW18370   6.765   5.980   2.809
 5824SOL    HW118371   6.818   6.023   2.737
 5824SOL    HW218372   6.674   5.956   2.773
 5825SOL     OW18373   2.632   1.990   5.184
 5825SOL    HW118374   2.631   1.906   5.130
 5825SOL    HW218375   2.617   2.069   5.124
 5826SOL     OW18376   7.010   5.045   5.219
 5826SOL    HW118377   0.031   5.133   5.204
 5826SOL    HW218378   0.052   4.972   5.201
 5827SOL     OW18379   2.219   4.854   4.967
 5827SOL    HW118380   2.147   4.784   4.963
 5827SOL    HW218381   2.275   4.848   4.885
 5828SOL     OW18382   6.853   2.977   1.379
 5828SOL    HW118383   6.847   2.941   1.472
 5828SOL    HW218384   6.767   3.021   1.354
 5829SOL     OW18385   2.818   1.816   2.486
 5829SOL    HW118386   2.906   1.859   2.505
 5829SOL    HW218387   2.832   1.733   2.432
 5830SOL     OW18388   3.975   6.907   5.546
 5830SOL    HW118389   4.027   6.940   5.624
 5830SOL    HW218390   3.970   6.978   5.476
 5831SOL     OW18391   0.126   0.524   3.928
 5831SOL    HW118392   0.123   0.494   4.023
 5831SOL    HW218393   0.048   0.487   3.879
 5832SOL     OW18394   3.681   4.526   5.507
 5832SOL    HW118395   3.645   4.476   5.587
 5832SOL    HW218396   3.607   4.580   5.466
 5833SOL     OW18397   4.112   3.309   5.189
 5833SOL    HW118398   4.200   3.349   5.215
 5833SOL    HW218399   4.106   3.303   5.090
 5834SOL     OW18400   5.721   2.632   0.492
 5834SOL    HW118401   5.767   2.550   0.459
 5834SOL    HW218402   5.628   2.635   0.456
 5835SOL     OW18403   4.828   3.176   2.823
 5835SOL    HW118404   4.772   3.244   2.775
 5835SOL    HW218405   4.924   3.188   2.799
 5836SOL     OW18406   3.000   6.655   3.002
 5836SOL    HW118407   2.929   6.676   2.935
 5836SOL    HW218408   3.086   6.698   2.973
 5837SOL     OW18409   4.339   5.027   5.650
 5837SOL    HW118410   4.248   5.043   5.688
 5837SOL    HW218411   4.405   5.087   5.696
 5838SOL     OW18412   2.324   1.478   5.787
 5838SOL    HW118413   2.254   1.426   5.738
 5838SOL    HW218414   2.379   1.417   5.843
 5839SOL     OW18415   0.237   2.418   2.896
 5839SOL    HW118416   0.248   2.423   2.796
 5839SOL    HW218417   0.170   2.487   2.925
 5840SOL     OW18418   1.342   5.192   6.922
 5840SOL    HW118419   1.345   5.112   6.863
 5840SOL    HW218420   1.390   5.268   6.878
 5841SOL     OW18421   5.340   1.971   2.407
 5841SOL    HW118422   5.330   2.070   2.419
 5841SOL    HW218423   5.253   1.932   2.378
 5842SOL     OW18424   4.256   3.099   1.785
 5842SOL    HW118425   4.254   3.100   1.885
 5842SOL    HW218426   4.165   3.117   1.749
 5843SOL     OW18427   2.102   3.705   2.190
 5843SOL    HW118428   2.151   3.645   2.127
 5843SOL    HW218429   2.106   3.799   2.158
 5844SOL     OW18430   0.677   6.733   5.958
 5844SOL    HW118431   0.589   6.738   5.910
 5844SOL    HW218432   0.752   6.749   5.894
 5845SOL     OW18433   1.084   0.526   2.776
 5845SOL    HW118434   1.008   0.537   2.840
 5845SOL    HW218435   1.094   0.609   2.722
 5846SOL     OW18436   6.097   3.238   4.548
 5846SOL    HW118437   6.053   3.152   4.522
 5846SOL    HW218438   6.194   3.223   4.565
 5847SOL     OW18439   2.102   1.867   2.096
 5847SOL    HW118440   2.097   1.965   2.076
 5847SOL    HW218441   2.197   1.837   2.089
 5848SOL     OW18442   2.369   5.243   3.064
 5848SOL    HW118443   2.358   5.295   3.148
 5848SOL    HW218444   2.280   5.207   3.036
 5849SOL     OW18445   6.623   0.720   6.746
 5849SOL    HW118446   6.710   0.743   6.702
 5849SOL    HW218447   6.592   0.631   6.713
 5850SOL     OW18448   0.853   3.775   1.994
 5850SOL    HW118449   0.803   3.730   2.067
 5850SOL    HW218450   0.790   3.831   1.940
 5851SOL     OW18451   4.961   3.280   2.493
 5851SOL    HW118452   4.980   3.379   2.490
 5851SOL    HW218453   4.942   3.247   2.401
 5852SOL     OW18454   5.088   6.747   3.705
 5852SOL    HW118455   5.087   6.841   3.741
 5852SOL    HW218456   4.995   6.721   3.679
 5853SOL     OW18457   3.136   5.601   4.591
 5853SOL    HW118458   3.145   5.507   4.625
 5853SOL    HW218459   3.207   5.658   4.632
 5854SOL     OW18460   6.379   3.995   5.393
 5854SOL    HW118461   6.296   4.049   5.403
 5854SOL    HW218462   6.379   3.921   5.461
 5855SOL     OW18463   0.357   0.591   4.548
 5855SOL    HW118464   0.396   0.679   4.574
 5855SOL    HW218465   0.360   0.529   4.627
 5856SOL     OW18466   2.020   6.374   3.818
 5856SOL    HW118467   2.033   6.286   3.772
 5856SOL    HW218468   2.106   6.426   3.816
 5857SOL     OW18469   6.146   2.801   5.287
 5857SOL    HW118470   6.047   2.800   5.273
 5857SOL    HW218471   6.182   2.891   5.260
 5858SOL     OW18472   2.689   2.241   2.137
 5858SOL    HW118473   2.638   2.184   2.073
 5858SOL    HW218474   2.772   2.274   2.092
 5859SOL     OW18475   5.747   0.124   1.243
 5859SOL    HW118476   5.768   0.039   1.292
 5859SOL    HW218477   5.831   0.176   1.228
 5860SOL     OW18478   2.044   3.756   1.623
 5860SOL    HW118479   2.112   3.754   1.696
 5860SOL    HW218480   2.034   3.665   1.584
 5861SOL     OW18481   5.013   1.478   4.420
 5861SOL    HW118482   4.968   1.424   4.349
 5861SOL    HW218483   5.103   1.439   4.440
 5862SOL     OW18484   5.379   4.992   3.284
 5862SOL    HW118485   5.317   5.061   3.323
 5862SOL    HW218486   5.447   4.966   3.353
 5863SOL     OW18487   2.962   0.832   4.664
 5863SOL    HW118488   2.967   0.802   4.759
 5863SOL    HW218489   3.047   0.807   4.617
 5864SOL     OW18490   3.879   3.538   1.861
 5864SOL    HW118491   3.809   3.471   1.886
 5864SOL    HW218492   3.958   3.491   1.823
 5865SOL     OW18493   5.596   0.162   4.664
 5865SOL    HW118494   5.550   0.248   4.646
 5865SOL    HW218495   5.695   0.176   4.662
 5866SOL     OW18496   3.750   5.869   6.960
 5866SOL    HW118497   3.708   5.936   6.899
 5866SOL    HW218498   3.687   5.848   0.012
 5867SOL     OW18499   0.473   3.980   1.138
 5867SOL    HW118500   0.489   3.882   1.133
 5867SOL    HW218501   0.462   4.018   1.046
 5868SOL     OW18502   0.355   0.796   5.452
 5868SOL    HW118503   0.286   0.862   5.422
 5868SOL    HW218504   0.371   0.807   5.550
 5869SOL     OW18505   2.471   5.544   3.474
 5869SOL    HW118506   2.568   5.564   3.460
 5869SOL    HW218507   2.417   5.588   3.403
 5870SOL     OW18508   4.777   5.798   4.655
 5870SOL    HW118509   4.796   5.891   4.687
 5870SOL    HW218510   4.854   5.764   4.602
 5871SOL     OW18511   4.222   3.567   0.142
 5871SOL    HW118512   4.253   3.524   0.227
 5871SOL    HW218513   4.158   3.506   0.095
 5872SOL     OW18514   3.883   4.828   6.815
 5872SOL    HW118515   3.958   4.856   6.754
 5872SOL    HW218516   3.919   4.805   6.905
 5873SOL     OW18517   1.974   2.434   0.843
 5873SOL    HW118518   1.918   2.486   0.907
 5873SOL    HW218519   1.950   2.338   0.848
 5874SOL     OW18520   2.927   2.868   1.243
 5874SOL    HW118521   2.959   2.858   1.148
 5874SOL    HW218522   2.867   2.792   1.266
 5875SOL     OW18523   3.675   1.060   1.548
 5875SOL    HW118524   3.673   1.041   1.646
 5875SOL    HW218525   3.625   0.989   1.499
 5876SOL     OW18526   2.990   3.063   0.129
 5876SOL    HW118527   3.040   2.976   0.125
 5876SOL    HW218528   2.892   3.045   0.132
 5877SOL     OW18529   6.672   6.985   1.130
 5877SOL    HW118530   6.615   0.021   1.073
 5877SOL    HW218531   6.714   6.914   1.073
 5878SOL     OW18532   5.219   5.213   3.223
 5878SOL    HW118533   5.306   5.244   3.263
 5878SOL    HW218534   5.192   5.275   3.150
 5879SOL     OW18535   2.538   3.424   6.066
 5879SOL    HW118536   2.558   3.505   6.121
 5879SOL    HW218537   2.618   3.364   6.066
 5880SOL     OW18538   4.493   4.321   6.521
 5880SOL    HW118539   4.451   4.241   6.477
 5880SOL    HW218540   4.590   4.324   6.499
 5881SOL     OW18541   1.617   0.387   2.602
 5881SOL    HW118542   1.550   0.313   2.600
 5881SOL    HW218543   1.654   0.402   2.510
 5882SOL     OW18544   0.629   6.410   5.498
 5882SOL    HW118545   0.671   6.375   5.582
 5882SOL    HW218546   0.540   6.366   5.485
 5883SOL     OW18547   0.440   1.763   0.652
 5883SOL    HW118548   0.519   1.760   0.713
 5883SOL    HW218549   0.403   1.671   0.641
 5884SOL     OW18550   6.204   0.910   4.820
 5884SOL    HW118551   6.126   0.959   4.859
 5884SOL    HW218552   6.250   0.967   4.753
 5885SOL     OW18553   0.746   5.651   0.590
 5885SOL    HW118554   0.652   5.684   0.597
 5885SOL    HW218555   0.749   5.553   0.611
 5886SOL     OW18556   0.891   2.948   3.250
 5886SOL    HW118557   0.878   2.920   3.345
 5886SOL    HW218558   0.866   3.044   3.239
 5887SOL     OW18559   3.087   1.800   1.865
 5887SOL    HW118560   3.171   1.769   1.820
 5887SOL    HW218561   3.101   1.891   1.904
 5888SOL     OW18562   2.351   6.601   0.851
 5888SOL    HW118563   2.385   6.612   0.758
 5888SOL    HW218564   2.315   6.689   0.883
 5889SOL     OW18565   6.508   1.329   0.936
 5889SOL    HW118566   6.553   1.245   0.966
 5889SOL    HW218567   6.566   1.408   0.957
 5890SOL     OW18568   1.681   6.486   2.909
 5890SOL    HW118569   1.599   6.475   2.852
 5890SOL    HW218570   1.726   6.573   2.886
 5891SOL     OW18571   2.316   3.921   0.135
 5891SOL    HW118572   2.404   3.876   0.145
 5891SOL    HW218573   2.311   3.967   0.046
 5892SOL     OW18574   0.282   4.707   1.654
 5892SOL    HW118575   0.304   4.774   1.583
 5892SOL    HW218576   0.222   4.637   1.616
 5893SOL     OW18577   1.661   4.710   1.468
 5893SOL    HW118578   1.698   4.628   1.513
 5893SOL    HW218579   1.562   4.700   1.459
 5894SOL     OW18580   0.834   5.876   5.127
 5894SOL    HW118581   0.824   5.874   5.227
 5894SOL    HW218582   0.901   5.945   5.102
 5895SOL     OW18583   6.147   3.454   4.113
 5895SOL    HW118584   6.223   3.390   4.098
 5895SOL    HW218585   6.063   3.415   4.075
 5896SOL     OW18586   5.065   1.335   1.729
 5896SOL    HW118587   5.084   1.409   1.664
 5896SOL    HW218588   4.968   1.314   1.727
 5897SOL     OW18589   4.089   1.574   1.700
 5897SOL    HW118590   4.099   1.504   1.629
 5897SOL    HW218591   3.992   1.601   1.706
 5898SOL     OW18592   2.375   1.133   5.500
 5898SOL    HW118593   2.467   1.164   5.526
 5898SOL    HW218594   2.361   1.149   5.402
 5899SOL     OW18595   6.848   5.638   6.168
 5899SOL    HW118596   6.792   5.676   6.095
 5899SOL    HW218597   6.872   5.711   6.233
 5900SOL     OW18598   6.754   5.367   3.558
 5900SOL    HW118599   6.736   5.296   3.626
 5900SOL    HW218600   6.725   5.456   3.594
 5901SOL     OW18601   1.502   1.231   0.803
 5901SOL    HW118602   1.580   1.260   0.749
 5901SOL    HW218603   1.520   1.250   0.900
 5902SOL     OW18604   5.766   3.215   5.126
 5902SOL    HW118605   5.794   3.309   5.141
 5902SOL    HW218606   5.778   3.192   5.029
 5903SOL     OW18607   5.296   2.761   6.522
 5903SOL    HW118608   5.228   2.698   6.483
 5903SOL    HW218609   5.329   2.822   6.450
 5904SOL     OW18610   1.661   4.374   1.129
 5904SOL    HW118611   1.586   4.437   1.148
 5904SOL    HW218612   1.667   4.358   1.031
 5905SOL     OW18613   5.454   1.171   3.809
 5905SOL    HW118614   5.448   1.245   3.741
 5905SOL    HW218615   5.376   1.175   3.870
 5906SOL     OW18616   5.408   1.587   5.396
 5906SOL    HW118617   5.406   1.514   5.327
 5906SOL    HW218618   5.471   1.562   5.469
 5907SOL     OW18619   1.451   6.764   0.556
 5907SOL    HW118620   1.536   6.773   0.503
 5907SOL    HW218621   1.426   6.668   0.564
 5908SOL     OW18622   5.437   3.879   0.511
 5908SOL    HW118623   5.445   3.787   0.549
 5908SOL    HW218624   5.347   3.890   0.468
 5909SOL     OW18625   0.795   4.351   6.220
 5909SOL    HW118626   0.808   4.448   6.241
 5909SOL    HW218627   0.880   4.314   6.182
 5910SOL     OW18628   1.604   4.417   0.459
 5910SOL    HW118629   1.676   4.421   0.390
 5910SOL    HW218630   1.548   4.336   0.445
 5911SOL     OW18631   0.654   5.744   6.254
 5911SOL    HW118632   0.608   5.734   6.166
 5911SOL    HW218633   0.706   5.830   6.254
 5912SOL     OW18634   6.299   3.375   6.819
 5912SOL    HW118635   6.224   3.438   6.802
 5912SOL    HW218636   6.264   3.290   6.858
 5913SOL     OW18637   2.054   3.048   5.701
 5913SOL    HW118638   2.123   3.111   5.738
 5913SOL    HW218639   2.082   3.018   5.609
 5914SOL     OW18640   2.693   5.852   0.162
 5914SOL    HW118641   2.617   5.842   0.098
 5914SOL    HW218642   2.757   5.920   0.126
 5915SOL     OW18643   5.455   3.326   2.106
 5915SOL    HW118644   5.406   3.406   2.142
 5915SOL    HW218645   5.419   3.302   2.016
 5916SOL     OW18646   4.080   0.269   5.824
 5916SOL    HW118647   4.114   0.188   5.775
 5916SOL    HW218648   4.006   0.311   5.772
 5917SOL     OW18649   3.639   3.341   3.672
 5917SOL    HW118650   3.722   3.292   3.646
 5917SOL    HW218651   3.558   3.289   3.643
 5918SOL     OW18652   2.046   3.629   4.659
 5918SOL    HW118653   1.998   3.648   4.744
 5918SOL    HW218654   2.115   3.700   4.642
 5919SOL     OW18655   3.212   1.669   6.900
 5919SOL    HW118656   3.228   1.650   6.997
 5919SOL    HW218657   3.120   1.638   6.875
 5920SOL     OW18658   3.454   0.181   0.045
 5920SOL    HW118659   3.363   0.221   0.056
 5920SOL    HW218660   3.477   0.128   0.127
 5921SOL     OW18661   3.588   4.888   5.241
 5921SOL    HW118662   3.542   4.812   5.289
 5921SOL    HW218663   3.674   4.909   5.287
 5922SOL     OW18664   6.380   5.135   3.535
 5922SOL    HW118665   6.373   5.199   3.459
 5922SOL    HW218666   6.424   5.050   3.505
 5923SOL     OW18667   6.461   1.530   2.625
 5923SOL    HW118668   6.437   1.562   2.534
 5923SOL    HW218669   6.389   1.469   2.660
 5924SOL     OW18670   5.729   2.636   5.015
 5924SOL    HW118671   5.643   2.687   5.023
 5924SOL    HW218672   5.711   2.539   5.026
 5925SOL     OW18673   4.445   6.663   2.710
 5925SOL    HW118674   4.541   6.642   2.728
 5925SOL    HW218675   4.391   6.650   2.793
 5926SOL     OW18676   3.290   4.968   1.705
 5926SOL    HW118677   3.194   4.996   1.710
 5926SOL    HW218678   3.300   4.877   1.745
 5927SOL     OW18679   2.077   4.477   2.408
 5927SOL    HW118680   2.163   4.461   2.361
 5927SOL    HW218681   2.045   4.391   2.449
 5928SOL     OW18682   2.667   0.239   2.649
 5928SOL    HW118683   2.721   0.156   2.661
 5928SOL    HW218684   2.720   0.306   2.597
 5929SOL     OW18685   0.829   6.224   6.091
 5929SOL    HW118686   0.872   6.208   6.003
 5929SOL    HW218687   0.751   6.285   6.080
 5930SOL     OW18688   5.617   1.473   3.853
 5930SOL    HW118689   5.598   1.409   3.779
 5930SOL    HW218690   5.650   1.560   3.814
 5931SOL     OW18691   5.562   5.005   2.815
 5931SOL    HW118692   5.491   5.019   2.883
 5931SOL    HW218693   5.639   5.066   2.834
 5932SOL     OW18694   2.105   6.508   0.949
 5932SOL    HW118695   2.026   6.449   0.931
 5932SOL    HW218696   2.174   6.493   0.878
 5933SOL     OW18697   6.679   4.955   2.070
 5933SOL    HW118698   6.686   4.951   1.970
 5933SOL    HW218699   6.626   4.877   2.103
 5934SOL     OW18700   3.317   3.804   3.941
 5934SOL    HW118701   3.266   3.744   4.003
 5934SOL    HW218702   3.322   3.762   3.850
 5935SOL     OW18703   3.742   3.509   4.748
 5935SOL    HW118704   3.670   3.551   4.692
 5935SOL    HW218705   3.827   3.506   4.695
 5936SOL     OW18706   4.218   3.480   6.426
 5936SOL    HW118707   4.174   3.518   6.507
 5936SOL    HW218708   4.301   3.431   6.454
 5937SOL     OW18709   0.374   4.118   1.775
 5937SOL    HW118710   0.428   4.141   1.856
 5937SOL    HW218711   0.347   4.202   1.728
 5938SOL     OW18712   1.277   4.929   3.954
 5938SOL    HW118713   1.262   4.848   4.011
 5938SOL    HW218714   1.230   5.007   3.994
 5939SOL     OW18715   3.302   0.275   3.244
 5939SOL    HW118716   3.246   0.322   3.176
 5939SOL    HW218717   3.275   0.304   3.336
 5940SOL     OW18718   4.478   6.624   2.364
 5940SOL    HW118719   4.469   6.718   2.398
 5940SOL    HW218720   4.574   6.598   2.363
 5941SOL     OW18721   6.195   4.625   2.030
 5941SOL    HW118722   6.222   4.611   2.125
 5941SOL    HW218723   6.207   4.540   1.979
 5942SOL     OW18724   4.493   3.054   6.420
 5942SOL    HW118725   4.431   3.079   6.345
 5942SOL    HW218726   4.587   3.079   6.395
 5943SOL     OW18727   2.888   6.046   0.077
 5943SOL    HW118728   2.986   6.041   0.093
 5943SOL    HW218729   2.871   6.081   7.008
 5944SOL     OW18730   6.142   1.630   1.662
 5944SOL    HW118731   6.139   1.723   1.698
 5944SOL    HW218732   6.166   1.566   1.736
 5945SOL     OW18733   0.073   4.881   5.638
 5945SOL    HW118734   0.148   4.892   5.574
 5945SOL    HW218735   7.009   4.884   5.589
 5946SOL     OW18736   3.589   3.895   5.550
 5946SOL    HW118737   3.609   3.843   5.467
 5946SOL    HW218738   3.526   3.843   5.607
 5947SOL     OW18739   3.872   2.974   2.308
 5947SOL    HW118740   3.789   2.937   2.350
 5947SOL    HW218741   3.950   2.955   2.367
 5948SOL     OW18742   3.726   5.392   3.164
 5948SOL    HW118743   3.718   5.344   3.077
 5948SOL    HW218744   3.655   5.359   3.227
 5949SOL     OW18745   4.008   3.824   1.262
 5949SOL    HW118746   4.070   3.780   1.326
 5949SOL    HW218747   3.919   3.778   1.264
 5950SOL     OW18748   5.347   3.233   5.630
 5950SOL    HW118749   5.339   3.324   5.671
 5950SOL    HW218750   5.435   3.224   5.585
 5951SOL     OW18751   0.682   6.171   4.939
 5951SOL    HW118752   0.672   6.224   5.023
 5951SOL    HW218753   0.614   6.098   4.937
 5952SOL     OW18754   5.741   6.636   4.144
 5952SOL    HW118755   5.839   6.655   4.144
 5952SOL    HW218756   5.701   6.663   4.233
 5953SOL     OW18757   0.044   2.609   5.582
 5953SOL    HW118758   0.064   2.686   5.642
 5953SOL    HW218759   0.129   2.575   5.542
 5954SOL     OW18760   7.013   4.474   5.795
 5954SOL    HW118761   7.004   4.417   5.876
 5954SOL    HW218762   7.015   4.416   5.713
 5955SOL     OW18763   6.296   6.190   2.108
 5955SOL    HW118764   6.250   6.263   2.160
 5955SOL    HW218765   6.356   6.231   2.040
 5956SOL     OW18766   3.342   1.851   0.817
 5956SOL    HW118767   3.313   1.760   0.785
 5956SOL    HW218768   3.321   1.918   0.746
 5957SOL     OW18769   4.833   6.816   5.738
 5957SOL    HW118770   4.827   6.721   5.709
 5957SOL    HW218771   4.757   6.869   5.700
 5958SOL     OW18772   5.684   6.317   2.652
 5958SOL    HW118773   5.707   6.321   2.554
 5958SOL    HW218774   5.601   6.262   2.664
 5959SOL     OW18775   3.546   1.728   5.413
 5959SOL    HW118776   3.564   1.769   5.502
 5959SOL    HW218777   3.604   1.772   5.344
 5960SOL     OW18778   3.664   0.032   4.098
 5960SOL    HW118779   3.656   6.988   4.025
 5960SOL    HW218780   3.590   0.099   4.090
 5961SOL     OW18781   4.317   1.401   3.561
 5961SOL    HW118782   4.330   1.367   3.654
 5961SOL    HW218783   4.264   1.485   3.563
 5962SOL     OW18784   5.324   5.694   1.937
 5962SOL    HW118785   5.419   5.683   1.908
 5962SOL    HW218786   5.284   5.604   1.954
 5963SOL     OW18787   3.815   3.207   4.175
 5963SOL    HW118788   3.782   3.274   4.109
 5963SOL    HW218789   3.851   3.255   4.255
 5964SOL     OW18790   0.066   4.935   6.255
 5964SOL    HW118791   0.086   4.935   6.353
 5964SOL    HW218792   0.081   4.844   6.217
 5965SOL     OW18793   1.971   1.882   5.950
 5965SOL    HW118794   2.021   1.966   5.971
 5965SOL    HW218795   2.035   1.807   5.939
 5966SOL     OW18796   2.729   5.273   5.527
 5966SOL    HW118797   2.662   5.336   5.565
 5966SOL    HW218798   2.695   5.239   5.438
 5967SOL     OW18799   4.221   6.056   2.195
 5967SOL    HW118800   4.219   6.016   2.104
 5967SOL    HW218801   4.149   6.124   2.203
 5968SOL     OW18802   5.986   1.747   3.105
 5968SOL    HW118803   5.966   1.799   3.188
 5968SOL    HW218804   6.008   1.652   3.130
 5969SOL     OW18805   6.382   1.821   5.272
 5969SOL    HW118806   6.297   1.790   5.314
 5969SOL    HW218807   6.366   1.908   5.225
 5970SOL     OW18808   0.209   4.990   2.701
 5970SOL    HW118809   0.148   4.958   2.774
 5970SOL    HW218810   0.267   4.915   2.670
 5971SOL     OW18811   2.185   0.154   3.174
 5971SOL    HW118812   2.255   0.223   3.155
 5971SOL    HW218813   2.213   0.097   3.251
 5972SOL     OW18814   4.387   6.260   0.563
 5972SOL    HW118815   4.339   6.172   0.564
 5972SOL    HW218816   4.396   6.294   0.657
 5973SOL     OW18817   1.961   5.376   2.902
 5973SOL    HW118818   1.900   5.324   2.843
 5973SOL    HW218819   2.049   5.328   2.910
 5974SOL     OW18820   5.577   3.967   6.220
 5974SOL    HW118821   5.595   4.052   6.171
 5974SOL    HW218822   5.482   3.967   6.253
 5975SOL     OW18823   3.957   2.078   0.840
 5975SOL    HW118824   4.045   2.093   0.796
 5975SOL    HW218825   3.884   2.120   0.787
 5976SOL     OW18826   2.814   3.663   5.218
 5976SOL    HW118827   2.749   3.739   5.211
 5976SOL    HW218828   2.764   3.577   5.230
 5977SOL     OW18829   1.501   4.801   1.897
 5977SOL    HW118830   1.473   4.735   1.828
 5977SOL    HW218831   1.519   4.890   1.854
 5978SOL     OW18832   5.772   5.166   2.910
 5978SOL    HW118833   5.721   5.198   2.989
 5978SOL    HW218834   5.856   5.120   2.940
 5979SOL     OW18835   6.942   0.666   3.053
 5979SOL    HW118836   6.922   0.632   3.145
 5979SOL    HW218837   6.857   0.673   3.001
 5980SOL     OW18838   3.722   4.142   6.698
 5980SOL    HW118839   3.718   4.058   6.646
 5980SOL    HW218840   3.636   4.154   6.749
 5981SOL     OW18841   6.817   1.908   1.986
 5981SOL    HW118842   6.866   1.822   2.002
 5981SOL    HW218843   6.774   1.938   2.072
 5982SOL     OW18844   6.140   1.946   6.721
 5982SOL    HW118845   6.196   1.924   6.642
 5982SOL    HW218846   6.053   1.897   6.716
 5983SOL     OW18847   2.665   1.624   4.274
 5983SOL    HW118848   2.655   1.570   4.357
 5983SOL    HW218849   2.701   1.567   4.200
 5984SOL     OW18850   0.151   0.149   4.532
 5984SOL    HW118851   0.212   0.173   4.456
 5984SOL    HW218852   0.159   0.219   4.603
 5985SOL     OW18853   5.192   2.741   4.585
 5985SOL    HW118854   5.131   2.805   4.539
 5985SOL    HW218855   5.222   2.780   4.672
 5986SOL     OW18856   3.548   2.916   4.456
 5986SOL    HW118857   3.507   2.886   4.369
 5986SOL    HW218858   3.512   2.860   4.531
 5987SOL     OW18859   4.180   1.121   5.188
 5987SOL    HW118860   4.241   1.148   5.113
 5987SOL    HW218861   4.214   1.160   5.274
 5988SOL     OW18862   4.049   6.192   4.721
 5988SOL    HW118863   3.955   6.171   4.695
 5988SOL    HW218864   4.050   6.233   4.812
 5989SOL     OW18865   2.208   6.148   6.648
 5989SOL    HW118866   2.258   6.211   6.708
 5989SOL    HW218867   2.228   6.170   6.553
 5990SOL     OW18868   3.682   4.073   0.851
 5990SOL    HW118869   3.745   4.104   0.780
 5990SOL    HW218870   3.732   4.023   0.921
 5991SOL     OW18871   4.428   4.815   5.049
 5991SOL    HW118872   4.365   4.893   5.054
 5991SOL    HW218873   4.413   4.766   4.964
 5992SOL     OW18874   3.487   0.524   3.739
 5992SOL    HW118875   3.540   0.447   3.773
 5992SOL    HW218876   3.532   0.610   3.764
 5993SOL     OW18877   3.367   6.844   5.855
 5993SOL    HW118878   3.322   6.843   5.945
 5993SOL    HW218879   3.446   6.904   5.857
 5994SOL     OW18880   5.973   2.253   1.850
 5994SOL    HW118881   6.034   2.195   1.904
 5994SOL    HW218882   6.020   2.340   1.829
 5995SOL     OW18883   6.762   5.593   1.491
 5995SOL    HW118884   6.674   5.627   1.524
 5995SOL    HW218885   6.747   5.513   1.433
 5996SOL     OW18886   0.819   5.711   6.613
 5996SOL    HW118887   0.726   5.748   6.625
 5996SOL    HW218888   0.883   5.765   6.668
 5997SOL     OW18889   0.758   6.630   2.689
 5997SOL    HW118890   0.702   6.713   2.684
 5997SOL    HW218891   0.767   6.592   2.597
 5998SOL     OW18892   5.198   2.541   2.530
 5998SOL    HW118893   5.245   2.559   2.444
 5998SOL    HW218894   5.108   2.585   2.529
 5999SOL     OW18895   0.901   2.468   2.757
 5999SOL    HW118896   0.994   2.497   2.778
 5999SOL    HW218897   0.890   2.371   2.781
 6000SOL     OW18898   4.172   5.701   2.050
 6000SOL    HW118899   4.091   5.662   2.093
 6000SOL    HW218900   4.233   5.737   2.121
 6001SOL     OW18901   0.801   4.004   6.373
 6001SOL    HW118902   0.745   4.045   6.301
 6001SOL    HW218903   0.753   3.926   6.412
 6002SOL     OW18904   0.605   6.631   1.354
 6002SOL    HW118905   0.572   6.719   1.387
 6002SOL    HW218906   0.704   6.634   1.343
 6003SOL     OW18907   6.238   2.712   4.719
 6003SOL    HW118908   6.316   2.657   4.750
 6003SOL    HW218909   6.169   2.652   4.678
 6004SOL     OW18910   0.386   4.156   3.301
 6004SOL    HW118911   0.379   4.057   3.286
 6004SOL    HW218912   0.378   4.175   3.398
 6005SOL     OW18913   4.373   4.963   4.434
 6005SOL    HW118914   4.395   4.963   4.532
 6005SOL    HW218915   4.300   4.897   4.417
 6006SOL     OW18916   3.510   6.705   6.935
 6006SOL    HW118917   3.560   6.689   7.020
 6006SOL    HW218918   3.542   6.641   6.865
 6007SOL     OW18919   4.858   2.921   3.776
 6007SOL    HW118920   4.933   2.975   3.815
 6007SOL    HW218921   4.848   2.945   3.679
 6008SOL     OW18922   2.517   5.534   5.889
 6008SOL    HW118923   2.506   5.435   5.902
 6008SOL    HW218924   2.585   5.568   5.954
 6009SOL     OW18925   2.914   1.506   4.712
 6009SOL    HW118926   2.968   1.583   4.679
 6009SOL    HW218927   2.968   1.422   4.705
 6010SOL     OW18928   2.345   4.520   2.272
 6010SOL    HW118929   2.335   4.615   2.301
 6010SOL    HW218930   2.418   4.513   2.203
 6011SOL     OW18931   5.152   2.517   2.083
 6011SOL    HW118932   5.196   2.595   2.126
 6011SOL    HW218933   5.059   2.542   2.055
 6012SOL     OW18934   6.804   2.172   0.325
 6012SOL    HW118935   6.737   2.236   0.364
 6012SOL    HW218936   6.843   2.116   0.397
 6013SOL     OW18937   5.874   1.406   2.823
 6013SOL    HW118938   5.868   1.310   2.794
 6013SOL    HW218939   5.784   1.448   2.818
 6014SOL     OW18940   4.505   1.254   0.597
 6014SOL    HW118941   4.532   1.310   0.676
 6014SOL    HW218942   4.584   1.244   0.536
 6015SOL     OW18943   6.220   2.471   6.116
 6015SOL    HW118944   6.268   2.408   6.055
 6015SOL    HW218945   6.202   2.557   6.067
 6016SOL     OW18946   0.792   1.148   6.290
 6016SOL    HW118947   0.822   1.109   6.377
 6016SOL    HW218948   0.715   1.095   6.255
 6017SOL     OW18949   6.380   5.367   2.849
 6017SOL    HW118950   6.309   5.437   2.843
 6017SOL    HW218951   6.369   5.301   2.775
 6018SOL     OW18952   3.668   2.726   0.247
 6018SOL    HW118953   3.607   2.699   0.322
 6018SOL    HW218954   3.640   2.814   0.210
 6019SOL     OW18955   4.952   2.043   3.830
 6019SOL    HW118956   4.973   2.020   3.735
 6019SOL    HW218957   5.011   1.992   3.892
 6020SOL     OW18958   2.173   6.521   1.741
 6020SOL    HW118959   2.101   6.539   1.674
 6020SOL    HW218960   2.204   6.607   1.781
 6021SOL     OW18961   4.637   6.875   2.909
 6021SOL    HW118962   4.700   6.863   2.833
 6021SOL    HW218963   4.665   6.816   2.985
 6022SOL     OW18964   4.433   0.750   4.726
 6022SOL    HW118965   4.357   0.707   4.677
 6022SOL    HW218966   4.405   0.839   4.761
 6023SOL     OW18967   6.311   1.472   2.845
 6023SOL    HW118968   6.262   1.425   2.918
 6023SOL    HW218969   6.261   1.555   2.820
 6024SOL     OW18970   0.403   4.564   2.919
 6024SOL    HW118971   0.500   4.564   2.896
 6024SOL    HW218972   0.390   4.603   3.011
 6025SOL     OW18973   4.339   0.261   2.356
 6025SOL    HW118974   4.305   0.288   2.266
 6025SOL    HW218975   4.336   0.162   2.365
 6026SOL     OW18976   0.278   4.127   4.278
 6026SOL    HW118977   0.335   4.209   4.269
 6026SOL    HW218978   0.222   4.116   4.197
 6027SOL     OW18979   2.071   3.866   5.610
 6027SOL    HW118980   2.057   3.961   5.636
 6027SOL    HW218981   2.015   3.845   5.530
 6028SOL     OW18982   0.923   3.936   0.401
 6028SOL    HW118983   1.011   3.895   0.426
 6028SOL    HW218984   0.939   4.018   0.345
 6029SOL     OW18985   2.174   6.589   6.826
 6029SOL    HW118986   2.124   6.671   6.797
 6029SOL    HW218987   2.117   6.508   6.808
 6030SOL     OW18988   2.680   0.318   3.337
 6030SOL    HW118989   2.698   0.226   3.372
 6030SOL    HW218990   2.766   0.366   3.321
 6031SOL     OW18991   4.354   5.489   4.644
 6031SOL    HW118992   4.340   5.448   4.554
 6031SOL    HW218993   4.449   5.476   4.673
 6032SOL     OW18994   1.566   3.530   2.235
 6032SOL    HW118995   1.646   3.511   2.177
 6032SOL    HW218996   1.566   3.467   2.313
 6033SOL     OW18997   2.047   2.499   2.856
 6033SOL    HW118998   2.109   2.429   2.821
 6033SOL    HW218999   1.954   2.481   2.822
 6034SOL     OW19000   1.899   5.299   4.454
 6034SOL    HW119001   1.946   5.250   4.528
 6034SOL    HW219002   1.966   5.351   4.401
 6035SOL     OW19003   6.287   1.565   3.965
 6035SOL    HW119004   6.324   1.580   4.057
 6035SOL    HW219005   6.288   1.651   3.914
 6036SOL     OW19006   0.187   6.882   4.529
 6036SOL    HW119007   0.186   6.969   4.480
 6036SOL    HW219008   0.246   6.890   4.610
 6037SOL     OW19009   4.828   5.220   6.270
 6037SOL    HW119010   4.872   5.267   6.346
 6037SOL    HW219011   4.897   5.170   6.218
 6038SOL     OW19012   0.836   3.161   5.971
 6038SOL    HW119013   0.870   3.251   5.943
 6038SOL    HW219014   0.912   3.097   5.979
 6039SOL     OW19015   3.461   3.362   3.194
 6039SOL    HW119016   3.474   3.441   3.133
 6039SOL    HW219017   3.549   3.315   3.206
 6040SOL     OW19018   0.481   1.961   6.111
 6040SOL    HW119019   0.432   2.028   6.167
 6040SOL    HW219020   0.577   1.988   6.103
 6041SOL     OW19021   1.789   1.669   6.069
 6041SOL    HW119022   1.805   1.764   6.044
 6041SOL    HW219023   1.823   1.652   6.161
 6042SOL     OW19024   5.890   5.131   1.852
 6042SOL    HW119025   5.829   5.059   1.883
 6042SOL    HW219026   5.913   5.191   1.929
 6043SOL     OW19027   1.148   4.881   4.911
 6043SOL    HW119028   1.120   4.859   4.818
 6043SOL    HW219029   1.139   4.799   4.968
 6044SOL     OW19030   0.261   2.131   1.186
 6044SOL    HW119031   0.256   2.165   1.092
 6044SOL    HW219032   0.352   2.092   1.202
 6045SOL     OW19033   5.310   5.661   1.332
 6045SOL    HW119034   5.281   5.624   1.244
 6045SOL    HW219035   5.236   5.649   1.399
 6046SOL     OW19036   3.024   1.896   0.755
 6046SOL    HW119037   3.064   1.945   0.833
 6046SOL    HW219038   2.930   1.870   0.777
 6047SOL     OW19039   6.217   1.503   3.354
 6047SOL    HW119040   6.252   1.480   3.444
 6047SOL    HW219041   6.242   1.431   3.289
 6048SOL     OW19042   4.437   6.921   3.364
 6048SOL    HW119043   4.367   6.849   3.366
 6048SOL    HW219044   4.467   6.941   3.458
 6049SOL     OW19045   5.274   3.632   6.591
 6049SOL    HW119046   5.298   3.666   6.500
 6049SOL    HW219047   5.247   3.708   6.649
 6050SOL     OW19048   3.722   4.451   6.025
 6050SOL    HW119049   3.661   4.448   5.945
 6050SOL    HW219050   3.801   4.392   6.008
 6051SOL     OW19051   2.277   1.954   3.291
 6051SOL    HW119052   2.362   1.999   3.318
 6051SOL    HW219053   2.251   1.983   3.199
 6052SOL     OW19054   6.622   6.948   0.750
 6052SOL    HW119055   6.676   6.866   0.767
 6052SOL    HW219056   6.608   6.959   0.652
 6053SOL     OW19057   3.703   0.376   6.492
 6053SOL    HW119058   3.617   0.426   6.495
 6053SOL    HW219059   3.740   0.368   6.584
 6054SOL     OW19060   2.508   3.476   0.762
 6054SOL    HW119061   2.435   3.481   0.830
 6054SOL    HW219062   2.474   3.508   0.673
 6055SOL     OW19063   5.303   0.814   6.024
 6055SOL    HW119064   5.374   0.883   6.007
 6055SOL    HW219065   5.344   0.734   6.068
 6056SOL     OW19066   4.800   2.047   4.907
 6056SOL    HW119067   4.723   1.988   4.930
 6056SOL    HW219068   4.851   2.007   4.830
 6057SOL     OW19069   4.459   2.052   4.420
 6057SOL    HW119070   4.540   2.059   4.361
 6057SOL    HW219071   4.428   1.957   4.423
 6058SOL     OW19072   5.472   3.042   2.789
 6058SOL    HW119073   5.401   3.001   2.732
 6058SOL    HW219074   5.556   2.989   2.780
 6059SOL     OW19075   4.870   5.443   5.862
 6059SOL    HW119076   4.789   5.423   5.807
 6059SOL    HW219077   4.946   5.386   5.830
 6060SOL     OW19078   3.253   3.667   5.404
 6060SOL    HW119079   3.327   3.647   5.468
 6060SOL    HW219080   3.229   3.584   5.353
 6061SOL     OW19081   3.741   2.834   0.526
 6061SOL    HW119082   3.814   2.773   0.556
 6061SOL    HW219083   3.653   2.788   0.535
 6062SOL     OW19084   2.494   1.663   4.690
 6062SOL    HW119085   2.481   1.567   4.665
 6062SOL    HW219086   2.589   1.678   4.715
 6063SOL     OW19087   4.170   1.355   6.617
 6063SOL    HW119088   4.262   1.374   6.654
 6063SOL    HW219089   4.104   1.355   6.692
 6064SOL     OW19090   2.446   5.461   2.886
 6064SOL    HW119091   2.354   5.485   2.853
 6064SOL    HW219092   2.438   5.388   2.955
 6065SOL     OW19093   6.081   6.635   1.235
 6065SOL    HW119094   5.986   6.657   1.212
 6065SOL    HW219095   6.090   6.536   1.248
 6066SOL     OW19096   4.468   1.435   1.123
 6066SOL    HW119097   4.476   1.523   1.169
 6066SOL    HW219098   4.516   1.365   1.176
 6067SOL     OW19099   6.530   1.835   6.920
 6067SOL    HW119100   6.531   1.925   6.877
 6067SOL    HW219101   6.609   1.826   6.980
 6068SOL     OW19102   5.815   3.732   4.952
 6068SOL    HW119103   5.820   3.795   4.875
 6068SOL    HW219104   5.853   3.644   4.926
 6069SOL     OW19105   6.755   3.827   6.292
 6069SOL    HW119106   6.775   3.754   6.358
 6069SOL    HW219107   6.727   3.786   6.205
 6070SOL     OW19108   2.976   1.720   6.073
 6070SOL    HW119109   3.066   1.735   6.032
 6070SOL    HW219110   2.908   1.708   6.000
 6071SOL     OW19111   4.682   6.299   5.612
 6071SOL    HW119112   4.668   6.204   5.640
 6071SOL    HW219113   4.720   6.351   5.688
 6072SOL     OW19114   0.715   1.325   2.264
 6072SOL    HW119115   0.793   1.295   2.209
 6072SOL    HW219116   0.665   1.244   2.296
 6073SOL     OW19117   6.458   3.540   0.597
 6073SOL    HW119118   6.375   3.572   0.552
 6073SOL    HW219119   6.518   3.497   0.529
 6074SOL     OW19120   1.479   6.697   4.500
 6074SOL    HW119121   1.432   6.620   4.456
 6074SOL    HW219122   1.496   6.675   4.596
 6075SOL     OW19123   6.663   2.517   6.524
 6075SOL    HW119124   6.654   2.528   6.623
 6075SOL    HW219125   6.621   2.595   6.478
 6076SOL     OW19126   2.044   6.884   5.074
 6076SOL    HW119127   2.019   6.836   5.157
 6076SOL    HW219128   2.039   6.983   5.089
 6077SOL     OW19129   4.808   5.522   2.694
 6077SOL    HW119130   4.871   5.543   2.619
 6077SOL    HW219131   4.817   5.425   2.719
 6078SOL     OW19132   3.451   4.871   2.375
 6078SOL    HW119133   3.544   4.858   2.408
 6078SOL    HW219134   3.452   4.877   2.275
 6079SOL     OW19135   3.335   3.470   6.404
 6079SOL    HW119136   3.239   3.489   6.382
 6079SOL    HW219137   3.377   3.552   6.442
 6080SOL     OW19138   0.126   1.755   1.187
 6080SOL    HW119139   0.179   1.840   1.175
 6080SOL    HW219140   0.032   1.770   1.157
 6081SOL     OW19141   6.496   3.667   4.765
 6081SOL    HW119142   6.565   3.706   4.703
 6081SOL    HW219143   6.495   3.568   4.756
 6082SOL     OW19144   3.619   1.025   3.523
 6082SOL    HW119145   3.708   0.982   3.540
 6082SOL    HW219146   3.625   1.123   3.540
 6083SOL     OW19147   0.924   5.592   6.391
 6083SOL    HW119148   0.882   5.628   6.308
 6083SOL    HW219149   0.875   5.628   6.471
 6084SOL     OW19150   7.017   5.778   4.023
 6084SOL    HW119151   6.917   5.780   4.026
 6084SOL    HW219152   0.027   5.860   3.978
 6085SOL     OW19153   6.884   3.983   0.533
 6085SOL    HW119154   6.860   3.886   0.532
 6085SOL    HW219155   6.902   4.015   0.440
 6086SOL     OW19156   3.778   1.531   4.808
 6086SOL    HW119157   3.724   1.561   4.729
 6086SOL    HW219158   3.875   1.528   4.782
 6087SOL     OW19159   4.917   6.858   6.928
 6087SOL    HW119160   4.922   6.944   6.980
 6087SOL    HW219161   4.841   6.863   6.864
 6088SOL     OW19162   0.052   6.175   4.289
 6088SOL    HW119163   0.128   6.202   4.230
 6088SOL    HW219164   0.057   6.224   4.375
 6089SOL     OW19165   0.246   3.950   1.596
 6089SOL    HW119166   0.262   3.998   1.682
 6089SOL    HW219167   0.214   4.015   1.527
 6090SOL     OW19168   0.530   6.001   6.464
 6090SOL    HW119169   0.501   5.929   6.528
 6090SOL    HW219170   0.630   6.009   6.466
 6091SOL     OW19171   0.991   1.588   2.624
 6091SOL    HW119172   0.898   1.600   2.660
 6091SOL    HW219173   0.990   1.522   2.549
 6092SOL     OW19174   2.871   0.474   3.203
 6092SOL    HW119175   2.880   0.401   3.135
 6092SOL    HW219176   2.962   0.504   3.232
 6093SOL     OW19177   1.523   2.628   2.312
 6093SOL    HW119178   1.612   2.672   2.316
 6093SOL    HW219179   1.482   2.625   2.403
 6094SOL     OW19180   2.409   1.343   1.479
 6094SOL    HW119181   2.456   1.431   1.484
 6094SOL    HW219182   2.433   1.297   1.394
 6095SOL     OW19183   4.726   3.221   6.620
 6095SOL    HW119184   4.706   3.130   6.584
 6095SOL    HW219185   4.791   3.267   6.559
 6096SOL     OW19186   5.702   0.647   3.951
 6096SOL    HW119187   5.780   0.707   3.935
 6096SOL    HW219188   5.619   0.702   3.956
 6097SOL     OW19189   2.044   0.394   3.037
 6097SOL    HW119190   2.007   0.310   2.997
 6097SOL    HW219191   2.012   0.403   3.132
 6098SOL     OW19192   1.742   2.286   5.603
 6098SOL    HW119193   1.785   2.249   5.686
 6098SOL    HW219194   1.731   2.212   5.536
 6099SOL     OW19195   5.589   5.819   5.798
 6099SOL    HW119196   5.658   5.885   5.770
 6099SOL    HW219197   5.507   5.829   5.742
 6100SOL     OW19198   6.107   3.064   6.579
 6100SOL    HW119199   6.018   3.102   6.604
 6100SOL    HW219200   6.130   2.990   6.642
 6101SOL     OW19201   6.794   1.686   5.611
 6101SOL    HW119202   6.837   1.627   5.542
 6101SOL    HW219203   6.724   1.743   5.567
 6102SOL     OW19204   3.461   0.985   4.689
 6102SOL    HW119205   3.519   0.990   4.769
 6102SOL    HW219206   3.447   1.076   4.651
 6103SOL     OW19207   0.054   0.800   3.839
 6103SOL    HW119208   6.992   0.779   3.790
 6103SOL    HW219209   0.074   0.727   3.904
 6104SOL     OW19210   6.551   2.312   6.700
 6104SOL    HW119211   6.607   2.289   6.620
 6104SOL    HW219212   6.455   2.292   6.680
 6105SOL     OW19213   3.332   6.470   5.402
 6105SOL    HW119214   3.430   6.485   5.416
 6105SOL    HW219215   3.294   6.545   5.348
 6106SOL     OW19216   2.250   4.841   6.078
 6106SOL    HW119217   2.160   4.876   6.106
 6106SOL    HW219218   2.272   4.875   5.987
 6107SOL     OW19219   2.305   5.298   4.362
 6107SOL    HW119220   2.228   5.358   4.340
 6107SOL    HW219221   2.347   5.265   4.277
 6108SOL     OW19222   0.551   2.078   2.964
 6108SOL    HW119223   0.517   2.157   3.015
 6108SOL    HW219224   0.518   1.994   3.006
 6109SOL     OW19225   5.050   2.564   6.661
 6109SOL    HW119226   5.035   2.662   6.668
 6109SOL    HW219227   5.088   2.543   6.570
 6110SOL     OW19228   2.686   2.689   6.741
 6110SOL    HW119229   2.596   2.730   6.725
 6110SOL    HW219230   2.675   2.603   6.790
 6111SOL     OW19231   1.372   5.009   2.489
 6111SOL    HW119232   1.307   4.974   2.556
 6111SOL    HW219233   1.395   4.937   2.423
 6112SOL     OW19234   1.969   2.187   2.975
 6112SOL    HW119235   1.944   2.176   2.879
 6112SOL    HW219236   1.911   2.258   3.016
 6113SOL     OW19237   0.590   1.028   6.196
 6113SOL    HW119238   0.599   0.944   6.251
 6113SOL    HW219239   0.524   1.013   6.123
 6114SOL     OW19240   5.011   5.130   0.853
 6114SOL    HW119241   4.938   5.196   0.872
 6114SOL    HW219242   5.060   5.109   0.938
 6115SOL     OW19243   5.062   5.493   3.408
 6115SOL    HW119244   5.089   5.416   3.466
 6115SOL    HW219245   5.099   5.578   3.446
 6116SOL     OW19246   3.036   0.915   1.682
 6116SOL    HW119247   3.034   0.994   1.744
 6116SOL    HW219248   2.956   0.917   1.622
 6117SOL     OW19249   6.817   0.273   5.178
 6117SOL    HW119250   6.864   0.265   5.089
 6117SOL    HW219251   6.873   0.230   5.249
 6118SOL     OW19252   0.308   2.455   1.671
 6118SOL    HW119253   0.396   2.484   1.711
 6118SOL    HW219254   0.234   2.481   1.732
 6119SOL     OW19255   0.149   4.614   4.101
 6119SOL    HW119256   0.185   4.591   4.191
 6119SOL    HW219257   0.088   4.541   4.069
 6120SOL     OW19258   3.089   0.070   3.698
 6120SOL    HW119259   3.003   0.076   3.749
 6120SOL    HW219260   3.129   0.161   3.688
 6121SOL     OW19261   6.801   2.714   4.917
 6121SOL    HW119262   6.875   2.772   4.884
 6121SOL    HW219263   6.714   2.762   4.909
 6122SOL     OW19264   3.903   6.576   2.635
 6122SOL    HW119265   3.900   6.530   2.723
 6122SOL    HW219266   3.996   6.575   2.600
 6123SOL     OW19267   0.205   0.954   1.489
 6123SOL    HW119268   0.284   1.015   1.486
 6123SOL    HW219269   0.121   1.008   1.501
 6124SOL     OW19270   3.174   6.551   4.958
 6124SOL    HW119271   3.118   6.482   4.913
 6124SOL    HW219272   3.209   6.616   4.891
 6125SOL     OW19273   2.370   5.641   1.292
 6125SOL    HW119274   2.372   5.739   1.277
 6125SOL    HW219275   2.463   5.607   1.308
 6126SOL     OW19276   5.103   5.901   4.308
 6126SOL    HW119277   5.171   5.884   4.237
 6126SOL    HW219278   5.013   5.911   4.265
 6127SOL     OW19279   2.165   6.879   1.259
 6127SOL    HW119280   2.096   6.881   1.331
 6127SOL    HW219281   2.254   6.854   1.299
 6128SOL     OW19282   6.930   2.988   0.551
 6128SOL    HW119283   6.911   3.054   0.478
 6128SOL    HW219284   6.845   2.940   0.575
 6129SOL     OW19285   6.635   3.741   2.816
 6129SOL    HW119286   6.610   3.794   2.735
 6129SOL    HW219287   6.733   3.719   2.812
 6130SOL     OW19288   6.615   3.276   4.645
 6130SOL    HW119289   6.539   3.320   4.694
 6130SOL    HW219290   6.697   3.332   4.654
 6131SOL     OW19291   0.218   1.702   5.575
 6131SOL    HW119292   0.310   1.733   5.551
 6131SOL    HW219293   0.201   1.614   5.531
 6132SOL     OW19294   3.296   0.763   1.224
 6132SOL    HW119295   3.374   0.820   1.251
 6132SOL    HW219296   3.251   0.728   1.306
 6133SOL     OW19297   0.742   2.988   2.939
 6133SOL    HW119298   0.713   3.006   3.033
 6133SOL    HW219299   0.661   2.980   2.880
 6134SOL     OW19300   3.858   3.173   6.212
 6134SOL    HW119301   3.794   3.236   6.258
 6134SOL    HW219302   3.947   3.218   6.202
 6135SOL     OW19303   6.263   0.101   2.072
 6135SOL    HW119304   6.323   0.045   2.015
 6135SOL    HW219305   6.276   0.197   2.049
 6136SOL     OW19306   0.579   1.087   2.559
 6136SOL    HW119307   0.485   1.055   2.556
 6136SOL    HW219308   0.588   1.159   2.628
 6137SOL     OW19309   3.662   1.331   6.182
 6137SOL    HW119310   3.720   1.400   6.225
 6137SOL    HW219311   3.716   1.280   6.115
 6138SOL     OW19312   3.697   6.774   2.613
 6138SOL    HW119313   3.775   6.712   2.614
 6138SOL    HW219314   3.619   6.730   2.657
 6139SOL     OW19315   2.032   3.203   5.101
 6139SOL    HW119316   2.019   3.294   5.060
 6139SOL    HW219317   2.071   3.141   5.034
 6140SOL     OW19318   0.564   6.797   2.043
 6140SOL    HW119319   0.504   6.731   1.998
 6140SOL    HW219320   0.511   6.851   2.108
 6141SOL     OW19321   6.350   6.378   4.386
 6141SOL    HW119322   6.275   6.362   4.450
 6141SOL    HW219323   6.415   6.443   4.426
 6142SOL     OW19324   0.402   5.347   0.591
 6142SOL    HW119325   0.366   5.381   0.678
 6142SOL    HW219326   0.429   5.425   0.534
 6143SOL     OW19327   5.705   4.657   6.667
 6143SOL    HW119328   5.786   4.617   6.624
 6143SOL    HW219329   5.659   4.718   6.603
 6144SOL     OW19330   6.887   4.609   2.683
 6144SOL    HW119331   6.950   4.626   2.759
 6144SOL    HW219332   6.879   4.693   2.628
 6145SOL     OW19333   4.838   5.823   3.586
 6145SOL    HW119334   4.857   5.737   3.634
 6145SOL    HW219335   4.740   5.841   3.589
 6146SOL     OW19336   4.515   0.970   3.513
 6146SOL    HW119337   4.455   1.007   3.441
 6146SOL    HW219338   4.606   0.954   3.475
 6147SOL     OW19339   1.470   4.712   2.943
 6147SOL    HW119340   1.481   4.615   2.964
 6147SOL    HW219341   1.454   4.723   2.845
 6148SOL     OW19342   0.073   6.492   4.095
 6148SOL    HW119343   0.055   6.590   4.102
 6148SOL    HW219344   7.011   6.441   4.113
 6149SOL     OW19345   3.327   4.902   3.428
 6149SOL    HW119346   3.238   4.873   3.394
 6149SOL    HW219347   3.371   4.962   3.361
 6150SOL     OW19348   4.365   5.037   0.053
 6150SOL    HW119349   4.379   4.943   0.021
 6150SOL    HW219350   4.454   5.082   0.062
 6151SOL     OW19351   5.968   3.574   4.783
 6151SOL    HW119352   5.984   3.477   4.796
 6151SOL    HW219353   6.055   3.621   4.768
 6152SOL     OW19354   5.145   4.690   5.867
 6152SOL    HW119355   5.150   4.715   5.770
 6152SOL    HW219356   5.103   4.765   5.918
 6153SOL     OW19357   4.654   4.062   1.564
 6153SOL    HW119358   4.742   4.016   1.558
 6153SOL    HW219359   4.582   3.994   1.578
 6154SOL     OW19360   5.350   1.269   2.096
 6154SOL    HW119361   5.266   1.295   2.049
 6154SOL    HW219362   5.381   1.346   2.153
 6155SOL     OW19363   1.435   2.848   4.340
 6155SOL    HW119364   1.525   2.805   4.336
 6155SOL    HW219365   1.376   2.811   4.269
 6156SOL     OW19366   4.570   5.513   2.546
 6156SOL    HW119367   4.651   5.499   2.602
 6156SOL    HW219368   4.511   5.582   2.588
 6157SOL     OW19369   1.254   2.339   3.597
 6157SOL    HW119370   1.351   2.316   3.601
 6157SOL    HW219371   1.217   2.313   3.509
 6158SOL     OW19372   4.827   0.873   6.609
 6158SOL    HW119373   4.835   0.827   6.520
 6158SOL    HW219374   4.760   0.947   6.602
 6159SOL     OW19375   5.126   1.618   6.913
 6159SOL    HW119376   5.153   1.689   6.978
 6159SOL    HW219377   5.028   1.625   6.894
 6160SOL     OW19378   5.483   5.731   0.355
 6160SOL    HW119379   5.445   5.707   0.445
 6160SOL    HW219380   5.476   5.829   0.341
 6161SOL     OW19381   6.056   1.751   5.874
 6161SOL    HW119382   6.086   1.845   5.861
 6161SOL    HW219383   5.983   1.748   5.942
 6162SOL     OW19384   0.913   5.104   4.589
 6162SOL    HW119385   0.873   5.134   4.676
 6162SOL    HW219386   0.848   5.121   4.515
 6163SOL     OW19387   5.628   5.455   0.970
 6163SOL    HW119388   5.539   5.409   0.969
 6163SOL    HW219389   5.616   5.550   0.942
 6164SOL     OW19390   1.956   2.830   1.755
 6164SOL    HW119391   1.934   2.919   1.795
 6164SOL    HW219392   1.891   2.761   1.787
 6165SOL     OW19393   4.109   5.918   0.315
 6165SOL    HW119394   4.107   5.818   0.318
 6165SOL    HW219395   4.093   5.949   0.221
 6166SOL     OW19396   3.296   1.203   5.658
 6166SOL    HW119397   3.230   1.212   5.733
 6166SOL    HW219398   3.257   1.146   5.586
 6167SOL     OW19399   0.960   4.821   2.439
 6167SOL    HW119400   1.008   4.892   2.490
 6167SOL    HW219401   0.864   4.819   2.466
 6168SOL     OW19402   0.672   3.745   1.104
 6168SOL    HW119403   0.604   3.697   1.160
 6168SOL    HW219404   0.748   3.774   1.162
 6169SOL     OW19405   1.916   3.072   1.885
 6169SOL    HW119406   1.899   3.162   1.844
 6169SOL    HW219407   1.988   3.080   1.954
 6170SOL     OW19408   0.363   3.233   5.356
 6170SOL    HW119409   0.363   3.138   5.386
 6170SOL    HW219410   0.275   3.275   5.378
 6171SOL     OW19411   0.325   1.500   0.544
 6171SOL    HW119412   0.286   1.443   0.472
 6171SOL    HW219413   0.254   1.523   0.610
 6172SOL     OW19414   0.731   2.480   3.106
 6172SOL    HW119415   0.706   2.577   3.104
 6172SOL    HW219416   0.830   2.471   3.092
 6173SOL     OW19417   6.665   5.627   3.000
 6173SOL    HW119418   6.752   5.646   2.955
 6173SOL    HW219419   6.670   5.538   3.046
 6174SOL     OW19420   4.996   5.066   3.352
 6174SOL    HW119421   4.967   5.106   3.439
 6174SOL    HW219422   5.050   5.133   3.301
 6175SOL     OW19423   3.340   0.728   4.760
 6175SOL    HW119424   3.271   0.744   4.689
 6175SOL    HW219425   3.399   0.808   4.768
 6176SOL     OW19426   4.510   3.674   5.295
 6176SOL    HW119427   4.583   3.664   5.227
 6176SOL    HW219428   4.424   3.638   5.257
 6177SOL     OW19429   5.772   1.910   1.242
 6177SOL    HW119430   5.855   1.857   1.221
 6177SOL    HW219431   5.751   1.900   1.340
 6178SOL     OW19432   4.801   3.710   1.803
 6178SOL    HW119433   4.894   3.747   1.806
 6178SOL    HW219434   4.803   3.612   1.823
 6179SOL     OW19435   6.720   4.788   1.543
 6179SOL    HW119436   6.695   4.881   1.516
 6179SOL    HW219437   6.788   4.752   1.478
 6180SOL     OW19438   3.068   4.869   0.911
 6180SOL    HW119439   3.091   4.826   0.998
 6180SOL    HW219440   3.114   4.820   0.836
 6181SOL     OW19441   5.171   5.790   6.155
 6181SOL    HW119442   5.232   5.765   6.230
 6181SOL    HW219443   5.100   5.719   6.144
 6182SOL     OW19444   3.935   3.060   0.085
 6182SOL    HW119445   3.963   3.095   0.175
 6182SOL    HW219446   4.016   3.052   0.026
 6183SOL     OW19447   1.722   2.242   1.152
 6183SOL    HW119448   1.672   2.264   1.068
 6183SOL    HW219449   1.817   2.273   1.143
 6184SOL     OW19450   3.191   0.657   5.993
 6184SOL    HW119451   3.270   0.627   6.045
 6184SOL    HW219452   3.126   0.581   5.984
 6185SOL     OW19453   2.832   3.395   5.938
 6185SOL    HW119454   2.761   3.357   5.879
 6185SOL    HW219455   2.829   3.495   5.935
 6186SOL     OW19456   0.205   2.098   1.803
 6186SOL    HW119457   0.171   2.124   1.893
 6186SOL    HW219458   0.304   2.115   1.799
 6187SOL     OW19459   4.717   2.420   4.958
 6187SOL    HW119460   4.629   2.396   4.918
 6187SOL    HW219461   4.741   2.354   5.028
 6188SOL     OW19462   1.629   1.762   5.323
 6188SOL    HW119463   1.693   1.833   5.295
 6188SOL    HW219464   1.544   1.772   5.271
 6189SOL     OW19465   4.158   5.375   2.255
 6189SOL    HW119466   4.163   5.454   2.316
 6189SOL    HW219467   4.183   5.292   2.305
 6190SOL     OW19468   6.433   3.403   5.977
 6190SOL    HW119469   6.366   3.337   5.946
 6190SOL    HW219470   6.510   3.355   6.019
 6191SOL     OW19471   2.187   2.938   5.496
 6191SOL    HW119472   2.222   2.958   5.404
 6191SOL    HW219473   2.240   2.863   5.536
 6192SOL     OW19474   2.165   1.344   6.490
 6192SOL    HW119475   2.219   1.428   6.490
 6192SOL    HW219476   2.083   1.357   6.545
 6193SOL     OW19477   5.082   5.330   0.416
 6193SOL    HW119478   5.120   5.407   0.365
 6193SOL    HW219479   4.994   5.356   0.455
 6194SOL     OW19480   6.816   0.892   6.991
 6194SOL    HW119481   6.811   0.943   6.905
 6194SOL    HW219482   6.749   0.927   0.032
 6195SOL     OW19483   5.348   0.061   4.663
 6195SOL    HW119484   5.318   7.006   4.608
 6195SOL    HW219485   5.441   0.086   4.636
 6196SOL     OW19486   5.485   4.850   2.623
 6196SOL    HW119487   5.529   4.900   2.697
 6196SOL    HW219488   5.386   4.858   2.630
 6197SOL     OW19489   2.522   5.295   2.641
 6197SOL    HW119490   2.463   5.263   2.715
 6197SOL    HW219491   2.588   5.361   2.677
 6198SOL     OW19492   5.823   6.105   6.555
 6198SOL    HW119493   5.733   6.139   6.528
 6198SOL    HW219494   5.878   6.180   6.591
 6199SOL     OW19495   0.837   0.564   0.956
 6199SOL    HW119496   0.776   0.577   0.878
 6199SOL    HW219497   0.932   0.564   0.924
 6200SOL     OW19498   1.346   1.194   2.544
 6200SOL    HW119499   1.440   1.213   2.574
 6200SOL    HW219500   1.342   1.196   2.444
 6201SOL     OW19501   0.153   4.858   3.996
 6201SOL    HW119502   0.227   4.856   3.929
 6201SOL    HW219503   0.152   4.772   4.047
 6202SOL     OW19504   6.276   1.716   3.090
 6202SOL    HW119505   6.319   1.763   3.014
 6202SOL    HW219506   6.180   1.745   3.097
 6203SOL     OW19507   6.389   5.477   1.804
 6203SOL    HW119508   6.295   5.479   1.837
 6203SOL    HW219509   6.389   5.480   1.704
 6204SOL     OW19510   1.107   6.134   4.855
 6204SOL    HW119511   1.061   6.180   4.779
 6204SOL    HW219512   1.193   6.094   4.823
 6205SOL     OW19513   4.707   4.996   1.968
 6205SOL    HW119514   4.806   4.986   1.978
 6205SOL    HW219515   4.664   4.906   1.973
 6206SOL     OW19516   4.548   1.969   3.817
 6206SOL    HW119517   4.473   1.903   3.818
 6206SOL    HW219518   4.574   1.989   3.722
 6207SOL     OW19519   1.723   6.007   4.434
 6207SOL    HW119520   1.765   5.949   4.365
 6207SOL    HW219521   1.742   6.103   4.414
 6208SOL     OW19522   3.629   2.438   6.231
 6208SOL    HW119523   3.596   2.400   6.317
 6208SOL    HW219524   3.718   2.481   6.245
 6209SOL     OW19525   3.434   4.187   0.890
 6209SOL    HW119526   3.396   4.181   0.982
 6209SOL    HW219527   3.522   4.139   0.887
 6210SOL     OW19528   4.911   3.527   3.062
 6210SOL    HW119529   4.815   3.507   3.078
 6210SOL    HW219530   4.931   3.524   2.964
 6211SOL     OW19531   4.548   5.512   5.114
 6211SOL    HW119532   4.449   5.525   5.111
 6211SOL    HW219533   4.590   5.559   5.036
 6212SOL     OW19534   2.380   4.993   5.143
 6212SOL    HW119535   2.366   4.907   5.094
 6212SOL    HW219536   2.291   5.033   5.166
 6213SOL     OW19537   4.753   6.526   0.463
 6213SOL    HW119538   4.823   6.541   0.392
 6213SOL    HW219539   4.798   6.510   0.551
 6214SOL     OW19540   5.677   5.541   5.064
 6214SOL    HW119541   5.704   5.446   5.051
 6214SOL    HW219542   5.614   5.547   5.142
 6215SOL     OW19543   5.056   3.188   6.176
 6215SOL    HW119544   4.964   3.150   6.166
 6215SOL    HW219545   5.065   3.270   6.118
 6216SOL     OW19546   5.494   2.793   3.131
 6216SOL    HW119547   5.471   2.799   3.228
 6216SOL    HW219548   5.469   2.879   3.086
 6217SOL     OW19549   0.690   4.573   2.466
 6217SOL    HW119550   0.646   4.552   2.553
 6217SOL    HW219551   0.620   4.587   2.396
 6218SOL     OW19552   4.719   5.771   6.991
 6218SOL    HW119553   4.675   5.686   7.020
 6218SOL    HW219554   4.713   5.838   0.041
 6219SOL     OW19555   1.219   0.844   5.259
 6219SOL    HW119556   1.155   0.887   5.195
 6219SOL    HW219557   1.167   0.793   5.327
 6220SOL     OW19558   3.630   0.564   0.319
 6220SOL    HW119559   3.685   0.486   0.289
 6220SOL    HW219560   3.689   0.645   0.326
 6221SOL     OW19561   6.437   6.211   6.226
 6221SOL    HW119562   6.432   6.115   6.198
 6221SOL    HW219563   6.525   6.229   6.269
 6222SOL     OW19564   5.799   1.562   2.147
 6222SOL    HW119565   5.746   1.496   2.094
 6222SOL    HW219566   5.860   1.513   2.210
 6223SOL     OW19567   0.775   5.495   3.889
 6223SOL    HW119568   0.706   5.563   3.914
 6223SOL    HW219569   0.794   5.436   3.968
 6224SOL     OW19570   4.429   0.925   6.089
 6224SOL    HW119571   4.451   0.894   6.181
 6224SOL    HW219572   4.331   0.948   6.084
 6225SOL     OW19573   4.236   0.847   6.588
 6225SOL    HW119574   4.174   0.781   6.548
 6225SOL    HW219575   4.186   0.931   6.611
 6226SOL     OW19576   1.493   1.556   4.313
 6226SOL    HW119577   1.490   1.456   4.311
 6226SOL    HW219578   1.562   1.586   4.378
 6227SOL     OW19579   3.106   4.604   5.312
 6227SOL    HW119580   3.016   4.590   5.270
 6227SOL    HW219581   3.097   4.607   5.411
 6228SOL     OW19582   2.111   2.568   3.373
 6228SOL    HW119583   2.156   2.487   3.411
 6228SOL    HW219584   2.053   2.610   3.443
 6229SOL     OW19585   6.988   3.209   4.779
 6229SOL    HW119586   0.062   3.228   4.785
 6229SOL    HW219587   6.936   3.289   4.808
 6230SOL     OW19588   0.345   1.549   2.820
 6230SOL    HW119589   0.408   1.564   2.744
 6230SOL    HW219590   0.281   1.475   2.797
 6231SOL     OW19591   5.186   4.293   0.495
 6231SOL    HW119592   5.240   4.283   0.578
 6231SOL    HW219593   5.247   4.299   0.416
 6232SOL     OW19594   5.833   0.561   0.623
 6232SOL    HW119595   5.765   0.543   0.551
 6232SOL    HW219596   5.921   0.580   0.581
 6233SOL     OW19597   0.499   3.697   1.960
 6233SOL    HW119598   0.537   3.614   2.001
 6233SOL    HW219599   0.418   3.674   1.907
 6234SOL     OW19600   0.322   6.670   4.185
 6234SOL    HW119601   0.408   6.621   4.198
 6234SOL    HW219602   0.247   6.604   4.177
 6235SOL     OW19603   6.911   0.639   2.470
 6235SOL    HW119604   6.885   0.580   2.394
 6235SOL    HW219605   7.006   0.670   2.458
 6236SOL     OW19606   0.835   4.300   0.631
 6236SOL    HW119607   0.807   4.205   0.619
 6236SOL    HW219608   0.821   4.350   0.545
 6237SOL     OW19609   3.660   6.827   0.753
 6237SOL    HW119610   3.626   6.757   0.815
 6237SOL    HW219611   3.584   6.883   0.721
 6238SOL     OW19612   3.382   6.568   3.602
 6238SOL    HW119613   3.404   6.666   3.603
 6238SOL    HW219614   3.287   6.555   3.572
 6239SOL     OW19615   4.170   6.956   2.648
 6239SOL    HW119616   4.252   6.963   2.592
 6239SOL    HW219617   4.163   0.012   2.708
 6240SOL     OW19618   3.076   3.248   4.535
 6240SOL    HW119619   3.007   3.293   4.477
 6240SOL    HW219620   3.086   3.153   4.508
 6241SOL     OW19621   3.677   0.066   3.716
 6241SOL    HW119622   3.578   0.079   3.708
 6241SOL    HW219623   3.722   0.155   3.721
 6242SOL     OW19624   2.655   2.182   2.670
 6242SOL    HW119625   2.686   2.219   2.583
 6242SOL    HW219626   2.696   2.233   2.745
 6243SOL     OW19627   6.065   0.703   6.190
 6243SOL    HW119628   6.007   0.642   6.244
 6243SOL    HW219629   6.085   0.661   6.102
 6244SOL     OW19630   4.574   4.750   2.882
 6244SOL    HW119631   4.616   4.697   2.808
 6244SOL    HW219632   4.609   4.844   2.880
 6245SOL     OW19633   0.995   4.525   2.665
 6245SOL    HW119634   0.976   4.619   2.637
 6245SOL    HW219635   1.091   4.504   2.648
 6246SOL     OW19636   1.257   6.906   4.540
 6246SOL    HW119637   1.192   6.854   4.484
 6246SOL    HW219638   1.350   6.880   4.515
 6247SOL     OW19639   0.077   5.542   3.740
 6247SOL    HW119640   7.015   5.592   3.725
 6247SOL    HW219641   0.099   5.543   3.837
 6248SOL     OW19642   4.207   3.072   6.625
 6248SOL    HW119643   4.144   3.137   6.669
 6248SOL    HW219644   4.164   3.036   6.542
 6249SOL     OW19645   0.017   3.241   1.385
 6249SOL    HW119646   6.991   3.315   1.340
 6249SOL    HW219647   6.978   3.164   1.400
 6250SOL     OW19648   0.184   7.007   0.982
 6250SOL    HW119649   0.107   6.963   1.027
 6250SOL    HW219650   0.233   6.940   0.926
 6251SOL     OW19651   3.199   6.727   4.261
 6251SOL    HW119652   3.160   6.641   4.230
 6251SOL    HW219653   3.140   6.803   4.234
 6252SOL     OW19654   2.880   5.390   6.986
 6252SOL    HW119655   2.885   5.296   7.020
 6252SOL    HW219656   2.832   5.447   0.029
 6253SOL     OW19657   3.180   4.903   4.470
 6253SOL    HW119658   3.102   4.885   4.530
 6253SOL    HW219659   3.172   4.994   4.430
 6254SOL     OW19660   0.302   5.409   0.820
 6254SOL    HW119661   0.348   5.363   0.896
 6254SOL    HW219662   0.221   5.456   0.853
 6255SOL     OW19663   1.862   1.921   1.158
 6255SOL    HW119664   1.769   1.938   1.126
 6255SOL    HW219665   1.892   1.996   1.217
 6256SOL     OW19666   4.994   5.852   2.188
 6256SOL    HW119667   4.908   5.902   2.179
 6256SOL    HW219668   5.070   5.909   2.159
 6257SOL     OW19669   4.299   3.687   0.601
 6257SOL    HW119670   4.248   3.702   0.686
 6257SOL    HW219671   4.395   3.712   0.614
 6258SOL     OW19672   4.337   0.034   5.952
 6258SOL    HW119673   4.304   0.027   5.858
 6258SOL    HW219674   4.267   0.077   6.009
 6259SOL     OW19675   1.998   0.095   5.616
 6259SOL    HW119676   2.009   0.170   5.681
 6259SOL    HW219677   1.904   0.062   5.618
 6260SOL     OW19678   1.925   0.478   0.267
 6260SOL    HW119679   1.861   0.403   0.284
 6260SOL    HW219680   1.878   0.552   0.219
 6261SOL     OW19681   4.539   6.920   1.482
 6261SOL    HW119682   4.533   6.950   1.577
 6261SOL    HW219683   4.485   6.981   1.424
 6262SOL     OW19684   6.604   6.463   2.408
 6262SOL    HW119685   6.524   6.499   2.456
 6262SOL    HW219686   6.579   6.378   2.361
 6263SOL     OW19687   0.261   6.268   4.128
 6263SOL    HW119688   0.209   6.349   4.100
 6263SOL    HW219689   0.276   6.208   4.050
 6264SOL     OW19690   0.549   6.924   1.370
 6264SOL    HW119691   0.470   6.899   1.314
 6264SOL    HW219692   0.519   6.985   1.444
 6265SOL     OW19693   3.953   2.688   0.622
 6265SOL    HW119694   4.012   2.726   0.694
 6265SOL    HW219695   3.979   2.593   0.604
 6266SOL     OW19696   3.137   5.645   2.936
 6266SOL    HW119697   3.232   5.644   2.904
 6266SOL    HW219698   3.137   5.656   3.036
 6267SOL     OW19699   0.925   6.191   5.451
 6267SOL    HW119700   1.020   6.161   5.454
 6267SOL    HW219701   0.895   6.197   5.355
 6268SOL     OW19702   3.776   0.684   2.033
 6268SOL    HW119703   3.803   0.754   2.099
 6268SOL    HW219704   3.742   0.604   2.081
 6269SOL     OW19705   5.762   6.464   1.375
 6269SOL    HW119706   5.814   6.447   1.458
 6269SOL    HW219707   5.702   6.385   1.357
 6270SOL     OW19708   1.244   6.291   6.947
 6270SOL    HW119709   1.266   6.194   6.954
 6270SOL    HW219710   1.237   6.330   0.016
 6271SOL     OW19711   6.159   2.774   6.912
 6271SOL    HW119712   6.226   2.701   6.924
 6271SOL    HW219713   6.078   2.738   6.865
 6272SOL     OW19714   6.335   0.097   0.083
 6272SOL    HW119715   6.267   0.105   0.156
 6272SOL    HW219716   6.307   0.153   0.005
 6273SOL     OW19717   0.249   6.832   2.040
 6273SOL    HW119718   0.161   6.880   2.042
 6273SOL    HW219719   0.314   6.879   2.100
 6274SOL     OW19720   3.064   6.329   4.852
 6274SOL    HW119721   2.973   6.292   4.870
 6274SOL    HW219722   3.097   6.294   4.765
 6275SOL     OW19723   2.257   6.398   0.664
 6275SOL    HW119724   2.162   6.377   0.689
 6275SOL    HW219725   2.318   6.334   0.710
 6276SOL     OW19726   2.954   5.684   3.488
 6276SOL    HW119727   3.037   5.646   3.528
 6276SOL    HW219728   2.933   5.771   3.532
 6277SOL     OW19729   5.119   2.071   1.471
 6277SOL    HW119730   5.198   2.042   1.416
 6277SOL    HW219731   5.113   2.171   1.470
 6278SOL     OW19732   3.269   0.256   5.472
 6278SOL    HW119733   3.317   0.173   5.499
 6278SOL    HW219734   3.170   0.237   5.468
 6279SOL     OW19735   3.315   5.765   0.905
 6279SOL    HW119736   3.415   5.760   0.913
 6279SOL    HW219737   3.288   5.857   0.879
 6280SOL     OW19738   6.444   1.575   6.925
 6280SOL    HW119739   6.457   1.542   6.832
 6280SOL    HW219740   6.467   1.673   6.929
 6281SOL     OW19741   6.221   3.667   4.727
 6281SOL    HW119742   6.316   3.673   4.758
 6281SOL    HW219743   6.219   3.623   4.637
 6282SOL     OW19744   6.959   3.786   5.930
 6282SOL    HW119745   6.946   3.810   5.833
 6282SOL    HW219746   6.969   3.870   5.984
 6283SOL     OW19747   1.205   5.933   5.218
 6283SOL    HW119748   1.232   5.845   5.180
 6283SOL    HW219749   1.265   5.957   5.294
 6284SOL     OW19750   2.037   4.200   6.616
 6284SOL    HW119751   1.973   4.276   6.601
 6284SOL    HW219752   2.124   4.236   6.649
 6285SOL     OW19753   1.763   3.980   3.096
 6285SOL    HW119754   1.730   3.965   3.002
 6285SOL    HW219755   1.685   3.978   3.159
 6286SOL     OW19756   0.795   3.620   4.398
 6286SOL    HW119757   0.880   3.667   4.373
 6286SOL    HW219758   0.809   3.521   4.395
 6287SOL     OW19759   4.446   4.699   5.416
 6287SOL    HW119760   4.400   4.788   5.415
 6287SOL    HW219761   4.423   4.651   5.501
 6288SOL     OW19762   3.831   3.487   6.361
 6288SOL    HW119763   3.750   3.429   6.366
 6288SOL    HW219764   3.906   3.443   6.410
 6289SOL     OW19765   2.328   4.297   6.288
 6289SOL    HW119766   2.393   4.246   6.345
 6289SOL    HW219767   2.365   4.304   6.195
 6290SOL     OW19768   6.262   5.093   6.177
 6290SOL    HW119769   6.198   5.093   6.100
 6290SOL    HW219770   6.341   5.036   6.154
 6291SOL     OW19771   3.380   3.332   2.740
 6291SOL    HW119772   3.290   3.289   2.738
 6291SOL    HW219773   3.374   3.425   2.705
 6292SOL     OW19774   1.959   2.866   4.589
 6292SOL    HW119775   2.014   2.811   4.652
 6292SOL    HW219776   1.990   2.961   4.591
 6293SOL     OW19777   5.288   1.071   0.252
 6293SOL    HW119778   5.374   1.123   0.260
 6293SOL    HW219779   5.279   1.038   0.158
 6294SOL     OW19780   3.085   1.147   3.712
 6294SOL    HW119781   3.120   1.241   3.713
 6294SOL    HW219782   3.162   1.083   3.706
 6295SOL     OW19783   5.377   4.671   4.651
 6295SOL    HW119784   5.381   4.762   4.610
 6295SOL    HW219785   5.302   4.619   4.611
 6296SOL     OW19786   0.392   3.268   6.013
 6296SOL    HW119787   0.453   3.337   6.051
 6296SOL    HW219788   0.366   3.294   5.920
 6297SOL     OW19789   6.578   0.362   4.597
 6297SOL    HW119790   6.525   0.427   4.543
 6297SOL    HW219791   6.525   0.333   4.676
 6298SOL     OW19792   5.642   4.607   6.947
 6298SOL    HW119793   5.624   4.624   6.850
 6298SOL    HW219794   5.596   4.677   7.002
 6299SOL     OW19795   5.153   2.421   2.777
 6299SOL    HW119796   5.213   2.467   2.842
 6299SOL    HW219797   5.166   2.460   2.686
 6300SOL     OW19798   4.036   1.382   6.347
 6300SOL    HW119799   4.076   1.431   6.270
 6300SOL    HW219800   4.090   1.399   6.429
 6301SOL     OW19801   3.183   6.502   6.772
 6301SOL    HW119802   3.215   6.441   6.699
 6301SOL    HW219803   3.167   6.450   6.855
 6302SOL     OW19804   2.586   1.193   5.682
 6302SOL    HW119805   2.560   1.289   5.670
 6302SOL    HW219806   2.671   1.187   5.734
 6303SOL     OW19807   1.059   6.517   5.672
 6303SOL    HW119808   0.977   6.573   5.686
 6303SOL    HW219809   1.085   6.474   5.758
 6304SOL     OW19810   4.386   1.069   3.277
 6304SOL    HW119811   4.297   1.103   3.246
 6304SOL    HW219812   4.426   1.010   3.206
 6305SOL     OW19813   6.839   5.747   5.360
 6305SOL    HW119814   6.855   5.754   5.459
 6305SOL    HW219815   6.810   5.654   5.338
 6306SOL     OW19816   0.527   4.118   4.009
 6306SOL    HW119817   0.529   4.172   4.093
 6306SOL    HW219818   0.577   4.167   3.937
 6307SOL     OW19819   3.983   3.849   3.762
 6307SOL    HW119820   4.074   3.823   3.730
 6307SOL    HW219821   3.977   3.833   3.860
 6308SOL     OW19822   0.336   2.569   6.354
 6308SOL    HW119823   0.279   2.499   6.312
 6308SOL    HW219824   0.365   2.635   6.284
 6309SOL     OW19825   1.194   6.541   4.595
 6309SOL    HW119826   1.134   6.461   4.606
 6309SOL    HW219827   1.276   6.530   4.651
 6310SOL     OW19828   1.376   6.535   3.021
 6310SOL    HW119829   1.326   6.620   3.001
 6310SOL    HW219830   1.381   6.479   2.938
 6311SOL     OW19831   5.455   1.136   6.235
 6311SOL    HW119832   5.508   1.097   6.310
 6311SOL    HW219833   5.510   1.204   6.187
 6312SOL     OW19834   2.915   6.609   6.710
 6312SOL    HW119835   3.012   6.584   6.709
 6312SOL    HW219836   2.861   6.532   6.676
 6313SOL     OW19837   5.060   6.265   3.092
 6313SOL    HW119838   5.009   6.209   3.027
 6313SOL    HW219839   5.088   6.209   3.170
 6314SOL     OW19840   2.673   0.376   1.490
 6314SOL    HW119841   2.713   0.379   1.582
 6314SOL    HW219842   2.745   0.363   1.423
 6315SOL     OW19843   1.829   2.623   4.111
 6315SOL    HW119844   1.855   2.596   4.019
 6315SOL    HW219845   1.909   2.621   4.170
 6316SOL     OW19846   5.570   1.815   5.290
 6316SOL    HW119847   5.519   1.741   5.333
 6316SOL    HW219848   5.655   1.830   5.340
 6317SOL     OW19849   5.096   4.457   2.317
 6317SOL    HW119850   5.180   4.413   2.283
 6317SOL    HW219851   5.119   4.547   2.353
 6318SOL     OW19852   6.520   0.212   6.685
 6318SOL    HW119853   6.476   0.159   6.613
 6318SOL    HW219854   6.608   0.171   6.708
 6319SOL     OW19855   5.260   2.487   4.976
 6319SOL    HW119856   5.165   2.492   5.006
 6319SOL    HW219857   5.311   2.563   5.016
 6320SOL     OW19858   0.449   0.779   3.950
 6320SOL    HW119859   0.502   0.863   3.935
 6320SOL    HW219860   0.353   0.803   3.963
 6321SOL     OW19861   5.463   2.175   0.713
 6321SOL    HW119862   5.474   2.273   0.695
 6321SOL    HW219863   5.413   2.162   0.799
 6322SOL     OW19864   2.062   0.845   0.496
 6322SOL    HW119865   2.113   0.866   0.412
 6322SOL    HW219866   2.115   0.876   0.575
 6323SOL     OW19867   2.852   2.545   0.875
 6323SOL    HW119868   2.889   2.466   0.827
 6323SOL    HW219869   2.755   2.555   0.852
 6324SOL     OW19870   4.600   1.237   1.252
 6324SOL    HW119871   4.566   1.156   1.204
 6324SOL    HW219872   4.573   1.232   1.348
 6325SOL     OW19873   1.512   2.375   2.251
 6325SOL    HW119874   1.516   2.475   2.247
 6325SOL    HW219875   1.604   2.338   2.243
 6326SOL     OW19876   4.798   5.058   5.737
 6326SOL    HW119877   4.717   5.021   5.691
 6326SOL    HW219878   4.776   5.079   5.832
 6327SOL     OW19879   0.102   1.856   3.611
 6327SOL    HW119880   0.129   1.885   3.703
 6327SOL    HW219881   0.057   1.767   3.616
 6328SOL     OW19882   4.257   3.318   6.010
 6328SOL    HW119883   4.261   3.393   5.944
 6328SOL    HW219884   4.210   3.240   5.969
 6329SOL     OW19885   1.160   2.505   5.032
 6329SOL    HW119886   1.106   2.479   4.951
 6329SOL    HW219887   1.245   2.548   5.003
 6330SOL     OW19888   6.488   1.271   2.900
 6330SOL    HW119889   6.532   1.315   2.978
 6330SOL    HW219890   6.438   1.340   2.847
 6331SOL     OW19891   6.376   3.186   4.553
 6331SOL    HW119892   6.321   3.115   4.596
 6331SOL    HW219893   6.467   3.187   4.594
 6332SOL     OW19894   1.946   1.776   1.385
 6332SOL    HW119895   1.990   1.846   1.442
 6332SOL    HW219896   1.923   1.815   1.296
 6333SOL     OW19897   4.862   6.784   0.258
 6333SOL    HW119898   4.875   6.684   0.254
 6333SOL    HW219899   4.947   6.827   0.288
 6334SOL     OW19900   2.937   1.582   1.926
 6334SOL    HW119901   2.982   1.667   1.898
 6334SOL    HW219902   2.870   1.602   1.997
 6335SOL     OW19903   5.545   0.578   1.025
 6335SOL    HW119904   5.618   0.559   0.959
 6335SOL    HW219905   5.502   0.666   1.002
 6336SOL     OW19906   0.409   4.032   5.923
 6336SOL    HW119907   0.473   4.068   5.856
 6336SOL    HW219908   0.452   3.958   5.974
 6337SOL     OW19909   4.127   5.826   5.144
 6337SOL    HW119910   4.113   5.793   5.238
 6337SOL    HW219911   4.129   5.926   5.144
 6338SOL     OW19912   3.070   2.174   4.230
 6338SOL    HW119913   2.980   2.210   4.203
 6338SOL    HW219914   3.131   2.176   4.151
 6339SOL     OW19915   0.997   3.989   2.968
 6339SOL    HW119916   1.038   3.995   3.059
 6339SOL    HW219917   0.898   3.989   2.975
 6340SOL     OW19918   2.590   4.016   1.249
 6340SOL    HW119919   2.529   3.950   1.293
 6340SOL    HW219920   2.566   4.108   1.279
 6341SOL     OW19921   1.569   4.454   3.986
 6341SOL    HW119922   1.486   4.505   4.009
 6341SOL    HW219923   1.647   4.516   3.988
 6342SOL     OW19924   1.905   0.684   2.118
 6342SOL    HW119925   1.807   0.690   2.099
 6342SOL    HW219926   1.945   0.776   2.119
 6343SOL     OW19927   2.924   6.434   0.166
 6343SOL    HW119928   2.910   6.503   0.238
 6343SOL    HW219929   2.848   6.370   0.166
 6344SOL     OW19930   5.466   2.664   3.396
 6344SOL    HW119931   5.546   2.609   3.374
 6344SOL    HW219932   5.384   2.617   3.363
 6345SOL     OW19933   5.042   3.553   1.572
 6345SOL    HW119934   5.090   3.483   1.519
 6345SOL    HW219935   5.105   3.628   1.591
 6346SOL     OW19936   0.590   4.513   5.753
 6346SOL    HW119937   0.537   4.518   5.669
 6346SOL    HW219938   0.658   4.586   5.755
 6347SOL     OW19939   2.649   2.277   2.402
 6347SOL    HW119940   2.561   2.320   2.422
 6347SOL    HW219941   2.665   2.278   2.303
 6348SOL     OW19942   0.254   1.817   6.084
 6348SOL    HW119943   0.217   1.778   6.168
 6348SOL    HW219944   0.338   1.867   6.104
 6349SOL     OW19945   1.391   0.449   0.636
 6349SOL    HW119946   1.487   0.423   0.628
 6349SOL    HW219947   1.353   0.463   0.545
 6350SOL     OW19948   1.165   4.851   2.005
 6350SOL    HW119949   1.194   4.881   1.914
 6350SOL    HW219950   1.180   4.752   2.013
 6351SOL     OW19951   6.523   3.809   3.372
 6351SOL    HW119952   6.455   3.855   3.428
 6351SOL    HW219953   6.495   3.810   3.276
 6352SOL     OW19954   2.017   0.707   4.054
 6352SOL    HW119955   2.012   0.650   3.972
 6352SOL    HW219956   2.111   0.710   4.086
 6353SOL     OW19957   2.513   5.766   7.002
 6353SOL    HW119958   2.537   5.714   6.920
 6353SOL    HW219959   2.418   5.796   6.996
 6354SOL     OW19960   5.206   4.685   2.754
 6354SOL    HW119961   5.123   4.674   2.809
 6354SOL    HW219962   5.286   4.668   2.811
 6355SOL     OW19963   2.591   4.556   0.420
 6355SOL    HW119964   2.573   4.474   0.474
 6355SOL    HW219965   2.658   4.613   0.468
 6356SOL     OW19966   4.990   5.391   6.411
 6356SOL    HW119967   4.918   5.419   6.475
 6356SOL    HW219968   4.995   5.456   6.335
 6357SOL     OW19969   5.958   2.107   1.104
 6357SOL    HW119970   5.887   2.051   1.146
 6357SOL    HW219971   6.021   2.140   1.175
 6358SOL     OW19972   1.019   1.897   6.063
 6358SOL    HW119973   1.115   1.925   6.057
 6358SOL    HW219974   0.999   1.828   5.994
 6359SOL     OW19975   5.891   6.723   0.553
 6359SOL    HW119976   5.833   6.778   0.493
 6359SOL    HW219977   5.847   6.634   0.568
 6360SOL     OW19978   6.805   2.597   3.467
 6360SOL    HW119979   6.780   2.553   3.380
 6360SOL    HW219980   6.831   2.527   3.533
 6361SOL     OW19981   0.199   0.640   0.085
 6361SOL    HW119982   0.259   0.664   0.162
 6361SOL    HW219983   0.148   0.721   0.056
 6362SOL     OW19984   1.183   5.627   6.849
 6362SOL    HW119985   1.165   5.591   6.757
 6362SOL    HW219986   1.280   5.619   6.869
 6363SOL     OW19987   2.639   4.949   3.456
 6363SOL    HW119988   2.556   4.983   3.499
 6363SOL    HW219989   2.655   4.998   3.370
 6364SOL     OW19990   2.654   2.472   4.785
 6364SOL    HW119991   2.720   2.411   4.741
 6364SOL    HW219992   2.696   2.516   4.865
 6365SOL     OW19993   6.131   5.997   4.419
 6365SOL    HW119994   6.067   5.965   4.349
 6365SOL    HW219995   6.122   6.096   4.432
 6366SOL     OW19996   6.085   6.409   5.136
 6366SOL    HW119997   6.177   6.373   5.152
 6366SOL    HW219998   6.042   6.358   5.061
 6367SOL     OW19999   3.085   2.235   3.012
 6367SOL    HW120000   3.114   2.329   3.028
 6367SOL    HW220001   3.162   2.173   3.027
 6368SOL     OW20002   4.664   4.368   3.639
 6368SOL    HW120003   4.738   4.351   3.704
 6368SOL    HW220004   4.642   4.283   3.590
 6369SOL     OW20005   3.247   6.074   6.033
 6369SOL    HW120006   3.217   6.162   6.069
 6369SOL    HW220007   3.208   6.000   6.087
 6370SOL     OW20008   4.892   3.810   3.235
 6370SOL    HW120009   4.827   3.740   3.267
 6370SOL    HW220010   4.880   3.824   3.137
 6371SOL     OW20011   5.039   4.346   1.704
 6371SOL    HW120012   5.104   4.346   1.780
 6371SOL    HW220013   4.956   4.395   1.731
 6372SOL     OW20014   0.215   1.347   2.729
 6372SOL    HW120015   0.142   1.319   2.667
 6372SOL    HW220016   0.294   1.287   2.716
 6373SOL     OW20017   5.749   4.168   1.424
 6373SOL    HW120018   5.833   4.134   1.465
 6373SOL    HW220019   5.672   4.110   1.452
 6374SOL     OW20020   4.717   2.734   0.201
 6374SOL    HW120021   4.811   2.718   0.171
 6374SOL    HW220022   4.700   2.833   0.205
 6375SOL     OW20023   0.047   2.756   2.464
 6375SOL    HW120024   7.013   2.733   2.385
 6375SOL    HW220025   0.110   2.829   2.439
 6376SOL     OW20026   4.599   0.897   5.361
 6376SOL    HW120027   4.660   0.927   5.434
 6376SOL    HW220028   4.545   0.974   5.328
 6377SOL     OW20029   7.019   0.407   0.216
 6377SOL    HW120030   0.012   0.403   0.315
 6377SOL    HW220031   0.049   0.482   0.177
 6378SOL     OW20032   5.606   5.785   2.666
 6378SOL    HW120033   5.607   5.690   2.697
 6378SOL    HW220034   5.587   5.788   2.568
 6379SOL     OW20035   2.512   5.819   6.303
 6379SOL    HW120036   2.518   5.728   6.262
 6379SOL    HW220037   2.443   5.818   6.376
 6380SOL     OW20038   0.892   3.286   4.931
 6380SOL    HW120039   0.977   3.243   4.903
 6380SOL    HW220040   0.818   3.218   4.930
 6381SOL     OW20041   4.464   3.153   0.360
 6381SOL    HW120042   4.456   3.114   0.452
 6381SOL    HW220043   4.432   3.086   0.293
 6382SOL     OW20044   2.703   1.632   1.042
 6382SOL    HW120045   2.787   1.604   1.087
 6382SOL    HW220046   2.683   1.728   1.063
 6383SOL     OW20047   1.705   2.976   2.762
 6383SOL    HW120048   1.700   3.054   2.699
 6383SOL    HW220049   1.707   3.010   2.856
 6384SOL     OW20050   6.060   2.410   2.171
 6384SOL    HW120051   6.127   2.337   2.184
 6384SOL    HW220052   6.096   2.476   2.104
 6385SOL     OW20053   0.654   3.415   1.064
 6385SOL    HW120054   0.670   3.488   1.129
 6385SOL    HW220055   0.716   3.425   0.986
 6386SOL     OW20056   2.143   3.245   0.841
 6386SOL    HW120057   2.175   3.185   0.914
 6386SOL    HW220058   2.193   3.332   0.845
 6387SOL     OW20059   6.238   1.074   0.136
 6387SOL    HW120060   6.203   1.047   0.046
 6387SOL    HW220061   6.236   0.994   0.197
 6388SOL     OW20062   6.593   5.346   3.008
 6388SOL    HW120063   6.518   5.337   2.941
 6388SOL    HW220064   6.677   5.309   2.968
 6389SOL     OW20065   1.390   6.919   0.133
 6389SOL    HW120066   1.473   6.863   0.124
 6389SOL    HW220067   1.380   6.977   0.053
 6390SOL     OW20068   5.620   0.598   0.433
 6390SOL    HW120069   5.644   0.658   0.357
 6390SOL    HW220070   5.522   0.582   0.434
 6391SOL     OW20071   0.862   0.827   5.295
 6391SOL    HW120072   0.799   0.850   5.369
 6391SOL    HW220073   0.925   0.903   5.280
 6392SOL     OW20074   3.718   5.829   3.470
 6392SOL    HW120075   3.783   5.766   3.511
 6392SOL    HW220076   3.640   5.777   3.434
 6393SOL     OW20077   5.777   6.861   1.347
 6393SOL    HW120078   5.849   6.898   1.407
 6393SOL    HW220079   5.690   6.863   1.395
 6394SOL     OW20080   1.104   4.450   1.022
 6394SOL    HW120081   1.071   4.503   1.100
 6394SOL    HW220082   1.184   4.397   1.048
 6395SOL     OW20083   0.298   4.104   3.020
 6395SOL    HW120084   0.343   4.166   2.956
 6395SOL    HW220085   0.346   4.016   3.021
 6396SOL     OW20086   6.634   3.447   0.403
 6396SOL    HW120087   6.582   3.363   0.387
 6396SOL    HW220088   6.704   3.456   0.333
 6397SOL     OW20089   5.752   2.384   3.067
 6397SOL    HW120090   5.685   2.340   3.007
 6397SOL    HW220091   5.844   2.374   3.028
 6398SOL     OW20092   0.997   6.119   1.609
 6398SOL    HW120093   0.907   6.149   1.639
 6398SOL    HW220094   1.053   6.200   1.588
 6399SOL     OW20095   2.087   6.894   5.984
 6399SOL    HW120096   2.175   6.941   5.980
 6399SOL    HW220097   2.028   6.939   6.051
 6400SOL     OW20098   1.758   5.875   2.975
 6400SOL    HW120099   1.708   5.823   2.905
 6400SOL    HW220100   1.744   5.973   2.959
 6401SOL     OW20101   3.885   4.898   3.081
 6401SOL    HW120102   3.943   4.927   3.005
 6401SOL    HW220103   3.915   4.809   3.115
 6402SOL     OW20104   1.998   4.788   3.753
 6402SOL    HW120105   1.929   4.815   3.820
 6402SOL    HW220106   2.086   4.774   3.799
 6403SOL     OW20107   5.447   6.164   4.926
 6403SOL    HW120108   5.375   6.205   4.981
 6403SOL    HW220109   5.408   6.123   4.844
 6404SOL     OW20110   3.383   0.961   2.540
 6404SOL    HW120111   3.355   0.871   2.508
 6404SOL    HW220112   3.482   0.968   2.537
 6405SOL     OW20113   5.287   1.085   2.573
 6405SOL    HW120114   5.358   1.085   2.643
 6405SOL    HW220115   5.249   0.993   2.565
 6406SOL     OW20116   1.048   2.597   2.522
 6406SOL    HW120117   1.008   2.506   2.519
 6406SOL    HW220118   1.045   2.637   2.430
 6407SOL     OW20119   2.267   6.468   3.727
 6407SOL    HW120120   2.325   6.549   3.719
 6407SOL    HW220121   2.208   6.461   3.647
 6408SOL     OW20122   6.971   0.675   0.876
 6408SOL    HW120123   6.879   0.672   0.838
 6408SOL    HW220124   7.017   0.759   0.848
 6409SOL     OW20125   6.458   4.984   3.854
 6409SOL    HW120126   6.546   4.950   3.821
 6409SOL    HW220127   6.406   5.020   3.777
 6410SOL     OW20128   2.701   1.356   5.412
 6410SOL    HW120129   2.781   1.303   5.437
 6410SOL    HW220130   2.695   1.364   5.312
 6411SOL     OW20131   0.534   3.076   2.413
 6411SOL    HW120132   0.582   3.164   2.413
 6411SOL    HW220133   0.446   3.086   2.367
 6412SOL     OW20134   3.374   0.862   6.251
 6412SOL    HW120135   3.415   0.925   6.185
 6412SOL    HW220136   3.373   0.770   6.212
 6413SOL     OW20137   4.374   4.620   4.544
 6413SOL    HW120138   4.295   4.672   4.575
 6413SOL    HW220139   4.367   4.605   4.445
 6414SOL     OW20140   0.833   0.214   6.912
 6414SOL    HW120141   0.855   0.138   6.974
 6414SOL    HW220142   0.913   0.240   6.860
 6415SOL     OW20143   1.590   3.473   3.370
 6415SOL    HW120144   1.659   3.531   3.328
 6415SOL    HW220145   1.540   3.525   3.439
 6416SOL     OW20146   3.136   7.017   6.432
 6416SOL    HW120147   3.225   6.974   6.445
 6416SOL    HW220148   3.063   6.952   6.454
 6417SOL     OW20149   4.762   1.574   0.999
 6417SOL    HW120150   4.781   1.498   1.061
 6417SOL    HW220151   4.683   1.625   1.032
 6418SOL     OW20152   4.370   4.710   1.463
 6418SOL    HW120153   4.407   4.625   1.498
 6418SOL    HW220154   4.276   4.695   1.431
 6419SOL     OW20155   0.775   6.672   6.593
 6419SOL    HW120156   0.714   6.601   6.626
 6419SOL    HW220157   0.768   6.752   6.652
 6420SOL     OW20158   1.532   3.556   3.753
 6420SOL    HW120159   1.451   3.559   3.811
 6420SOL    HW220160   1.538   3.467   3.707
 6421SOL     OW20161   5.537   6.890   1.491
 6421SOL    HW120162   5.467   6.869   1.422
 6421SOL    HW220163   5.529   6.986   1.517
 6422SOL     OW20164   0.022   2.603   4.987
 6422SOL    HW120165   0.098   2.668   4.991
 6422SOL    HW220166   6.967   2.647   4.942
 6423SOL     OW20167   2.576   5.348   4.442
 6423SOL    HW120168   2.482   5.377   4.425
 6423SOL    HW220169   2.576   5.255   4.477
 6424SOL     OW20170   0.127   3.153   4.516
 6424SOL    HW120171   0.032   3.123   4.513
 6424SOL    HW220172   0.163   3.142   4.609
 6425SOL     OW20173   6.958   5.678   3.156
 6425SOL    HW120174   0.032   5.659   3.173
 6425SOL    HW220175   6.918   5.601   3.106
 6426SOL     OW20176   4.636   4.437   4.848
 6426SOL    HW120177   4.650   4.497   4.769
 6426SOL    HW220178   4.547   4.456   4.889
 6427SOL     OW20179   3.744   3.692   3.239
 6427SOL    HW120180   3.659   3.707   3.188
 6427SOL    HW220181   3.736   3.734   3.330
 6428SOL     OW20182   4.823   2.298   0.315
 6428SOL    HW120183   4.808   2.365   0.242
 6428SOL    HW220184   4.745   2.236   0.320
 6429SOL     OW20185   1.979   0.584   5.040
 6429SOL    HW120186   1.973   0.542   4.950
 6429SOL    HW220187   1.887   0.601   5.076
 6430SOL     OW20188   0.182   0.995   5.350
 6430SOL    HW120189   0.116   0.944   5.296
 6430SOL    HW220190   0.134   1.066   5.402
 6431SOL     OW20191   4.673   5.509   2.964
 6431SOL    HW120192   4.691   5.494   2.867
 6431SOL    HW220193   4.576   5.528   2.977
 6432SOL     OW20194   3.100   4.061   6.505
 6432SOL    HW120195   3.139   4.099   6.420
 6432SOL    HW220196   3.063   3.970   6.486
 6433SOL     OW20197   2.729   5.508   6.798
 6433SOL    HW120198   2.761   5.446   6.870
 6433SOL    HW220199   2.799   5.515   6.727
 6434SOL     OW20200   3.033   6.041   6.398
 6434SOL    HW120201   3.086   6.101   6.338
 6434SOL    HW220202   3.088   5.962   6.422
 6435SOL     OW20203   5.921   0.085   0.103
 6435SOL    HW120204   5.890   0.051   0.192
 6435SOL    HW220205   5.871   0.168   0.079
 6436SOL     OW20206   0.706   4.193   3.807
 6436SOL    HW120207   0.736   4.097   3.805
 6436SOL    HW220208   0.779   4.250   3.845
 6437SOL     OW20209   1.016   1.082   5.419
 6437SOL    HW120210   1.103   1.091   5.370
 6437SOL    HW220211   1.020   1.004   5.481
 6438SOL     OW20212   0.609   5.571   6.873
 6438SOL    HW120213   0.646   5.640   6.810
 6438SOL    HW220214   0.664   5.488   6.867
 6439SOL     OW20215   6.075   0.996   3.769
 6439SOL    HW120216   6.150   0.978   3.832
 6439SOL    HW220217   6.025   1.078   3.798
 6440SOL     OW20218   2.431   0.391   6.064
 6440SOL    HW120219   2.484   0.471   6.037
 6440SOL    HW220220   2.342   0.420   6.100
 6441SOL     OW20221   0.583   0.018   3.608
 6441SOL    HW120222   0.590   0.117   3.618
 6441SOL    HW220223   0.495   7.010   3.644
 6442SOL     OW20224   2.271   2.120   4.790
 6442SOL    HW120225   2.312   2.029   4.801
 6442SOL    HW220226   2.339   2.189   4.813
 6443SOL     OW20227   4.332   1.983   0.534
 6443SOL    HW120228   4.417   1.995   0.586
 6443SOL    HW220229   4.354   1.955   0.441
 6444SOL     OW20230   0.129   2.290   5.546
 6444SOL    HW120231   0.179   2.377   5.543
 6444SOL    HW220232   0.119   2.254   5.453
 6445SOL     OW20233   3.221   3.674   3.442
 6445SOL    HW120234   3.181   3.661   3.352
 6445SOL    HW220235   3.278   3.595   3.466
 6446SOL     OW20236   1.872   1.708   6.325
 6446SOL    HW120237   1.840   1.792   6.369
 6446SOL    HW220238   1.964   1.721   6.289
 6447SOL     OW20239   6.533   4.300   0.981
 6447SOL    HW120240   6.459   4.364   1.005
 6447SOL    HW220241   6.495   4.208   0.971
 6448SOL     OW20242   4.920   5.571   2.224
 6448SOL    HW120243   4.946   5.597   2.131
 6448SOL    HW220244   4.821   5.575   2.234
 6449SOL     OW20245   2.722   5.727   1.700
 6449SOL    HW120246   2.726   5.796   1.628
 6449SOL    HW220247   2.669   5.764   1.777
 6450SOL     OW20248   0.920   4.190   1.280
 6450SOL    HW120249   0.849   4.220   1.216
 6450SOL    HW220250   0.878   4.161   1.366
 6451SOL     OW20251   3.777   2.284   0.161
 6451SOL    HW120252   3.860   2.241   0.196
 6451SOL    HW220253   3.791   2.383   0.154
 6452SOL     OW20254   5.555   3.404   3.369
 6452SOL    HW120255   5.593   3.468   3.302
 6452SOL    HW220256   5.541   3.315   3.326
 6453SOL     OW20257   3.644   0.257   1.476
 6453SOL    HW120258   3.556   0.210   1.464
 6453SOL    HW220259   3.654   0.327   1.405
 6454SOL     OW20260   6.695   2.290   2.633
 6454SOL    HW120261   6.600   2.267   2.653
 6454SOL    HW220262   6.754   2.213   2.658
 6455SOL     OW20263   6.717   4.480   3.311
 6455SOL    HW120264   6.644   4.473   3.378
 6455SOL    HW220265   6.739   4.388   3.277
 6456SOL     OW20266   0.533   1.182   2.847
 6456SOL    HW120267   0.459   1.121   2.877
 6456SOL    HW220268   0.514   1.275   2.877
 6457SOL     OW20269   5.123   6.706   1.309
 6457SOL    HW120270   5.043   6.656   1.343
 6457SOL    HW220271   5.200   6.692   1.371
 6458SOL     OW20272   0.899   5.029   4.194
 6458SOL    HW120273   0.893   5.064   4.288
 6458SOL    HW220274   0.977   5.073   4.148
 6459SOL     OW20275   5.893   2.901   2.986
 6459SOL    HW120276   5.987   2.868   2.989
 6459SOL    HW220277   5.849   2.885   3.074
 6460SOL     OW20278   6.858   5.895   5.129
 6460SOL    HW120279   6.857   5.837   5.210
 6460SOL    HW220280   6.771   5.887   5.080
 6461SOL     OW20281   3.080   4.377   0.864
 6461SOL    HW120282   3.049   4.319   0.940
 6461SOL    HW220283   3.167   4.419   0.888
 6462SOL     OW20284   1.824   3.890   4.744
 6462SOL    HW120285   1.837   3.908   4.841
 6462SOL    HW220286   1.826   3.792   4.727
 6463SOL     OW20287   5.115   0.678   1.133
 6463SOL    HW120288   5.122   0.723   1.044
 6463SOL    HW220289   5.174   0.725   1.199
 6464SOL     OW20290   0.898   6.098   4.505
 6464SOL    HW120291   0.812   6.139   4.536
 6464SOL    HW220292   0.907   6.005   4.543
 6465SOL     OW20293   5.200   2.728   2.307
 6465SOL    HW120294   5.272   2.734   2.239
 6465SOL    HW220295   5.183   2.818   2.346
 6466SOL     OW20296   6.779   3.587   6.434
 6466SOL    HW120297   6.848   3.516   6.418
 6466SOL    HW220298   6.743   3.577   6.527
 6467SOL     OW20299   3.202   0.907   0.453
 6467SOL    HW120300   3.164   0.996   0.427
 6467SOL    HW220301   3.237   0.861   0.371
 6468SOL     OW20302   3.608   6.618   0.180
 6468SOL    HW120303   3.634   6.644   0.273
 6468SOL    HW220304   3.585   6.521   0.178
 6469SOL     OW20305   3.151   1.850   3.727
 6469SOL    HW120306   3.098   1.934   3.745
 6469SOL    HW220307   3.088   1.775   3.710
 6470SOL     OW20308   6.778   2.468   0.141
 6470SOL    HW120309   6.818   2.376   0.143
 6470SOL    HW220310   6.847   2.534   0.113
 6471SOL     OW20311   0.296   6.391   5.033
 6471SOL    HW120312   0.323   6.335   4.954
 6471SOL    HW220313   0.377   6.412   5.088
 6472SOL     OW20314   0.203   6.459   2.061
 6472SOL    HW120315   0.241   6.490   2.148
 6472SOL    HW220316   0.110   6.494   2.051
 6473SOL     OW20317   1.836   1.486   4.305
 6473SOL    HW120318   1.799   1.407   4.256
 6473SOL    HW220319   1.810   1.570   4.257
 6474SOL     OW20320   4.378   5.134   5.181
 6474SOL    HW120321   4.353   5.223   5.220
 6474SOL    HW220322   4.298   5.091   5.141
 6475SOL     OW20323   5.426   5.642   3.426
 6475SOL    HW120324   5.520   5.606   3.427
 6475SOL    HW220325   5.397   5.657   3.332
 6476SOL     OW20326   3.867   2.189   6.501
 6476SOL    HW120327   3.777   2.227   6.484
 6476SOL    HW220328   3.937   2.258   6.484
 6477SOL     OW20329   0.149   6.146   1.142
 6477SOL    HW120330   0.158   6.068   1.204
 6477SOL    HW220331   0.107   6.115   1.056
 6478SOL     OW20332   2.813   6.313   1.404
 6478SOL    HW120333   2.847   6.245   1.470
 6478SOL    HW220334   2.731   6.357   1.441
 6479SOL     OW20335   3.326   5.767   4.005
 6479SOL    HW120336   3.332   5.690   3.940
 6479SOL    HW220337   3.239   5.764   4.053
 6480SOL     OW20338   2.582   0.869   6.532
 6480SOL    HW120339   2.579   0.818   6.447
 6480SOL    HW220340   2.583   0.967   6.513
 6481SOL     OW20341   3.108   2.285   1.753
 6481SOL    HW120342   3.039   2.347   1.793
 6481SOL    HW220343   3.193   2.335   1.738
 6482SOL     OW20344   6.861   2.806   5.501
 6482SOL    HW120345   6.791   2.799   5.573
 6482SOL    HW220346   6.934   2.741   5.520
 6483SOL     OW20347   1.428   5.648   4.518
 6483SOL    HW120348   1.415   5.712   4.442
 6483SOL    HW220349   1.519   5.661   4.557
 6484SOL     OW20350   3.051   1.346   3.433
 6484SOL    HW120351   3.150   1.345   3.424
 6484SOL    HW220352   3.015   1.254   3.415
 6485SOL     OW20353   2.341   6.513   4.647
 6485SOL    HW120354   2.355   6.452   4.725
 6485SOL    HW220355   2.401   6.592   4.656
 6486SOL     OW20356   1.181   4.807   2.807
 6486SOL    HW120357   1.254   4.745   2.778
 6486SOL    HW220358   1.212   4.859   2.887
 6487SOL     OW20359   1.024   5.376   4.517
 6487SOL    HW120360   1.116   5.349   4.489
 6487SOL    HW220361   0.973   5.295   4.547
 6488SOL     OW20362   4.987   5.204   4.356
 6488SOL    HW120363   5.005   5.223   4.453
 6488SOL    HW220364   5.045   5.263   4.299
 6489SOL     OW20365   3.953   3.034   6.712
 6489SOL    HW120366   3.943   3.027   6.613
 6489SOL    HW220367   3.936   2.944   6.754
 6490SOL     OW20368   1.795   1.424   6.351
 6490SOL    HW120369   1.712   1.431   6.406
 6490SOL    HW220370   1.829   1.516   6.329
 6491SOL     OW20371   2.062   0.522   1.126
 6491SOL    HW120372   2.121   0.462   1.181
 6491SOL    HW220373   2.009   0.466   1.062
 6492SOL     OW20374   3.229   4.161   4.466
 6492SOL    HW120375   3.317   4.152   4.514
 6492SOL    HW220376   3.210   4.258   4.451
 6493SOL     OW20377   1.633   4.611   5.929
 6493SOL    HW120378   1.675   4.525   5.959
 6493SOL    HW220379   1.698   4.660   5.870
 6494SOL     OW20380   5.952   6.430   2.160
 6494SOL    HW120381   5.857   6.402   2.154
 6494SOL    HW220382   5.996   6.417   2.071
 6495SOL     OW20383   6.788   6.980   4.456
 6495SOL    HW120384   6.786   6.885   4.425
 6495SOL    HW220385   6.698   7.005   4.493
 6496SOL     OW20386   4.753   6.445   1.981
 6496SOL    HW120387   4.793   6.408   1.898
 6496SOL    HW220388   4.674   6.388   2.008
 6497SOL     OW20389   0.622   1.473   1.031
 6497SOL    HW120390   0.710   1.433   1.059
 6497SOL    HW220391   0.557   1.465   1.107
 6498SOL     OW20392   0.611   4.718   4.559
 6498SOL    HW120393   0.708   4.721   4.533
 6498SOL    HW220394   0.590   4.628   4.597
 6499SOL     OW20395   5.504   4.252   4.116
 6499SOL    HW120396   5.520   4.335   4.063
 6499SOL    HW220397   5.418   4.210   4.089
 6500SOL     OW20398   0.663   3.930   2.264
 6500SOL    HW120399   0.720   4.005   2.298
 6500SOL    HW220400   0.721   3.851   2.244
 6501SOL     OW20401   6.874   1.745   0.754
 6501SOL    HW120402   6.904   1.761   0.848
 6501SOL    HW220403   6.802   1.810   0.731
 6502SOL     OW20404   6.338   3.866   1.482
 6502SOL    HW120405   6.343   3.935   1.410
 6502SOL    HW220406   6.323   3.776   1.442
 6503SOL     OW20407   6.312   2.913   5.913
 6503SOL    HW120408   6.371   2.845   5.869
 6503SOL    HW220409   6.259   2.962   5.843
 6504SOL     OW20410   4.640   6.755   6.390
 6504SOL    HW120411   4.564   6.772   6.328
 6504SOL    HW220412   4.606   6.709   6.472
 6505SOL     OW20413   5.473   6.462   0.342
 6505SOL    HW120414   5.500   6.518   0.421
 6505SOL    HW220415   5.548   6.460   0.277
 6506SOL     OW20416   0.117   3.393   3.713
 6506SOL    HW120417   0.115   3.303   3.669
 6506SOL    HW220418   0.171   3.388   3.797
 6507SOL     OW20419   3.352   5.851   6.723
 6507SOL    HW120420   3.279   5.913   6.694
 6507SOL    HW220421   3.329   5.813   6.813
 6508SOL     OW20422   1.432   6.895   1.632
 6508SOL    HW120423   1.406   6.890   1.535
 6508SOL    HW220424   1.531   6.911   1.639
 6509SOL     OW20425   3.643   1.514   5.676
 6509SOL    HW120426   3.599   1.424   5.681
 6509SOL    HW220427   3.595   1.578   5.736
 6510SOL     OW20428   4.369   5.961   5.531
 6510SOL    HW120429   4.361   5.937   5.628
 6510SOL    HW220430   4.407   5.883   5.481
 6511SOL     OW20431   4.380   1.314   6.142
 6511SOL    HW120432   4.343   1.230   6.182
 6511SOL    HW220433   4.477   1.301   6.123
 6512SOL     OW20434   2.873   0.365   1.977
 6512SOL    HW120435   2.910   0.315   2.055
 6512SOL    HW220436   2.894   0.462   1.987
 6513SOL     OW20437   2.733   5.387   5.077
 6513SOL    HW120438   2.743   5.306   5.134
 6513SOL    HW220439   2.652   5.439   5.106
 6514SOL     OW20440   5.982   0.324   5.076
 6514SOL    HW120441   6.011   0.414   5.043
 6514SOL    HW220442   6.059   0.279   5.123
 6515SOL     OW20443   2.328   5.032   2.063
 6515SOL    HW120444   2.365   5.038   1.970
 6515SOL    HW220445   2.261   5.104   2.078
 6516SOL     OW20446   6.993   3.248   1.786
 6516SOL    HW120447   6.958   3.219   1.875
 6516SOL    HW220448   6.924   3.300   1.737
 6517SOL     OW20449   6.656   2.024   0.135
 6517SOL    HW120450   6.556   2.030   0.140
 6517SOL    HW220451   6.696   2.096   0.191
 6518SOL     OW20452   0.196   0.933   2.350
 6518SOL    HW120453   0.192   0.841   2.389
 6518SOL    HW220454   0.216   0.927   2.252
 6519SOL     OW20455   0.735   1.159   3.208
 6519SOL    HW120456   0.802   1.218   3.252
 6519SOL    HW220457   0.649   1.161   3.258
 6520SOL     OW20458   6.890   5.766   6.992
 6520SOL    HW120459   6.897   5.678   6.946
 6520SOL    HW220460   6.797   5.801   6.983
 6521SOL     OW20461   1.605   3.259   3.626
 6521SOL    HW120462   1.678   3.246   3.559
 6521SOL    HW220463   1.645   3.280   3.715
 6522SOL     OW20464   3.022   4.316   5.705
 6522SOL    HW120465   3.011   4.363   5.793
 6522SOL    HW220466   2.943   4.334   5.648
 6523SOL     OW20467   5.682   0.308   0.481
 6523SOL    HW120468   5.641   0.251   0.551
 6523SOL    HW220469   5.629   0.392   0.471
 6524SOL     OW20470   2.822   2.181   1.762
 6524SOL    HW120471   2.893   2.135   1.708
 6524SOL    HW220472   2.866   2.238   1.831
 6525SOL     OW20473   1.906   5.212   3.931
 6525SOL    HW120474   1.885   5.230   3.835
 6525SOL    HW220475   1.866   5.283   3.988
 6526SOL     OW20476   0.067   0.225   0.952
 6526SOL    HW120477   7.000   0.224   0.995
 6526SOL    HW220478   0.111   0.136   0.966
 6527SOL     OW20479   0.114   2.560   0.364
 6527SOL    HW120480   0.124   2.492   0.437
 6527SOL    HW220481   0.046   2.628   0.391
 6528SOL     OW20482   6.157   1.323   5.912
 6528SOL    HW120483   6.123   1.254   5.975
 6528SOL    HW220484   6.178   1.407   5.963
 6529SOL     OW20485   0.593   1.763   2.371
 6529SOL    HW120486   0.650   1.797   2.446
 6529SOL    HW220487   0.560   1.671   2.392
 6530SOL     OW20488   0.857   2.893   2.079
 6530SOL    HW120489   0.857   2.911   1.981
 6530SOL    HW220490   0.949   2.909   2.116
 6531SOL     OW20491   3.888   3.292   5.691
 6531SOL    HW120492   3.880   3.383   5.732
 6531SOL    HW220493   3.979   3.282   5.649
 6532SOL     OW20494   1.753   0.804   0.733
 6532SOL    HW120495   1.726   0.763   0.820
 6532SOL    HW220496   1.672   0.836   0.684
 6533SOL     OW20497   4.523   4.803   0.158
 6533SOL    HW120498   4.619   4.804   0.128
 6533SOL    HW220499   4.468   4.755   0.091
 6534SOL     OW20500   5.823   4.767   1.659
 6534SOL    HW120501   5.793   4.825   1.734
 6534SOL    HW220502   5.825   4.820   1.574
 6535SOL     OW20503   5.611   4.185   4.364
 6535SOL    HW120504   5.584   4.224   4.276
 6535SOL    HW220505   5.691   4.234   4.399
 6536SOL     OW20506   0.410   2.338   5.315
 6536SOL    HW120507   0.320   2.295   5.324
 6536SOL    HW220508   0.480   2.277   5.351
 6537SOL     OW20509   6.010   4.393   5.246
 6537SOL    HW120510   6.027   4.300   5.212
 6537SOL    HW220511   5.918   4.422   5.219
 6538SOL     OW20512   1.939   3.779   5.178
 6538SOL    HW120513   1.850   3.764   5.134
 6538SOL    HW220514   1.925   3.794   5.276
 6539SOL     OW20515   5.844   1.111   6.771
 6539SOL    HW120516   5.754   1.154   6.766
 6539SOL    HW220517   5.834   1.015   6.796
 6540SOL     OW20518   3.319   2.504   5.572
 6540SOL    HW120519   3.291   2.559   5.650
 6540SOL    HW220520   3.279   2.541   5.489
 6541SOL     OW20521   5.751   2.538   5.770
 6541SOL    HW120522   5.701   2.623   5.785
 6541SOL    HW220523   5.828   2.555   5.708
 6542SOL     OW20524   1.538   3.819   4.861
 6542SOL    HW120525   1.599   3.815   4.781
 6542SOL    HW220526   1.525   3.914   4.888
 6543SOL     OW20527   3.174   1.982   5.013
 6543SOL    HW120528   3.120   1.935   5.082
 6543SOL    HW220529   3.155   2.080   5.017
 6544SOL     OW20530   0.598   0.151   2.154
 6544SOL    HW120531   0.559   0.240   2.180
 6544SOL    HW220532   0.697   0.160   2.145
 6545SOL     OW20533   4.392   6.696   1.132
 6545SOL    HW120534   4.428   6.752   1.207
 6545SOL    HW220535   4.293   6.686   1.143
 6546SOL     OW20536   4.824   4.568   6.720
 6546SOL    HW120537   4.736   4.582   6.674
 6546SOL    HW220538   4.850   4.651   6.769
 6547SOL     OW20539   5.272   6.791   6.320
 6547SOL    HW120540   5.365   6.775   6.354
 6547SOL    HW220541   5.207   6.740   6.375
 6548SOL     OW20542   0.803   2.411   6.419
 6548SOL    HW120543   0.738   2.474   6.461
 6548SOL    HW220544   0.884   2.403   6.477
 6549SOL     OW20545   4.947   7.002   1.579
 6549SOL    HW120546   5.031   0.027   1.552
 6549SOL    HW220547   4.933   6.924   1.517
 6550SOL     OW20548   6.473   0.265   3.201
 6550SOL    HW120549   6.558   0.303   3.163
 6550SOL    HW220550   6.473   0.278   3.301
 6551SOL     OW20551   2.993   3.446   1.695
 6551SOL    HW120552   2.919   3.380   1.683
 6551SOL    HW220553   3.075   3.413   1.648
 6552SOL     OW20554   1.703   6.857   0.475
 6552SOL    HW120555   1.714   6.884   0.379
 6552SOL    HW220556   1.772   6.789   0.498
 6553SOL     OW20557   0.493   1.434   3.002
 6553SOL    HW120558   0.441   1.356   3.036
 6553SOL    HW220559   0.435   1.490   2.943
 6554SOL     OW20560   2.824   1.159   4.781
 6554SOL    HW120561   2.862   1.099   4.711
 6554SOL    HW220562   2.893   1.225   4.810
 6555SOL     OW20563   6.603   1.929   4.423
 6555SOL    HW120564   6.561   1.892   4.340
 6555SOL    HW220565   6.636   2.022   4.404
 6556SOL     OW20566   6.144   3.553   2.874
 6556SOL    HW120567   6.210   3.531   2.803
 6556SOL    HW220568   6.052   3.534   2.841
 6557SOL     OW20569   1.634   0.370   2.863
 6557SOL    HW120570   1.697   0.436   2.905
 6557SOL    HW220571   1.648   0.369   2.764
 6558SOL     OW20572   5.908   5.000   0.159
 6558SOL    HW120573   5.873   4.907   0.166
 6558SOL    HW220574   5.860   5.049   0.086
 6559SOL     OW20575   0.075   3.565   6.833
 6559SOL    HW120576   0.154   3.554   6.773
 6559SOL    HW220577   0.103   3.554   6.928
 6560SOL     OW20578   3.963   4.683   0.641
 6560SOL    HW120579   4.037   4.740   0.607
 6560SOL    HW220580   3.895   4.670   0.569
 6561SOL     OW20581   4.188   4.808   0.546
 6561SOL    HW120582   4.208   4.906   0.543
 6561SOL    HW220583   4.261   4.758   0.501
 6562SOL     OW20584   5.440   2.891   0.604
 6562SOL    HW120585   5.506   2.852   0.668
 6562SOL    HW220586   5.347   2.865   0.631
 6563SOL     OW20587   5.066   0.400   5.914
 6563SOL    HW120588   4.976   0.373   5.879
 6563SOL    HW220589   5.061   0.493   5.950
 6564SOL     OW20590   6.268   4.152   2.109
 6564SOL    HW120591   6.344   4.095   2.079
 6564SOL    HW220592   6.233   4.118   2.197
 6565SOL     OW20593   5.696   6.604   2.663
 6565SOL    HW120594   5.670   6.509   2.680
 6565SOL    HW220595   5.629   6.665   2.705
 6566SOL     OW20596   3.230   5.489   2.050
 6566SOL    HW120597   3.250   5.419   1.981
 6566SOL    HW220598   3.286   5.473   2.131
 6567SOL     OW20599   4.113   0.636   1.814
 6567SOL    HW120600   4.108   0.600   1.907
 6567SOL    HW220601   4.126   0.736   1.818
 6568SOL     OW20602   4.344   1.066   2.310
 6568SOL    HW120603   4.369   1.071   2.213
 6568SOL    HW220604   4.407   1.123   2.363
 6569SOL     OW20605   0.588   2.745   6.282
 6569SOL    HW120606   0.593   2.824   6.221
 6569SOL    HW220607   0.636   2.668   6.240
 6570SOL     OW20608   3.989   0.761   2.622
 6570SOL    HW120609   3.998   0.665   2.652
 6570SOL    HW220610   4.068   0.813   2.655
 6571SOL     OW20611   2.230   5.301   3.347
 6571SOL    HW120612   2.286   5.305   3.430
 6571SOL    HW220613   2.187   5.390   3.332
 6572SOL     OW20614   0.547   4.293   4.296
 6572SOL    HW120615   0.629   4.335   4.258
 6572SOL    HW220616   0.573   4.221   4.361
 6573SOL     OW20617   1.610   0.801   3.296
 6573SOL    HW120618   1.568   0.889   3.318
 6573SOL    HW220619   1.696   0.817   3.246
 6574SOL     OW20620   2.422   6.309   3.466
 6574SOL    HW120621   2.347   6.313   3.531
 6574SOL    HW220622   2.450   6.402   3.441
 6575SOL     OW20623   0.142   6.974   2.871
 6575SOL    HW120624   0.229   6.981   2.918
 6575SOL    HW220625   0.077   6.922   2.927
 6576SOL     OW20626   3.200   4.601   0.299
 6576SOL    HW120627   3.288   4.590   0.252
 6576SOL    HW220628   3.211   4.577   0.395
 6577SOL     OW20629   1.831   2.700   3.204
 6577SOL    HW120630   1.831   2.727   3.300
 6577SOL    HW220631   1.738   2.704   3.168
 6578SOL     OW20632   1.188   5.957   1.700
 6578SOL    HW120633   1.108   6.013   1.682
 6578SOL    HW220634   1.163   5.860   1.695
 6579SOL     OW20635   0.341   1.957   4.237
 6579SOL    HW120636   0.278   2.033   4.224
 6579SOL    HW220637   0.358   1.945   4.335
 6580SOL     OW20638   1.056   0.463   0.427
 6580SOL    HW120639   0.965   0.460   0.387
 6580SOL    HW220640   1.096   0.372   0.427
 6581SOL     OW20641   1.461   0.922   0.689
 6581SOL    HW120642   1.486   1.017   0.706
 6581SOL    HW220643   1.481   0.898   0.594
 6582SOL     OW20644   0.015   0.332   2.600
 6582SOL    HW120645   7.000   0.241   2.587
 6582SOL    HW220646   0.115   0.326   2.601
 6583SOL     OW20647   4.743   6.595   5.443
 6583SOL    HW120648   4.732   6.534   5.364
 6583SOL    HW220649   4.654   6.633   5.468
 6584SOL     OW20650   3.829   2.367   0.854
 6584SOL    HW120651   3.899   2.341   0.920
 6584SOL    HW220652   3.872   2.384   0.765
 6585SOL     OW20653   6.891   6.794   0.786
 6585SOL    HW120654   6.873   6.800   0.884
 6585SOL    HW220655   6.921   6.884   0.752
 6586SOL     OW20656   6.819   1.974   5.802
 6586SOL    HW120657   6.834   2.067   5.768
 6586SOL    HW220658   6.851   1.967   5.896
 6587SOL     OW20659   1.729   4.341   5.933
 6587SOL    HW120660   1.688   4.309   5.847
 6587SOL    HW220661   1.678   4.302   6.010
 6588SOL     OW20662   0.457   3.171   0.415
 6588SOL    HW120663   0.533   3.129   0.365
 6588SOL    HW220664   0.382   3.190   0.352
 6589SOL     OW20665   5.464   0.664   1.731
 6589SOL    HW120666   5.481   0.692   1.826
 6589SOL    HW220667   5.542   0.691   1.674
 6590SOL     OW20668   0.412   0.387   4.723
 6590SOL    HW120669   0.344   0.315   4.737
 6590SOL    HW220670   0.489   0.373   4.784
 6591SOL     OW20671   5.074   5.348   4.110
 6591SOL    HW120672   5.114   5.433   4.144
 6591SOL    HW220673   5.146   5.279   4.098
 6592SOL     OW20674   5.187   0.319   3.068
 6592SOL    HW120675   5.132   0.357   2.994
 6592SOL    HW220676   5.129   0.265   3.129
 6593SOL     OW20677   2.913   2.166   2.323
 6593SOL    HW120678   2.844   2.228   2.361
 6593SOL    HW220679   2.921   2.182   2.225
 6594SOL     OW20680   3.494   1.948   5.818
 6594SOL    HW120681   3.500   2.002   5.733
 6594SOL    HW220682   3.422   1.986   5.876
 6595SOL     OW20683   1.814   2.623   4.581
 6595SOL    HW120684   1.827   2.722   4.582
 6595SOL    HW220685   1.890   2.579   4.629
 6596SOL     OW20686   4.307   6.045   3.330
 6596SOL    HW120687   4.289   6.049   3.232
 6596SOL    HW220688   4.304   5.950   3.361
 6597SOL     OW20689   1.408   5.257   1.879
 6597SOL    HW120690   1.332   5.263   1.815
 6597SOL    HW220691   1.373   5.262   1.973
 6598SOL     OW20692   1.876   4.311   3.467
 6598SOL    HW120693   1.906   4.259   3.548
 6598SOL    HW220694   1.911   4.266   3.385
 6599SOL     OW20695   5.665   5.602   6.582
 6599SOL    HW120696   5.684   5.598   6.484
 6599SOL    HW220697   5.567   5.616   6.597
 6600SOL     OW20698   4.195   0.055   4.805
 6600SOL    HW120699   4.173   0.145   4.768
 6600SOL    HW220700   4.112   7.022   4.808
 6601SOL     OW20701   0.998   2.859   2.879
 6601SOL    HW120702   0.922   2.906   2.922
 6601SOL    HW220703   0.982   2.760   2.881
 6602SOL     OW20704   2.611   0.233   1.157
 6602SOL    HW120705   2.690   0.217   1.097
 6602SOL    HW220706   2.636   0.298   1.228
 6603SOL     OW20707   0.587   2.954   3.663
 6603SOL    HW120708   0.564   3.048   3.638
 6603SOL    HW220709   0.505   2.907   3.696
 6604SOL     OW20710   2.359   0.436   1.800
 6604SOL    HW120711   2.425   0.443   1.875
 6604SOL    HW220712   2.404   0.460   1.714
 6605SOL     OW20713   6.084   5.439   1.855
 6605SOL    HW120714   6.077   5.397   1.765
 6605SOL    HW220715   6.028   5.388   1.921
 6606SOL     OW20716   0.446   3.876   3.069
 6606SOL    HW120717   0.507   3.915   3.138
 6606SOL    HW220718   0.430   3.780   3.090
 6607SOL     OW20719   6.252   4.795   3.879
 6607SOL    HW120720   6.304   4.880   3.886
 6607SOL    HW220721   6.309   4.718   3.907
 6608SOL     OW20722   6.598   0.540   0.528
 6608SOL    HW120723   6.644   0.466   0.578
 6608SOL    HW220724   6.650   0.563   0.446
 6609SOL     OW20725   5.240   0.993   6.261
 6609SOL    HW120726   5.151   1.037   6.248
 6609SOL    HW220727   5.313   1.059   6.243
 6610SOL     OW20728   2.151   6.082   0.103
 6610SOL    HW120729   2.186   6.094   0.196
 6610SOL    HW220730   2.055   6.112   0.100
 6611SOL     OW20731   5.424   2.701   4.432
 6611SOL    HW120732   5.448   2.793   4.462
 6611SOL    HW220733   5.342   2.670   4.481
 6612SOL     OW20734   6.679   2.071   6.208
 6612SOL    HW120735   6.656   2.162   6.172
 6612SOL    HW220736   6.620   2.003   6.165
 6613SOL     OW20737   5.266   0.314   6.138
 6613SOL    HW120738   5.318   0.242   6.091
 6613SOL    HW220739   5.182   0.332   6.087
 6614SOL     OW20740   4.379   6.396   1.318
 6614SOL    HW120741   4.472   6.383   1.351
 6614SOL    HW220742   4.373   6.482   1.267
 6615SOL     OW20743   2.136   5.675   0.726
 6615SOL    HW120744   2.228   5.687   0.688
 6615SOL    HW220745   2.139   5.686   0.825
 6616SOL     OW20746   3.836   6.686   6.159
 6616SOL    HW120747   3.909   6.753   6.143
 6616SOL    HW220748   3.759   6.705   6.097
 6617SOL     OW20749   4.113   7.009   3.495
 6617SOL    HW120750   4.100   6.911   3.506
 6617SOL    HW220751   4.048   0.035   3.553
 6618SOL     OW20752   0.792   1.350   2.988
 6618SOL    HW120753   0.802   1.267   3.043
 6618SOL    HW220754   0.711   1.400   3.018
 6619SOL     OW20755   4.430   6.638   4.090
 6619SOL    HW120756   4.376   6.625   4.173
 6619SOL    HW220757   4.450   6.735   4.077
 6620SOL     OW20758   1.740   3.716   3.683
 6620SOL    HW120759   1.802   3.656   3.632
 6620SOL    HW220760   1.658   3.664   3.709
 6621SOL     OW20761   3.794   3.063   5.171
 6621SOL    HW120762   3.717   3.107   5.125
 6621SOL    HW220763   3.856   3.025   5.102
 6622SOL     OW20764   5.927   5.721   1.115
 6622SOL    HW120765   5.968   5.799   1.161
 6622SOL    HW220766   5.830   5.713   1.141
 6623SOL     OW20767   3.520   4.158   4.929
 6623SOL    HW120768   3.569   4.179   4.844
 6623SOL    HW220769   3.478   4.068   4.922
 6624SOL     OW20770   0.684   3.277   4.724
 6624SOL    HW120771   0.770   3.227   4.732
 6624SOL    HW220772   0.675   3.339   4.802
 6625SOL     OW20773   6.155   2.804   5.549
 6625SOL    HW120774   6.061   2.801   5.582
 6625SOL    HW220775   6.156   2.795   5.449
 6626SOL     OW20776   3.446   0.165   5.178
 6626SOL    HW120777   3.525   0.224   5.198
 6626SOL    HW220778   3.362   0.218   5.190
 6627SOL     OW20779   2.024   6.157   4.070
 6627SOL    HW120780   2.112   6.155   4.023
 6627SOL    HW220781   1.952   6.124   4.009
 6628SOL     OW20782   5.746   5.563   4.249
 6628SOL    HW120783   5.741   5.471   4.289
 6628SOL    HW220784   5.787   5.626   4.314
 6629SOL     OW20785   4.847   5.172   6.839
 6629SOL    HW120786   4.934   5.147   6.880
 6629SOL    HW220787   4.842   5.271   6.827
 6630SOL     OW20788   3.876   1.849   1.522
 6630SOL    HW120789   3.975   1.846   1.513
 6630SOL    HW220790   3.846   1.780   1.588
 6631SOL     OW20791   2.035   5.487   5.329
 6631SOL    HW120792   1.942   5.488   5.292
 6631SOL    HW220793   2.056   5.396   5.364
 6632SOL     OW20794   1.497   1.044   1.163
 6632SOL    HW120795   1.487   0.992   1.078
 6632SOL    HW220796   1.416   1.030   1.221
 6633SOL     OW20797   3.237   5.066   6.090
 6633SOL    HW120798   3.212   5.049   6.186
 6633SOL    HW220799   3.220   4.984   6.036
 6634SOL     OW20800   4.932   2.194   5.380
 6634SOL    HW120801   5.016   2.212   5.432
 6634SOL    HW220802   4.872   2.135   5.432
 6635SOL     OW20803   4.838   4.163   2.348
 6635SOL    HW120804   4.842   4.091   2.417
 6635SOL    HW220805   4.866   4.126   2.259
 6636SOL     OW20806   2.941   0.593   2.704
 6636SOL    HW120807   2.925   0.621   2.609
 6636SOL    HW220808   2.859   0.608   2.758
 6637SOL     OW20809   2.329   0.364   0.223
 6637SOL    HW120810   2.425   0.353   0.195
 6637SOL    HW220811   2.306   0.461   0.223
 6638SOL     OW20812   3.040   3.320   3.475
 6638SOL    HW120813   3.104   3.249   3.448
 6638SOL    HW220814   3.049   3.338   3.573
 6639SOL     OW20815   3.823   3.397   6.661
 6639SOL    HW120816   3.738   3.364   6.622
 6639SOL    HW220817   3.825   3.379   6.760
 6640SOL     OW20818   6.862   2.260   5.714
 6640SOL    HW120819   6.946   2.276   5.663
 6640SOL    HW220820   6.786   2.305   5.668
 6641SOL     OW20821   3.526   1.801   1.004
 6641SOL    HW120822   3.450   1.817   0.941
 6641SOL    HW220823   3.583   1.727   0.969
 6642SOL     OW20824   1.828   5.320   6.809
 6642SOL    HW120825   1.892   5.395   6.828
 6642SOL    HW220826   1.853   5.240   6.864
 6643SOL     OW20827   6.319   6.738   0.432
 6643SOL    HW120828   6.235   6.758   0.381
 6643SOL    HW220829   6.302   6.747   0.530
 6644SOL     OW20830   1.587   6.269   3.086
 6644SOL    HW120831   1.500   6.218   3.094
 6644SOL    HW220832   1.569   6.360   3.051
 6645SOL     OW20833   5.951   3.096   0.776
 6645SOL    HW120834   5.955   3.059   0.683
 6645SOL    HW220835   6.005   3.038   0.838
 6646SOL     OW20836   4.142   0.891   6.206
 6646SOL    HW120837   4.185   0.806   6.234
 6646SOL    HW220838   4.080   0.873   6.130
 6647SOL     OW20839   4.227   6.014   1.378
 6647SOL    HW120840   4.306   5.953   1.375
 6647SOL    HW220841   4.146   5.967   1.343
 6648SOL     OW20842   3.669   5.756   4.693
 6648SOL    HW120843   3.720   5.686   4.643
 6648SOL    HW220844   3.733   5.818   4.739
 6649SOL     OW20845   5.833   2.813   6.532
 6649SOL    HW120846   5.736   2.838   6.532
 6649SOL    HW220847   5.864   2.804   6.627
 6650SOL     OW20848   3.762   1.179   4.567
 6650SOL    HW120849   3.801   1.088   4.584
 6650SOL    HW220850   3.738   1.187   4.471
 6651SOL     OW20851   1.757   1.841   0.026
 6651SOL    HW120852   1.749   1.901   6.970
 6651SOL    HW220853   1.723   1.888   0.107
 6652SOL     OW20854   0.830   4.585   0.069
 6652SOL    HW120855   0.787   4.674   0.058
 6652SOL    HW220856   0.791   4.520   0.004
 6653SOL     OW20857   4.999   2.846   0.384
 6653SOL    HW120858   4.923   2.901   0.348
 6653SOL    HW220859   4.977   2.816   0.477
 6654SOL     OW20860   0.325   5.187   2.876
 6654SOL    HW120861   0.243   5.244   2.887
 6654SOL    HW220862   0.302   5.107   2.821
 6655SOL     OW20863   0.287   6.012   2.110
 6655SOL    HW120864   0.204   5.956   2.108
 6655SOL    HW220865   0.273   6.094   2.054
 6656SOL     OW20866   4.714   1.659   2.723
 6656SOL    HW120867   4.671   1.748   2.705
 6656SOL    HW220868   4.811   1.663   2.699
 6657SOL     OW20869   5.556   2.128   5.444
 6657SOL    HW120870   5.547   2.188   5.523
 6657SOL    HW220871   5.496   2.048   5.455
 6658SOL     OW20872   6.735   0.378   5.474
 6658SOL    HW120873   6.797   0.299   5.475
 6658SOL    HW220874   6.789   0.462   5.465
 6659SOL     OW20875   1.133   4.147   1.617
 6659SOL    HW120876   1.078   4.074   1.574
 6659SOL    HW220877   1.229   4.133   1.594
 6660SOL     OW20878   1.829   4.853   2.265
 6660SOL    HW120879   1.763   4.803   2.208
 6660SOL    HW220880   1.918   4.808   2.259
 6661SOL     OW20881   2.575   0.271   4.581
 6661SOL    HW120882   2.487   0.228   4.602
 6661SOL    HW220883   2.619   0.299   4.666
 6662SOL     OW20884   2.334   0.658   1.241
 6662SOL    HW120885   2.390   0.682   1.321
 6662SOL    HW220886   2.319   0.559   1.240
 6663SOL     OW20887   1.134   6.026   5.495
 6663SOL    HW120888   1.121   5.930   5.469
 6663SOL    HW220889   1.115   6.037   5.593
 6664SOL     OW20890   2.306   0.790   1.536
 6664SOL    HW120891   2.320   0.828   1.628
 6664SOL    HW220892   2.209   0.773   1.522
 6665SOL     OW20893   2.085   6.483   5.777
 6665SOL    HW120894   2.015   6.458   5.710
 6665SOL    HW220895   2.138   6.560   5.742
 6666SOL     OW20896   6.668   5.756   4.946
 6666SOL    HW120897   6.759   5.722   4.926
 6666SOL    HW220898   6.653   5.842   4.897
 6667SOL     OW20899   6.824   6.542   6.182
 6667SOL    HW120900   6.796   6.638   6.180
 6667SOL    HW220901   6.747   6.485   6.212
 6668SOL     OW20902   6.809   6.199   0.958
 6668SOL    HW120903   6.870   6.124   0.931
 6668SOL    HW220904   6.751   6.224   0.881
 6669SOL     OW20905   3.765   2.123   1.571
 6669SOL    HW120906   3.689   2.185   1.553
 6669SOL    HW220907   3.731   2.030   1.585
 6670SOL     OW20908   2.989   1.267   6.688
 6670SOL    HW120909   2.957   1.181   6.648
 6670SOL    HW220910   3.015   1.330   6.614
 6671SOL     OW20911   5.125   6.780   0.774
 6671SOL    HW120912   5.030   6.761   0.799
 6671SOL    HW220913   5.159   6.709   0.712
 6672SOL     OW20914   1.589   2.371   0.308
 6672SOL    HW120915   1.599   2.446   0.374
 6672SOL    HW220916   1.554   2.290   0.355
 6673SOL     OW20917   4.908   3.908   3.952
 6673SOL    HW120918   4.888   3.819   3.994
 6673SOL    HW220919   4.964   3.962   4.015
 6674SOL     OW20920   0.105   3.165   6.720
 6674SOL    HW120921   0.086   3.100   6.794
 6674SOL    HW220922   0.021   3.184   6.670
 6675SOL     OW20923   4.405   1.984   6.866
 6675SOL    HW120924   4.427   2.022   6.776
 6675SOL    HW220925   4.470   2.018   6.934
 6676SOL     OW20926   1.229   3.733   2.762
 6676SOL    HW120927   1.164   3.788   2.709
 6676SOL    HW220928   1.305   3.791   2.793
 6677SOL     OW20929   1.037   0.667   6.458
 6677SOL    HW120930   0.972   0.695   6.386
 6677SOL    HW220931   1.070   0.748   6.507
 6678SOL     OW20932   1.731   4.057   0.655
 6678SOL    HW120933   1.782   4.113   0.591
 6678SOL    HW220934   1.646   4.026   0.612
 6679SOL     OW20935   3.548   1.078   3.958
 6679SOL    HW120936   3.569   1.036   4.046
 6679SOL    HW220937   3.628   1.075   3.898
 6680SOL     OW20938   4.431   6.103   6.832
 6680SOL    HW120939   4.377   6.138   6.755
 6680SOL    HW220940   4.374   6.046   6.890
 6681SOL     OW20941   5.022   5.647   1.953
 6681SOL    HW120942   5.093   5.712   1.978
 6681SOL    HW220943   4.935   5.696   1.941
 6682SOL     OW20944   2.321   4.729   6.646
 6682SOL    HW120945   2.315   4.662   6.720
 6682SOL    HW220946   2.324   4.682   6.558
 6683SOL     OW20947   5.760   3.334   5.976
 6683SOL    HW120948   5.824   3.300   6.044
 6683SOL    HW220949   5.785   3.427   5.950
 6684SOL     OW20950   3.724   6.923   2.385
 6684SOL    HW120951   3.680   6.882   2.306
 6684SOL    HW220952   3.716   6.860   2.463
 6685SOL     OW20953   4.737   3.117   6.318
 6685SOL    HW120954   4.738   3.105   6.219
 6685SOL    HW220955   4.808   3.184   6.344
 6686SOL     OW20956   6.231   6.235   3.422
 6686SOL    HW120957   6.156   6.176   3.451
 6686SOL    HW220958   6.207   6.281   3.337
 6687SOL     OW20959   0.757   2.504   1.522
 6687SOL    HW120960   0.709   2.417   1.508
 6687SOL    HW220961   0.837   2.508   1.462
 6688SOL     OW20962   3.977   4.010   0.806
 6688SOL    HW120963   3.981   4.109   0.802
 6688SOL    HW220964   3.938   3.981   0.894
 6689SOL     OW20965   4.339   3.965   5.942
 6689SOL    HW120966   4.290   3.954   6.029
 6689SOL    HW220967   4.346   4.062   5.921
 6690SOL     OW20968   1.365   6.854   6.583
 6690SOL    HW120969   1.348   6.801   6.667
 6690SOL    HW220970   1.288   6.915   6.567
 6691SOL     OW20971   1.562   0.725   2.557
 6691SOL    HW120972   1.649   0.678   2.571
 6691SOL    HW220973   1.507   0.719   2.641
 6692SOL     OW20974   4.081   3.954   1.834
 6692SOL    HW120975   4.109   4.049   1.848
 6692SOL    HW220976   4.056   3.914   1.923
 6693SOL     OW20977   4.455   1.654   4.695
 6693SOL    HW120978   4.422   1.663   4.789
 6693SOL    HW220979   4.378   1.657   4.631
 6694SOL     OW20980   4.143   5.634   1.343
 6694SOL    HW120981   4.074   5.561   1.348
 6694SOL    HW220982   4.097   5.720   1.320
 6695SOL     OW20983   2.625   1.897   7.003
 6695SOL    HW120984   2.596   1.874   0.073
 6695SOL    HW220985   2.697   1.835   6.975
 6696SOL     OW20986   3.809   4.043   3.664
 6696SOL    HW120987   3.814   3.945   3.682
 6696SOL    HW220988   3.900   4.084   3.670
 6697SOL     OW20989   4.906   2.588   2.604
 6697SOL    HW120990   4.926   2.605   2.507
 6697SOL    HW220991   4.825   2.530   2.612
 6698SOL     OW20992   3.044   3.495   1.376
 6698SOL    HW120993   2.974   3.528   1.438
 6698SOL    HW220994   3.120   3.455   1.428
 6699SOL     OW20995   2.282   6.144   5.664
 6699SOL    HW120996   2.296   6.046   5.678
 6699SOL    HW220997   2.214   6.159   5.593
 6700SOL     OW20998   5.760   0.514   0.870
 6700SOL    HW120999   5.782   0.533   0.774
 6700SOL    HW221000   5.838   0.467   0.913
 6701SOL     OW21001   5.683   6.715   2.258
 6701SOL    HW121002   5.724   6.777   2.192
 6701SOL    HW221003   5.681   6.759   2.348
 6702SOL     OW21004   2.240   2.425   1.931
 6702SOL    HW121005   2.296   2.506   1.913
 6702SOL    HW221006   2.206   2.429   2.026
 6703SOL     OW21007   1.099   1.137   6.860
 6703SOL    HW121008   1.121   1.211   6.797
 6703SOL    HW221009   1.028   1.168   6.924
 6704SOL     OW21010   4.091   1.481   4.299
 6704SOL    HW121011   3.999   1.494   4.336
 6704SOL    HW221012   4.147   1.431   4.365
 6705SOL     OW21013   6.057   2.853   0.860
 6705SOL    HW121014   6.108   2.859   0.774
 6705SOL    HW221015   5.970   2.809   0.843
 6706SOL     OW21016   1.162   6.023   0.622
 6706SOL    HW121017   1.184   6.119   0.640
 6706SOL    HW221018   1.238   5.979   0.575
 6707SOL     OW21019   5.112   7.021   2.692
 6707SOL    HW121020   5.043   6.998   2.760
 6707SOL    HW221021   5.098   6.965   2.610
 6708SOL     OW21022   5.932   5.250   1.468
 6708SOL    HW121023   5.950   5.173   1.529
 6708SOL    HW221024   5.910   5.216   1.376
 6709SOL     OW21025   0.652   4.601   2.850
 6709SOL    HW121026   0.710   4.519   2.853
 6709SOL    HW221027   0.694   4.669   2.790
 6710SOL     OW21028   4.493   1.225   1.529
 6710SOL    HW121029   4.559   1.210   1.603
 6710SOL    HW221030   4.407   1.260   1.568
 6711SOL     OW21031   4.537   6.838   5.703
 6711SOL    HW121032   4.557   6.935   5.685
 6711SOL    HW221033   4.497   6.797   5.621
 6712SOL     OW21034   6.174   3.513   1.181
 6712SOL    HW121035   6.157   3.478   1.089
 6712SOL    HW221036   6.156   3.441   1.248
 6713SOL     OW21037   1.004   1.701   3.583
 6713SOL    HW121038   0.995   1.738   3.491
 6713SOL    HW221039   1.088   1.647   3.590
 6714SOL     OW21040   5.685   1.173   0.756
 6714SOL    HW121041   5.638   1.259   0.775
 6714SOL    HW221042   5.633   1.121   0.688
 6715SOL     OW21043   1.829   1.341   1.516
 6715SOL    HW121044   1.771   1.311   1.592
 6715SOL    HW221045   1.917   1.294   1.520
 6716SOL     OW21046   6.663   5.997   2.459
 6716SOL    HW121047   6.736   6.050   2.501
 6716SOL    HW221048   6.591   5.979   2.526
 6717SOL     OW21049   2.820   2.156   6.169
 6717SOL    HW121050   2.828   2.185   6.265
 6717SOL    HW221051   2.909   2.165   6.124
 6718SOL     OW21052   3.975   1.405   0.996
 6718SOL    HW121053   4.010   1.449   0.913
 6718SOL    HW221054   3.876   1.396   0.990
 6719SOL     OW21055   1.951   6.696   0.118
 6719SOL    HW121056   2.007   6.753   0.058
 6719SOL    HW221057   1.957   6.601   0.089
 6720SOL     OW21058   2.708   1.377   5.119
 6720SOL    HW121059   2.803   1.359   5.094
 6720SOL    HW221060   2.647   1.347   5.045
 6721SOL     OW21061   6.985   0.010   0.667
 6721SOL    HW121062   6.915   0.043   0.604
 6721SOL    HW221063   0.051   0.046   0.641
 6722SOL     OW21064   0.539   2.316   0.354
 6722SOL    HW121065   0.469   2.253   0.387
 6722SOL    HW221066   0.514   2.348   0.263
 6723SOL     OW21067   1.777   0.157   6.320
 6723SOL    HW121068   1.683   0.157   6.354
 6723SOL    HW221069   1.833   0.219   6.376
 6724SOL     OW21070   2.331   2.499   6.196
 6724SOL    HW121071   2.375   2.548   6.272
 6724SOL    HW221072   2.326   2.559   6.116
 6725SOL     OW21073   6.193   3.145   2.362
 6725SOL    HW121074   6.144   3.063   2.332
 6725SOL    HW221075   6.259   3.120   2.432
 6726SOL     OW21076   0.393   1.867   4.535
 6726SOL    HW121077   0.378   1.956   4.577
 6726SOL    HW221078   0.324   1.802   4.568
 6727SOL     OW21079   0.883   4.157   5.542
 6727SOL    HW121080   0.857   4.218   5.617
 6727SOL    HW221081   0.891   4.063   5.576
 6728SOL     OW21082   3.338   1.437   3.421
 6728SOL    HW121083   3.292   1.525   3.432
 6728SOL    HW221084   3.341   1.412   3.325
 6729SOL     OW21085   6.705   1.768   0.104
 6729SOL    HW121086   6.740   1.862   0.108
 6729SOL    HW221087   6.640   1.754   0.178
 6730SOL     OW21088   1.938   0.791   1.141
 6730SOL    HW121089   1.966   0.858   1.209
 6730SOL    HW221090   1.981   0.703   1.160
 6731SOL     OW21091   1.474   6.711   1.055
 6731SOL    HW121092   1.541   6.736   1.125
 6731SOL    HW221093   1.496   6.757   0.969
 6732SOL     OW21094   5.231   4.245   4.040
 6732SOL    HW121095   5.238   4.313   4.114
 6732SOL    HW221096   5.289   4.273   3.964
 6733SOL     OW21097   4.055   5.359   6.453
 6733SOL    HW121098   4.021   5.295   6.522
 6733SOL    HW221099   4.153   5.343   6.438
 6734SOL     OW21100   5.510   2.390   5.913
 6734SOL    HW121101   5.565   2.358   5.991
 6734SOL    HW221102   5.474   2.481   5.933
 6735SOL     OW21103   5.312   3.795   4.057
 6735SOL    HW121104   5.256   3.815   4.138
 6735SOL    HW221105   5.292   3.862   3.985
 6736SOL     OW21106   3.224   3.694   6.732
 6736SOL    HW121107   3.152   3.706   6.801
 6736SOL    HW221108   3.184   3.659   6.648
 6737SOL     OW21109   1.303   3.032   1.112
 6737SOL    HW121110   1.220   3.049   1.060
 6737SOL    HW221111   1.334   3.118   1.154
 6738SOL     OW21112   1.637   6.046   4.068
 6738SOL    HW121113   1.721   6.020   4.019
 6738SOL    HW221114   1.562   6.054   4.003
 6739SOL     OW21115   6.528   5.951   3.731
 6739SOL    HW121116   6.590   5.876   3.753
 6739SOL    HW221117   6.576   6.019   3.675
 6740SOL     OW21118   6.615   0.167   5.006
 6740SOL    HW121119   6.667   0.250   5.023
 6740SOL    HW221120   6.609   0.113   5.091
 6741SOL     OW21121   4.016   1.985   6.173
 6741SOL    HW121122   4.021   1.887   6.196
 6741SOL    HW221123   3.920   2.014   6.173
 6742SOL     OW21124   6.025   5.524   3.977
 6742SOL    HW121125   6.087   5.476   4.039
 6742SOL    HW221126   6.025   5.622   3.999
 6743SOL     OW21127   3.686   3.933   6.554
 6743SOL    HW121128   3.644   3.965   6.469
 6743SOL    HW221129   3.753   3.862   6.533
 6744SOL     OW21130   0.109   6.620   5.976
 6744SOL    HW121131   0.092   6.544   6.038
 6744SOL    HW221132   0.053   6.610   5.894
 6745SOL     OW21133   7.013   6.255   3.340
 6745SOL    HW121134   6.925   6.215   3.311
 6745SOL    HW221135   0.033   6.193   3.406
 6746SOL     OW21136   1.740   0.964   2.939
 6746SOL    HW121137   1.646   0.990   2.959
 6746SOL    HW221138   1.786   0.935   3.023
 6747SOL     OW21139   6.047   0.173   6.853
 6747SOL    HW121140   6.109   0.242   6.891
 6747SOL    HW221141   5.992   0.134   6.927
 6748SOL     OW21142   2.802   2.052   3.404
 6748SOL    HW121143   2.872   1.982   3.415
 6748SOL    HW221144   2.843   2.142   3.417
 6749SOL     OW21145   3.543   4.444   1.124
 6749SOL    HW121146   3.535   4.349   1.095
 6749SOL    HW221147   3.638   4.464   1.147
 6750SOL     OW21148   3.106   1.887   4.002
 6750SOL    HW121149   3.128   1.864   3.907
 6750SOL    HW221150   3.132   1.982   4.020
 6751SOL     OW21151   4.908   0.485   3.131
 6751SOL    HW121152   4.915   0.574   3.087
 6751SOL    HW221153   4.817   0.475   3.172
 6752SOL     OW21154   1.845   0.242   3.801
 6752SOL    HW121155   1.826   0.297   3.720
 6752SOL    HW221156   1.907   0.167   3.778
 6753SOL     OW21157   3.513   2.087   5.584
 6753SOL    HW121158   3.440   2.149   5.611
 6753SOL    HW221159   3.594   2.141   5.557
 6754SOL     OW21160   6.399   1.221   1.163
 6754SOL    HW121161   6.406   1.255   1.070
 6754SOL    HW221162   6.358   1.292   1.221
 6755SOL     OW21163   3.564   4.113   1.154
 6755SOL    HW121164   3.603   4.148   1.240
 6755SOL    HW221165   3.634   4.114   1.083
 6756SOL     OW21166   3.708   0.654   5.385
 6756SOL    HW121167   3.701   0.563   5.427
 6756SOL    HW221168   3.754   0.716   5.448
 6757SOL     OW21169   3.926   1.877   1.211
 6757SOL    HW121170   3.871   1.960   1.211
 6757SOL    HW221171   3.943   1.847   1.305
 6758SOL     OW21172   5.901   3.095   1.537
 6758SOL    HW121173   5.986   3.045   1.558
 6758SOL    HW221174   5.823   3.034   1.549
 6759SOL     OW21175   6.931   3.325   3.025
 6759SOL    HW121176   6.960   3.341   2.931
 6759SOL    HW221177   6.972   3.394   3.085
 6760SOL     OW21178   6.143   3.994   2.313
 6760SOL    HW121179   6.077   3.919   2.324
 6760SOL    HW221180   6.234   3.956   2.298
 6761SOL     OW21181   5.693   2.837   4.727
 6761SOL    HW121182   5.616   2.783   4.761
 6761SOL    HW221183   5.746   2.873   4.804
 6762SOL     OW21184   0.246   4.853   4.489
 6762SOL    HW121185   0.250   4.772   4.431
 6762SOL    HW221186   0.150   4.880   4.501
 6763SOL     OW21187   5.116   5.173   4.612
 6763SOL    HW121188   5.070   5.189   4.699
 6763SOL    HW221189   5.109   5.076   4.589
 6764SOL     OW21190   1.824   5.469   2.363
 6764SOL    HW121191   1.746   5.528   2.385
 6764SOL    HW221192   1.902   5.494   2.419
 6765SOL     OW21193   6.294   4.692   2.777
 6765SOL    HW121194   6.195   4.674   2.780
 6765SOL    HW221195   6.310   4.786   2.748
 6766SOL     OW21196   4.926   6.495   5.615
 6766SOL    HW121197   4.876   6.458   5.693
 6766SOL    HW221198   4.863   6.513   5.541
 6767SOL     OW21199   3.420   0.122   1.418
 6767SOL    HW121200   3.360   0.200   1.437
 6767SOL    HW221201   3.405   0.090   1.325
 6768SOL     OW21202   1.957   0.525   5.557
 6768SOL    HW121203   1.871   0.481   5.531
 6768SOL    HW221204   2.021   0.522   5.480
 6769SOL     OW21205   3.343   1.625   0.528
 6769SOL    HW121206   3.389   1.586   0.608
 6769SOL    HW221207   3.246   1.600   0.529
 6770SOL     OW21208   6.866   1.461   2.064
 6770SOL    HW121209   6.881   1.460   2.163
 6770SOL    HW221210   6.954   1.455   2.017
 6771SOL     OW21211   4.747   2.609   3.624
 6771SOL    HW121212   4.693   2.668   3.683
 6771SOL    HW221213   4.834   2.588   3.669
 6772SOL     OW21214   3.254   1.130   3.318
 6772SOL    HW121215   3.221   1.055   3.261
 6772SOL    HW221216   3.301   1.198   3.261
 6773SOL     OW21217   6.996   5.149   1.604
 6773SOL    HW121218   6.983   5.241   1.641
 6773SOL    HW221219   7.010   5.084   1.679
 6774SOL     OW21220   0.374   2.340   5.857
 6774SOL    HW121221   0.431   2.271   5.813
 6774SOL    HW221222   0.380   2.426   5.805
 6775SOL     OW21223   2.702   3.142   1.736
 6775SOL    HW121224   2.772   3.072   1.743
 6775SOL    HW221225   2.723   3.217   1.798
 6776SOL     OW21226   4.170   4.557   6.926
 6776SOL    HW121227   4.257   4.531   6.967
 6776SOL    HW221228   4.165   4.523   6.832
 6777SOL     OW21229   4.338   4.117   6.877
 6777SOL    HW121230   4.252   4.149   6.836
 6777SOL    HW221231   4.415   4.163   6.832
 6778SOL     OW21232   5.985   4.666   2.542
 6778SOL    HW121233   5.893   4.698   2.523
 6778SOL    HW221234   5.994   4.571   2.512
 6779SOL     OW21235   6.794   5.026   6.428
 6779SOL    HW121236   6.807   4.976   6.513
 6779SOL    HW221237   6.840   5.115   6.434
 6780SOL     OW21238   1.263   2.348   1.935
 6780SOL    HW121239   1.322   2.419   1.896
 6780SOL    HW221240   1.319   2.275   1.973
 6781SOL     OW21241   6.200   0.086   4.865
 6781SOL    HW121242   6.101   0.074   4.853
 6781SOL    HW221243   6.231   0.160   4.806
 6782SOL     OW21244   0.004   7.006   3.680
 6782SOL    HW121245   0.044   6.973   3.594
 6782SOL    HW221246   0.034   0.076   3.696
 6783SOL     OW21247   6.464   0.820   6.164
 6783SOL    HW121248   6.496   0.778   6.079
 6783SOL    HW221249   6.436   0.915   6.146
 6784SOL     OW21250   2.923   3.418   0.676
 6784SOL    HW121251   2.875   3.458   0.754
 6784SOL    HW221252   3.012   3.463   0.664
 6785SOL     OW21253   5.463   4.661   2.943
 6785SOL    HW121254   5.533   4.591   2.927
 6785SOL    HW221255   5.468   4.693   3.038
 6786SOL     OW21256   1.141   2.062   0.294
 6786SOL    HW121257   1.085   2.101   0.221
 6786SOL    HW221258   1.142   1.963   0.287
 6787SOL     OW21259   1.575   2.964   1.017
 6787SOL    HW121260   1.475   2.973   1.016
 6787SOL    HW221261   1.613   3.018   0.942
 6788SOL     OW21262   2.568   3.337   1.345
 6788SOL    HW121263   2.666   3.333   1.365
 6788SOL    HW221264   2.517   3.287   1.415
 6789SOL     OW21265   6.429   6.305   2.787
 6789SOL    HW121266   6.456   6.298   2.883
 6789SOL    HW221267   6.509   6.290   2.729
 6790SOL     OW21268   1.214   3.873   0.967
 6790SOL    HW121269   1.141   3.936   0.997
 6790SOL    HW221270   1.303   3.913   0.988
 6791SOL     OW21271   4.461   2.781   1.460
 6791SOL    HW121272   4.381   2.723   1.476
 6791SOL    HW221273   4.474   2.842   1.538
 6792SOL     OW21274   6.691   6.117   5.851
 6792SOL    HW121275   6.713   6.077   5.940
 6792SOL    HW221276   6.724   6.211   5.847
 6793SOL     OW21277   0.874   1.709   0.357
 6793SOL    HW121278   0.778   1.681   0.363
 6793SOL    HW221279   0.925   1.642   0.303
 6794SOL     OW21280   5.162   1.703   6.090
 6794SOL    HW121281   5.202   1.784   6.048
 6794SOL    HW221282   5.188   1.699   6.187
 6795SOL     OW21283   2.613   6.362   0.880
 6795SOL    HW121284   2.711   6.347   0.886
 6795SOL    HW221285   2.577   6.316   0.799
 6796SOL     OW21286   6.538   0.931   2.546
 6796SOL    HW121287   6.466   0.862   2.555
 6796SOL    HW221288   6.587   0.917   2.460
 6797SOL     OW21289   5.458   3.464   1.627
 6797SOL    HW121290   5.430   3.371   1.601
 6797SOL    HW221291   5.511   3.460   1.712
 6798SOL     OW21292   5.109   6.490   2.679
 6798SOL    HW121293   5.208   6.474   2.691
 6798SOL    HW221294   5.058   6.416   2.723
 6799SOL     OW21295   6.558   6.278   0.352
 6799SOL    HW121296   6.537   6.376   0.348
 6799SOL    HW221297   6.656   6.265   0.340
 6800SOL     OW21298   2.348   3.841   0.947
 6800SOL    HW121299   2.318   3.811   0.856
 6800SOL    HW221300   2.429   3.791   0.974
 6801SOL     OW21301   0.862   0.574   2.931
 6801SOL    HW121302   0.855   0.674   2.934
 6801SOL    HW221303   0.771   0.534   2.923
 6802SOL     OW21304   3.213   5.854   0.295
 6802SOL    HW121305   3.289   5.918   0.296
 6802SOL    HW221306   3.160   5.864   0.379
 6803SOL     OW21307   5.210   2.718   6.226
 6803SOL    HW121308   5.260   2.650   6.172
 6803SOL    HW221309   5.188   2.797   6.168
 6804SOL     OW21310   2.969   5.270   3.513
 6804SOL    HW121311   2.879   5.313   3.516
 6804SOL    HW221312   2.971   5.201   3.441
 6805SOL     OW21313   6.043   5.434   5.918
 6805SOL    HW121314   6.100   5.413   5.838
 6805SOL    HW221315   6.101   5.445   5.999
 6806SOL     OW21316   6.277   0.718   3.359
 6806SOL    HW121317   6.282   0.683   3.452
 6806SOL    HW221318   6.182   0.718   3.328
 6807SOL     OW21319   3.239   2.538   0.577
 6807SOL    HW121320   3.276   2.458   0.529
 6807SOL    HW221321   3.144   2.553   0.549
 6808SOL     OW21322   0.222   1.800   5.314
 6808SOL    HW121323   0.195   1.823   5.407
 6808SOL    HW221324   0.144   1.812   5.252
 6809SOL     OW21325   1.490   3.125   1.824
 6809SOL    HW121326   1.396   3.126   1.860
 6809SOL    HW221327   1.542   3.053   1.869
 6810SOL     OW21328   2.088   0.478   1.767
 6810SOL    HW121329   2.051   0.473   1.860
 6810SOL    HW221330   2.184   0.448   1.769
 6811SOL     OW21331   4.859   4.318   0.707
 6811SOL    HW121332   4.922   4.373   0.652
 6811SOL    HW221333   4.842   4.231   0.661
 6812SOL     OW21334   3.364   3.408   3.464
 6812SOL    HW121335   3.366   3.323   3.517
 6812SOL    HW221336   3.420   3.398   3.382
 6813SOL     OW21337   4.766   2.181   2.384
 6813SOL    HW121338   4.790   2.097   2.433
 6813SOL    HW221339   4.682   2.166   2.331
 6814SOL     OW21340   3.346   2.043   0.212
 6814SOL    HW121341   3.324   1.967   0.274
 6814SOL    HW221342   3.360   2.126   0.265
 6815SOL     OW21343   2.689   0.038   1.464
 6815SOL    HW121344   2.651   6.981   1.418
 6815SOL    HW221345   2.731   0.098   1.397
 6816SOL     OW21346   0.238   6.957   6.596
 6816SOL    HW121347   0.201   6.891   6.662
 6816SOL    HW221348   0.172   0.007   6.582
 6817SOL     OW21349   1.018   1.948   4.603
 6817SOL    HW121350   1.094   1.990   4.653
 6817SOL    HW221351   0.976   2.015   4.542
 6818SOL     OW21352   2.943   5.165   1.935
 6818SOL    HW121353   2.909   5.234   1.999
 6818SOL    HW221354   2.871   5.099   1.916
 6819SOL     OW21355   5.000   0.856   4.324
 6819SOL    HW121356   5.057   0.922   4.373
 6819SOL    HW221357   5.000   0.769   4.373
 6820SOL     OW21358   1.329   5.521   2.894
 6820SOL    HW121359   1.403   5.467   2.934
 6820SOL    HW221360   1.339   5.524   2.794
 6821SOL     OW21361   2.989   1.238   5.090
 6821SOL    HW121362   3.064   1.173   5.100
 6821SOL    HW221363   3.024   1.323   5.050
 6822SOL     OW21364   5.736   2.359   6.130
 6822SOL    HW121365   5.657   2.374   6.188
 6822SOL    HW221366   5.814   2.411   6.164
 6823SOL     OW21367   3.507   3.148   4.168
 6823SOL    HW121368   3.569   3.215   4.209
 6823SOL    HW221369   3.540   3.055   4.189
 6824SOL     OW21370   1.008   2.623   6.260
 6824SOL    HW121371   0.960   2.643   6.346
 6824SOL    HW221372   1.051   2.534   6.266
 6825SOL     OW21373   5.028   6.422   2.350
 6825SOL    HW121374   4.975   6.480   2.287
 6825SOL    HW221375   5.006   6.446   2.444
 6826SOL     OW21376   2.019   4.186   2.472
 6826SOL    HW121377   2.077   4.129   2.529
 6826SOL    HW221378   1.927   4.146   2.468
 6827SOL     OW21379   4.469   5.389   6.931
 6827SOL    HW121380   4.544   5.450   6.907
 6827SOL    HW221381   4.505   5.305   6.971
 6828SOL     OW21382   2.641   1.815   1.833
 6828SOL    HW121383   2.580   1.737   1.847
 6828SOL    HW221384   2.730   1.782   1.801
 6829SOL     OW21385   4.716   6.607   4.369
 6829SOL    HW121386   4.617   6.594   4.356
 6829SOL    HW221387   4.761   6.609   4.280
 6830SOL     OW21388   5.150   1.422   4.068
 6830SOL    HW121389   5.233   1.459   4.109
 6830SOL    HW221390   5.151   1.435   3.969
 6831SOL     OW21391   1.195   0.476   6.591
 6831SOL    HW121392   1.133   0.531   6.536
 6831SOL    HW221393   1.258   0.537   6.640
 6832SOL     OW21394   2.582   3.723   0.967
 6832SOL    HW121395   2.630   3.703   1.052
 6832SOL    HW221396   2.584   3.642   0.908
 6833SOL     OW21397   4.520   4.520   6.191
 6833SOL    HW121398   4.434   4.529   6.140
 6833SOL    HW221399   4.501   4.528   6.289
 6834SOL     OW21400   5.430   6.775   1.175
 6834SOL    HW121401   5.495   6.820   1.114
 6834SOL    HW221402   5.364   6.842   1.208
 6835SOL     OW21403   3.528   0.391   4.888
 6835SOL    HW121404   3.506   0.464   4.953
 6835SOL    HW221405   3.583   0.427   4.814
 6836SOL     OW21406   2.830   5.557   0.400
 6836SOL    HW121407   2.765   5.543   0.326
 6836SOL    HW221408   2.880   5.472   0.417
 6837SOL     OW21409   1.618   1.944   2.167
 6837SOL    HW121410   1.640   1.853   2.200
 6837SOL    HW221411   1.692   1.978   2.109
 6838SOL     OW21412   2.791   6.119   0.742
 6838SOL    HW121413   2.784   6.019   0.743
 6838SOL    HW221414   2.833   6.149   0.656
 6839SOL     OW21415   5.193   0.672   7.012
 6839SOL    HW121416   5.261   0.610   0.028
 6839SOL    HW221417   5.171   0.642   6.919
 6840SOL     OW21418   2.733   1.709   4.789
 6840SOL    HW121419   2.780   1.796   4.771
 6840SOL    HW221420   2.800   1.634   4.788
 6841SOL     OW21421   5.336   4.024   6.338
 6841SOL    HW121422   5.246   4.046   6.376
 6841SOL    HW221423   5.407   4.044   6.405
 6842SOL     OW21424   2.953   4.180   1.403
 6842SOL    HW121425   2.995   4.121   1.334
 6842SOL    HW221426   2.862   4.145   1.425
 6843SOL     OW21427   5.370   6.189   0.646
 6843SOL    HW121428   5.431   6.110   0.636
 6843SOL    HW221429   5.416   6.259   0.701
 6844SOL     OW21430   5.607   0.954   4.509
 6844SOL    HW121431   5.575   0.978   4.417
 6844SOL    HW221432   5.529   0.948   4.571
 6845SOL     OW21433   6.294   3.379   3.304
 6845SOL    HW121434   6.338   3.410   3.388
 6845SOL    HW221435   6.227   3.447   3.274
 6846SOL     OW21436   3.763   3.980   0.234
 6846SOL    HW121437   3.822   4.055   0.264
 6846SOL    HW221438   3.819   3.903   0.206
 6847SOL     OW21439   0.152   3.788   5.329
 6847SOL    HW121440   0.138   3.785   5.428
 6847SOL    HW221441   0.115   3.705   5.288
 6848SOL     OW21442   5.141   4.561   3.233
 6848SOL    HW121443   5.072   4.614   3.283
 6848SOL    HW221444   5.196   4.622   3.176
 6849SOL     OW21445   4.303   4.122   5.620
 6849SOL    HW121446   4.315   4.099   5.524
 6849SOL    HW221447   4.264   4.043   5.668
 6850SOL     OW21448   5.114   2.746   2.812
 6850SOL    HW121449   5.118   2.726   2.910
 6850SOL    HW221450   5.026   2.716   2.776
 6851SOL     OW21451   0.583   2.439   2.731
 6851SOL    HW121452   0.610   2.535   2.734
 6851SOL    HW221453   0.614   2.393   2.814
 6852SOL     OW21454   2.900   4.438   1.280
 6852SOL    HW121455   2.922   4.352   1.326
 6852SOL    HW221456   2.851   4.419   1.195
 6853SOL     OW21457   5.499   4.095   6.520
 6853SOL    HW121458   5.571   4.026   6.529
 6853SOL    HW221459   5.502   4.156   6.599
 6854SOL     OW21460   5.634   0.208   5.689
 6854SOL    HW121461   5.618   0.142   5.615
 6854SOL    HW221462   5.580   0.181   5.769
 6855SOL     OW21463   4.069   5.329   3.666
 6855SOL    HW121464   3.984   5.321   3.615
 6855SOL    HW221465   4.051   5.370   3.756
 6856SOL     OW21466   0.606   2.346   4.918
 6856SOL    HW121467   0.697   2.387   4.922
 6856SOL    HW221468   0.609   2.261   4.867
 6857SOL     OW21469   1.142   3.084   6.584
 6857SOL    HW121470   1.050   3.100   6.619
 6857SOL    HW221471   1.199   3.044   6.656
 6858SOL     OW21472   3.749   4.010   1.921
 6858SOL    HW121473   3.754   4.083   1.854
 6858SOL    HW221474   3.656   4.005   1.957
 6859SOL     OW21475   0.686   0.835   1.364
 6859SOL    HW121476   0.704   0.835   1.266
 6859SOL    HW221477   0.773   0.821   1.413
 6860SOL     OW21478   6.876   4.656   1.292
 6860SOL    HW121479   6.827   4.589   1.236
 6860SOL    HW221480   6.965   4.676   1.250
 6861SOL     OW21481   5.339   3.693   6.301
 6861SOL    HW121482   5.343   3.629   6.225
 6861SOL    HW221483   5.432   3.717   6.329
 6862SOL     OW21484   6.829   5.285   5.685
 6862SOL    HW121485   6.875   5.197   5.694
 6862SOL    HW221486   6.859   5.346   5.757
 6863SOL     OW21487   6.714   6.409   5.905
 6863SOL    HW121488   6.644   6.391   5.975
 6863SOL    HW221489   6.683   6.483   5.846
 6864SOL     OW21490   1.737   4.902   5.077
 6864SOL    HW121491   1.754   4.857   4.989
 6864SOL    HW221492   1.800   4.980   5.087
 6865SOL     OW21493   0.909   0.059   5.130
 6865SOL    HW121494   0.919   0.010   5.217
 6865SOL    HW221495   0.890   7.017   5.057
 6866SOL     OW21496   5.697   4.699   2.548
 6866SOL    HW121497   5.691   4.600   2.547
 6866SOL    HW221498   5.617   4.737   2.595
 6867SOL     OW21499   2.158   3.496   1.684
 6867SOL    HW121500   2.226   3.483   1.756
 6867SOL    HW221501   2.197   3.467   1.596
 6868SOL     OW21502   2.170   6.650   4.928
 6868SOL    HW121503   2.122   6.727   4.969
 6868SOL    HW221504   2.268   6.670   4.926
 6869SOL     OW21505   4.932   1.017   6.115
 6869SOL    HW121506   4.934   1.094   6.179
 6869SOL    HW221507   4.838   0.987   6.101
 6870SOL     OW21508   0.209   4.190   1.177
 6870SOL    HW121509   0.178   4.245   1.099
 6870SOL    HW221510   0.305   4.213   1.198
 6871SOL     OW21511   6.542   3.953   2.653
 6871SOL    HW121512   6.451   3.926   2.684
 6871SOL    HW221513   6.563   4.045   2.687
 6872SOL     OW21514   0.420   2.974   1.784
 6872SOL    HW121515   0.377   3.028   1.711
 6872SOL    HW221516   0.500   2.927   1.747
 6873SOL     OW21517   1.044   3.739   4.290
 6873SOL    HW121518   1.017   3.824   4.245
 6873SOL    HW221519   1.058   3.667   4.222
 6874SOL     OW21520   6.299   5.528   3.700
 6874SOL    HW121521   6.249   5.607   3.736
 6874SOL    HW221522   6.350   5.556   3.619
 6875SOL     OW21523   2.343   1.597   2.272
 6875SOL    HW121524   2.364   1.680   2.220
 6875SOL    HW221525   2.397   1.521   2.236
 6876SOL     OW21526   3.379   0.089   3.648
 6876SOL    HW121527   3.379   0.157   3.574
 6876SOL    HW221528   3.295   0.099   3.701
 6877SOL     OW21529   3.462   4.096   1.700
 6877SOL    HW121530   3.454   4.195   1.716
 6877SOL    HW221531   3.397   4.047   1.758
 6878SOL     OW21532   2.394   1.647   3.579
 6878SOL    HW121533   2.403   1.576   3.509
 6878SOL    HW221534   2.426   1.734   3.543
 6879SOL     OW21535   2.254   2.236   0.183
 6879SOL    HW121536   2.174   2.243   0.123
 6879SOL    HW221537   2.337   2.245   0.129
 6880SOL     OW21538   0.969   6.229   5.868
 6880SOL    HW121539   1.020   6.297   5.921
 6880SOL    HW221540   1.030   6.154   5.841
 6881SOL     OW21541   1.837   3.034   1.413
 6881SOL    HW121542   1.792   2.947   1.394
 6881SOL    HW221543   1.931   3.017   1.443
 6882SOL     OW21544   2.672   0.801   0.477
 6882SOL    HW121545   2.630   0.819   0.567
 6882SOL    HW221546   2.731   0.721   0.483
 6883SOL     OW21547   5.182   1.748   6.361
 6883SOL    HW121548   5.250   1.821   6.374
 6883SOL    HW221549   5.119   1.748   6.438
 6884SOL     OW21550   0.974   4.228   3.140
 6884SOL    HW121551   0.994   4.264   3.049
 6884SOL    HW221552   0.968   4.304   3.205
 6885SOL     OW21553   4.778   5.020   3.836
 6885SOL    HW121554   4.840   4.946   3.862
 6885SOL    HW221555   4.731   4.996   3.751
 6886SOL     OW21556   0.252   1.399   4.823
 6886SOL    HW121557   0.187   1.353   4.764
 6886SOL    HW221558   0.292   1.334   4.887
 6887SOL     OW21559   4.412   5.755   6.948
 6887SOL    HW121560   4.438   5.724   0.017
 6887SOL    HW221561   4.365   5.843   6.955
 6888SOL     OW21562   5.459   4.783   6.478
 6888SOL    HW121563   5.405   4.821   6.402
 6888SOL    HW221564   5.555   4.812   6.468
 6889SOL     OW21565   1.554   2.663   5.883
 6889SOL    HW121566   1.517   2.746   5.924
 6889SOL    HW221567   1.607   2.612   5.952
 6890SOL     OW21568   3.859   5.663   2.718
 6890SOL    HW121569   3.781   5.719   2.688
 6890SOL    HW221570   3.922   5.650   2.642
 6891SOL     OW21571   2.079   3.266   1.374
 6891SOL    HW121572   2.032   3.330   1.435
 6891SOL    HW221573   2.051   3.172   1.397
 6892SOL     OW21574   3.174   1.414   3.719
 6892SOL    HW121575   3.244   1.380   3.783
 6892SOL    HW221576   3.218   1.442   3.634
 6893SOL     OW21577   5.393   3.626   0.245
 6893SOL    HW121578   5.482   3.625   0.199
 6893SOL    HW221579   5.329   3.682   0.194
 6894SOL     OW21580   6.147   5.103   1.201
 6894SOL    HW121581   6.192   5.073   1.285
 6894SOL    HW221582   6.214   5.106   1.127
 6895SOL     OW21583   2.000   5.316   1.221
 6895SOL    HW121584   2.044   5.227   1.239
 6895SOL    HW221585   1.941   5.307   1.141
 6896SOL     OW21586   2.632   1.972   3.649
 6896SOL    HW121587   2.692   1.971   3.569
 6896SOL    HW221588   2.660   1.902   3.713
 6897SOL     OW21589   5.095   3.633   5.056
 6897SOL    HW121590   5.001   3.622   5.025
 6897SOL    HW221591   5.115   3.729   5.070
 6898SOL     OW21592   3.652   1.412   1.782
 6898SOL    HW121593   3.595   1.330   1.786
 6898SOL    HW221594   3.622   1.469   1.705
 6899SOL     OW21595   4.627   6.116   2.361
 6899SOL    HW121596   4.553   6.168   2.318
 6899SOL    HW221597   4.698   6.179   2.392
 6900SOL     OW21598   0.176   4.217   5.349
 6900SOL    HW121599   0.155   4.240   5.254
 6900SOL    HW221600   0.273   4.196   5.358
 6901SOL     OW21601   5.399   5.881   6.366
 6901SOL    HW121602   5.494   5.861   6.344
 6901SOL    HW221603   5.376   5.974   6.336
 6902SOL     OW21604   6.757   5.501   5.489
 6902SOL    HW121605   6.813   5.434   5.539
 6902SOL    HW221606   6.706   5.454   5.417
 6903SOL     OW21607   3.145   4.905   5.289
 6903SOL    HW121608   3.183   4.814   5.270
 6903SOL    HW221609   3.048   4.906   5.265
 6904SOL     OW21610   6.386   6.857   6.068
 6904SOL    HW121611   6.419   6.852   5.974
 6904SOL    HW221612   6.301   6.805   6.076
 6905SOL     OW21613   5.234   5.216   6.714
 6905SOL    HW121614   5.307   5.156   6.683
 6905SOL    HW221615   5.204   5.189   6.805
 6906SOL     OW21616   3.314   1.068   3.576
 6906SOL    HW121617   3.269   1.090   3.490
 6906SOL    HW221618   3.413   1.077   3.566
 6907SOL     OW21619   6.432   2.462   1.907
 6907SOL    HW121620   6.439   2.561   1.919
 6907SOL    HW221621   6.495   2.433   1.834
 6908SOL     OW21622   2.060   4.654   6.706
 6908SOL    HW121623   2.023   4.589   6.641
 6908SOL    HW221624   2.130   4.710   6.661
 6909SOL     OW21625   5.322   4.660   1.317
 6909SOL    HW121626   5.361   4.593   1.253
 6909SOL    HW221627   5.254   4.615   1.375
 6910SOL     OW21628   1.362   2.800   2.829
 6910SOL    HW121629   1.303   2.827   2.753
 6910SOL    HW221630   1.363   2.871   2.898
 6911SOL     OW21631   4.388   7.008   4.361
 6911SOL    HW121632   4.313   6.951   4.328
 6911SOL    HW221633   4.457   7.016   4.290
 6912SOL     OW21634   2.756   3.294   6.570
 6912SOL    HW121635   2.745   3.351   6.651
 6912SOL    HW221636   2.667   3.281   6.527
 6913SOL     OW21637   5.081   6.364   5.295
 6913SOL    HW121638   5.024   6.443   5.315
 6913SOL    HW221639   5.176   6.385   5.318
 6914SOL     OW21640   5.556   4.437   3.543
 6914SOL    HW121641   5.624   4.367   3.522
 6914SOL    HW221642   5.589   4.494   3.619
 6915SOL     OW21643   0.679   2.371   2.492
 6915SOL    HW121644   0.769   2.393   2.455
 6915SOL    HW221645   0.685   2.361   2.591
 6916SOL     OW21646   5.577   0.484   6.344
 6916SOL    HW121647   5.514   0.555   6.376
 6916SOL    HW221648   5.534   0.394   6.356
 6917SOL     OW21649   3.839   5.903   1.971
 6917SOL    HW121650   3.909   5.974   1.979
 6917SOL    HW221651   3.827   5.858   2.060
 6918SOL     OW21652   6.871   2.875   3.931
 6918SOL    HW121653   6.845   2.923   3.847
 6918SOL    HW221654   6.962   2.834   3.919
 6919SOL     OW21655   6.713   6.247   3.497
 6919SOL    HW121656   6.731   6.218   3.403
 6919SOL    HW221657   6.622   6.217   3.525
 6920SOL     OW21658   4.455   0.227   5.345
 6920SOL    HW121659   4.471   0.299   5.412
 6920SOL    HW221660   4.375   0.252   5.289
 6921SOL     OW21661   4.541   6.652   3.542
 6921SOL    HW121662   4.546   6.738   3.593
 6921SOL    HW221663   4.448   6.639   3.507
 6922SOL     OW21664   1.410   6.149   5.088
 6922SOL    HW121665   1.351   6.136   5.009
 6922SOL    HW221666   1.362   6.203   5.157
 6923SOL     OW21667   5.851   6.259   2.844
 6923SOL    HW121668   5.820   6.180   2.895
 6923SOL    HW221669   5.789   6.275   2.767
 6924SOL     OW21670   2.948   4.679   0.219
 6924SOL    HW121671   2.952   4.643   0.126
 6924SOL    HW221672   3.037   4.665   0.264
 6925SOL     OW21673   4.398   5.883   4.814
 6925SOL    HW121674   4.382   5.818   4.739
 6925SOL    HW221675   4.347   5.967   4.797
 6926SOL     OW21676   1.956   1.752   0.689
 6926SOL    HW121677   1.925   1.682   0.754
 6926SOL    HW221678   2.039   1.796   0.725
 6927SOL     OW21679   3.971   1.743   6.516
 6927SOL    HW121680   3.959   1.670   6.583
 6927SOL    HW221681   3.939   1.829   6.555
 6928SOL     OW21682   5.276   6.013   0.870
 6928SOL    HW121683   5.251   5.917   0.882
 6928SOL    HW221684   5.326   6.023   0.784
 6929SOL     OW21685   5.411   5.915   2.131
 6929SOL    HW121686   5.396   5.817   2.146
 6929SOL    HW221687   5.324   5.963   2.142
 6930SOL     OW21688   1.198   0.775   1.497
 6930SOL    HW121689   1.223   0.835   1.572
 6930SOL    HW221690   1.129   0.820   1.440
 6931SOL     OW21691   1.806   2.049   1.775
 6931SOL    HW121692   1.735   2.083   1.713
 6931SOL    HW221693   1.796   2.094   1.864
 6932SOL     OW21694   4.286   6.222   0.952
 6932SOL    HW121695   4.266   6.319   0.939
 6932SOL    HW221696   4.367   6.212   1.010
 6933SOL     OW21697   3.341   0.014   5.579
 6933SOL    HW121698   3.436   0.018   5.547
 6933SOL    HW221699   3.313   6.942   5.588
 6934SOL     OW21700   4.521   3.550   5.849
 6934SOL    HW121701   4.494   3.542   5.945
 6934SOL    HW221702   4.522   3.646   5.823
 6935SOL     OW21703   4.037   5.604   2.900
 6935SOL    HW121704   3.967   5.618   2.830
 6935SOL    HW221705   4.105   5.677   2.894
 6936SOL     OW21706   6.861   2.478   4.371
 6936SOL    HW121707   6.835   2.563   4.325
 6936SOL    HW221708   6.844   2.486   4.469
 6937SOL     OW21709   5.827   6.184   0.531
 6937SOL    HW121710   5.907   6.229   0.489
 6937SOL    HW221711   5.779   6.131   0.461
 6938SOL     OW21712   0.390   2.436   4.571
 6938SOL    HW121713   0.333   2.461   4.493
 6938SOL    HW221714   0.352   2.476   4.655
 6939SOL     OW21715   6.758   5.155   2.392
 6939SOL    HW121716   6.856   5.160   2.412
 6939SOL    HW221717   6.707   5.140   2.477
 6940SOL     OW21718   4.018   6.775   0.404
 6940SOL    HW121719   4.111   6.787   0.438
 6940SOL    HW221720   3.973   6.865   0.398
 6941SOL     OW21721   3.019   3.786   2.041
 6941SOL    HW121722   3.035   3.745   1.952
 6941SOL    HW221723   3.014   3.715   2.111
 6942SOL     OW21724   5.297   0.074   2.189
 6942SOL    HW121725   5.382   0.039   2.150
 6942SOL    HW221726   5.259   0.008   2.254
 6943SOL     OW21727   3.636   5.217   0.585
 6943SOL    HW121728   3.701   5.267   0.643
 6943SOL    HW221729   3.547   5.213   0.631
 6944SOL     OW21730   1.401   4.931   6.188
 6944SOL    HW121731   1.343   5.000   6.232
 6944SOL    HW221732   1.436   4.868   6.257
 6945SOL     OW21733   6.892   2.447   1.091
 6945SOL    HW121734   6.941   2.509   1.030
 6945SOL    HW221735   6.954   2.415   1.163
 6946SOL     OW21736   3.971   6.343   1.541
 6946SOL    HW121737   4.032   6.297   1.476
 6946SOL    HW221738   4.025   6.402   1.601
 6947SOL     OW21739   4.432   4.958   6.095
 6947SOL    HW121740   4.487   5.021   6.150
 6947SOL    HW221741   4.342   4.947   6.136
 6948SOL     OW21742   0.515   5.627   1.261
 6948SOL    HW121743   0.437   5.596   1.315
 6948SOL    HW221744   0.548   5.552   1.204
 6949SOL     OW21745   2.337   1.701   3.223
 6949SOL    HW121746   2.430   1.677   3.250
 6949SOL    HW221747   2.313   1.790   3.262
 6950SOL     OW21748   1.221   0.437   4.524
 6950SOL    HW121749   1.130   0.476   4.508
 6950SOL    HW221750   1.219   0.339   4.504
 6951SOL     OW21751   0.268   5.835   6.458
 6951SOL    HW121752   0.230   5.763   6.516
 6951SOL    HW221753   0.328   5.794   6.390
 6952SOL     OW21754   1.880   5.210   3.248
 6952SOL    HW121755   1.978   5.201   3.264
 6952SOL    HW221756   1.846   5.128   3.203
 6953SOL     OW21757   5.328   0.062   0.171
 6953SOL    HW121758   5.322   0.067   0.071
 6953SOL    HW221759   5.255   0.117   0.212
 6954SOL     OW21760   0.438   4.275   1.284
 6954SOL    HW121761   0.475   4.228   1.365
 6954SOL    HW221762   0.449   4.373   1.295
 6955SOL     OW21763   4.846   1.047   2.648
 6955SOL    HW121764   4.783   1.019   2.576
 6955SOL    HW221765   4.893   0.967   2.685
 6956SOL     OW21766   5.126   5.870   3.190
 6956SOL    HW121767   5.133   5.771   3.188
 6956SOL    HW221768   5.039   5.897   3.233
 6957SOL     OW21769   5.959   5.704   0.066
 6957SOL    HW121770   5.980   5.802   0.061
 6957SOL    HW221771   5.865   5.688   0.035
 6958SOL     OW21772   4.007   3.313   4.917
 6958SOL    HW121773   4.010   3.351   4.824
 6958SOL    HW221774   3.979   3.217   4.913
 6959SOL     OW21775   1.615   4.273   3.476
 6959SOL    HW121776   1.609   4.268   3.576
 6959SOL    HW221777   1.710   4.288   3.449
 6960SOL     OW21778   2.189   3.742   0.733
 6960SOL    HW121779   2.219   3.743   0.638
 6960SOL    HW221780   2.115   3.808   0.746
 6961SOL     OW21781   5.785   1.276   4.709
 6961SOL    HW121782   5.786   1.222   4.625
 6961SOL    HW221783   5.736   1.226   4.781
 6962SOL     OW21784   4.411   5.929   0.861
 6962SOL    HW121785   4.440   5.906   0.953
 6962SOL    HW221786   4.491   5.954   0.806
 6963SOL     OW21787   5.227   5.020   0.706
 6963SOL    HW121788   5.148   5.069   0.742
 6963SOL    HW221789   5.295   5.007   0.778
 6964SOL     OW21790   3.217   0.257   5.975
 6964SOL    HW121791   3.143   0.324   5.969
 6964SOL    HW221792   3.279   0.268   5.898
 6965SOL     OW21793   1.950   1.566   6.791
 6965SOL    HW121794   1.898   1.483   6.768
 6965SOL    HW221795   1.955   1.574   6.891
 6966SOL     OW21796   0.574   0.784   2.705
 6966SOL    HW121797   0.487   0.830   2.719
 6966SOL    HW221798   0.647   0.852   2.699
 6967SOL     OW21799   3.409   1.386   6.017
 6967SOL    HW121800   3.314   1.362   6.038
 6967SOL    HW221801   3.470   1.337   6.079
 6968SOL     OW21802   2.353   1.112   3.470
 6968SOL    HW121803   2.375   1.126   3.566
 6968SOL    HW221804   2.267   1.061   3.463
 6969SOL     OW21805   3.116   1.803   1.490
 6969SOL    HW121806   3.089   1.879   1.550
 6969SOL    HW221807   3.088   1.824   1.396
 6970SOL     OW21808   4.252   3.578   5.248
 6970SOL    HW121809   4.186   3.606   5.179
 6970SOL    HW221810   4.211   3.588   5.339
 6971SOL     OW21811   5.867   5.325   0.943
 6971SOL    HW121812   5.937   5.385   0.906
 6971SOL    HW221813   5.781   5.376   0.951
 6972SOL     OW21814   5.461   4.080   1.983
 6972SOL    HW121815   5.408   4.000   2.010
 6972SOL    HW221816   5.523   4.055   1.909
 6973SOL     OW21817   0.657   2.269   3.603
 6973SOL    HW121818   0.569   2.226   3.627
 6973SOL    HW221819   0.647   2.319   3.517
 6974SOL     OW21820   3.111   3.919   2.851
 6974SOL    HW121821   3.079   3.924   2.945
 6974SOL    HW221822   3.034   3.892   2.792
 6975SOL     OW21823   1.768   6.735   4.645
 6975SOL    HW121824   1.807   6.647   4.673
 6975SOL    HW221825   1.775   6.800   4.721
 6976SOL     OW21826   6.587   3.955   5.962
 6976SOL    HW121827   6.524   3.996   5.895
 6976SOL    HW221828   6.589   4.012   6.044
 6977SOL     OW21829   3.558   3.088   1.172
 6977SOL    HW121830   3.635   3.065   1.112
 6977SOL    HW221831   3.478   3.036   1.146
 6978SOL     OW21832   5.555   2.341   1.463
 6978SOL    HW121833   5.649   2.360   1.491
 6978SOL    HW221834   5.518   2.421   1.415
 6979SOL     OW21835   1.115   3.250   1.001
 6979SOL    HW121836   1.072   3.317   0.940
 6979SOL    HW221837   1.045   3.212   1.062
 6980SOL     OW21838   1.470   1.457   3.714
 6980SOL    HW121839   1.541   1.504   3.767
 6980SOL    HW221840   1.511   1.381   3.663
 6981SOL     OW21841   3.633   3.218   5.818
 6981SOL    HW121842   3.603   3.132   5.860
 6981SOL    HW221843   3.717   3.202   5.767
 6982SOL     OW21844   0.650   1.000   3.930
 6982SOL    HW121845   0.726   0.978   3.992
 6982SOL    HW221846   0.683   1.059   3.856
 6983SOL     OW21847   5.096   1.015   4.856
 6983SOL    HW121848   5.084   0.990   4.952
 6983SOL    HW221849   5.192   1.005   4.830
 6984SOL     OW21850   1.664   1.594   2.637
 6984SOL    HW121851   1.606   1.551   2.706
 6984SOL    HW221852   1.677   1.530   2.561
 6985SOL     OW21853   7.005   5.414   0.518
 6985SOL    HW121854   0.068   5.444   0.477
 6985SOL    HW221855   6.989   5.319   0.494
 6986SOL     OW21856   3.339   6.448   6.301
 6986SOL    HW121857   3.417   6.398   6.263
 6986SOL    HW221858   3.363   6.545   6.308
 6987SOL     OW21859   6.743   1.511   6.472
 6987SOL    HW121860   6.706   1.470   6.389
 6987SOL    HW221861   6.812   1.579   6.448
 6988SOL     OW21862   1.940   6.695   6.309
 6988SOL    HW121863   1.931   6.610   6.362
 6988SOL    HW221864   2.036   6.711   6.288
 6989SOL     OW21865   6.940   4.612   3.382
 6989SOL    HW121866   6.861   4.559   3.353
 6989SOL    HW221867   7.020   4.552   3.391
 6990SOL     OW21868   4.293   2.554   1.222
 6990SOL    HW121869   4.195   2.554   1.207
 6990SOL    HW221870   4.312   2.564   1.320
 6991SOL     OW21871   5.588   4.612   3.223
 6991SOL    HW121872   5.509   4.613   3.285
 6991SOL    HW221873   5.617   4.518   3.207
 6992SOL     OW21874   6.375   6.229   6.991
 6992SOL    HW121875   6.405   6.322   7.014
 6992SOL    HW221876   6.339   6.184   0.049
 6993SOL     OW21877   6.442   0.509   1.547
 6993SOL    HW121878   6.527   0.490   1.498
 6993SOL    HW221879   6.392   0.424   1.561
 6994SOL     OW21880   1.280   1.078   4.246
 6994SOL    HW121881   1.190   1.041   4.222
 6994SOL    HW221882   1.302   1.155   4.185
 6995SOL     OW21883   0.137   3.913   0.055
 6995SOL    HW121884   0.145   3.999   0.105
 6995SOL    HW221885   0.124   3.838   0.119
 6996SOL     OW21886   1.508   0.334   0.159
 6996SOL    HW121887   1.514   0.249   0.210
 6996SOL    HW221888   1.486   0.409   0.221
 6997SOL     OW21889   6.699   4.640   4.929
 6997SOL    HW121890   6.626   4.647   4.861
 6997SOL    HW221891   6.783   4.680   4.892
 6998SOL     OW21892   1.257   1.590   1.520
 6998SOL    HW121893   1.187   1.659   1.505
 6998SOL    HW221894   1.218   1.513   1.571
 6999SOL     OW21895   1.928   2.197   6.503
 6999SOL    HW121896   1.952   2.124   6.567
 6999SOL    HW221897   1.833   2.224   6.518
 7000SOL     OW21898   5.945   0.635   2.002
 7000SOL    HW121899   6.020   0.585   2.046
 7000SOL    HW221900   5.858   0.604   2.040
 7001SOL     OW21901   0.889   2.378   4.956
 7001SOL    HW121902   0.897   2.333   4.867
 7001SOL    HW221903   0.867   2.309   5.025
 7002SOL     OW21904   1.769   4.929   4.191
 7002SOL    HW121905   1.868   4.929   4.180
 7002SOL    HW221906   1.738   5.021   4.214
 7003SOL     OW21907   4.540   5.567   1.671
 7003SOL    HW121908   4.586   5.643   1.718
 7003SOL    HW221909   4.489   5.603   1.593
 7004SOL     OW21910   0.824   6.178   0.313
 7004SOL    HW121911   0.920   6.184   0.283
 7004SOL    HW221912   0.814   6.103   0.378
 7005SOL     OW21913   0.973   0.416   0.722
 7005SOL    HW121914   0.913   0.336   0.713
 7005SOL    HW221915   0.975   0.465   0.635
 7006SOL     OW21916   5.708   6.721   3.453
 7006SOL    HW121917   5.698   6.624   3.429
 7006SOL    HW221918   5.703   6.731   3.552
 7007SOL     OW21919   3.894   0.618   4.691
 7007SOL    HW121920   3.812   0.571   4.659
 7007SOL    HW221921   3.931   0.571   4.771
 7008SOL     OW21922   0.385   4.548   4.272
 7008SOL    HW121923   0.437   4.633   4.275
 7008SOL    HW221924   0.448   4.470   4.269
 7009SOL     OW21925   4.450   6.724   2.074
 7009SOL    HW121926   4.390   6.784   2.021
 7009SOL    HW221927   4.418   6.720   2.169
 7010SOL     OW21928   5.956   4.764   3.565
 7010SOL    HW121929   6.039   4.780   3.511
 7010SOL    HW221930   5.914   4.851   3.590
 7011SOL     OW21931   3.892   6.736   1.007
 7011SOL    HW121932   3.884   6.701   0.914
 7011SOL    HW221933   3.835   6.818   1.017
 7012SOL     OW21934   0.741   2.031   1.331
 7012SOL    HW121935   0.786   2.000   1.415
 7012SOL    HW221936   0.808   2.078   1.273
 7013SOL     OW21937   1.809   6.880   6.535
 7013SOL    HW121938   1.863   6.845   6.459
 7013SOL    HW221939   1.721   6.912   6.501
 7014SOL     OW21940   5.483   3.647   0.693
 7014SOL    HW121941   5.385   3.635   0.703
 7014SOL    HW221942   5.527   3.557   0.685
 7015SOL     OW21943   5.702   4.884   2.334
 7015SOL    HW121944   5.669   4.841   2.419
 7015SOL    HW221945   5.662   4.837   2.255
 7016SOL     OW21946   4.030   4.996   1.420
 7016SOL    HW121947   4.055   5.088   1.449
 7016SOL    HW221948   3.999   4.999   1.325
 7017SOL     OW21949   2.581   5.103   2.955
 7017SOL    HW121950   2.558   5.008   2.937
 7017SOL    HW221951   2.503   5.149   2.998
 7018SOL     OW21952   5.077   4.037   4.127
 7018SOL    HW121953   5.129   4.122   4.117
 7018SOL    HW221954   5.128   3.973   4.185
 7019SOL     OW21955   4.098   5.110   2.019
 7019SOL    HW121956   4.010   5.099   1.973
 7019SOL    HW221957   4.145   5.191   1.982
 7020SOL     OW21958   0.678   3.803   6.508
 7020SOL    HW121959   0.607   3.779   6.441
 7020SOL    HW221960   0.742   3.727   6.517
 7021SOL     OW21961   1.891   2.940   4.223
 7021SOL    HW121962   1.966   2.875   4.235
 7021SOL    HW221963   1.918   3.009   4.155
 7022SOL     OW21964   4.643   0.112   0.033
 7022SOL    HW121965   4.560   0.164   0.053
 7022SOL    HW221966   4.708   0.170   7.007
 7023SOL     OW21967   0.539   2.799   1.397
 7023SOL    HW121968   0.512   2.806   1.301
 7023SOL    HW221969   0.495   2.720   1.439
 7024SOL     OW21970   3.552   3.570   4.000
 7024SOL    HW121971   3.634   3.516   3.983
 7024SOL    HW221972   3.499   3.579   3.916
 7025SOL     OW21973   3.326   0.315   0.440
 7025SOL    HW121974   3.340   0.315   0.341
 7025SOL    HW221975   3.301   0.408   0.469
 7026SOL     OW21976   3.938   2.069   2.139
 7026SOL    HW121977   3.937   1.992   2.074
 7026SOL    HW221978   3.879   2.142   2.104
 7027SOL     OW21979   2.653   6.262   3.848
 7027SOL    HW121980   2.653   6.162   3.852
 7027SOL    HW221981   2.598   6.298   3.924
 7028SOL     OW21982   2.813   0.169   4.024
 7028SOL    HW121983   2.764   0.252   3.998
 7028SOL    HW221984   2.911   0.182   4.010
 7029SOL     OW21985   3.948   4.315   5.947
 7029SOL    HW121986   3.992   4.234   5.986
 7029SOL    HW221987   4.000   4.347   5.868
 7030SOL     OW21988   0.718   1.309   4.646
 7030SOL    HW121989   0.653   1.348   4.711
 7030SOL    HW221990   0.688   1.217   4.620
 7031SOL     OW21991   3.865   6.212   0.216
 7031SOL    HW121992   3.914   6.259   0.290
 7031SOL    HW221993   3.895   6.116   0.213
 7032SOL     OW21994   4.157   1.175   3.209
 7032SOL    HW121995   4.141   1.270   3.233
 7032SOL    HW221996   4.188   1.168   3.115
 7033SOL     OW21997   1.397   2.710   3.847
 7033SOL    HW121998   1.413   2.681   3.941
 7033SOL    HW221999   1.426   2.805   3.837
 7034SOL     OW22000   6.134   2.547   3.165
 7034SOL    HW122001   6.058   2.612   3.158
 7034SOL    HW222002   6.212   2.591   3.210
 7035SOL     OW22003   2.188   0.158   1.563
 7035SOL    HW122004   2.136   0.242   1.550
 7035SOL    HW222005   2.275   0.166   1.514
 7036SOL     OW22006   0.167   2.399   2.532
 7036SOL    HW122007   0.259   2.365   2.553
 7036SOL    HW222008   0.156   2.408   2.433
 7037SOL     OW22009   0.490   1.091   5.808
 7037SOL    HW122010   0.565   1.141   5.850
 7037SOL    HW222011   0.427   1.059   5.879
 7038SOL     OW22012   2.155   4.480   4.841
 7038SOL    HW122013   2.144   4.495   4.940
 7038SOL    HW222014   2.112   4.394   4.815
 7039SOL     OW22015   0.513   6.214   3.781
 7039SOL    HW122016   0.596   6.263   3.807
 7039SOL    HW222017   0.476   6.253   3.697
 7040SOL     OW22018   5.301   2.551   5.562
 7040SOL    HW122019   5.391   2.514   5.585
 7040SOL    HW222020   5.289   2.639   5.607
 7041SOL     OW22021   0.502   1.751   3.553
 7041SOL    HW122022   0.488   1.848   3.531
 7041SOL    HW222023   0.566   1.744   3.630
 7042SOL     OW22024   4.600   5.767   4.422
 7042SOL    HW122025   4.649   5.724   4.347
 7042SOL    HW222026   4.663   5.782   4.498
 7043SOL     OW22027   2.819   4.774   3.213
 7043SOL    HW122028   2.796   4.705   3.145
 7043SOL    HW222029   2.735   4.807   3.256
 7044SOL     OW22030   4.675   6.974   4.878
 7044SOL    HW122031   4.625   6.994   4.794
 7044SOL    HW222032   4.635   0.002   4.954
 7045SOL     OW22033   5.765   5.695   2.014
 7045SOL    HW122034   5.713   5.633   2.074
 7045SOL    HW222035   5.860   5.700   2.046
 7046SOL     OW22036   2.888   1.767   4.081
 7046SOL    HW122037   2.937   1.851   4.059
 7046SOL    HW222038   2.883   1.756   4.180
 7047SOL     OW22039   0.009   1.139   1.506
 7047SOL    HW122040   0.043   1.227   1.473
 7047SOL    HW222041   6.934   1.146   1.523
 7048SOL     OW22042   5.979   6.348   4.900
 7048SOL    HW122043   6.014   6.263   4.859
 7048SOL    HW222044   5.904   6.384   4.844
 7049SOL     OW22045   3.442   1.525   2.163
 7049SOL    HW122046   3.459   1.554   2.069
 7049SOL    HW222047   3.423   1.427   2.164
 7050SOL     OW22048   3.986   4.281   0.950
 7050SOL    HW122049   3.999   4.339   0.870
 7050SOL    HW222050   4.071   4.278   1.004
 7051SOL     OW22051   6.657   6.298   0.774
 7051SOL    HW122052   6.660   6.397   0.757
 7051SOL    HW222053   6.704   6.250   0.699
 7052SOL     OW22054   5.653   0.860   3.338
 7052SOL    HW122055   5.597   0.942   3.333
 7052SOL    HW222056   5.694   0.842   3.248
 7053SOL     OW22057   2.276   4.051   4.286
 7053SOL    HW122058   2.226   4.000   4.355
 7053SOL    HW222059   2.352   4.100   4.329
 7054SOL     OW22060   0.196   6.961   1.372
 7054SOL    HW122061   0.103   6.953   1.407
 7054SOL    HW222062   0.232   0.029   1.392
 7055SOL     OW22063   3.015   0.436   0.339
 7055SOL    HW122064   3.046   0.477   0.425
 7055SOL    HW222065   2.996   0.339   0.355
 7056SOL     OW22066   6.986   5.871   1.270
 7056SOL    HW122067   7.022   5.831   1.354
 7056SOL    HW222068   0.024   5.851   1.194
 7057SOL     OW22069   3.339   5.893   4.451
 7057SOL    HW122070   3.355   5.850   4.540
 7057SOL    HW222071   3.243   5.917   4.442
 7058SOL     OW22072   5.518   1.777   6.203
 7058SOL    HW122073   5.562   1.867   6.193
 7058SOL    HW222074   5.489   1.745   6.113
 7059SOL     OW22075   1.345   1.006   4.506
 7059SOL    HW122076   1.348   1.049   4.416
 7059SOL    HW222077   1.439   0.998   4.542
 7060SOL     OW22078   3.746   6.220   1.576
 7060SOL    HW122079   3.833   6.270   1.578
 7060SOL    HW222080   3.742   6.163   1.494
 7061SOL     OW22081   0.287   2.690   3.086
 7061SOL    HW122082   0.382   2.666   3.067
 7061SOL    HW222083   0.226   2.625   3.041
 7062SOL     OW22084   3.954   2.062   4.775
 7062SOL    HW122085   3.943   2.077   4.677
 7062SOL    HW222086   4.051   2.049   4.797
 7063SOL     OW22087   0.651   6.553   1.763
 7063SOL    HW122088   0.562   6.540   1.807
 7063SOL    HW222089   0.637   6.579   1.668
 7064SOL     OW22090   4.807   1.696   6.218
 7064SOL    HW122091   4.727   1.644   6.189
 7064SOL    HW222092   4.855   1.731   6.138
 7065SOL     OW22093   3.344   4.435   5.358
 7065SOL    HW122094   3.374   4.370   5.287
 7065SOL    HW222095   3.252   4.468   5.335
 7066SOL     OW22096   4.688   0.491   6.061
 7066SOL    HW122097   4.596   0.461   6.088
 7066SOL    HW222098   4.686   0.523   5.966
 7067SOL     OW22099   1.231   3.453   6.597
 7067SOL    HW122100   1.302   3.386   6.576
 7067SOL    HW222101   1.239   3.531   6.535
 7068SOL     OW22102   5.860   4.065   4.528
 7068SOL    HW122103   5.891   4.159   4.544
 7068SOL    HW222104   5.843   4.051   4.431
 7069SOL     OW22105   6.189   2.328   5.445
 7069SOL    HW122106   6.205   2.357   5.540
 7069SOL    HW222107   6.129   2.394   5.400
 7070SOL     OW22108   1.318   6.456   4.278
 7070SOL    HW122109   1.242   6.517   4.254
 7070SOL    HW222110   1.379   6.447   4.199
 7071SOL     OW22111   4.726   6.074   6.609
 7071SOL    HW122112   4.727   5.975   6.620
 7071SOL    HW222113   4.728   6.117   6.699
 7072SOL     OW22114   2.012   4.768   0.137
 7072SOL    HW122115   2.000   4.706   0.214
 7072SOL    HW222116   1.965   4.855   0.156
 7073SOL     OW22117   3.780   6.878   3.061
 7073SOL    HW122118   3.788   6.855   3.158
 7073SOL    HW222119   3.871   6.893   3.023
 7074SOL     OW22120   6.380   3.497   3.535
 7074SOL    HW122121   6.364   3.595   3.529
 7074SOL    HW222122   6.471   3.480   3.573
 7075SOL     OW22123   2.963   4.863   4.703
 7075SOL    HW122124   2.878   4.843   4.752
 7075SOL    HW222125   3.039   4.859   4.767
 7076SOL     OW22126   5.806   2.929   1.317
 7076SOL    HW122127   5.875   2.906   1.249
 7076SOL    HW222128   5.731   2.978   1.272
 7077SOL     OW22129   2.456   4.504   2.620
 7077SOL    HW122130   2.422   4.507   2.526
 7077SOL    HW222131   2.556   4.498   2.620
 7078SOL     OW22132   5.658   6.032   0.372
 7078SOL    HW122133   5.593   6.004   0.443
 7078SOL    HW222134   5.609   6.080   0.300
 7079SOL     OW22135   0.952   0.163   4.323
 7079SOL    HW122136   1.028   0.172   4.258
 7079SOL    HW222137   0.948   0.069   4.357
 7080SOL     OW22138   3.933   2.123   4.110
 7080SOL    HW122139   4.018   2.150   4.064
 7080SOL    HW222140   3.935   2.153   4.205
 7081SOL     OW22141   1.617   6.176   0.130
 7081SOL    HW122142   1.589   6.237   0.057
 7081SOL    HW222143   1.708   6.139   0.110
 7082SOL     OW22144   6.868   3.584   1.465
 7082SOL    HW122145   6.832   3.554   1.553
 7082SOL    HW222146   6.966   3.602   1.473
 7083SOL     OW22147   6.922   1.535   2.664
 7083SOL    HW122148   6.996   1.594   2.632
 7083SOL    HW222149   6.836   1.562   2.620
 7084SOL     OW22150   0.511   5.894   5.519
 7084SOL    HW122151   0.465   5.808   5.538
 7084SOL    HW222152   0.477   5.932   5.433
 7085SOL     OW22153   6.406   2.462   2.746
 7085SOL    HW122154   6.477   2.481   2.813
 7085SOL    HW222155   6.382   2.546   2.697
 7086SOL     OW22156   6.049   0.437   6.648
 7086SOL    HW122157   5.954   0.470   6.646
 7086SOL    HW222158   6.054   0.348   6.603
 7087SOL     OW22159   5.155   3.325   2.291
 7087SOL    HW122160   5.207   3.406   2.263
 7087SOL    HW222161   5.169   3.309   2.389
 7088SOL     OW22162   5.254   2.089   5.672
 7088SOL    HW122163   5.306   2.021   5.620
 7088SOL    HW222164   5.157   2.082   5.648
 7089SOL     OW22165   2.588   4.908   2.279
 7089SOL    HW122166   2.633   4.997   2.279
 7089SOL    HW222167   2.652   4.838   2.249
 7090SOL     OW22168   2.280   1.351   0.588
 7090SOL    HW122169   2.337   1.428   0.558
 7090SOL    HW222170   2.266   1.288   0.511
 7091SOL     OW22171   0.683   1.282   1.535
 7091SOL    HW122172   0.779   1.271   1.511
 7091SOL    HW222173   0.662   1.380   1.545
 7092SOL     OW22174   3.687   2.878   6.128
 7092SOL    HW122175   3.775   2.904   6.087
 7092SOL    HW222176   3.698   2.792   6.178
 7093SOL     OW22177   3.310   3.572   1.193
 7093SOL    HW122178   3.334   3.553   1.288
 7093SOL    HW222179   3.256   3.496   1.156
 7094SOL     OW22180   1.300   6.894   5.795
 7094SOL    HW122181   1.340   6.819   5.743
 7094SOL    HW222182   1.205   6.872   5.819
 7095SOL     OW22183   3.704   5.204   6.024
 7095SOL    HW122184   3.614   5.166   6.047
 7095SOL    HW222185   3.749   5.236   6.108
 7096SOL     OW22186   6.734   0.526   2.103
 7096SOL    HW122187   6.748   0.619   2.070
 7096SOL    HW222188   6.815   0.471   2.084
 7097SOL     OW22189   4.664   0.743   2.205
 7097SOL    HW122190   4.651   0.839   2.179
 7097SOL    HW222191   4.656   0.685   2.124
 7098SOL     OW22192   1.732   5.975   5.800
 7098SOL    HW122193   1.770   5.912   5.732
 7098SOL    HW222194   1.796   6.049   5.816
 7099SOL     OW22195   3.779   2.134   4.361
 7099SOL    HW122196   3.808   2.058   4.303
 7099SOL    HW222197   3.681   2.126   4.380
 7100SOL     OW22198   0.028   3.548   0.614
 7100SOL    HW122199   0.004   3.578   0.706
 7100SOL    HW222200   0.076   3.622   0.566
 7101SOL     OW22201   2.270   0.062   5.061
 7101SOL    HW122202   2.344   0.128   5.045
 7101SOL    HW222203   2.192   0.085   5.004
 7102SOL     OW22204   5.358   0.429   1.360
 7102SOL    HW122205   5.269   0.450   1.400
 7102SOL    HW222206   5.428   0.432   1.432
 7103SOL     OW22207   5.310   5.172   2.005
 7103SOL    HW122208   5.331   5.082   1.968
 7103SOL    HW222209   5.389   5.206   2.056
 7104SOL     OW22210   5.287   3.299   2.548
 7104SOL    HW122211   5.379   3.259   2.549
 7104SOL    HW222212   5.257   3.313   2.642
 7105SOL     OW22213   3.917   4.007   4.712
 7105SOL    HW122214   3.965   4.008   4.800
 7105SOL    HW222215   3.971   3.954   4.647
 7106SOL     OW22216   2.995   2.763   0.961
 7106SOL    HW122217   2.947   2.684   0.922
 7106SOL    HW222218   3.090   2.738   0.980
 7107SOL     OW22219   3.826   0.133   0.001
 7107SOL    HW122220   3.923   0.153   7.014
 7107SOL    HW222221   3.813   0.036   0.019
 7108SOL     OW22222   2.757   6.556   2.385
 7108SOL    HW122223   2.661   6.557   2.355
 7108SOL    HW222224   2.781   6.466   2.419
 7109SOL     OW22225   1.412   0.829   6.757
 7109SOL    HW122226   1.429   0.740   6.713
 7109SOL    HW222227   1.445   0.826   6.852
 7110SOL     OW22228   3.489   6.437   4.213
 7110SOL    HW122229   3.536   6.519   4.182
 7110SOL    HW222230   3.504   6.363   4.148
 7111SOL     OW22231   1.577   1.724   3.606
 7111SOL    HW122232   1.552   1.804   3.661
 7111SOL    HW222233   1.500   1.659   3.604
 7112SOL     OW22234   2.263   4.167   4.757
 7112SOL    HW122235   2.173   4.187   4.797
 7112SOL    HW222236   2.328   4.146   4.830
 7113SOL     OW22237   3.394   5.085   5.170
 7113SOL    HW122238   3.333   5.024   5.220
 7113SOL    HW222239   3.480   5.037   5.151
 7114SOL     OW22240   4.084   5.431   1.659
 7114SOL    HW122241   4.160   5.490   1.687
 7114SOL    HW222242   4.119   5.340   1.637
 7115SOL     OW22243   5.776   4.198   6.954
 7115SOL    HW122244   5.734   4.127   6.897
 7115SOL    HW222245   5.757   4.179   0.027
 7116SOL     OW22246   5.772   4.103   3.137
 7116SOL    HW122247   5.798   4.019   3.184
 7116SOL    HW222248   5.805   4.101   3.042
 7117SOL     OW22249   6.144   0.019   4.024
 7117SOL    HW122250   6.176   6.984   3.949
 7117SOL    HW222251   6.047   0.037   4.014
 7118SOL     OW22252   3.921   4.561   5.363
 7118SOL    HW122253   3.933   4.493   5.290
 7118SOL    HW222254   3.828   4.557   5.399
 7119SOL     OW22255   5.297   1.082   4.647
 7119SOL    HW122256   5.233   1.089   4.571
 7119SOL    HW222257   5.336   0.989   4.650
 7120SOL     OW22258   5.471   1.472   1.242
 7120SOL    HW122259   5.486   1.457   1.340
 7120SOL    HW222260   5.457   1.569   1.224
 7121SOL     OW22261   0.559   6.111   3.069
 7121SOL    HW122262   0.637   6.092   3.130
 7121SOL    HW222263   0.588   6.102   2.974
 7122SOL     OW22264   2.003   6.831   5.738
 7122SOL    HW122265   1.965   6.910   5.690
 7122SOL    HW222266   2.041   6.861   5.826
 7123SOL     OW22267   6.606   4.910   4.113
 7123SOL    HW122268   6.588   5.006   4.132
 7123SOL    HW222269   6.631   4.899   4.017
 7124SOL     OW22270   1.160   2.053   1.518
 7124SOL    HW122271   1.223   2.102   1.458
 7124SOL    HW222272   1.169   2.089   1.611
 7125SOL     OW22273   1.585   0.541   1.645
 7125SOL    HW122274   1.497   0.525   1.691
 7125SOL    HW222275   1.586   0.635   1.610
 7126SOL     OW22276   3.714   5.946   0.746
 7126SOL    HW122277   3.794   5.932   0.687
 7126SOL    HW222278   3.678   6.038   0.732
 7127SOL     OW22279   2.984   6.254   5.702
 7127SOL    HW122280   3.012   6.335   5.650
 7127SOL    HW222281   3.065   6.203   5.731
 7128SOL     OW22282   4.017   4.386   0.153
 7128SOL    HW122283   3.959   4.379   0.072
 7128SOL    HW222284   4.108   4.348   0.132
 7129SOL     OW22285   0.469   1.692   1.265
 7129SOL    HW122286   0.408   1.656   1.335
 7129SOL    HW222287   0.423   1.691   1.177
 7130SOL     OW22288   3.635   0.239   4.557
 7130SOL    HW122289   3.591   0.268   4.472
 7130SOL    HW222290   3.723   0.285   4.566
 7131SOL     OW22291   3.284   0.728   2.443
 7131SOL    HW122292   3.315   0.663   2.374
 7131SOL    HW222293   3.185   0.726   2.449
 7132SOL     OW22294   5.174   4.191   0.008
 7132SOL    HW122295   5.099   4.208   0.072
 7132SOL    HW222296   5.261   4.194   0.057
 7133SOL     OW22297   4.457   4.955   3.916
 7133SOL    HW122298   4.512   4.922   3.839
 7133SOL    HW222299   4.437   5.052   3.903
 7134SOL     OW22300   5.340   5.974   1.833
 7134SOL    HW122301   5.431   5.974   1.791
 7134SOL    HW222302   5.323   5.885   1.876
 7135SOL     OW22303   2.144   2.998   2.291
 7135SOL    HW122304   2.170   3.047   2.207
 7135SOL    HW222305   2.049   2.970   2.284
 7136SOL     OW22306   2.354   1.614   1.180
 7136SOL    HW122307   2.408   1.674   1.239
 7136SOL    HW222308   2.403   1.528   1.166
 7137SOL     OW22309   2.837   1.436   0.557
 7137SOL    HW122310   2.830   1.432   0.656
 7137SOL    HW222311   2.748   1.413   0.516
 7138SOL     OW22312   2.512   0.998   1.298
 7138SOL    HW122313   2.454   1.075   1.270
 7138SOL    HW222314   2.500   0.922   1.234
 7139SOL     OW22315   5.057   5.220   1.895
 7139SOL    HW122316   5.008   5.138   1.923
 7139SOL    HW222317   5.153   5.212   1.923
 7140SOL     OW22318   6.300   4.452   1.036
 7140SOL    HW122319   6.266   4.464   1.129
 7140SOL    HW222320   6.259   4.522   0.977
 7141SOL     OW22321   4.070   6.557   1.289
 7141SOL    HW122322   3.987   6.560   1.344
 7141SOL    HW222323   4.085   6.463   1.256
 7142SOL     OW22324   3.117   0.460   4.265
 7142SOL    HW122325   3.051   0.513   4.212
 7142SOL    HW222326   3.070   0.414   4.340
 7143SOL     OW22327   1.904   4.213   6.974
 7143SOL    HW122328   1.864   4.155   6.902
 7143SOL    HW222329   1.851   4.297   6.983
 7144SOL     OW22330   0.320   1.071   4.290
 7144SOL    HW122331   0.367   1.102   4.208
 7144SOL    HW222332   0.331   0.972   4.300
 7145SOL     OW22333   4.342   1.291   0.012
 7145SOL    HW122334   4.342   1.387   0.040
 7145SOL    HW222335   4.436   1.255   0.016
 7146SOL     OW22336   2.241   1.437   5.300
 7146SOL    HW122337   2.331   1.450   5.341
 7146SOL    HW222338   2.198   1.356   5.340
 7147SOL     OW22339   6.098   5.552   3.309
 7147SOL    HW122340   6.190   5.579   3.337
 7147SOL    HW222341   6.052   5.630   3.268
 7148SOL     OW22342   6.556   6.018   0.942
 7148SOL    HW122343   6.483   6.044   0.879
 7148SOL    HW222344   6.600   6.099   0.978
 7149SOL     OW22345   6.622   4.697   3.546
 7149SOL    HW122346   6.706   4.749   3.531
 7149SOL    HW222347   6.623   4.657   3.637
 7150SOL     OW22348   4.690   3.231   0.123
 7150SOL    HW122349   4.605   3.235   0.071
 7150SOL    HW222350   4.696   3.311   0.183
 7151SOL     OW22351   3.243   6.794   0.922
 7151SOL    HW122352   3.224   6.708   0.876
 7151SOL    HW222353   3.202   6.869   0.871
 7152SOL     OW22354   6.455   0.898   6.557
 7152SOL    HW122355   6.494   0.849   6.634
 7152SOL    HW222356   6.396   0.837   6.504
 7153SOL     OW22357   3.801   5.485   1.749
 7153SOL    HW122358   3.778   5.582   1.751
 7153SOL    HW222359   3.891   5.472   1.706
 7154SOL     OW22360   4.177   1.325   2.846
 7154SOL    HW122361   4.230   1.310   2.762
 7154SOL    HW222362   4.153   1.237   2.887
 7155SOL     OW22363   2.884   2.034   1.152
 7155SOL    HW122364   2.895   1.987   1.240
 7155SOL    HW222365   2.820   2.110   1.164
 7156SOL     OW22366   5.263   3.539   2.151
 7156SOL    HW122367   5.329   3.613   2.147
 7156SOL    HW222368   5.176   3.569   2.112
 7157SOL     OW22369   6.172   4.258   0.900
 7157SOL    HW122370   6.109   4.210   0.962
 7157SOL    HW222371   6.212   4.336   0.948
 7158SOL     OW22372   6.311   0.605   3.626
 7158SOL    HW122373   6.342   0.692   3.664
 7158SOL    HW222374   6.300   0.538   3.700
 7159SOL     OW22375   0.532   4.782   4.317
 7159SOL    HW122376   0.521   4.881   4.316
 7159SOL    HW222377   0.551   4.752   4.411
 7160SOL     OW22378   5.933   6.527   2.771
 7160SOL    HW122379   5.846   6.556   2.731
 7160SOL    HW222380   5.943   6.428   2.762
 7161SOL     OW22381   3.490   3.803   3.229
 7161SOL    HW122382   3.422   3.767   3.294
 7161SOL    HW222383   3.443   3.847   3.152
 7162SOL     OW22384   0.205   4.680   0.619
 7162SOL    HW122385   0.138   4.605   0.623
 7162SOL    HW222386   0.295   4.643   0.597
 7163SOL     OW22387   1.736   1.445   3.058
 7163SOL    HW122388   1.733   1.397   3.146
 7163SOL    HW222389   1.811   1.510   3.058
 7164SOL     OW22390   1.804   1.162   5.520
 7164SOL    HW122391   1.729   1.101   5.494
 7164SOL    HW222392   1.891   1.113   5.517
 7165SOL     OW22393   5.890   6.775   0.920
 7165SOL    HW122394   5.819   6.807   0.857
 7165SOL    HW222395   5.980   6.790   0.879
 7166SOL     OW22396   5.392   0.582   6.111
 7166SOL    HW122397   5.479   0.561   6.155
 7166SOL    HW222398   5.341   0.497   6.097
 7167SOL     OW22399   6.053   2.400   5.736
 7167SOL    HW122400   6.020   2.307   5.752
 7167SOL    HW222401   6.143   2.411   5.778
 7168SOL     OW22402   3.109   0.804   2.800
 7168SOL    HW122403   3.066   0.718   2.774
 7168SOL    HW222404   3.207   0.790   2.813
 7169SOL     OW22405   1.472   3.990   5.314
 7169SOL    HW122406   1.422   3.929   5.252
 7169SOL    HW222407   1.568   3.961   5.318
 7170SOL     OW22408   4.652   0.073   2.490
 7170SOL    HW122409   4.613   0.093   2.580
 7170SOL    HW222410   4.729   0.134   2.472
 7171SOL     OW22411   5.992   4.633   0.692
 7171SOL    HW122412   6.048   4.668   0.767
 7171SOL    HW222413   6.022   4.541   0.668
 7172SOL     OW22414   1.851   1.590   5.008
 7172SOL    HW122415   1.898   1.638   5.083
 7172SOL    HW222416   1.782   1.650   4.968
 7173SOL     OW22417   6.148   5.488   6.598
 7173SOL    HW122418   6.183   5.394   6.599
 7173SOL    HW222419   6.066   5.492   6.656
 7174SOL     OW22420   6.655   4.493   1.203
 7174SOL    HW122421   6.611   4.431   1.139
 7174SOL    HW222422   6.600   4.575   1.214
 7175SOL     OW22423   6.608   4.131   5.335
 7175SOL    HW122424   6.523   4.105   5.380
 7175SOL    HW222425   6.662   4.049   5.316
 7176SOL     OW22426   0.496   1.165   4.086
 7176SOL    HW122427   0.535   1.099   4.023
 7176SOL    HW222428   0.547   1.251   4.080
 7177SOL     OW22429   1.876   5.595   5.684
 7177SOL    HW122430   1.959   5.602   5.629
 7177SOL    HW222431   1.832   5.507   5.666
 7178SOL     OW22432   0.611   0.465   5.802
 7178SOL    HW122433   0.567   0.387   5.759
 7178SOL    HW222434   0.622   0.538   5.735
 7179SOL     OW22435   2.141   4.510   5.102
 7179SOL    HW122436   2.047   4.529   5.132
 7179SOL    HW222437   2.205   4.551   5.167
 7180SOL     OW22438   2.424   4.474   0.627
 7180SOL    HW122439   2.353   4.418   0.585
 7180SOL    HW222440   2.415   4.469   0.726
 7181SOL     OW22441   2.245   1.111   6.364
 7181SOL    HW122442   2.188   1.190   6.386
 7181SOL    HW222443   2.190   1.028   6.367
 7182SOL     OW22444   0.839   3.696   3.841
 7182SOL    HW122445   0.787   3.622   3.797
 7182SOL    HW222446   0.936   3.684   3.821
 7183SOL     OW22447   1.857   5.887   1.753
 7183SOL    HW122448   1.845   5.927   1.662
 7183SOL    HW222449   1.932   5.934   1.800
 7184SOL     OW22450   5.725   1.375   3.136
 7184SOL    HW122451   5.735   1.284   3.098
 7184SOL    HW222452   5.694   1.438   3.065
 7185SOL     OW22453   5.319   1.040   5.231
 7185SOL    HW122454   5.412   1.030   5.265
 7185SOL    HW222455   5.260   1.075   5.304
 7186SOL     OW22456   0.253   0.805   1.172
 7186SOL    HW122457   0.343   0.781   1.137
 7186SOL    HW222458   0.246   0.904   1.182
 7187SOL     OW22459   3.066   3.637   5.064
 7187SOL    HW122460   3.094   3.721   5.018
 7187SOL    HW222461   2.984   3.654   5.119
 7188SOL     OW22462   4.857   3.735   0.114
 7188SOL    HW122463   4.815   3.808   0.059
 7188SOL    HW222464   4.826   3.646   0.080
 7189SOL     OW22465   6.079   3.459   5.349
 7189SOL    HW122466   6.040   3.367   5.346
 7189SOL    HW222467   6.164   3.457   5.401
 7190SOL     OW22468   6.019   5.706   0.846
 7190SOL    HW122469   5.982   5.716   0.939
 7190SOL    HW222470   6.096   5.769   0.834
 7191SOL     OW22471   0.523   3.924   3.364
 7191SOL    HW122472   0.528   3.867   3.446
 7191SOL    HW222473   0.606   3.979   3.356
 7192SOL     OW22474   2.070   3.833   5.881
 7192SOL    HW122475   2.070   3.843   5.782
 7192SOL    HW222476   1.995   3.887   5.920
 7193SOL     OW22477   2.493   1.978   2.792
 7193SOL    HW122478   2.546   1.942   2.868
 7193SOL    HW222479   2.553   2.028   2.729
 7194SOL     OW22480   2.116   1.862   0.081
 7194SOL    HW122481   2.170   1.814   0.011
 7194SOL    HW222482   2.163   1.856   0.169
 7195SOL     OW22483   6.588   4.178   6.709
 7195SOL    HW122484   6.591   4.112   6.784
 7195SOL    HW222485   6.533   4.257   6.736
 7196SOL     OW22486   3.238   3.804   2.506
 7196SOL    HW122487   3.143   3.801   2.474
 7196SOL    HW222488   3.272   3.898   2.501
 7197SOL     OW22489   0.935   3.721   5.212
 7197SOL    HW122490   0.999   3.711   5.135
 7197SOL    HW222491   0.974   3.784   5.279
 7198SOL     OW22492   0.285   0.792   0.659
 7198SOL    HW122493   0.281   0.714   0.596
 7198SOL    HW222494   0.377   0.832   0.657
 7199SOL     OW22495   0.914   0.259   2.515
 7199SOL    HW122496   0.880   0.272   2.608
 7199SOL    HW222497   0.949   0.346   2.479
 7200SOL     OW22498   1.953   3.020   1.020
 7200SOL    HW122499   1.956   3.119   1.010
 7200SOL    HW222500   1.898   2.980   0.946
 7201SOL     OW22501   0.264   5.745   4.444
 7201SOL    HW122502   0.279   5.835   4.487
 7201SOL    HW222503   0.186   5.700   4.488
 7202SOL     OW22504   4.849   0.482   5.696
 7202SOL    HW122505   4.775   0.471   5.629
 7202SOL    HW222506   4.937   0.485   5.648
 7203SOL     OW22507   0.517   0.952   1.707
 7203SOL    HW122508   0.594   0.903   1.748
 7203SOL    HW222509   0.524   0.947   1.607
 7204SOL     OW22510   6.361   1.467   0.507
 7204SOL    HW122511   6.451   1.510   0.499
 7204SOL    HW222512   6.319   1.460   0.416
 7205SOL     OW22513   0.969   3.439   4.515
 7205SOL    HW122514   1.050   3.438   4.457
 7205SOL    HW222515   0.944   3.345   4.539
 7206SOL     OW22516   1.454   1.576   1.126
 7206SOL    HW122517   1.475   1.480   1.111
 7206SOL    HW222518   1.461   1.596   1.224
 7207SOL     OW22519   2.593   1.500   3.770
 7207SOL    HW122520   2.632   1.415   3.735
 7207SOL    HW222521   2.539   1.543   3.698
 7208SOL     OW22522   4.685   0.391   3.852
 7208SOL    HW122523   4.737   0.475   3.862
 7208SOL    HW222524   4.596   0.401   3.896
 7209SOL     OW22525   2.115   2.424   2.206
 7209SOL    HW122526   2.123   2.339   2.258
 7209SOL    HW222527   2.056   2.488   2.254
 7210SOL     OW22528   3.464   1.837   3.052
 7210SOL    HW122529   3.435   1.917   3.105
 7210SOL    HW222530   3.564   1.837   3.044
 7211SOL     OW22531   2.796   6.215   5.316
 7211SOL    HW122532   2.792   6.305   5.360
 7211SOL    HW222533   2.832   6.148   5.381
 7212SOL     OW22534   6.153   6.640   6.727
 7212SOL    HW122535   6.177   6.555   6.774
 7212SOL    HW222536   6.147   6.715   6.793
 7213SOL     OW22537   3.532   6.371   6.664
 7213SOL    HW122538   3.444   6.348   6.622
 7213SOL    HW222539   3.606   6.353   6.599
 7214SOL     OW22540   0.187   0.810   5.824
 7214SOL    HW122541   0.145   0.719   5.824
 7214SOL    HW222542   0.284   0.801   5.801
 7215SOL     OW22543   6.489   2.741   3.866
 7215SOL    HW122544   6.501   2.691   3.952
 7215SOL    HW222545   6.545   2.699   3.795
 7216SOL     OW22546   3.249   6.346   2.095
 7216SOL    HW122547   3.173   6.411   2.096
 7216SOL    HW222548   3.328   6.388   2.051
 7217SOL     OW22549   1.969   4.171   3.681
 7217SOL    HW122550   2.064   4.162   3.652
 7217SOL    HW222551   1.960   4.253   3.738
 7218SOL     OW22552   6.868   3.275   3.563
 7218SOL    HW122553   6.914   3.350   3.514
 7218SOL    HW222554   6.935   3.222   3.613
 7219SOL     OW22555   3.199   6.944   1.411
 7219SOL    HW122556   3.235   6.851   1.402
 7219SOL    HW222557   3.272   7.006   1.436
 7220SOL     OW22558   6.730   4.253   4.480
 7220SOL    HW122559   6.704   4.331   4.537
 7220SOL    HW222560   6.823   4.225   4.501
 7221SOL     OW22561   3.369   6.002   4.830
 7221SOL    HW122562   3.313   5.963   4.903
 7221SOL    HW222563   3.385   6.099   4.849
 7222SOL     OW22564   5.342   0.112   2.879
 7222SOL    HW122565   5.272   0.154   2.937
 7222SOL    HW222566   5.349   0.163   2.793
 7223SOL     OW22567   2.877   1.165   0.229
 7223SOL    HW122568   2.801   1.100   0.234
 7223SOL    HW222569   2.841   1.258   0.218
 7224SOL     OW22570   4.306   2.434   4.243
 7224SOL    HW122571   4.260   2.522   4.250
 7224SOL    HW222572   4.333   2.403   4.335
 7225SOL     OW22573   1.648   6.360   1.219
 7225SOL    HW122574   1.576   6.313   1.270
 7225SOL    HW222575   1.702   6.417   1.281
 7226SOL     OW22576   6.175   0.605   1.272
 7226SOL    HW122577   6.159   0.636   1.178
 7226SOL    HW222578   6.236   0.526   1.271
 7227SOL     OW22579   3.007   1.102   1.876
 7227SOL    HW122580   2.939   1.063   1.938
 7227SOL    HW222581   2.965   1.176   1.823
 7228SOL     OW22582   0.835   1.587   3.306
 7228SOL    HW122583   0.869   1.493   3.304
 7228SOL    HW222584   0.735   1.586   3.303
 7229SOL     OW22585   6.852   6.731   4.588
 7229SOL    HW122586   6.904   6.812   4.613
 7229SOL    HW222587   6.915   6.660   4.557
 7230SOL     OW22588   2.531   5.272   3.390
 7230SOL    HW122589   2.559   5.244   3.482
 7230SOL    HW222590   2.492   5.364   3.394
 7231SOL     OW22591   4.044   0.358   0.975
 7231SOL    HW122592   4.002   0.268   0.964
 7231SOL    HW222593   3.972   0.428   0.975
 7232SOL     OW22594   4.825   6.590   2.504
 7232SOL    HW122595   4.799   6.657   2.434
 7232SOL    HW222596   4.783   6.615   2.592
 7233SOL     OW22597   0.834   1.266   5.342
 7233SOL    HW122598   0.888   1.182   5.343
 7233SOL    HW222599   0.752   1.253   5.286
 7234SOL     OW22600   5.076   3.242   2.742
 7234SOL    HW122601   5.147   3.176   2.770
 7234SOL    HW222602   5.057   3.230   2.645
 7235SOL     OW22603   6.500   5.185   1.446
 7235SOL    HW122604   6.563   5.157   1.374
 7235SOL    HW222605   6.425   5.119   1.453
 7236SOL     OW22606   1.734   2.478   2.902
 7236SOL    HW122607   1.691   2.566   2.884
 7236SOL    HW222608   1.677   2.425   2.965
 7237SOL     OW22609   4.590   6.660   6.634
 7237SOL    HW122610   4.648   6.726   6.681
 7237SOL    HW222611   4.522   6.624   6.698
 7238SOL     OW22612   4.438   2.798   6.454
 7238SOL    HW122613   4.426   2.761   6.361
 7238SOL    HW222614   4.463   2.894   6.449
 7239SOL     OW22615   1.068   3.053   2.389
 7239SOL    HW122616   1.020   2.978   2.434
 7239SOL    HW222617   1.159   3.022   2.360
 7240SOL     OW22618   6.825   1.393   0.277
 7240SOL    HW122619   6.809   1.412   0.180
 7240SOL    HW222620   6.804   1.297   0.296
 7241SOL     OW22621   2.354   0.060   0.595
 7241SOL    HW122622   2.314   0.148   0.568
 7241SOL    HW222623   2.426   0.035   0.531
 7242SOL     OW22624   0.071   5.572   5.106
 7242SOL    HW122625   0.004   5.547   5.036
 7242SOL    HW222626   0.033   5.642   5.166
 7243SOL     OW22627   6.984   4.368   6.396
 7243SOL    HW122628   7.023   4.276   6.398
 7243SOL    HW222629   6.892   4.366   6.436
 7244SOL     OW22630   0.525   0.714   1.093
 7244SOL    HW122631   0.555   0.636   1.039
 7244SOL    HW222632   0.508   0.684   1.187
 7245SOL     OW22633   1.490   2.407   5.596
 7245SOL    HW122634   1.501   2.429   5.499
 7245SOL    HW222635   1.579   2.381   5.634
 7246SOL     OW22636   1.746   0.909   3.987
 7246SOL    HW122637   1.713   0.919   4.081
 7246SOL    HW222638   1.732   0.815   3.956
 7247SOL     OW22639   3.073   2.079   5.479
 7247SOL    HW122640   3.139   2.004   5.483
 7247SOL    HW222641   2.981   2.041   5.475
 7248SOL     OW22642   3.340   0.370   3.536
 7248SOL    HW122643   3.399   0.423   3.597
 7248SOL    HW222644   3.253   0.418   3.525
 7249SOL     OW22645   4.433   4.965   1.750
 7249SOL    HW122646   4.490   4.963   1.669
 7249SOL    HW222647   4.344   4.922   1.730
 7250SOL     OW22648   4.998   5.139   5.505
 7250SOL    HW122649   4.987   5.175   5.597
 7250SOL    HW222650   5.095   5.139   5.480
 7251SOL     OW22651   0.959   0.593   5.368
 7251SOL    HW122652   1.036   0.578   5.306
 7251SOL    HW222653   0.916   0.681   5.347
 7252SOL     OW22654   3.034   3.691   1.788
 7252SOL    HW122655   3.077   3.744   1.716
 7252SOL    HW222656   3.014   3.598   1.755
 7253SOL     OW22657   1.864   6.239   6.613
 7253SOL    HW122658   1.885   6.165   6.548
 7253SOL    HW222659   1.765   6.251   6.618
 7254SOL     OW22660   5.853   5.493   4.746
 7254SOL    HW122661   5.894   5.403   4.731
 7254SOL    HW222662   5.758   5.492   4.715
 7255SOL     OW22663   4.480   3.872   6.982
 7255SOL    HW122664   4.573   3.904   7.000
 7255SOL    HW222665   4.423   3.950   6.955
 7256SOL     OW22666   4.073   6.534   5.516
 7256SOL    HW122667   4.015   6.465   5.558
 7256SOL    HW222668   4.132   6.492   5.447
 7257SOL     OW22669   0.654   2.138   4.142
 7257SOL    HW122670   0.703   2.118   4.058
 7257SOL    HW222671   0.679   2.072   4.213
 7258SOL     OW22672   5.570   1.899   2.789
 7258SOL    HW122673   5.593   1.838   2.713
 7258SOL    HW222674   5.632   1.978   2.789
 7259SOL     OW22675   1.161   3.334   2.298
 7259SOL    HW122676   1.150   3.394   2.377
 7259SOL    HW222677   1.148   3.239   2.327
 7260SOL     OW22678   5.350   1.708   1.476
 7260SOL    HW122679   5.417   1.636   1.490
 7260SOL    HW222680   5.389   1.796   1.503
 7261SOL     OW22681   0.910   4.639   1.105
 7261SOL    HW122682   0.919   4.739   1.104
 7261SOL    HW222683   0.824   4.612   1.062
 7262SOL     OW22684   5.573   1.567   6.962
 7262SOL    HW122685   5.652   1.548   6.904
 7262SOL    HW222686   5.519   1.640   6.922
 7263SOL     OW22687   0.657   5.998   6.831
 7263SOL    HW122688   0.616   5.942   6.759
 7263SOL    HW222689   0.663   6.093   6.802
 7264SOL     OW22690   5.504   0.829   0.940
 7264SOL    HW122691   5.437   0.880   0.887
 7264SOL    HW222692   5.582   0.806   0.881
 7265SOL     OW22693   5.744   4.838   5.518
 7265SOL    HW122694   5.841   4.835   5.493
 7265SOL    HW222695   5.717   4.931   5.539
 7266SOL     OW22696   6.572   1.029   3.484
 7266SOL    HW122697   6.660   1.065   3.515
 7266SOL    HW222698   6.528   1.097   3.426
 7267SOL     OW22699   6.501   6.759   4.416
 7267SOL    HW122700   6.402   6.770   4.407
 7267SOL    HW222701   6.537   6.829   4.478
 7268SOL     OW22702   6.924   6.102   4.071
 7268SOL    HW122703   6.972   6.120   4.156
 7268SOL    HW222704   6.874   6.015   4.079
 7269SOL     OW22705   1.839   6.158   6.140
 7269SOL    HW122706   1.850   6.160   6.041
 7269SOL    HW222707   1.890   6.234   6.181
 7270SOL     OW22708   0.093   2.606   4.657
 7270SOL    HW122709   0.150   2.564   4.727
 7270SOL    HW222710   0.151   2.639   4.582
 7271SOL     OW22711   1.015   4.762   4.250
 7271SOL    HW122712   0.949   4.825   4.209
 7271SOL    HW222713   1.108   4.787   4.221
 7272SOL     OW22714   6.262   5.865   2.015
 7272SOL    HW122715   6.320   5.845   2.094
 7272SOL    HW222716   6.197   5.938   2.038
 7273SOL     OW22717   5.771   3.764   0.620
 7273SOL    HW122718   5.763   3.829   0.544
 7273SOL    HW222719   5.681   3.748   0.660
 7274SOL     OW22720   0.336   4.829   6.747
 7274SOL    HW122721   0.249   4.788   6.776
 7274SOL    HW222722   0.379   4.771   6.678
 7275SOL     OW22723   0.462   6.143   2.553
 7275SOL    HW122724   0.440   6.150   2.456
 7275SOL    HW222725   0.495   6.232   2.586
 7276SOL     OW22726   5.329   0.880   3.339
 7276SOL    HW122727   5.389   0.802   3.355
 7276SOL    HW222728   5.272   0.863   3.259
 7277SOL     OW22729   5.223   0.416   4.260
 7277SOL    HW122730   5.279   0.338   4.232
 7277SOL    HW222731   5.146   0.426   4.198
 7278SOL     OW22732   3.744   2.890   1.464
 7278SOL    HW122733   3.841   2.869   1.454
 7278SOL    HW222734   3.693   2.845   1.390
 7279SOL     OW22735   4.581   5.110   6.262
 7279SOL    HW122736   4.525   5.091   6.342
 7279SOL    HW222737   4.662   5.162   6.289
 7280SOL     OW22738   0.443   0.763   3.506
 7280SOL    HW122739   0.464   0.786   3.411
 7280SOL    HW222740   0.365   0.817   3.538
 7281SOL     OW22741   3.110   1.776   0.220
 7281SOL    HW122742   3.051   1.831   0.160
 7281SOL    HW222743   3.134   1.830   0.301
 7282SOL     OW22744   6.023   5.072   2.740
 7282SOL    HW122745   6.032   5.029   2.829
 7282SOL    HW222746   6.063   5.013   2.670
 7283SOL     OW22747   3.338   1.354   3.160
 7283SOL    HW122748   3.359   1.444   3.121
 7283SOL    HW222749   3.280   1.303   3.096
 7284SOL     OW22750   0.743   3.216   6.344
 7284SOL    HW122751   0.813   3.237   6.412
 7284SOL    HW222752   0.775   3.245   6.254
 7285SOL     OW22753   5.240   3.600   2.505
 7285SOL    HW122754   5.317   3.551   2.465
 7285SOL    HW222755   5.263   3.628   2.598
 7286SOL     OW22756   2.642   0.976   0.226
 7286SOL    HW122757   2.593   0.955   0.141
 7286SOL    HW222758   2.664   0.892   0.274
 7287SOL     OW22759   6.871   2.345   6.226
 7287SOL    HW122760   6.841   2.417   6.164
 7287SOL    HW222761   6.883   2.260   6.175
 7288SOL     OW22762   2.968   0.596   0.104
 7288SOL    HW122763   2.961   0.551   0.193
 7288SOL    HW222764   2.940   0.533   0.032
 7289SOL     OW22765   5.096   1.738   4.423
 7289SOL    HW122766   5.025   1.800   4.389
 7289SOL    HW222767   5.067   1.643   4.410
 7290SOL     OW22768   3.453   0.428   5.353
 7290SOL    HW122769   3.383   0.372   5.397
 7290SOL    HW222770   3.542   0.410   5.395
 7291SOL     OW22771   1.534   6.865   0.809
 7291SOL    HW122772   1.509   6.817   0.725
 7291SOL    HW222773   1.504   6.961   0.803
 7292SOL     OW22774   2.941   1.595   3.422
 7292SOL    HW122775   2.955   1.609   3.520
 7292SOL    HW222776   2.976   1.505   3.396
 7293SOL     OW22777   1.618   2.135   5.360
 7293SOL    HW122778   1.593   2.090   5.446
 7293SOL    HW222779   1.717   2.129   5.346
 7294SOL     OW22780   1.914   5.151   7.014
 7294SOL    HW122781   1.935   5.090   0.067
 7294SOL    HW222782   1.996   5.202   6.989
 7295SOL     OW22783   1.028   2.216   0.754
 7295SOL    HW122784   0.962   2.148   0.723
 7295SOL    HW222785   0.984   2.306   0.756
 7296SOL     OW22786   2.716   5.125   1.216
 7296SOL    HW122787   2.767   5.134   1.302
 7296SOL    HW222788   2.711   5.029   1.191
 7297SOL     OW22789   3.474   6.188   0.941
 7297SOL    HW122790   3.567   6.174   0.907
 7297SOL    HW222791   3.472   6.267   1.002
 7298SOL     OW22792   4.726   4.082   5.698
 7298SOL    HW122793   4.685   4.163   5.657
 7298SOL    HW222794   4.656   4.011   5.709
 7299SOL     OW22795   0.545   1.696   0.306
 7299SOL    HW122796   0.594   1.735   0.228
 7299SOL    HW222797   0.524   1.600   0.288
 7300SOL     OW22798   6.535   6.211   2.311
 7300SOL    HW122799   6.453   6.193   2.257
 7300SOL    HW222800   6.572   6.124   2.345
 7301SOL     OW22801   6.184   1.289   4.835
 7301SOL    HW122802   6.168   1.346   4.755
 7301SOL    HW222803   6.227   1.345   4.907
 7302SOL     OW22804   0.793   2.231   6.013
 7302SOL    HW122805   0.761   2.167   6.083
 7302SOL    HW222806   0.887   2.259   6.034
 7303SOL     OW22807   4.877   0.502   7.000
 7303SOL    HW122808   4.874   0.406   6.970
 7303SOL    HW222809   4.839   0.560   6.928
 7304SOL     OW22810   4.051   4.867   0.300
 7304SOL    HW122811   4.109   4.947   0.285
 7304SOL    HW222812   4.011   4.872   0.392
 7305SOL     OW22813   5.005   0.895   7.020
 7305SOL    HW122814   5.082   0.832   0.012
 7305SOL    HW222815   5.039   0.979   6.980
 7306SOL     OW22816   5.122   2.355   1.542
 7306SOL    HW122817   5.026   2.373   1.562
 7306SOL    HW222818   5.180   2.403   1.609
 7307SOL     OW22819   2.014   6.960   2.684
 7307SOL    HW122820   2.025   6.988   2.779
 7307SOL    HW222821   2.062   6.874   2.669
 7308SOL     OW22822   6.419   4.080   5.785
 7308SOL    HW122823   6.378   4.161   5.743
 7308SOL    HW222824   6.404   4.001   5.726
 7309SOL     OW22825   4.545   5.857   1.097
 7309SOL    HW122826   4.537   5.758   1.111
 7309SOL    HW222827   4.624   5.892   1.146
 7310SOL     OW22828   2.393   3.778   1.319
 7310SOL    HW122829   2.315   3.812   1.267
 7310SOL    HW222830   2.365   3.700   1.375
 7311SOL     OW22831   3.575   1.941   1.977
 7311SOL    HW122832   3.630   2.024   1.978
 7311SOL    HW222833   3.603   1.882   2.053
 7312SOL     OW22834   0.291   3.649   5.909
 7312SOL    HW122835   0.295   3.687   5.817
 7312SOL    HW222836   0.359   3.694   5.967
 7313SOL     OW22837   3.337   1.748   6.519
 7313SOL    HW122838   3.389   1.815   6.466
 7313SOL    HW222839   3.352   1.657   6.481
 7314SOL     OW22840   6.948   4.604   5.534
 7314SOL    HW122841   6.853   4.636   5.536
 7314SOL    HW222842   6.980   4.590   5.628
 7315SOL     OW22843   6.672   0.405   3.044
 7315SOL    HW122844   6.664   0.448   2.954
 7315SOL    HW222845   6.634   0.466   3.114
 7316SOL     OW22846   3.374   4.433   6.290
 7316SOL    HW122847   3.468   4.455   6.313
 7316SOL    HW222848   3.356   4.458   6.194
 7317SOL     OW22849   4.533   1.176   2.452
 7317SOL    HW122850   4.625   1.207   2.431
 7317SOL    HW222851   4.496   1.229   2.528
 7318SOL     OW22852   1.540   0.872   0.970
 7318SOL    HW122853   1.481   0.834   0.899
 7318SOL    HW222854   1.616   0.809   0.988
 7319SOL     OW22855   6.725   4.344   6.519
 7319SOL    HW122856   6.675   4.320   6.436
 7319SOL    HW222857   6.695   4.284   6.594
 7320SOL     OW22858   6.640   3.744   1.830
 7320SOL    HW122859   6.727   3.763   1.874
 7320SOL    HW222860   6.650   3.755   1.731
 7321SOL     OW22861   2.413   6.874   5.179
 7321SOL    HW122862   2.465   6.818   5.114
 7321SOL    HW222863   2.333   6.913   5.134
 7322SOL     OW22864   5.903   2.245   3.794
 7322SOL    HW122865   5.813   2.207   3.815
 7322SOL    HW222866   5.943   2.195   3.717
 7323SOL     OW22867   2.200   1.793   1.785
 7323SOL    HW122868   2.144   1.733   1.728
 7323SOL    HW222869   2.285   1.746   1.809
 7324SOL     OW22870   5.161   6.040   2.097
 7324SOL    HW122871   5.175   6.097   2.178
 7324SOL    HW222872   5.146   6.098   2.017
 7325SOL     OW22873   3.602   6.515   0.508
 7325SOL    HW122874   3.621   6.451   0.434
 7325SOL    HW222875   3.510   6.554   0.497
 7326SOL     OW22876   3.132   6.468   5.593
 7326SOL    HW122877   3.178   6.496   5.677
 7326SOL    HW222878   3.199   6.429   5.530
 7327SOL     OW22879   5.975   2.441   6.237
 7327SOL    HW122880   5.976   2.534   6.274
 7327SOL    HW222881   6.052   2.429   6.174
 7328SOL     OW22882   3.503   0.123   6.136
 7328SOL    HW122883   3.409   0.136   6.105
 7328SOL    HW222884   3.512   0.154   6.231
 7329SOL     OW22885   5.692   4.412   1.314
 7329SOL    HW122886   5.675   4.489   1.376
 7329SOL    HW222887   5.720   4.332   1.367
 7330SOL     OW22888   2.606   2.140   6.902
 7330SOL    HW122889   2.611   2.046   6.935
 7330SOL    HW222890   2.510   2.171   6.904
 7331SOL     OW22891   5.660   6.970   2.106
 7331SOL    HW122892   5.677   6.996   2.201
 7331SOL    HW222893   5.695   0.018   2.045
 7332SOL     OW22894   1.997   5.907   0.672
 7332SOL    HW122895   2.043   5.824   0.704
 7332SOL    HW222896   1.901   5.887   0.653
 7333SOL     OW22897   0.464   2.975   2.808
 7333SOL    HW122898   0.387   2.915   2.831
 7333SOL    HW222899   0.488   2.964   2.712
 7334SOL     OW22900   3.189   6.070   6.964
 7334SOL    HW122901   3.259   6.005   6.994
 7334SOL    HW222902   3.143   6.035   6.883
 7335SOL     OW22903   1.621   2.703   2.822
 7335SOL    HW122904   1.689   2.770   2.792
 7335SOL    HW222905   1.532   2.748   2.831
 7336SOL     OW22906   1.377   6.426   3.263
 7336SOL    HW122907   1.374   6.463   3.171
 7336SOL    HW222908   1.297   6.457   3.315
 7337SOL     OW22909   0.474   3.552   1.504
 7337SOL    HW122910   0.382   3.513   1.498
 7337SOL    HW222911   0.532   3.491   1.557
 7338SOL     OW22912   6.642   2.432   1.230
 7338SOL    HW122913   6.643   2.411   1.327
 7338SOL    HW222914   6.735   2.436   1.195
 7339SOL     OW22915   5.098   6.069   3.722
 7339SOL    HW122916   5.067   6.123   3.644
 7339SOL    HW222917   5.186   6.028   3.701
 7340SOL     OW22918   2.451   0.828   1.053
 7340SOL    HW122919   2.528   0.785   1.007
 7340SOL    HW222920   2.399   0.759   1.104
 7341SOL     OW22921   6.388   2.867   6.649
 7341SOL    HW122922   6.340   2.950   6.623
 7341SOL    HW222923   6.339   2.822   6.724
 7342SOL     OW22924   6.938   1.140   1.881
 7342SOL    HW122925   7.017   1.198   1.901
 7342SOL    HW222926   6.874   1.189   1.823
 7343SOL     OW22927   5.421   3.265   6.921
 7343SOL    HW122928   5.370   3.190   6.964
 7343SOL    HW222929   5.356   3.332   6.885
 7344SOL     OW22930   0.560   0.817   6.754
 7344SOL    HW122931   0.644   0.789   6.706
 7344SOL    HW222932   0.486   0.828   6.688
 7345SOL     OW22933   4.389   3.737   5.559
 7345SOL    HW122934   4.457   3.703   5.494
 7345SOL    HW222935   4.298   3.707   5.532
 7346SOL     OW22936   4.070   5.901   2.410
 7346SOL    HW122937   4.165   5.893   2.379
 7346SOL    HW222938   4.054   5.992   2.448
 7347SOL     OW22939   1.122   1.748   0.963
 7347SOL    HW122940   1.067   1.773   0.883
 7347SOL    HW222941   1.152   1.831   1.010
 7348SOL     OW22942   1.344   4.418   3.402
 7348SOL    HW122943   1.433   4.436   3.359
 7348SOL    HW222944   1.355   4.344   3.469
 7349SOL     OW22945   4.256   0.326   2.066
 7349SOL    HW122946   4.251   0.233   2.029
 7349SOL    HW222947   4.164   0.360   2.084
 7350SOL     OW22948   2.948   2.447   5.559
 7350SOL    HW122949   2.879   2.478   5.494
 7350SOL    HW222950   2.903   2.409   5.640
 7351SOL     OW22951   5.888   5.763   3.767
 7351SOL    HW122952   5.848   5.792   3.854
 7351SOL    HW222953   5.833   5.688   3.729
 7352SOL     OW22954   1.025   1.645   2.327
 7352SOL    HW122955   0.946   1.685   2.374
 7352SOL    HW222956   1.019   1.545   2.332
 7353SOL     OW22957   6.771   0.143   6.758
 7353SOL    HW122958   6.832   0.183   6.825
 7353SOL    HW222959   6.821   0.077   6.702
 7354SOL     OW22960   1.282   2.146   5.447
 7354SOL    HW122961   1.379   2.167   5.452
 7354SOL    HW222962   1.269   2.048   5.435
 7355SOL     OW22963   1.174   1.084   0.202
 7355SOL    HW122964   1.248   1.135   0.160
 7355SOL    HW222965   1.195   0.986   0.199
 7356SOL     OW22966   3.619   3.352   6.397
 7356SOL    HW122967   3.607   3.253   6.386
 7356SOL    HW222968   3.536   3.399   6.365
 7357SOL     OW22969   2.947   5.822   2.217
 7357SOL    HW122970   2.848   5.825   2.229
 7357SOL    HW222971   2.973   5.881   2.141
 7358SOL     OW22972   5.947   3.426   2.033
 7358SOL    HW122973   5.883   3.479   2.089
 7358SOL    HW222974   6.031   3.477   2.020
 7359SOL     OW22975   4.303   2.263   5.380
 7359SOL    HW122976   4.349   2.255   5.469
 7359SOL    HW222977   4.214   2.218   5.384
 7360SOL     OW22978   2.637   3.101   5.579
 7360SOL    HW122979   2.725   3.144   5.558
 7360SOL    HW222980   2.641   3.004   5.555
 7361SOL     OW22981   5.860   0.840   2.229
 7361SOL    HW122982   5.912   0.925   2.227
 7361SOL    HW222983   5.907   0.771   2.174
 7362SOL     OW22984   2.092   5.935   6.329
 7362SOL    HW122985   2.112   5.840   6.354
 7362SOL    HW222986   2.112   5.948   6.232
 7363SOL     OW22987   4.809   1.445   1.552
 7363SOL    HW122988   4.733   1.469   1.491
 7363SOL    HW222989   4.786   1.360   1.600
 7364SOL     OW22990   4.092   0.461   2.299
 7364SOL    HW122991   4.136   0.421   2.380
 7364SOL    HW222992   4.135   0.548   2.277
 7365SOL     OW22993   0.805   6.186   1.807
 7365SOL    HW122994   0.717   6.227   1.829
 7365SOL    HW222995   0.879   6.238   1.850
 7366SOL     OW22996   2.301   6.757   5.411
 7366SOL    HW122997   2.376   6.807   5.368
 7366SOL    HW222998   2.247   6.711   5.340
 7367SOL     OW22999   4.205   2.626   0.220
 7367SOL    HW123000   4.238   2.675   0.139
 7367SOL    HW223001   4.249   2.664   0.301
 7368SOL     OW23002   3.633   2.942   2.443
 7368SOL    HW123003   3.593   3.029   2.414
 7368SOL    HW223004   3.580   2.905   2.519
 7369SOL     OW23005   3.185   2.450   0.965
 7369SOL    HW123006   3.229   2.390   0.898
 7369SOL    HW223007   3.099   2.409   0.994
 7370SOL     OW23008   2.613   1.480   6.280
 7370SOL    HW123009   2.569   1.470   6.369
 7370SOL    HW223010   2.691   1.542   6.288
 7371SOL     OW23011   3.131   6.489   3.507
 7371SOL    HW123012   3.066   6.535   3.446
 7371SOL    HW223013   3.107   6.392   3.513
 7372SOL     OW23014   4.364   6.824   4.615
 7372SOL    HW123015   4.460   6.833   4.586
 7372SOL    HW223016   4.345   6.891   4.688
 7373SOL     OW23017   6.214   2.276   4.934
 7373SOL    HW123018   6.175   2.198   4.981
 7373SOL    HW223019   6.288   2.245   4.873
 7374SOL     OW23020   2.386   2.057   4.439
 7374SOL    HW123021   2.340   1.969   4.439
 7374SOL    HW223022   2.462   2.055   4.504
 7375SOL     OW23023   2.532   2.439   2.031
 7375SOL    HW123024   2.612   2.396   2.072
 7375SOL    HW223025   2.457   2.439   2.098
 7376SOL     OW23026   1.193   2.455   1.460
 7376SOL    HW123027   1.109   2.509   1.453
 7376SOL    HW223028   1.213   2.412   1.372
 7377SOL     OW23029   4.862   4.976   0.419
 7377SOL    HW123030   4.957   4.960   0.393
 7377SOL    HW223031   4.854   4.978   0.519
 7378SOL     OW23032   1.527   0.496   4.600
 7378SOL    HW123033   1.526   0.580   4.655
 7378SOL    HW223034   1.440   0.486   4.552
 7379SOL     OW23035   2.974   0.678   2.433
 7379SOL    HW123036   3.005   0.628   2.352
 7379SOL    HW223037   2.900   0.740   2.407
 7380SOL     OW23038   0.069   4.292   3.885
 7380SOL    HW123039   0.064   4.194   3.870
 7380SOL    HW223040   0.032   4.314   3.976
 7381SOL     OW23041   4.188   3.164   0.702
 7381SOL    HW123042   4.113   3.230   0.704
 7381SOL    HW223043   4.165   3.087   0.643
 7382SOL     OW23044   6.394   1.311   5.753
 7382SOL    HW123045   6.307   1.313   5.803
 7382SOL    HW223046   6.411   1.218   5.721
 7383SOL     OW23047   2.684   5.937   1.241
 7383SOL    HW123048   2.749   5.876   1.196
 7383SOL    HW223049   2.593   5.922   1.203
 7384SOL     OW23050   6.497   6.884   2.175
 7384SOL    HW123051   6.456   6.938   2.249
 7384SOL    HW223052   6.596   6.880   2.187
 7385SOL     OW23053   2.566   5.552   2.434
 7385SOL    HW123054   2.587   5.500   2.517
 7385SOL    HW223055   2.504   5.500   2.376
 7386SOL     OW23056   6.897   3.159   6.577
 7386SOL    HW123057   6.847   3.081   6.616
 7386SOL    HW223058   6.852   3.189   6.493
 7387SOL     OW23059   6.673   5.287   5.021
 7387SOL    HW123060   6.690   5.211   5.084
 7387SOL    HW223061   6.631   5.252   4.937
 7388SOL     OW23062   1.311   5.081   2.107
 7388SOL    HW123063   1.407   5.055   2.100
 7388SOL    HW223064   1.254   5.011   2.064
 7389SOL     OW23065   6.873   3.369   6.814
 7389SOL    HW123066   6.823   3.452   6.789
 7389SOL    HW223067   6.970   3.392   6.825
 7390SOL     OW23068   2.590   1.961   2.452
 7390SOL    HW123069   2.615   2.057   2.435
 7390SOL    HW223070   2.671   1.904   2.444
 7391SOL     OW23071   3.690   2.963   3.130
 7391SOL    HW123072   3.668   3.060   3.114
 7391SOL    HW223073   3.679   2.912   3.044
 7392SOL     OW23074   3.505   5.682   6.574
 7392SOL    HW123075   3.450   5.741   6.633
 7392SOL    HW223076   3.465   5.591   6.571
 7393SOL     OW23077   6.614   4.601   3.096
 7393SOL    HW123078   6.631   4.699   3.086
 7393SOL    HW223079   6.642   4.572   3.188
 7394SOL     OW23080   1.459   2.891   6.028
 7394SOL    HW123081   1.404   2.949   5.967
 7394SOL    HW223082   1.402   2.859   6.104
 7395SOL     OW23083   2.231   3.231   1.136
 7395SOL    HW123084   2.254   3.321   1.098
 7395SOL    HW223085   2.146   3.238   1.188
 7396SOL     OW23086   1.687   6.767   1.246
 7396SOL    HW123087   1.781   6.733   1.234
 7396SOL    HW223088   1.681   6.861   1.215
 7397SOL     OW23089   5.721   4.793   4.377
 7397SOL    HW123090   5.698   4.802   4.474
 7397SOL    HW223091   5.725   4.696   4.353
 7398SOL     OW23092   1.011   5.893   2.893
 7398SOL    HW123093   0.918   5.856   2.898
 7398SOL    HW223094   1.006   5.993   2.890
 7399SOL     OW23095   6.908   3.060   4.557
 7399SOL    HW123096   6.814   3.057   4.522
 7399SOL    HW223097   6.908   3.102   4.647
 7400SOL     OW23098   4.476   2.657   5.797
 7400SOL    HW123099   4.421   2.710   5.862
 7400SOL    HW223100   4.439   2.669   5.705
 7401SOL     OW23101   1.333   3.003   2.992
 7401SOL    HW123102   1.305   3.098   2.995
 7401SOL    HW223103   1.416   2.991   3.047
 7402SOL     OW23104   3.332   4.479   5.994
 7402SOL    HW123105   3.323   4.573   5.961
 7402SOL    HW223106   3.243   4.434   5.991
 7403SOL     OW23107   1.484   3.302   3.033
 7403SOL    HW123108   1.393   3.288   3.073
 7403SOL    HW223109   1.531   3.375   3.082
 7404SOL     OW23110   2.657   4.331   1.715
 7404SOL    HW123111   2.743   4.371   1.749
 7404SOL    HW223112   2.677   4.252   1.657
 7405SOL     OW23113   3.058   5.148   4.398
 7405SOL    HW123114   3.018   5.169   4.309
 7405SOL    HW223115   3.125   5.218   4.422
 7406SOL     OW23116   1.003   1.270   4.977
 7406SOL    HW123117   1.093   1.308   4.998
 7406SOL    HW223118   0.933   1.322   5.026
 7407SOL     OW23119   1.290   6.224   5.332
 7407SOL    HW123120   1.349   6.270   5.399
 7407SOL    HW223121   1.227   6.163   5.380
 7408SOL     OW23122   3.885   4.272   5.546
 7408SOL    HW123123   3.965   4.282   5.605
 7408SOL    HW223124   3.911   4.291   5.451
 7409SOL     OW23125   5.170   4.456   0.819
 7409SOL    HW123126   5.226   4.380   0.851
 7409SOL    HW223127   5.191   4.475   0.723
 7410SOL     OW23128   0.544   0.923   0.846
 7410SOL    HW123129   0.550   0.958   0.753
 7410SOL    HW223130   0.450   0.936   0.880
 7411SOL     OW23131   1.663   0.383   6.745
 7411SOL    HW123132   1.743   0.420   6.698
 7411SOL    HW223133   1.688   0.360   6.839
 7412SOL     OW23134   3.767   6.547   1.157
 7412SOL    HW123135   3.799   6.618   1.094
 7412SOL    HW223136   3.800   6.567   1.249
 7413SOL     OW23137   4.971   4.759   3.866
 7413SOL    HW123138   4.876   4.725   3.869
 7413SOL    HW223139   5.034   4.682   3.873
 7414SOL     OW23140   2.060   1.378   3.397
 7414SOL    HW123141   2.045   1.317   3.320
 7414SOL    HW223142   2.157   1.375   3.424
 7415SOL     OW23143   2.083   5.020   5.141
 7415SOL    HW123144   2.143   4.947   5.109
 7415SOL    HW223145   2.030   5.056   5.064
 7416SOL     OW23146   2.205   0.806   2.527
 7416SOL    HW123147   2.140   0.760   2.466
 7416SOL    HW223148   2.274   0.740   2.558
 7417SOL     OW23149   1.833   2.133   2.040
 7417SOL    HW123150   1.933   2.136   2.047
 7417SOL    HW223151   1.793   2.191   2.110
 7418SOL     OW23152   1.929   4.971   6.561
 7418SOL    HW123153   1.933   5.007   6.468
 7418SOL    HW223154   2.021   4.970   6.600
 7419SOL     OW23155   6.267   3.992   4.030
 7419SOL    HW123156   6.358   3.965   3.999
 7419SOL    HW223157   6.200   3.923   4.000
 7420SOL     OW23158   0.375   6.491   1.263
 7420SOL    HW123159   0.310   6.555   1.303
 7420SOL    HW223160   0.468   6.528   1.271
 7421SOL     OW23161   3.944   3.438   1.464
 7421SOL    HW123162   3.855   3.464   1.500
 7421SOL    HW223163   3.932   3.392   1.376
 7422SOL     OW23164   6.539   4.046   2.071
 7422SOL    HW123165   6.569   4.050   1.976
 7422SOL    HW223166   6.570   4.129   2.119
 7423SOL     OW23167   5.948   3.237   5.647
 7423SOL    HW123168   5.891   3.172   5.697
 7423SOL    HW223169   5.944   3.326   5.692
 7424SOL     OW23170   6.933   1.474   5.482
 7424SOL    HW123171   0.008   1.454   5.485
 7424SOL    HW223172   6.905   1.485   5.386
 7425SOL     OW23173   5.089   6.955   0.318
 7425SOL    HW123174   5.076   0.018   0.270
 7425SOL    HW223175   5.104   6.973   0.415
 7426SOL     OW23176   3.423   1.951   5.251
 7426SOL    HW123177   3.421   2.043   5.211
 7426SOL    HW223178   3.331   1.926   5.281
 7427SOL     OW23179   4.703   1.041   4.132
 7427SOL    HW123180   4.785   1.063   4.079
 7427SOL    HW223181   4.623   1.043   4.072
 7428SOL     OW23182   3.871   0.409   5.283
 7428SOL    HW123183   3.958   0.456   5.298
 7428SOL    HW223184   3.862   0.385   5.186
 7429SOL     OW23185   0.924   6.424   3.587
 7429SOL    HW123186   0.914   6.327   3.606
 7429SOL    HW223187   0.883   6.445   3.498
 7430SOL     OW23188   6.788   3.680   1.064
 7430SOL    HW123189   6.860   3.611   1.075
 7430SOL    HW223190   6.785   3.709   0.969
 7431SOL     OW23191   0.737   2.144   3.323
 7431SOL    HW123192   0.757   2.110   3.415
 7431SOL    HW223193   0.818   2.185   3.283
 7432SOL     OW23194   2.057   1.027   3.513
 7432SOL    HW123195   1.963   0.995   3.513
 7432SOL    HW223196   2.064   1.112   3.566
 7433SOL     OW23197   4.225   6.034   7.012
 7433SOL    HW123198   4.151   5.973   0.019
 7433SOL    HW223199   4.186   6.119   6.978
 7434SOL     OW23200   5.493   5.329   5.527
 7434SOL    HW123201   5.533   5.385   5.601
 7434SOL    HW223202   5.544   5.346   5.443
 7435SOL     OW23203   4.446   6.342   1.751
 7435SOL    HW123204   4.449   6.424   1.694
 7435SOL    HW223205   4.537   6.300   1.754
 7436SOL     OW23206   4.753   4.672   6.161
 7436SOL    HW123207   4.664   4.633   6.183
 7436SOL    HW223208   4.781   4.644   6.069
 7437SOL     OW23209   3.009   5.710   0.745
 7437SOL    HW123210   3.048   5.673   0.661
 7437SOL    HW223211   2.997   5.637   0.812
 7438SOL     OW23212   1.896   7.009   6.928
 7438SOL    HW123213   1.966   6.959   6.979
 7438SOL    HW223214   1.850   6.948   6.864
 7439SOL     OW23215   1.629   6.197   5.255
 7439SOL    HW123216   1.634   6.295   5.275
 7439SOL    HW223217   1.548   6.178   5.200
 7440SOL     OW23218   6.039   3.043   4.004
 7440SOL    HW123219   6.038   3.123   4.063
 7440SOL    HW223220   6.105   2.976   4.039
 7441SOL     OW23221   5.375   6.886   3.568
 7441SOL    HW123222   5.298   6.950   3.572
 7441SOL    HW223223   5.370   6.824   3.647
 7442SOL     OW23224   5.755   1.299   0.085
 7442SOL    HW123225   5.721   1.318   7.016
 7442SOL    HW223226   5.855   1.299   0.085
 7443SOL     OW23227   6.796   5.671   1.957
 7443SOL    HW123228   6.709   5.623   1.965
 7443SOL    HW223229   6.859   5.639   2.027
 7444SOL     OW23230   5.897   0.843   6.412
 7444SOL    HW123231   5.873   0.757   6.367
 7444SOL    HW223232   5.911   0.914   6.344
 7445SOL     OW23233   3.159   0.548   1.346
 7445SOL    HW123234   3.098   0.575   1.271
 7445SOL    HW223235   3.129   0.592   1.431
 7446SOL     OW23236   4.742   2.026   0.381
 7446SOL    HW123237   4.726   1.963   0.457
 7446SOL    HW223238   4.840   2.033   0.363
 7447SOL     OW23239   6.859   4.675   6.008
 7447SOL    HW123240   6.898   4.641   5.922
 7447SOL    HW223241   6.760   4.687   5.997
 7448SOL     OW23242   5.739   6.836   5.157
 7448SOL    HW123243   5.830   6.797   5.172
 7448SOL    HW223244   5.669   6.774   5.194
 7449SOL     OW23245   0.949   5.669   0.426
 7449SOL    HW123246   0.862   5.666   0.476
 7449SOL    HW223247   0.932   5.652   0.329
 7450SOL     OW23248   4.997   2.622   5.483
 7450SOL    HW123249   5.063   2.667   5.543
 7450SOL    HW223250   5.017   2.647   5.388
 7451SOL     OW23251   5.918   5.660   2.265
 7451SOL    HW123252   5.972   5.645   2.182
 7451SOL    HW223253   5.860   5.740   2.252
 7452SOL     OW23254   6.502   5.529   4.289
 7452SOL    HW123255   6.446   5.461   4.336
 7452SOL    HW223256   6.595   5.494   4.276
 7453SOL     OW23257   4.445   5.333   5.337
 7453SOL    HW123258   4.504   5.263   5.376
 7453SOL    HW223259   4.501   5.403   5.292
 7454SOL     OW23260   2.728   1.146   0.608
 7454SOL    HW123261   2.732   1.146   0.708
 7454SOL    HW223262   2.817   1.172   0.571
 7455SOL     OW23263   6.700   3.562   2.144
 7455SOL    HW123264   6.654   3.577   2.057
 7455SOL    HW223265   6.785   3.614   2.146
 7456SOL     OW23266   2.577   1.174   4.872
 7456SOL    HW123267   2.525   1.091   4.853
 7456SOL    HW223268   2.672   1.161   4.846
 7457SOL     OW23269   3.109   0.178   4.076
 7457SOL    HW123270   3.065   0.251   4.127
 7457SOL    HW223271   3.204   0.170   4.104
 7458SOL     OW23272   1.533   0.392   5.878
 7458SOL    HW123273   1.493   0.302   5.895
 7458SOL    HW223274   1.580   0.424   5.960
 7459SOL     OW23275   6.432   1.150   2.335
 7459SOL    HW123276   6.354   1.102   2.374
 7459SOL    HW223277   6.503   1.084   2.311
 7460SOL     OW23278   1.495   5.989   6.545
 7460SOL    HW123279   1.537   6.079   6.541
 7460SOL    HW223280   1.534   5.937   6.622
 7461SOL     OW23281   6.089   6.239   5.669
 7461SOL    HW123282   6.035   6.322   5.656
 7461SOL    HW223283   6.157   6.232   5.595
 7462SOL     OW23284   2.357   4.756   1.949
 7462SOL    HW123285   2.257   4.749   1.950
 7462SOL    HW223286   2.385   4.841   1.994
 7463SOL     OW23287   3.568   3.739   0.521
 7463SOL    HW123288   3.655   3.713   0.564
 7463SOL    HW223289   3.496   3.676   0.550
 7464SOL     OW23290   6.264   6.713   5.272
 7464SOL    HW123291   6.201   6.645   5.310
 7464SOL    HW223292   6.306   6.676   5.189
 7465SOL     OW23293   2.574   5.317   0.036
 7465SOL    HW123294   2.529   5.305   6.970
 7465SOL    HW223295   2.592   5.228   0.076
 7466SOL     OW23296   0.438   0.622   6.309
 7466SOL    HW123297   0.409   0.547   6.370
 7466SOL    HW223298   0.359   0.681   6.289
 7467SOL     OW23299   0.713   2.479   6.176
 7467SOL    HW123300   0.771   2.550   6.135
 7467SOL    HW223301   0.734   2.472   6.273
 7468SOL     OW23302   4.759   2.914   4.744
 7468SOL    HW123303   4.672   2.959   4.763
 7468SOL    HW223304   4.745   2.841   4.677
 7469SOL     OW23305   6.710   1.521   0.483
 7469SOL    HW123306   6.703   1.618   0.460
 7469SOL    HW223307   6.742   1.469   0.404
 7470SOL     OW23308   5.399   4.570   3.401
 7470SOL    HW123309   5.453   4.505   3.455
 7470SOL    HW223310   5.349   4.631   3.463
 7471SOL     OW23311   5.214   6.022   5.910
 7471SOL    HW123312   5.255   6.107   5.878
 7471SOL    HW223313   5.121   6.039   5.943
 7472SOL     OW23314   6.358   0.861   5.455
 7472SOL    HW123315   6.421   0.784   5.463
 7472SOL    HW223316   6.309   0.874   5.541
 7473SOL     OW23317   5.621   6.248   3.878
 7473SOL    HW123318   5.681   6.232   3.800
 7473SOL    HW223319   5.526   6.247   3.848
 7474SOL     OW23320   6.475   2.714   6.429
 7474SOL    HW123321   6.443   2.763   6.510
 7474SOL    HW223322   6.431   2.752   6.347
 7475SOL     OW23323   4.451   2.457   2.371
 7475SOL    HW123324   4.407   2.461   2.461
 7475SOL    HW223325   4.399   2.395   2.312
 7476SOL     OW23326   2.202   2.050   3.020
 7476SOL    HW123327   2.206   2.007   2.929
 7476SOL    HW223328   2.115   2.099   3.029
 7477SOL     OW23329   0.100   2.858   5.340
 7477SOL    HW123330   0.135   2.863   5.247
 7477SOL    HW223331   0.028   2.789   5.345
 7478SOL     OW23332   5.880   3.696   5.315
 7478SOL    HW123333   5.933   3.612   5.304
 7478SOL    HW223334   5.930   3.773   5.274
 7479SOL     OW23335   5.241   2.556   0.877
 7479SOL    HW123336   5.166   2.492   0.891
 7479SOL    HW223337   5.327   2.513   0.902
 7480SOL     OW23338   2.071   4.701   2.257
 7480SOL    HW123339   2.165   4.730   2.272
 7480SOL    HW223340   2.052   4.620   2.312
 7481SOL     OW23341   6.569   4.702   0.135
 7481SOL    HW123342   6.657   4.743   0.157
 7481SOL    HW223343   6.504   4.719   0.209
 7482SOL     OW23344   4.292   1.979   2.253
 7482SOL    HW123345   4.375   1.985   2.307
 7482SOL    HW223346   4.222   1.930   2.305
 7483SOL     OW23347   4.981   2.539   4.970
 7483SOL    HW123348   4.893   2.492   4.960
 7483SOL    HW223349   5.003   2.585   4.884
 7484SOL     OW23350   1.672   5.308   4.592
 7484SOL    HW123351   1.755   5.312   4.537
 7484SOL    HW223352   1.616   5.230   4.562
 7485SOL     OW23353   2.383   0.227   4.162
 7485SOL    HW123354   2.455   0.281   4.205
 7485SOL    HW223355   2.424   0.159   4.101
 7486SOL     OW23356   0.596   6.238   0.189
 7486SOL    HW123357   0.682   6.228   0.238
 7486SOL    HW223358   0.572   6.152   0.144
 7487SOL     OW23359   3.728   0.329   3.861
 7487SOL    HW123360   3.782   0.356   3.941
 7487SOL    HW223361   3.781   0.346   3.778
 7488SOL     OW23362   2.362   5.947   4.822
 7488SOL    HW123363   2.462   5.949   4.835
 7488SOL    HW223364   2.333   6.029   4.773
 7489SOL     OW23365   6.033   3.029   6.863
 7489SOL    HW123366   6.075   2.947   6.900
 7489SOL    HW223367   6.063   3.109   6.915
 7490SOL     OW23368   1.913   1.155   2.608
 7490SOL    HW123369   1.954   1.245   2.590
 7490SOL    HW223370   1.893   1.109   2.522
 7491SOL     OW23371   4.811   2.748   6.913
 7491SOL    HW123372   4.876   2.775   6.842
 7491SOL    HW223373   4.861   2.719   6.995
 7492SOL     OW23374   2.092   1.254   4.149
 7492SOL    HW123375   2.169   1.309   4.116
 7492SOL    HW223376   2.010   1.311   4.152
 7493SOL     OW23377   6.903   3.199   5.854
 7493SOL    HW123378   6.941   3.290   5.834
 7493SOL    HW223379   6.958   3.155   5.925
 7494SOL     OW23380   5.892   1.369   4.240
 7494SOL    HW123381   5.824   1.435   4.271
 7494SOL    HW223382   5.896   1.370   4.140
 7495SOL     OW23383   1.351   3.053   5.163
 7495SOL    HW123384   1.330   3.149   5.143
 7495SOL    HW223385   1.340   2.998   5.080
 7496SOL     OW23386   5.147   3.609   4.459
 7496SOL    HW123387   5.052   3.590   4.485
 7496SOL    HW223388   5.202   3.527   4.474
 7497SOL     OW23389   1.657   5.626   1.469
 7497SOL    HW123390   1.740   5.623   1.524
 7497SOL    HW223391   1.676   5.587   1.379
 7498SOL     OW23392   2.465   1.126   4.010
 7498SOL    HW123393   2.562   1.139   4.029
 7498SOL    HW223394   2.411   1.192   4.063
 7499SOL     OW23395   4.503   2.094   3.584
 7499SOL    HW123396   4.478   2.190   3.594
 7499SOL    HW223397   4.420   2.040   3.571
 7500SOL     OW23398   3.420   5.576   2.940
 7500SOL    HW123399   3.422   5.482   2.974
 7500SOL    HW223400   3.514   5.606   2.921
 7501SOL     OW23401   5.403   4.000   3.706
 7501SOL    HW123402   5.453   4.033   3.626
 7501SOL    HW223403   5.331   4.065   3.729
 7502SOL     OW23404   3.436   6.773   4.339
 7502SOL    HW123405   3.497   6.713   4.287
 7502SOL    HW223406   3.343   6.764   4.304
 7503SOL     OW23407   2.288   6.034   0.948
 7503SOL    HW123408   2.322   5.940   0.955
 7503SOL    HW223409   2.192   6.033   0.920
 7504SOL     OW23410   0.506   6.442   2.536
 7504SOL    HW123411   0.602   6.426   2.513
 7504SOL    HW223412   0.499   6.491   2.622
 7505SOL     OW23413   1.489   1.764   6.780
 7505SOL    HW123414   1.515   1.692   6.716
 7505SOL    HW223415   1.542   1.847   6.759
 7506SOL     OW23416   4.386   2.352   3.608
 7506SOL    HW123417   4.370   2.431   3.548
 7506SOL    HW223418   4.460   2.374   3.672
 7507SOL     OW23419   6.133   3.071   3.611
 7507SOL    HW123420   6.155   3.064   3.708
 7507SOL    HW223421   6.086   2.988   3.581
 7508SOL     OW23422   2.122   5.329   0.715
 7508SOL    HW123423   2.196   5.303   0.776
 7508SOL    HW223424   2.067   5.248   0.693
 7509SOL     OW23425   5.974   3.431   0.473
 7509SOL    HW123426   5.903   3.430   0.543
 7509SOL    HW223427   5.941   3.383   0.391
 7510SOL     OW23428   4.033   3.704   4.298
 7510SOL    HW123429   4.074   3.613   4.311
 7510SOL    HW223430   3.936   3.699   4.319
 7511SOL     OW23431   3.071   6.212   3.372
 7511SOL    HW123432   3.037   6.236   3.281
 7511SOL    HW223433   3.169   6.192   3.366
 7512SOL     OW23434   2.734   0.683   6.670
 7512SOL    HW123435   2.663   0.749   6.646
 7512SOL    HW223436   2.704   0.590   6.648
 7513SOL     OW23437   2.280   2.339   3.094
 7513SOL    HW123438   2.181   2.330   3.089
 7513SOL    HW223439   2.323   2.260   3.053
 7514SOL     OW23440   2.122   5.542   3.332
 7514SOL    HW123441   2.022   5.535   3.337
 7514SOL    HW223442   2.153   5.618   3.389
 7515SOL     OW23443   6.850   4.397   4.946
 7515SOL    HW123444   6.785   4.470   4.923
 7515SOL    HW223445   6.829   4.361   5.037
 7516SOL     OW23446   0.680   5.167   6.179
 7516SOL    HW123447   0.680   5.089   6.117
 7516SOL    HW223448   0.682   5.252   6.126
 7517SOL     OW23449   1.336   2.231   6.948
 7517SOL    HW123450   1.416   2.192   6.993
 7517SOL    HW223451   1.363   2.276   6.863
 7518SOL     OW23452   5.107   3.470   3.239
 7518SOL    HW123453   5.098   3.510   3.330
 7518SOL    HW223454   5.038   3.509   3.178
 7519SOL     OW23455   5.665   6.873   4.903
 7519SOL    HW123456   5.627   6.791   4.860
 7519SOL    HW223457   5.710   6.848   4.989
 7520SOL     OW23458   1.568   0.968   2.434
 7520SOL    HW123459   1.564   0.870   2.453
 7520SOL    HW223460   1.588   1.017   2.519
 7521SOL     OW23461   5.435   2.094   4.873
 7521SOL    HW123462   5.450   2.094   4.972
 7521SOL    HW223463   5.500   2.155   4.829
 7522SOL     OW23464   1.494   0.033   5.359
 7522SOL    HW123465   1.433   0.006   5.284
 7522SOL    HW223466   1.498   0.133   5.363
 7523SOL     OW23467   5.064   0.641   6.034
 7523SOL    HW123468   5.119   0.724   6.027
 7523SOL    HW223469   4.968   0.665   6.047
 7524SOL     OW23470   0.270   3.066   5.100
 7524SOL    HW123471   0.309   2.992   5.043
 7524SOL    HW223472   0.331   3.083   5.177
 7525SOL     OW23473   4.289   6.498   6.724
 7525SOL    HW123474   4.190   6.497   6.710
 7525SOL    HW223475   4.309   6.486   6.822
 7526SOL     OW23476   2.738   2.636   1.237
 7526SOL    HW123477   2.764   2.636   1.334
 7526SOL    HW223478   2.642   2.664   1.228
 7527SOL     OW23479   3.455   5.756   3.620
 7527SOL    HW123480   3.431   5.674   3.673
 7527SOL    HW223481   3.415   5.749   3.529
 7528SOL     OW23482   5.514   2.182   6.688
 7528SOL    HW123483   5.540   2.172   6.784
 7528SOL    HW223484   5.423   2.224   6.682
 7529SOL     OW23485   5.115   1.926   4.082
 7529SOL    HW123486   5.139   1.829   4.090
 7529SOL    HW223487   5.199   1.980   4.070
 7530SOL     OW23488   5.833   1.969   1.741
 7530SOL    HW123489   5.881   2.020   1.812
 7530SOL    HW223490   5.849   1.871   1.755
 7531SOL     OW23491   4.855   2.935   2.945
 7531SOL    HW123492   4.853   2.871   2.868
 7531SOL    HW223493   4.830   3.027   2.913
 7532SOL     OW23494   5.123   6.313   6.719
 7532SOL    HW123495   5.168   6.379   6.780
 7532SOL    HW223496   5.034   6.349   6.691
 7533SOL     OW23497   4.411   2.116   1.848
 7533SOL    HW123498   4.355   2.172   1.909
 7533SOL    HW223499   4.439   2.033   1.896
 7534SOL     OW23500   4.742   5.645   4.204
 7534SOL    HW123501   4.756   5.547   4.188
 7534SOL    HW223502   4.761   5.696   4.120
 7535SOL     OW23503   1.621   6.343   4.723
 7535SOL    HW123504   1.577   6.433   4.716
 7535SOL    HW223505   1.685   6.343   4.801
 7536SOL     OW23506   5.353   5.879   4.189
 7536SOL    HW123507   5.397   5.919   4.270
 7536SOL    HW223508   5.406   5.801   4.157
 7537SOL     OW23509   2.088   4.743   1.988
 7537SOL    HW123510   2.011   4.799   1.958
 7537SOL    HW223511   2.081   4.725   2.086
 7538SOL     OW23512   1.657   3.002   1.992
 7538SOL    HW123513   1.650   2.906   2.019
 7538SOL    HW223514   1.747   3.018   1.951
 7539SOL     OW23515   0.678   4.829   3.451
 7539SOL    HW123516   0.584   4.795   3.452
 7539SOL    HW223517   0.720   4.812   3.540
 7540SOL     OW23518   4.279   6.444   4.495
 7540SOL    HW123519   4.330   6.371   4.541
 7540SOL    HW223520   4.193   6.460   4.543
 7541SOL     OW23521   1.060   4.247   6.071
 7541SOL    HW123522   1.019   4.293   5.992
 7541SOL    HW223523   1.112   4.167   6.040
 7542SOL     OW23524   6.554   5.703   6.100
 7542SOL    HW123525   6.526   5.799   6.102
 7542SOL    HW223526   6.516   5.658   6.019
 7543SOL     OW23527   2.644   0.841   4.941
 7543SOL    HW123528   2.605   0.750   4.949
 7543SOL    HW223529   2.642   0.886   5.030
 7544SOL     OW23530   0.017   2.842   4.156
 7544SOL    HW123531   0.114   2.865   4.140
 7544SOL    HW223532   6.986   2.870   4.077
 7545SOL     OW23533   0.343   6.452   6.075
 7545SOL    HW123534   0.262   6.484   6.026
 7545SOL    HW223535   0.318   6.375   6.134
 7546SOL     OW23536   4.859   2.245   1.278
 7546SOL    HW123537   4.862   2.214   1.373
 7546SOL    HW223538   4.923   2.320   1.265
 7547SOL     OW23539   4.851   0.844   0.843
 7547SOL    HW123540   4.812   0.756   0.868
 7547SOL    HW223541   4.818   0.914   0.906
 7548SOL     OW23542   4.384   2.678   6.956
 7548SOL    HW123543   4.436   2.764   6.954
 7548SOL    HW223544   4.387   2.635   6.866
 7549SOL     OW23545   3.871   2.817   6.991
 7549SOL    HW123546   3.872   2.907   0.012
 7549SOL    HW223547   3.952   2.808   6.933
 7550SOL     OW23548   2.035   4.561   3.565
 7550SOL    HW123549   2.029   4.639   3.627
 7550SOL    HW223550   1.960   4.498   3.585
 7551SOL     OW23551   5.339   3.225   5.243
 7551SOL    HW123552   5.254   3.273   5.222
 7551SOL    HW223553   5.409   3.292   5.267
 7552SOL     OW23554   1.215   5.962   4.458
 7552SOL    HW123555   1.307   5.928   4.437
 7552SOL    HW223556   1.213   6.061   4.448
 7553SOL     OW23557   5.687   6.421   6.171
 7553SOL    HW123558   5.728   6.507   6.142
 7553SOL    HW223559   5.715   6.348   6.108
 7554SOL     OW23560   4.609   0.402   0.278
 7554SOL    HW123561   4.591   0.464   0.355
 7554SOL    HW223562   4.682   0.440   0.222
 7555SOL     OW23563   3.621   5.752   6.338
 7555SOL    HW123564   3.716   5.727   6.317
 7555SOL    HW223565   3.598   5.719   6.430
 7556SOL     OW23566   1.848   1.472   0.216
 7556SOL    HW123567   1.902   1.503   0.138
 7556SOL    HW223568   1.903   1.410   0.272
 7557SOL     OW23569   4.837   0.220   6.893
 7557SOL    HW123570   4.786   0.280   6.830
 7557SOL    HW223571   4.933   0.218   6.865
 7558SOL     OW23572   2.021   3.087   3.822
 7558SOL    HW123573   2.107   3.037   3.824
 7558SOL    HW223574   1.949   3.028   3.787
 7559SOL     OW23575   4.028   2.183   5.295
 7559SOL    HW123576   4.016   2.106   5.357
 7559SOL    HW223577   3.976   2.262   5.328
 7560SOL     OW23578   6.638   0.177   0.019
 7560SOL    HW123579   6.555   0.122   0.027
 7560SOL    HW223580   6.644   0.216   6.951
 7561SOL     OW23581   5.640   3.308   5.671
 7561SOL    HW123582   5.714   3.322   5.736
 7561SOL    HW223583   5.587   3.393   5.661
 7562SOL     OW23584   0.431   4.956   5.003
 7562SOL    HW123585   0.499   5.016   5.047
 7562SOL    HW223586   0.448   4.953   4.905
 7563SOL     OW23587   2.748   6.284   2.483
 7563SOL    HW123588   2.725   6.255   2.390
 7563SOL    HW223589   2.783   6.206   2.535
 7564SOL     OW23590   3.803   0.305   5.021
 7564SOL    HW123591   3.883   0.326   4.964
 7564SOL    HW223592   3.723   0.354   4.985
 7565SOL     OW23593   5.594   4.152   5.660
 7565SOL    HW123594   5.525   4.175   5.729
 7565SOL    HW223595   5.637   4.235   5.627
 7566SOL     OW23596   5.809   5.407   2.221
 7566SOL    HW123597   5.855   5.486   2.261
 7566SOL    HW223598   5.785   5.342   2.293
 7567SOL     OW23599   0.968   0.793   4.854
 7567SOL    HW123600   0.892   0.731   4.836
 7567SOL    HW223601   0.984   0.851   4.774
 7568SOL     OW23602   5.400   5.021   1.632
 7568SOL    HW123603   5.395   5.097   1.696
 7568SOL    HW223604   5.452   5.049   1.551
 7569SOL     OW23605   4.311   4.262   6.161
 7569SOL    HW123606   4.319   4.362   6.160
 7569SOL    HW223607   4.279   4.230   6.072
 7570SOL     OW23608   6.501   3.594   4.369
 7570SOL    HW123609   6.408   3.610   4.336
 7570SOL    HW223610   6.507   3.502   4.409
 7571SOL     OW23611   5.222   3.754   2.992
 7571SOL    HW123612   5.209   3.797   3.082
 7571SOL    HW223613   5.259   3.662   3.004
 7572SOL     OW23614   4.976   0.097   3.110
 7572SOL    HW123615   4.974   0.005   3.151
 7572SOL    HW223616   4.884   0.119   3.076
 7573SOL     OW23617   6.509   0.619   5.427
 7573SOL    HW123618   6.530   0.559   5.350
 7573SOL    HW223619   6.587   0.620   5.490
 7574SOL     OW23620   6.150   1.375   4.399
 7574SOL    HW123621   6.057   1.381   4.362
 7574SOL    HW223622   6.151   1.409   4.493
 7575SOL     OW23623   6.047   6.239   0.391
 7575SOL    HW123624   6.095   6.155   0.415
 7575SOL    HW223625   6.106   6.296   0.334
 7576SOL     OW23626   5.091   2.196   0.222
 7576SOL    HW123627   5.113   2.113   0.273
 7576SOL    HW223628   5.012   2.241   0.264
 7577SOL     OW23629   0.154   6.504   0.225
 7577SOL    HW123630   0.186   6.596   0.202
 7577SOL    HW223631   0.054   6.503   0.224
 7578SOL     OW23632   1.547   5.289   2.451
 7578SOL    HW123633   1.590   5.203   2.421
 7578SOL    HW223634   1.480   5.318   2.383
 7579SOL     OW23635   0.072   1.907   1.644
 7579SOL    HW123636   0.108   1.933   1.554
 7579SOL    HW223637   0.107   1.970   1.713
 7580SOL     OW23638   1.165   4.633   3.125
 7580SOL    HW123639   1.218   4.717   3.129
 7580SOL    HW223640   1.082   4.649   3.070
 7581SOL     OW23641   0.360   1.398   1.644
 7581SOL    HW123642   0.351   1.368   1.549
 7581SOL    HW223643   0.344   1.497   1.650
 7582SOL     OW23644   4.172   1.623   3.572
 7582SOL    HW123645   4.097   1.673   3.613
 7582SOL    HW223646   4.249   1.685   3.556
 7583SOL     OW23647   5.420   3.400   2.775
 7583SOL    HW123648   5.435   3.482   2.720
 7583SOL    HW223649   5.507   3.355   2.793
 7584SOL     OW23650   1.386   0.177   2.550
 7584SOL    HW123651   1.392   0.078   2.566
 7584SOL    HW223652   1.354   0.223   2.632
 7585SOL     OW23653   1.226   1.944   6.395
 7585SOL    HW123654   1.150   1.895   6.351
 7585SOL    HW223655   1.190   2.021   6.447
 7586SOL     OW23656   2.077   6.811   3.183
 7586SOL    HW123657   2.004   6.847   3.126
 7586SOL    HW223658   2.164   6.853   3.157
 7587SOL     OW23659   2.566   1.329   0.159
 7587SOL    HW123660   2.505   1.253   0.141
 7587SOL    HW223661   2.529   1.413   0.117
 7588SOL     OW23662   1.285   2.974   3.997
 7588SOL    HW123663   1.348   3.048   4.019
 7588SOL    HW223664   1.307   2.893   4.051
 7589SOL     OW23665   6.993   0.954   2.998
 7589SOL    HW123666   0.000   0.959   2.903
 7589SOL    HW223667   6.967   0.860   3.020
 7590SOL     OW23668   6.181   0.801   6.845
 7590SOL    HW123669   6.151   0.883   6.894
 7590SOL    HW223670   6.277   0.783   6.865
 7591SOL     OW23671   5.111   3.402   6.569
 7591SOL    HW123672   5.173   3.480   6.559
 7591SOL    HW223673   5.054   3.415   6.650
 7592SOL     OW23674   6.178   4.938   4.765
 7592SOL    HW123675   6.206   4.973   4.854
 7592SOL    HW223676   6.256   4.938   4.703
 7593SOL     OW23677   6.956   2.598   6.535
 7593SOL    HW123678   6.939   2.499   6.537
 7593SOL    HW223679   6.910   2.641   6.613
 7594SOL     OW23680   0.876   4.729   1.384
 7594SOL    HW123681   0.840   4.666   1.453
 7594SOL    HW223682   0.885   4.680   1.297
 7595SOL     OW23683   6.508   3.401   6.643
 7595SOL    HW123684   6.424   3.373   6.690
 7595SOL    HW223685   6.501   3.380   6.546
 7596SOL     OW23686   3.024   6.714   4.649
 7596SOL    HW123687   3.108   6.694   4.698
 7596SOL    HW223688   3.040   6.705   4.550
 7597SOL     OW23689   1.677   6.653   3.205
 7597SOL    HW123690   1.664   6.752   3.209
 7597SOL    HW223691   1.645   6.619   3.116
 7598SOL     OW23692   5.907   0.289   2.748
 7598SOL    HW123693   5.904   0.294   2.648
 7598SOL    HW223694   5.949   0.372   2.784
 7599SOL     OW23695   5.487   3.375   0.966
 7599SOL    HW123696   5.486   3.443   1.039
 7599SOL    HW223697   5.577   3.332   0.961
 7600SOL     OW23698   1.236   0.881   3.381
 7600SOL    HW123699   1.222   0.806   3.317
 7600SOL    HW223700   1.182   0.865   3.464
 7601SOL     OW23701   2.700   5.222   2.256
 7601SOL    HW123702   2.747   5.307   2.233
 7601SOL    HW223703   2.765   5.146   2.254
 7602SOL     OW23704   0.783   2.799   0.565
 7602SOL    HW123705   0.830   2.800   0.653
 7602SOL    HW223706   0.811   2.719   0.513
 7603SOL     OW23707   1.726   6.493   5.751
 7603SOL    HW123708   1.756   6.528   5.840
 7603SOL    HW223709   1.780   6.413   5.726
 7604SOL     OW23710   1.472   1.919   5.157
 7604SOL    HW123711   1.504   2.008   5.125
 7604SOL    HW223712   1.530   1.847   5.120
 7605SOL     OW23713   1.357   0.630   0.841
 7605SOL    HW123714   1.293   0.693   0.798
 7605SOL    HW223715   1.382   0.558   0.776
 7606SOL     OW23716   5.574   2.883   5.045
 7606SOL    HW123717   5.514   2.961   5.026
 7606SOL    HW223718   5.537   2.831   5.122
 7607SOL     OW23719   3.653   5.241   0.329
 7607SOL    HW123720   3.634   5.224   0.426
 7607SOL    HW223721   3.688   5.157   0.287
 7608SOL     OW23722   4.904   2.296   6.715
 7608SOL    HW123723   4.951   2.214   6.681
 7608SOL    HW223724   4.949   2.377   6.679
 7609SOL     OW23725   0.805   3.948   3.728
 7609SOL    HW123726   0.901   3.970   3.709
 7609SOL    HW223727   0.800   3.865   3.783
 7610SOL     OW23728   4.076   5.019   5.774
 7610SOL    HW123729   4.052   5.030   5.871
 7610SOL    HW223730   4.027   5.087   5.720
 7611SOL     OW23731   5.112   3.813   1.316
 7611SOL    HW123732   5.138   3.720   1.342
 7611SOL    HW223733   5.168   3.843   1.239
 7612SOL     OW23734   4.439   2.419   3.061
 7612SOL    HW123735   4.438   2.507   3.015
 7612SOL    HW223736   4.443   2.345   2.993
 7613SOL     OW23737   0.978   1.970   2.194
 7613SOL    HW123738   1.059   1.913   2.180
 7613SOL    HW223739   1.000   2.065   2.171
 7614SOL     OW23740   5.548   3.657   1.424
 7614SOL    HW123741   5.530   3.583   1.489
 7614SOL    HW223742   5.632   3.704   1.449
 7615SOL     OW23743   4.986   4.090   5.626
 7615SOL    HW123744   4.889   4.072   5.641
 7615SOL    HW223745   5.002   4.101   5.528
 7616SOL     OW23746   6.701   0.264   3.695
 7616SOL    HW123747   6.722   0.177   3.650
 7616SOL    HW223748   6.608   0.261   3.730
 7617SOL     OW23749   5.417   5.681   3.156
 7617SOL    HW123750   5.490   5.628   3.113
 7617SOL    HW223751   5.412   5.771   3.111
 7618SOL     OW23752   1.062   2.228   0.015
 7618SOL    HW123753   1.160   2.226   7.019
 7618SOL    HW223754   1.029   2.323   0.009
 7619SOL     OW23755   6.876   2.489   4.653
 7619SOL    HW123756   6.844   2.526   4.740
 7619SOL    HW223757   6.974   2.508   4.642
 7620SOL     OW23758   3.703   4.653   0.897
 7620SOL    HW123759   3.680   4.592   0.822
 7620SOL    HW223760   3.733   4.741   0.860
 7621SOL     OW23761   0.778   0.038   0.943
 7621SOL    HW123762   0.688   0.079   0.961
 7621SOL    HW223763   0.767   6.983   0.881
 7622SOL     OW23764   4.492   4.746   6.436
 7622SOL    HW123765   4.403   4.713   6.407
 7622SOL    HW223766   4.484   4.840   6.469
 7623SOL     OW23767   4.006   4.431   0.738
 7623SOL    HW123768   3.954   4.501   0.688
 7623SOL    HW223769   4.091   4.412   0.690
 7624SOL     OW23770   6.513   3.105   3.193
 7624SOL    HW123771   6.498   3.187   3.138
 7624SOL    HW223772   6.438   3.094   3.258
 7625SOL     OW23773   5.872   2.260   7.008
 7625SOL    HW123774   5.896   2.297   6.918
 7625SOL    HW223775   5.956   2.239   0.035
 7626SOL     OW23776   6.420   1.105   6.119
 7626SOL    HW123777   6.388   1.132   6.029
 7626SOL    HW223778   6.507   1.149   6.139
 7627SOL     OW23779   2.850   1.762   0.533
 7627SOL    HW123780   2.752   1.743   0.533
 7627SOL    HW223781   2.865   1.860   0.522
 7628SOL     OW23782   4.142   2.629   1.482
 7628SOL    HW123783   4.079   2.615   1.559
 7628SOL    HW223784   4.227   2.578   1.499
 7629SOL     OW23785   6.569   4.006   3.879
 7629SOL    HW123786   6.525   4.052   3.802
 7629SOL    HW223787   6.579   3.909   3.859
 7630SOL     OW23788   1.055   0.615   6.127
 7630SOL    HW123789   1.104   0.593   6.042
 7630SOL    HW223790   1.033   0.530   6.175
 7631SOL     OW23791   1.407   1.371   5.472
 7631SOL    HW123792   1.403   1.469   5.489
 7631SOL    HW223793   1.490   1.350   5.421
 7632SOL     OW23794   3.984   4.945   1.150
 7632SOL    HW123795   3.955   4.865   1.098
 7632SOL    HW223796   4.045   5.001   1.094
 7633SOL     OW23797   5.212   0.477   1.772
 7633SOL    HW123798   5.251   0.566   1.798
 7633SOL    HW223799   5.190   0.425   1.855
 7634SOL     OW23800   1.059   1.244   1.775
 7634SOL    HW123801   1.032   1.338   1.798
 7634SOL    HW223802   1.158   1.240   1.762
 7635SOL     OW23803   2.852   5.382   4.409
 7635SOL    HW123804   2.752   5.386   4.415
 7635SOL    HW223805   2.890   5.358   4.498
 7636SOL     OW23806   1.272   4.033   3.820
 7636SOL    HW123807   1.240   3.949   3.862
 7636SOL    HW223808   1.368   4.023   3.793
 7637SOL     OW23809   1.267   6.938   2.606
 7637SOL    HW123810   1.336   6.869   2.629
 7637SOL    HW223811   1.233   6.921   2.513
 7638SOL     OW23812   1.349   5.589   1.951
 7638SOL    HW123813   1.348   5.686   1.926
 7638SOL    HW223814   1.443   5.562   1.975
 7639SOL     OW23815   0.237   1.172   0.694
 7639SOL    HW123816   0.142   1.142   0.704
 7639SOL    HW223817   0.266   1.158   0.600
 7640SOL     OW23818   2.908   2.461   6.778
 7640SOL    HW123819   2.830   2.461   6.841
 7640SOL    HW223820   2.948   2.369   6.776
 7641SOL     OW23821   0.041   4.554   2.905
 7641SOL    HW123822   6.983   4.503   2.932
 7641SOL    HW223823   0.119   4.492   2.898
 7642SOL     OW23824   5.861   0.863   2.631
 7642SOL    HW123825   5.911   0.849   2.716
 7642SOL    HW223826   5.914   0.823   2.555
 7643SOL     OW23827   5.455   1.421   2.311
 7643SOL    HW123828   5.469   1.506   2.260
 7643SOL    HW223829   5.364   1.420   2.352
 7644SOL     OW23830   4.753   2.799   2.259
 7644SOL    HW123831   4.702   2.719   2.229
 7644SOL    HW223832   4.744   2.871   2.190
 7645SOL     OW23833   4.119   3.231   5.580
 7645SOL    HW123834   4.088   3.168   5.509
 7645SOL    HW223835   4.199   3.281   5.547
 7646SOL     OW23836   0.569   2.786   3.404
 7646SOL    HW123837   0.472   2.808   3.416
 7646SOL    HW223838   0.610   2.766   3.493
 7647SOL     OW23839   0.654   3.027   4.160
 7647SOL    HW123840   0.741   2.983   4.183
 7647SOL    HW223841   0.595   3.027   4.240
 7648SOL     OW23842   2.480   1.391   2.053
 7648SOL    HW123843   2.519   1.335   1.980
 7648SOL    HW223844   2.540   1.387   2.133
 7649SOL     OW23845   1.222   1.539   4.791
 7649SOL    HW123846   1.192   1.602   4.719
 7649SOL    HW223847   1.274   1.464   4.749
 7650SOL     OW23848   5.251   0.868   1.277
 7650SOL    HW123849   5.322   0.797   1.283
 7650SOL    HW223850   5.269   0.938   1.346
 7651SOL     OW23851   2.639   5.568   4.609
 7651SOL    HW123852   2.561   5.615   4.650
 7651SOL    HW223853   2.616   5.473   4.591
 7652SOL     OW23854   5.885   2.793   5.199
 7652SOL    HW123855   5.836   2.713   5.166
 7652SOL    HW223856   5.830   2.838   5.271
 7653SOL     OW23857   1.336   1.336   0.192
 7653SOL    HW123858   1.325   1.402   0.267
 7653SOL    HW223859   1.433   1.315   0.179
 7654SOL     OW23860   5.127   3.365   5.170
 7654SOL    HW123861   5.169   3.449   5.138
 7654SOL    HW223862   5.034   3.357   5.132
 7655SOL     OW23863   4.026   0.101   3.757
 7655SOL    HW123864   3.979   0.104   3.844
 7655SOL    HW223865   4.040   0.193   3.722
 7656SOL     OW23866   5.724   3.141   6.283
 7656SOL    HW123867   5.741   3.045   6.261
 7656SOL    HW223868   5.688   3.188   6.202
 7657SOL     OW23869   1.898   3.200   4.050
 7657SOL    HW123870   1.969   3.161   3.991
 7657SOL    HW223871   1.811   3.202   4.002
 7658SOL     OW23872   3.310   0.252   0.961
 7658SOL    HW123873   3.284   0.303   0.879
 7658SOL    HW223874   3.323   0.315   1.037
 7659SOL     OW23875   4.753   3.914   6.960
 7659SOL    HW123876   4.735   4.012   6.949
 7659SOL    HW223877   4.776   3.874   6.871
 7660SOL     OW23878   6.073   5.304   4.684
 7660SOL    HW123879   6.095   5.250   4.603
 7660SOL    HW223880   6.158   5.325   4.733
 7661SOL     OW23881   4.594   1.931   5.716
 7661SOL    HW123882   4.603   1.936   5.815
 7661SOL    HW223883   4.513   1.983   5.688
 7662SOL     OW23884   0.637   2.454   3.397
 7662SOL    HW123885   0.681   2.528   3.447
 7662SOL    HW223886   0.673   2.452   3.303
 7663SOL     OW23887   4.782   5.487   6.535
 7663SOL    HW123888   4.690   5.463   6.567
 7663SOL    HW223889   4.800   5.583   6.557
 7664SOL     OW23890   3.640   1.249   3.076
 7664SOL    HW123891   3.566   1.288   3.132
 7664SOL    HW223892   3.728   1.274   3.116
 7665SOL     OW23893   5.732   1.573   4.348
 7665SOL    HW123894   5.790   1.647   4.315
 7665SOL    HW223895   5.722   1.579   4.447
 7666SOL     OW23896   6.727   5.406   4.221
 7666SOL    HW123897   6.783   5.369   4.147
 7666SOL    HW223898   6.786   5.447   4.291
 7667SOL     OW23899   4.363   0.624   2.766
 7667SOL    HW123900   4.340   0.542   2.713
 7667SOL    HW223901   4.453   0.659   2.736
 7668SOL     OW23902   2.788   4.705   0.513
 7668SOL    HW123903   2.859   4.651   0.469
 7668SOL    HW223904   2.822   4.740   0.600
 7669SOL     OW23905   4.254   1.155   5.461
 7669SOL    HW123906   4.327   1.093   5.490
 7669SOL    HW223907   4.259   1.240   5.515
 7670SOL     OW23908   0.788   6.409   0.877
 7670SOL    HW123909   0.865   6.415   0.941
 7670SOL    HW223910   0.714   6.468   0.908
 7671SOL     OW23911   5.071   6.745   2.580
 7671SOL    HW123912   5.165   6.714   2.565
 7671SOL    HW223913   5.009   6.668   2.565
 7672SOL     OW23914   6.621   5.106   3.204
 7672SOL    HW123915   6.688   5.178   3.221
 7672SOL    HW223916   6.548   5.142   3.146
 7673SOL     OW23917   1.722   5.802   2.403
 7673SOL    HW123918   1.692   5.895   2.425
 7673SOL    HW223919   1.729   5.791   2.304
 7674SOL     OW23920   4.434   0.429   3.975
 7674SOL    HW123921   4.400   0.511   3.929
 7674SOL    HW223922   4.457   0.451   4.070
 7675SOL     OW23923   4.269   6.679   3.406
 7675SOL    HW123924   4.226   6.681   3.315
 7675SOL    HW223925   4.205   6.639   3.472
 7676SOL     OW23926   3.060   2.249   5.822
 7676SOL    HW123927   3.097   2.299   5.900
 7676SOL    HW223928   2.968   2.284   5.801
 7677SOL     OW23929   0.743   4.476   0.818
 7677SOL    HW123930   0.771   4.397   0.763
 7677SOL    HW223931   0.664   4.452   0.874
 7678SOL     OW23932   1.845   2.901   5.229
 7678SOL    HW123933   1.940   2.868   5.230
 7678SOL    HW223934   1.804   2.879   5.141
 7679SOL     OW23935   2.270   5.432   5.600
 7679SOL    HW123936   2.339   5.448   5.530
 7679SOL    HW223937   2.213   5.514   5.610
 7680SOL     OW23938   1.535   0.163   6.131
 7680SOL    HW123939   1.608   0.230   6.122
 7680SOL    HW223940   1.446   0.210   6.136
 7681SOL     OW23941   2.474   1.818   6.763
 7681SOL    HW123942   2.483   1.840   6.666
 7681SOL    HW223943   2.546   1.864   6.814
 7682SOL     OW23944   4.100   1.823   2.397
 7682SOL    HW123945   4.051   1.901   2.436
 7682SOL    HW223946   4.081   1.741   2.453
 7683SOL     OW23947   0.777   1.425   5.008
 7683SOL    HW123948   0.762   1.481   5.089
 7683SOL    HW223949   0.714   1.454   4.936
 7684SOL     OW23950   4.306   2.324   1.963
 7684SOL    HW123951   4.287   2.349   2.058
 7684SOL    HW223952   4.380   2.382   1.929
 7685SOL     OW23953   3.486   1.955   6.806
 7685SOL    HW123954   3.484   1.856   6.816
 7685SOL    HW223955   3.577   1.990   6.828
 7686SOL     OW23956   5.390   6.584   4.529
 7686SOL    HW123957   5.346   6.606   4.442
 7686SOL    HW223958   5.323   6.591   4.603
 7687SOL     OW23959   4.940   5.182   5.123
 7687SOL    HW123960   4.960   5.085   5.138
 7687SOL    HW223961   4.891   5.218   5.202
 7688SOL     OW23962   0.006   5.938   5.969
 7688SOL    HW123963   0.065   5.883   6.028
 7688SOL    HW223964   0.019   5.910   5.874
 7689SOL     OW23965   4.869   0.214   2.394
 7689SOL    HW123966   4.893   0.163   2.312
 7689SOL    HW223967   4.952   0.251   2.436
 7690SOL     OW23968   5.288   5.163   0.492
 7690SOL    HW123969   5.253   5.094   0.556
 7690SOL    HW223970   5.214   5.192   0.431
 7691SOL     OW23971   4.634   4.737   1.926
 7691SOL    HW123972   4.572   4.736   1.847
 7691SOL    HW223973   4.650   4.644   1.958
 7692SOL     OW23974   0.739   6.348   1.515
 7692SOL    HW123975   0.812   6.386   1.572
 7692SOL    HW223976   0.679   6.422   1.485
 7693SOL     OW23977   3.278   0.159   1.779
 7693SOL    HW123978   3.377   0.153   1.794
 7693SOL    HW223979   3.240   0.067   1.774
 7694SOL     OW23980   5.820   2.320   4.522
 7694SOL    HW123981   5.783   2.260   4.451
 7694SOL    HW223982   5.807   2.415   4.495
 7695SOL     OW23983   5.477   0.753   1.993
 7695SOL    HW123984   5.485   0.715   2.085
 7695SOL    HW223985   5.466   0.852   1.999
 7696SOL     OW23986   0.544   1.477   5.955
 7696SOL    HW123987   0.576   1.392   5.914
 7696SOL    HW223988   0.460   1.508   5.909
 7697SOL     OW23989   3.170   0.434   2.751
 7697SOL    HW123990   3.254   0.468   2.710
 7697SOL    HW223991   3.091   0.479   2.707
 7698SOL     OW23992   6.598   2.074   5.254
 7698SOL    HW123993   6.668   2.066   5.184
 7698SOL    HW223994   6.567   2.169   5.261
 7699SOL     OW23995   2.477   5.289   6.795
 7699SOL    HW123996   2.422   5.306   6.714
 7699SOL    HW223997   2.574   5.283   6.770
 7700SOL     OW23998   4.207   6.250   3.071
 7700SOL    HW123999   4.238   6.266   3.165
 7700SOL    HW224000   4.124   6.193   3.072
 7701SOL     OW24001   6.864   1.731   6.416
 7701SOL    HW124002   6.871   1.827   6.388
 7701SOL    HW224003   6.865   1.725   6.516
 7702SOL     OW24004   4.162   6.133   5.206
 7702SOL    HW124005   4.103   6.129   5.287
 7702SOL    HW224006   4.257   6.116   5.232
 7703SOL     OW24007   6.381   6.952   5.338
 7703SOL    HW124008   6.340   7.017   5.274
 7703SOL    HW224009   6.332   6.865   5.334
 7704SOL     OW24010   6.234   1.989   4.278
 7704SOL    HW124011   6.206   2.083   4.297
 7704SOL    HW224012   6.213   1.931   4.356
 7705SOL     OW24013   2.566   4.991   0.695
 7705SOL    HW124014   2.601   4.902   0.664
 7705SOL    HW224015   2.583   5.060   0.624
 7706SOL     OW24016   3.338   3.012   3.218
 7706SOL    HW124017   3.425   2.963   3.221
 7706SOL    HW224018   3.333   3.066   3.133
 7707SOL     OW24019   0.121   4.923   6.526
 7707SOL    HW124020   0.185   4.895   6.597
 7707SOL    HW224021   0.028   4.902   6.556
 7708SOL     OW24022   1.383   6.845   3.995
 7708SOL    HW124023   1.448   6.777   3.962
 7708SOL    HW224024   1.322   6.873   3.921
 7709SOL     OW24025   6.638   5.040   1.245
 7709SOL    HW124026   6.655   5.065   1.149
 7709SOL    HW224027   6.721   5.002   1.285
 7710SOL     OW24028   2.478   2.196   0.865
 7710SOL    HW124029   2.424   2.187   0.949
 7710SOL    HW224030   2.419   2.225   0.790
 7711SOL     OW24031   6.588   5.913   5.709
 7711SOL    HW124032   6.659   5.844   5.719
 7711SOL    HW224033   6.609   5.991   5.768
 7712SOL     OW24034   6.220   4.845   0.017
 7712SOL    HW124035   6.222   4.939   0.052
 7712SOL    HW224036   6.255   4.783   0.087
 7713SOL     OW24037   1.831   4.115   1.072
 7713SOL    HW124038   1.890   4.185   1.113
 7713SOL    HW224039   1.754   4.160   1.025
 7714SOL     OW24040   0.333   6.902   5.138
 7714SOL    HW124041   0.412   6.876   5.083
 7714SOL    HW224042   0.252   6.853   5.106
 7715SOL     OW24043   2.545   1.886   6.519
 7715SOL    HW124044   2.589   1.868   6.430
 7715SOL    HW224045   2.580   1.971   6.557
 7716SOL     OW24046   6.698   4.972   6.867
 7716SOL    HW124047   6.686   5.067   6.896
 7716SOL    HW224048   6.611   4.923   6.877
 7717SOL     OW24049   1.307   1.887   5.379
 7717SOL    HW124050   1.371   1.889   5.302
 7717SOL    HW224051   1.351   1.844   5.458
 7718SOL     OW24052   6.852   4.417   3.047
 7718SOL    HW124053   6.793   4.473   3.106
 7718SOL    HW224054   6.902   4.351   3.103
 7719SOL     OW24055   1.086   4.329   4.863
 7719SOL    HW124056   0.996   4.297   4.890
 7719SOL    HW224057   1.078   4.419   4.820
 7720SOL     OW24058   6.470   1.933   6.072
 7720SOL    HW124059   6.387   1.936   6.128
 7720SOL    HW224060   6.459   1.993   5.993
 7721SOL     OW24061   1.140   0.436   2.144
 7721SOL    HW124062   1.079   0.465   2.218
 7721SOL    HW224063   1.137   0.505   2.071
 7722SOL     OW24064   2.203   5.452   4.084
 7722SOL    HW124065   2.283   5.510   4.071
 7722SOL    HW224066   2.190   5.394   4.004
 7723SOL     OW24067   4.936   3.668   6.550
 7723SOL    HW124068   4.847   3.675   6.505
 7723SOL    HW224069   5.008   3.669   6.481
 7724SOL     OW24070   3.545   4.023   0.486
 7724SOL    HW124071   3.616   4.091   0.504
 7724SOL    HW224072   3.583   3.931   0.496
 7725SOL     OW24073   5.760   2.686   2.520
 7725SOL    HW124074   5.743   2.654   2.613
 7725SOL    HW224075   5.808   2.615   2.468
 7726SOL     OW24076   0.838   2.686   6.061
 7726SOL    HW124077   0.901   2.661   6.134
 7726SOL    HW224078   0.882   2.753   6.000
 7727SOL     OW24079   6.192   2.863   1.821
 7727SOL    HW124080   6.142   2.779   1.804
 7727SOL    HW224081   6.281   2.842   1.862
 7728SOL     OW24082   2.095   2.750   5.207
 7728SOL    HW124083   2.071   2.761   5.111
 7728SOL    HW224084   2.182   2.795   5.225
 7729SOL     OW24085   6.076   1.520   1.959
 7729SOL    HW124086   6.075   1.428   1.920
 7729SOL    HW224087   6.150   1.527   2.026
 7730SOL     OW24088   6.058   4.548   4.990
 7730SOL    HW124089   6.011   4.507   5.068
 7730SOL    HW224090   6.157   4.540   5.003
 7731SOL     OW24091   6.231   0.028   0.779
 7731SOL    HW124092   6.192   6.983   0.718
 7731SOL    HW224093   6.255   7.008   0.866
 7732SOL     OW24094   4.044   0.282   0.011
 7732SOL    HW124095   4.051   0.368   6.984
 7732SOL    HW224096   4.127   0.228   7.021
 7733SOL     OW24097   6.231   5.795   2.550
 7733SOL    HW124098   6.250   5.809   2.647
 7733SOL    HW224099   6.167   5.719   2.538
 7734SOL     OW24100   2.412   4.816   4.736
 7734SOL    HW124101   2.372   4.801   4.646
 7734SOL    HW224102   2.477   4.891   4.732
 7735SOL     OW24103   6.410   5.735   0.063
 7735SOL    HW124104   6.383   5.798   0.135
 7735SOL    HW224105   6.328   5.689   0.027
 7736SOL     OW24106   2.393   3.129   0.374
 7736SOL    HW124107   2.396   3.046   0.320
 7736SOL    HW224108   2.423   3.109   0.468
 7737SOL     OW24109   3.277   5.380   1.779
 7737SOL    HW124110   3.316   5.310   1.719
 7737SOL    HW224111   3.177   5.379   1.772
 7738SOL     OW24112   2.363   6.154   6.930
 7738SOL    HW124113   2.300   6.134   6.855
 7738SOL    HW224114   2.312   6.193   7.007
 7739SOL     OW24115   1.284   1.934   1.919
 7739SOL    HW124116   1.328   1.864   1.863
 7739SOL    HW224117   1.271   1.899   2.012
 7740SOL     OW24118   2.219   1.060   2.675
 7740SOL    HW124119   2.209   0.961   2.658
 7740SOL    HW224120   2.246   1.105   2.590
 7741SOL     OW24121   1.510   4.136   4.895
 7741SOL    HW124122   1.423   4.110   4.853
 7741SOL    HW224123   1.495   4.159   4.991
 7742SOL     OW24124   3.968   1.639   3.926
 7742SOL    HW124125   3.899   1.569   3.946
 7742SOL    HW224126   4.056   1.611   3.964
 7743SOL     OW24127   4.775   1.042   6.878
 7743SOL    HW124128   4.819   0.966   6.926
 7743SOL    HW224129   4.799   1.038   6.781
 7744SOL     OW24130   0.547   6.100   3.425
 7744SOL    HW124131   0.485   6.177   3.414
 7744SOL    HW224132   0.587   6.102   3.517
 7745SOL     OW24133   2.200   6.649   0.285
 7745SOL    HW124134   2.285   6.613   0.323
 7745SOL    HW224135   2.131   6.654   0.356
 7746SOL     OW24136   1.210   6.852   0.545
 7746SOL    HW124137   1.181   6.873   0.638
 7746SOL    HW224138   1.301   6.812   0.545
 7747SOL     OW24139   0.413   6.158   0.958
 7747SOL    HW124140   0.498   6.165   0.906
 7747SOL    HW224141   0.411   6.072   1.009
 7748SOL     OW24142   3.213   3.381   5.038
 7748SOL    HW124143   3.120   3.345   5.038
 7748SOL    HW224144   3.210   3.481   5.031
 7749SOL     OW24145   2.944   3.825   3.327
 7749SOL    HW124146   2.942   3.727   3.345
 7749SOL    HW224147   2.851   3.860   3.316
 7750SOL     OW24148   5.798   5.454   5.456
 7750SOL    HW124149   5.783   5.438   5.553
 7750SOL    HW224150   5.801   5.552   5.438
 7751SOL     OW24151   0.578   1.509   3.358
 7751SOL    HW124152   0.512   1.435   3.368
 7751SOL    HW224153   0.568   1.574   3.433
 7752SOL     OW24154   5.555   5.558   5.672
 7752SOL    HW124155   5.530   5.574   5.767
 7752SOL    HW224156   5.550   5.645   5.622
 7753SOL     OW24157   2.006   0.840   4.304
 7753SOL    HW124158   2.070   0.913   4.279
 7753SOL    HW224159   1.980   0.790   4.221
 7754SOL     OW24160   5.439   0.398   1.644
 7754SOL    HW124161   5.487   0.481   1.671
 7754SOL    HW224162   5.349   0.395   1.687
 7755SOL     OW24163   0.481   0.254   5.693
 7755SOL    HW124164   0.506   0.159   5.715
 7755SOL    HW224165   0.382   0.263   5.691
 7756SOL     OW24166   2.397   5.983   2.364
 7756SOL    HW124167   2.496   5.991   2.362
 7756SOL    HW224168   2.371   5.889   2.385
 7757SOL     OW24169   4.885   6.296   5.002
 7757SOL    HW124170   4.888   6.198   4.979
 7757SOL    HW224171   4.975   6.337   4.987
 7758SOL     OW24172   1.695   2.136   6.849
 7758SOL    HW124173   1.790   2.112   6.871
 7758SOL    HW224174   1.653   2.180   6.928
 7759SOL     OW24175   2.115   1.108   4.824
 7759SOL    HW124176   2.058   1.032   4.853
 7759SOL    HW224177   2.142   1.162   4.904
 7760SOL     OW24178   5.778   3.564   2.203
 7760SOL    HW124179   5.811   3.498   2.270
 7760SOL    HW224180   5.678   3.571   2.209
 7761SOL     OW24181   2.819   0.135   6.308
 7761SOL    HW124182   2.809   0.165   6.213
 7761SOL    HW224183   2.912   0.153   6.340
 7762SOL     OW24184   3.855   0.806   5.577
 7762SOL    HW124185   3.793   0.884   5.589
 7762SOL    HW224186   3.941   0.838   5.537
 7763SOL     OW24187   1.573   1.857   1.100
 7763SOL    HW124188   1.479   1.825   1.114
 7763SOL    HW224189   1.632   1.779   1.079
 7764SOL     OW24190   3.875   2.974   2.613
 7764SOL    HW124191   3.908   3.067   2.597
 7764SOL    HW224192   3.813   2.947   2.540
 7765SOL     OW24193   6.070   3.196   4.217
 7765SOL    HW124194   6.013   3.277   4.204
 7765SOL    HW224195   6.165   3.224   4.225
 7766SOL     OW24196   5.254   1.948   7.008
 7766SOL    HW124197   5.279   2.044   7.003
 7766SOL    HW224198   5.161   1.939   0.020
 7767SOL     OW24199   4.071   6.524   4.151
 7767SOL    HW124200   4.003   6.452   4.158
 7767SOL    HW224201   4.028   6.612   4.170
 7768SOL     OW24202   4.262   4.985   2.710
 7768SOL    HW124203   4.349   5.028   2.689
 7768SOL    HW224204   4.277   4.889   2.735
 7769SOL     OW24205   5.340   1.368   1.773
 7769SOL    HW124206   5.245   1.340   1.755
 7769SOL    HW224207   5.371   1.429   1.699
 7770SOL     OW24208   1.939   4.018   2.003
 7770SOL    HW124209   1.892   3.950   2.060
 7770SOL    HW224210   1.975   4.091   2.061
 7771SOL     OW24211   2.765   2.597   5.436
 7771SOL    HW124212   2.788   2.694   5.442
 7771SOL    HW224213   2.666   2.586   5.428
 7772SOL     OW24214   5.172   1.136   3.723
 7772SOL    HW124215   5.191   1.234   3.717
 7772SOL    HW224216   5.184   1.094   3.633
 7773SOL     OW24217   2.856   4.896   5.534
 7773SOL    HW124218   2.787   4.828   5.509
 7773SOL    HW224219   2.947   4.859   5.518
 7774SOL     OW24220   5.762   1.807   6.018
 7774SOL    HW124221   5.704   1.888   6.023
 7774SOL    HW224222   5.816   1.799   6.102
 7775SOL     OW24223   3.543   6.742   2.996
 7775SOL    HW124224   3.533   6.739   2.896
 7775SOL    HW224225   3.625   6.795   3.019
 7776SOL     OW24226   2.951   2.805   6.428
 7776SOL    HW124227   3.041   2.816   6.471
 7776SOL    HW224228   2.933   2.707   6.414
 7777SOL     OW24229   2.568   1.859   5.415
 7777SOL    HW124230   2.573   1.943   5.360
 7777SOL    HW224231   2.620   1.786   5.370
 7778SOL     OW24232   4.878   6.533   6.936
 7778SOL    HW124233   4.831   6.461   6.986
 7778SOL    HW224234   4.954   6.567   6.991
 7779SOL     OW24235   4.006   2.975   0.594
 7779SOL    HW124236   3.961   3.032   0.525
 7779SOL    HW224237   4.010   2.881   0.561
 7780SOL     OW24238   1.710   5.270   4.857
 7780SOL    HW124239   1.692   5.359   4.899
 7780SOL    HW224240   1.731   5.282   4.760
 7781SOL     OW24241   1.416   3.682   6.072
 7781SOL    HW124242   1.396   3.738   6.152
 7781SOL    HW224243   1.500   3.629   6.088
 7782SOL     OW24244   1.704   3.297   5.495
 7782SOL    HW124245   1.609   3.268   5.510
 7782SOL    HW224246   1.751   3.229   5.438
 7783SOL     OW24247   3.053   6.627   5.987
 7783SOL    HW124248   3.115   6.704   5.999
 7783SOL    HW224249   2.964   6.660   5.958
 7784SOL     OW24250   2.306   2.208   0.455
 7784SOL    HW124251   2.340   2.118   0.484
 7784SOL    HW224252   2.238   2.195   0.383
 7785SOL     OW24253   1.557   6.655   3.908
 7785SOL    HW124254   1.574   6.607   3.822
 7785SOL    HW224255   1.639   6.708   3.933
 7786SOL     OW24256   3.483   5.355   6.320
 7786SOL    HW124257   3.532   5.269   6.337
 7786SOL    HW224258   3.549   5.425   6.291
 7787SOL     OW24259   1.913   3.150   5.368
 7787SOL    HW124260   1.894   3.052   5.366
 7787SOL    HW224261   1.950   3.178   5.280
 7788SOL     OW24262   1.331   0.927   1.693
 7788SOL    HW124263   1.373   0.892   1.609
 7788SOL    HW224264   1.376   0.886   1.772
 7789SOL     OW24265   3.079   0.151   0.602
 7789SOL    HW124266   3.139   0.101   0.539
 7789SOL    HW224267   2.984   0.131   0.581
 7790SOL     OW24268   5.939   5.019   2.431
 7790SOL    HW124269   6.022   4.962   2.437
 7790SOL    HW224270   5.862   4.961   2.404
 7791SOL     OW24271   3.030   6.730   3.878
 7791SOL    HW124272   3.090   6.760   3.804
 7791SOL    HW224273   3.061   6.642   3.912
 7792SOL     OW24274   1.216   5.551   6.264
 7792SOL    HW124275   1.263   5.624   6.214
 7792SOL    HW224276   1.148   5.590   6.325
 7793SOL     OW24277   1.884   0.809   6.031
 7793SOL    HW124278   1.841   0.720   6.019
 7793SOL    HW224279   1.919   0.818   6.124
 7794SOL     OW24280   5.497   5.361   3.968
 7794SOL    HW124281   5.402   5.329   3.964
 7794SOL    HW224282   5.557   5.292   3.929
 7795SOL     OW24283   2.082   4.040   5.081
 7795SOL    HW124284   2.057   3.981   5.158
 7795SOL    HW224285   2.181   4.038   5.069
 7796SOL     OW24286   3.062   3.982   3.956
 7796SOL    HW124287   3.030   3.981   4.051
 7796SOL    HW224288   3.149   3.934   3.949
 7797SOL     OW24289   0.771   5.635   2.438
 7797SOL    HW124290   0.701   5.587   2.489
 7797SOL    HW224291   0.795   5.583   2.356
 7798SOL     OW24292   1.471   4.777   6.437
 7798SOL    HW124293   1.420   4.712   6.494
 7798SOL    HW224294   1.558   4.798   6.481
 7799SOL     OW24295   6.940   6.381   1.821
 7799SOL    HW124296   6.921   6.468   1.867
 7799SOL    HW224297   0.015   6.371   1.807
 7800SOL     OW24298   1.275   4.794   1.098
 7800SOL    HW124299   1.275   4.894   1.100
 7800SOL    HW224300   1.215   4.758   1.169
 7801SOL     OW24301   2.597   1.555   1.434
 7801SOL    HW124302   2.690   1.578   1.465
 7801SOL    HW224303   2.542   1.639   1.429
 7802SOL     OW24304   5.555   2.380   1.059
 7802SOL    HW124305   5.644   2.336   1.055
 7802SOL    HW224306   5.523   2.399   0.967
 7803SOL     OW24307   4.266   3.502   5.815
 7803SOL    HW124308   4.213   3.567   5.760
 7803SOL    HW224309   4.361   3.533   5.822
 7804SOL     OW24310   6.270   1.192   3.552
 7804SOL    HW124311   6.321   1.109   3.577
 7804SOL    HW224312   6.236   1.236   3.635
 7805SOL     OW24313   5.263   1.065   1.467
 7805SOL    HW124314   5.163   1.065   1.468
 7805SOL    HW224315   5.298   1.020   1.549
 7806SOL     OW24316   5.549   2.779   5.791
 7806SOL    HW124317   5.580   2.849   5.855
 7806SOL    HW224318   5.451   2.789   5.775
 7807SOL     OW24319   0.405   5.032   6.510
 7807SOL    HW124320   0.310   5.054   6.487
 7807SOL    HW224321   0.421   5.051   6.607
 7808SOL     OW24322   0.002   3.398   4.490
 7808SOL    HW124323   6.930   3.380   4.466
 7808SOL    HW224324   0.056   3.315   4.475
 7809SOL     OW24325   2.920   5.890   5.103
 7809SOL    HW124326   2.970   5.962   5.054
 7809SOL    HW224327   2.880   5.827   5.037
 7810SOL     OW24328   3.589   0.007   5.498
 7810SOL    HW124329   3.622   7.009   5.590
 7810SOL    HW224330   3.653   6.993   5.431
 7811SOL     OW24331   6.973   4.363   4.114
 7811SOL    HW124332   6.957   4.272   4.154
 7811SOL    HW224333   6.885   4.410   4.103
 7812SOL     OW24334   1.046   2.052   4.238
 7812SOL    HW124335   1.061   2.094   4.148
 7812SOL    HW224336   0.958   2.005   4.238
 7813SOL     OW24337   4.553   2.386   5.933
 7813SOL    HW124338   4.476   2.378   5.868
 7813SOL    HW224339   4.630   2.431   5.888
 7814SOL     OW24340   6.782   3.011   3.709
 7814SOL    HW124341   6.705   3.040   3.652
 7814SOL    HW224342   6.856   2.976   3.650
 7815SOL     OW24343   5.271   0.971   6.974
 7815SOL    HW124344   5.276   0.876   6.941
 7815SOL    HW224345   5.218   1.025   6.909
 7816SOL     OW24346   1.683   2.331   6.562
 7816SOL    HW124347   1.689   2.425   6.529
 7816SOL    HW224348   1.601   2.288   6.525
 7817SOL     OW24349   6.041   3.827   3.995
 7817SOL    HW124350   6.009   3.873   3.912
 7817SOL    HW224351   5.967   3.824   4.062
 7818SOL     OW24352   4.228   0.882   2.730
 7818SOL    HW124353   4.230   0.800   2.788
 7818SOL    HW224354   4.300   0.876   2.662
 7819SOL     OW24355   6.833   2.952   1.681
 7819SOL    HW124356   6.783   3.029   1.641
 7819SOL    HW224357   6.932   2.968   1.672
 7820SOL     OW24358   1.650   2.249   4.779
 7820SOL    HW124359   1.619   2.321   4.840
 7820SOL    HW224360   1.643   2.280   4.684
 7821SOL     OW24361   4.858   6.140   1.059
 7821SOL    HW124362   4.859   6.043   1.035
 7821SOL    HW224363   4.951   6.177   1.053
 7822SOL     OW24364   0.022   0.835   5.191
 7822SOL    HW124365   6.963   0.779   5.191
 7822SOL    HW224366   0.102   0.777   5.175
 7823SOL     OW24367   2.089   3.753   4.958
 7823SOL    HW124368   2.027   3.783   5.031
 7823SOL    HW224369   2.183   3.756   4.992
 7824SOL     OW24370   6.174   2.081   5.358
 7824SOL    HW124371   6.222   2.072   5.271
 7824SOL    HW224372   6.195   2.170   5.398
 7825SOL     OW24373   1.804   3.062   0.267
 7825SOL    HW124374   1.899   3.035   0.286
 7825SOL    HW224375   1.781   3.143   0.321
 7826SOL     OW24376   6.069   1.209   1.158
 7826SOL    HW124377   6.091   1.204   1.060
 7826SOL    HW224378   6.099   1.297   1.195
 7827SOL     OW24379   1.823   5.914   1.087
 7827SOL    HW124380   1.806   5.824   1.126
 7827SOL    HW224381   1.809   5.984   1.157
 7828SOL     OW24382   6.122   4.493   0.359
 7828SOL    HW124383   6.143   4.439   0.278
 7828SOL    HW224384   6.160   4.449   0.440
 7829SOL     OW24385   3.126   3.129   0.991
 7829SOL    HW124386   3.106   3.220   1.028
 7829SOL    HW224387   3.043   3.092   0.949
 7830SOL     OW24388   3.175   4.888   5.831
 7830SOL    HW124389   3.191   4.931   5.742
 7830SOL    HW224390   3.090   4.836   5.827
 7831SOL     OW24391   2.147   0.337   2.224
 7831SOL    HW124392   2.209   0.286   2.163
 7831SOL    HW224393   2.115   0.276   2.297
 7832SOL     OW24394   6.160   0.311   4.641
 7832SOL    HW124395   6.214   0.340   4.721
 7832SOL    HW224396   6.067   0.346   4.650
 7833SOL     OW24397   1.262   0.895   4.833
 7833SOL    HW124398   1.191   0.831   4.863
 7833SOL    HW224399   1.237   0.934   4.745
 7834SOL     OW24400   7.000   1.943   3.204
 7834SOL    HW124401   6.940   1.864   3.196
 7834SOL    HW224402   0.017   1.964   3.115
 7835SOL     OW24403   4.403   1.688   4.997
 7835SOL    HW124404   4.434   1.651   5.084
 7835SOL    HW224405   4.309   1.720   5.005
 7836SOL     OW24406   3.220   4.176   5.559
 7836SOL    HW124407   3.144   4.223   5.604
 7836SOL    HW224408   3.270   4.241   5.502
 7837SOL     OW24409   4.998   5.860   0.011
 7837SOL    HW124410   4.899   5.857   0.002
 7837SOL    HW224411   5.032   5.947   6.997
 7838SOL     OW24412   4.113   6.268   1.327
 7838SOL    HW124413   4.122   6.169   1.317
 7838SOL    HW224414   4.204   6.309   1.327
 7839SOL     OW24415   5.813   4.001   5.169
 7839SOL    HW124416   5.824   4.053   5.084
 7839SOL    HW224417   5.834   3.904   5.152
 7840SOL     OW24418   0.159   3.528   4.679
 7840SOL    HW124419   0.228   3.567   4.618
 7840SOL    HW224420   0.090   3.480   4.625
 7841SOL     OW24421   4.683   1.533   6.726
 7841SOL    HW124422   4.693   1.587   6.642
 7841SOL    HW224423   4.720   1.442   6.711
 7842SOL     OW24424   2.284   1.240   2.443
 7842SOL    HW124425   2.230   1.320   2.469
 7842SOL    HW224426   2.368   1.270   2.398
 7843SOL     OW24427   0.243   6.640   3.803
 7843SOL    HW124428   0.298   6.700   3.861
 7843SOL    HW224429   0.304   6.590   3.741
 7844SOL     OW24430   3.748   0.339   2.434
 7844SOL    HW124431   3.676   0.270   2.445
 7844SOL    HW224432   3.836   0.293   2.421
 7845SOL     OW24433   5.496   1.657   2.163
 7845SOL    HW124434   5.513   1.667   2.065
 7845SOL    HW224435   5.549   1.726   2.213
 7846SOL     OW24436   1.152   2.416   1.056
 7846SOL    HW124437   1.216   2.346   1.023
 7846SOL    HW224438   1.203   2.489   1.102
 7847SOL     OW24439   6.499   1.378   3.535
 7847SOL    HW124440   6.422   1.319   3.559
 7847SOL    HW224441   6.583   1.339   3.573
 7848SOL     OW24442   3.005   4.128   0.992
 7848SOL    HW124443   2.928   4.143   0.930
 7848SOL    HW224444   2.983   4.052   1.053
 7849SOL     OW24445   5.869   4.135   4.929
 7849SOL    HW124446   5.915   4.167   4.846
 7849SOL    HW224447   5.796   4.071   4.904
 7850SOL     OW24448   0.170   1.881   3.908
 7850SOL    HW124449   0.261   1.908   3.876
 7850SOL    HW224450   0.178   1.814   3.981
 7851SOL     OW24451   1.083   2.859   1.623
 7851SOL    HW124452   1.035   2.933   1.576
 7851SOL    HW224453   1.179   2.858   1.594
 7852SOL     OW24454   3.193   0.699   7.016
 7852SOL    HW124455   3.106   0.690   0.041
 7852SOL    HW224456   3.221   0.795   7.014
 7853SOL     OW24457   4.746   3.104   1.565
 7853SOL    HW124458   4.749   3.008   1.592
 7853SOL    HW224459   4.797   3.117   1.480
 7854SOL     OW24460   3.392   2.583   6.219
 7854SOL    HW124461   3.468   2.527   6.185
 7854SOL    HW224462   3.324   2.524   6.262
 7855SOL     OW24463   4.315   6.250   4.865
 7855SOL    HW124464   4.274   6.175   4.813
 7855SOL    HW224465   4.379   6.300   4.807
 7856SOL     OW24466   0.261   5.231   5.451
 7856SOL    HW124467   0.355   5.262   5.462
 7856SOL    HW224468   0.258   5.131   5.453
 7857SOL     OW24469   4.865   3.508   0.557
 7857SOL    HW124470   4.788   3.542   0.502
 7857SOL    HW224471   4.851   3.532   0.653
 7858SOL     OW24472   6.833   6.414   4.435
 7858SOL    HW124473   6.894   6.336   4.417
 7858SOL    HW224474   6.837   6.478   4.359
 7859SOL     OW24475   4.505   3.709   6.761
 7859SOL    HW124476   4.544   3.619   6.778
 7859SOL    HW224477   4.532   3.771   6.835
 7860SOL     OW24478   4.307   0.989   4.402
 7860SOL    HW124479   4.289   0.892   4.385
 7860SOL    HW224480   4.268   1.015   4.491
 7861SOL     OW24481   2.587   5.220   1.698
 7861SOL    HW124482   2.568   5.228   1.796
 7861SOL    HW224483   2.585   5.123   1.672
 7862SOL     OW24484   2.130   6.047   2.292
 7862SOL    HW124485   2.225   6.021   2.278
 7862SOL    HW224486   2.084   6.056   2.204
 7863SOL     OW24487   0.777   4.815   3.697
 7863SOL    HW124488   0.782   4.851   3.790
 7863SOL    HW224489   0.869   4.790   3.667
 7864SOL     OW24490   1.510   5.526   6.239
 7864SOL    HW124491   1.567   5.506   6.319
 7864SOL    HW224492   1.453   5.606   6.259
 7865SOL     OW24493   6.332   5.332   4.365
 7865SOL    HW124494   6.395   5.255   4.356
 7865SOL    HW224495   6.240   5.298   4.387
 7866SOL     OW24496   1.645   0.789   5.743
 7866SOL    HW124497   1.602   0.880   5.736
 7866SOL    HW224498   1.739   0.794   5.709
 7867SOL     OW24499   5.309   6.825   3.316
 7867SOL    HW124500   5.222   6.784   3.343
 7867SOL    HW224501   5.365   6.838   3.398
 7868SOL     OW24502   3.647   5.581   0.761
 7868SOL    HW124503   3.594   5.621   0.686
 7868SOL    HW224504   3.653   5.646   0.837
 7869SOL     OW24505   5.110   4.790   5.623
 7869SOL    HW124506   5.023   4.839   5.624
 7869SOL    HW224507   5.185   4.854   5.641
 7870SOL     OW24508   5.229   6.778   4.821
 7870SOL    HW124509   5.146   6.833   4.810
 7870SOL    HW224510   5.280   6.811   4.901
 7871SOL     OW24511   5.399   1.946   1.889
 7871SOL    HW124512   5.452   2.021   1.928
 7871SOL    HW224513   5.303   1.972   1.883
 7872SOL     OW24514   1.606   4.579   2.372
 7872SOL    HW124515   1.609   4.565   2.273
 7872SOL    HW224516   1.635   4.495   2.418
 7873SOL     OW24517   6.295   0.438   0.374
 7873SOL    HW124518   6.347   0.465   0.293
 7873SOL    HW224519   6.319   0.345   0.401
 7874SOL     OW24520   4.788   2.423   0.970
 7874SOL    HW124521   4.690   2.409   0.959
 7874SOL    HW224522   4.808   2.520   0.977
 7875SOL     OW24523   3.737   3.381   0.268
 7875SOL    HW124524   3.766   3.447   0.337
 7875SOL    HW224525   3.677   3.313   0.310
 7876SOL     OW24526   1.164   6.514   3.429
 7876SOL    HW124527   1.072   6.475   3.435
 7876SOL    HW224528   1.186   6.560   3.515
 7877SOL     OW24529   0.097   1.854   2.940
 7877SOL    HW124530   0.104   1.839   2.841
 7877SOL    HW224531   0.140   1.778   2.988
 7878SOL     OW24532   4.711   4.187   3.449
 7878SOL    HW124533   4.624   4.156   3.410
 7878SOL    HW224534   4.779   4.113   3.442
 7879SOL     OW24535   3.622   4.972   2.696
 7879SOL    HW124536   3.667   4.909   2.633
 7879SOL    HW224537   3.566   5.037   2.644
 7880SOL     OW24538   2.536   3.221   0.856
 7880SOL    HW124539   2.597   3.222   0.935
 7880SOL    HW224540   2.528   3.313   0.818
 7881SOL     OW24541   4.844   4.166   4.179
 7881SOL    HW124542   4.834   4.168   4.278
 7881SOL    HW224543   4.909   4.095   4.153
 7882SOL     OW24544   2.225   3.219   1.792
 7882SOL    HW124545   2.230   3.174   1.703
 7882SOL    HW224546   2.280   3.303   1.789
 7883SOL     OW24547   0.987   0.206   5.888
 7883SOL    HW124548   1.080   0.234   5.912
 7883SOL    HW224549   0.921   0.269   5.929
 7884SOL     OW24550   1.074   4.245   4.148
 7884SOL    HW124551   1.102   4.179   4.218
 7884SOL    HW224552   1.054   4.333   4.191
 7885SOL     OW24553   6.578   5.851   0.713
 7885SOL    HW124554   6.577   5.871   0.811
 7885SOL    HW224555   6.535   5.926   0.663
 7886SOL     OW24556   4.390   5.778   0.233
 7886SOL    HW124557   4.378   5.681   0.212
 7886SOL    HW224558   4.433   5.787   0.323
 7887SOL     OW24559   3.538   2.330   0.038
 7887SOL    HW124560   3.508   2.242   0.002
 7887SOL    HW224561   3.625   2.319   0.086
 7888SOL     OW24562   5.724   0.444   3.623
 7888SOL    HW124563   5.662   0.390   3.567
 7888SOL    HW224564   5.743   0.395   3.709
 7889SOL     OW24565   1.530   5.026   1.752
 7889SOL    HW124566   1.501   5.098   1.815
 7889SOL    HW224567   1.584   5.066   1.678
 7890SOL     OW24568   1.880   3.818   2.690
 7890SOL    HW124569   1.874   3.725   2.654
 7890SOL    HW224570   1.961   3.863   2.654
 7891SOL     OW24571   2.077   4.605   2.877
 7891SOL    HW124572   1.999   4.614   2.939
 7891SOL    HW224573   2.049   4.628   2.784
 7892SOL     OW24574   1.989   2.692   4.337
 7892SOL    HW124575   2.089   2.692   4.349
 7892SOL    HW224576   1.946   2.731   4.418
 7893SOL     OW24577   6.067   6.751   2.133
 7893SOL    HW124578   6.165   6.729   2.127
 7893SOL    HW224579   6.020   6.682   2.188
 7894SOL     OW24580   2.851   6.291   1.762
 7894SOL    HW124581   2.943   6.254   1.750
 7894SOL    HW224582   2.857   6.375   1.817
 7895SOL     OW24583   6.067   1.355   5.643
 7895SOL    HW124584   6.093   1.368   5.739
 7895SOL    HW224585   6.033   1.442   5.606
 7896SOL     OW24586   4.754   4.280   6.443
 7896SOL    HW124587   4.751   4.324   6.353
 7896SOL    HW224588   4.834   4.311   6.492
 7897SOL     OW24589   2.747   3.696   6.205
 7897SOL    HW124590   2.795   3.689   6.117
 7897SOL    HW224591   2.654   3.730   6.190
 7898SOL     OW24592   4.977   2.447   3.739
 7898SOL    HW124593   4.949   2.395   3.819
 7898SOL    HW224594   5.070   2.420   3.712
 7899SOL     OW24595   6.714   1.782   1.707
 7899SOL    HW124596   6.749   1.821   1.622
 7899SOL    HW224597   6.771   1.812   1.784
 7900SOL     OW24598   1.505   5.028   1.096
 7900SOL    HW124599   1.520   4.968   1.017
 7900SOL    HW224600   1.511   5.123   1.067
 7901SOL     OW24601   4.667   0.647   5.843
 7901SOL    HW124602   4.695   0.568   5.789
 7901SOL    HW224603   4.716   0.729   5.812
 7902SOL     OW24604   4.810   5.382   1.548
 7902SOL    HW124605   4.868   5.399   1.627
 7902SOL    HW224606   4.717   5.363   1.578
 7903SOL     OW24607   5.910   2.455   0.402
 7903SOL    HW124608   5.965   2.488   0.325
 7903SOL    HW224609   5.967   2.398   0.461
 7904SOL     OW24610   6.046   0.543   2.806
 7904SOL    HW124611   6.066   0.557   2.903
 7904SOL    HW224612   6.119   0.583   2.751
 7905SOL     OW24613   4.710   1.522   0.345
 7905SOL    HW124614   4.768   1.447   0.379
 7905SOL    HW224615   4.642   1.545   0.414
 7906SOL     OW24616   0.293   5.775   6.788
 7906SOL    HW124617   0.292   5.862   6.836
 7906SOL    HW224618   0.245   5.706   6.843
 7907SOL     OW24619   6.370   2.684   4.291
 7907SOL    HW124620   6.437   2.696   4.365
 7907SOL    HW224621   6.287   2.643   4.328
 7908SOL     OW24622   1.344   1.305   4.091
 7908SOL    HW124623   1.365   1.381   4.153
 7908SOL    HW224624   1.345   1.338   3.997
 7909SOL     OW24625   4.894   3.794   4.810
 7909SOL    HW124626   4.980   3.782   4.760
 7909SOL    HW224627   4.891   3.731   4.887
 7910SOL     OW24628   3.388   3.112   5.258
 7910SOL    HW124629   3.436   3.086   5.342
 7910SOL    HW224630   3.449   3.103   5.180
 7911SOL     OW24631   0.296   4.254   6.859
 7911SOL    HW124632   0.390   4.271   6.829
 7911SOL    HW224633   0.232   4.301   6.798
 7912SOL     OW24634   0.026   5.341   0.103
 7912SOL    HW124635   0.002   5.319   0.009
 7912SOL    HW224636   6.997   5.421   0.133
 7913SOL     OW24637   0.699   5.158   6.834
 7913SOL    HW124638   0.654   5.188   6.919
 7913SOL    HW224639   0.797   5.176   6.840
 7914SOL     OW24640   0.507   4.965   0.033
 7914SOL    HW124641   0.469   4.957   6.964
 7914SOL    HW224642   0.488   4.881   0.084
 7915SOL     OW24643   4.697   2.420   2.590
 7915SOL    HW124644   4.649   2.388   2.508
 7915SOL    HW224645   4.632   2.465   2.651
 7916SOL     OW24646   5.557   3.871   5.021
 7916SOL    HW124647   5.623   3.807   4.980
 7916SOL    HW224648   5.600   3.960   5.032
 7917SOL     OW24649   3.934   3.300   3.702
 7917SOL    HW124650   3.916   3.364   3.777
 7917SOL    HW224651   3.938   3.207   3.739
 7918SOL     OW24652   6.512   1.762   1.402
 7918SOL    HW124653   6.504   1.755   1.302
 7918SOL    HW224654   6.565   1.843   1.426
 7919SOL     OW24655   6.917   3.997   3.579
 7919SOL    HW124656   6.924   3.929   3.506
 7919SOL    HW224657   7.003   4.048   3.584
 7920SOL     OW24658   6.902   5.029   1.375
 7920SOL    HW124659   6.922   5.082   1.457
 7920SOL    HW224660   6.987   4.994   1.336
 7921SOL     OW24661   3.615   6.331   0.286
 7921SOL    HW124662   3.701   6.286   0.263
 7921SOL    HW224663   3.539   6.275   0.253
 7922SOL     OW24664   6.638   5.834   6.969
 7922SOL    HW124665   6.562   5.779   7.004
 7922SOL    HW224666   6.607   5.890   6.893
 7923SOL     OW24667   1.849   0.871   3.196
 7923SOL    HW124668   1.833   0.951   3.254
 7923SOL    HW224669   1.932   0.824   3.226
 7924SOL     OW24670   3.589   6.494   3.107
 7924SOL    HW124671   3.519   6.473   3.175
 7924SOL    HW224672   3.561   6.574   3.054
 7925SOL     OW24673   0.451   1.770   6.421
 7925SOL    HW124674   0.457   1.718   6.335
 7925SOL    HW224675   0.372   1.830   6.418
 7926SOL     OW24676   4.264   1.123   3.829
 7926SOL    HW124677   4.357   1.092   3.847
 7926SOL    HW224678   4.262   1.222   3.823
 7927SOL     OW24679   3.943   5.684   4.906
 7927SOL    HW124680   4.040   5.664   4.898
 7927SOL    HW224681   3.926   5.779   4.878
 7928SOL     OW24682   1.255   4.331   3.663
 7928SOL    HW124683   1.189   4.294   3.728
 7928SOL    HW224684   1.209   4.394   3.600
 7929SOL     OW24685   4.074   3.662   5.067
 7929SOL    HW124686   3.984   3.623   5.047
 7929SOL    HW224687   4.075   3.758   5.040
 7930SOL     OW24688   4.607   5.692   3.333
 7930SOL    HW124689   4.676   5.626   3.360
 7930SOL    HW224690   4.593   5.759   3.406
 7931SOL     OW24691   1.953   2.048   6.995
 7931SOL    HW124692   2.009   1.974   0.010
 7931SOL    HW224693   1.977   2.134   0.016
 7932SOL     OW24694   2.647   0.085   6.950
 7932SOL    HW124695   2.641   7.012   6.977
 7932SOL    HW224696   2.618   0.143   0.004
 7933SOL     OW24697   0.172   0.171   0.569
 7933SOL    HW124698   0.147   0.257   0.525
 7933SOL    HW224699   0.255   0.184   0.623
 7934SOL     OW24700   2.339   3.576   0.111
 7934SOL    HW124701   2.414   3.638   0.132
 7934SOL    HW224702   2.334   3.504   0.180
 7935SOL     OW24703   5.374   5.644   0.001
 7935SOL    HW124704   5.373   5.716   0.070
 7935SOL    HW224705   5.457   5.589   0.011
 7936SOL     OW24706   3.378   5.540   2.677
 7936SOL    HW124707   3.280   5.551   2.663
 7936SOL    HW224708   3.399   5.542   2.774
 7937SOL     OW24709   5.282   6.714   4.297
 7937SOL    HW124710   5.292   6.637   4.235
 7937SOL    HW224711   5.270   6.798   4.244
 7938SOL     OW24712   5.078   4.917   4.596
 7938SOL    HW124713   5.107   4.849   4.664
 7938SOL    HW224714   5.021   4.872   4.527
 7939SOL     OW24715   1.122   1.442   6.184
 7939SOL    HW124716   1.101   1.347   6.162
 7939SOL    HW224717   1.043   1.484   6.228
 7940SOL     OW24718   2.609   5.241   1.970
 7940SOL    HW124719   2.635   5.145   1.978
 7940SOL    HW224720   2.688   5.299   1.992
 7941SOL     OW24721   6.773   6.862   1.733
 7941SOL    HW124722   6.793   6.960   1.735
 7941SOL    HW224723   6.765   6.832   1.638
 7942SOL     OW24724   6.765   6.430   2.837
 7942SOL    HW124725   6.844   6.486   2.813
 7942SOL    HW224726   6.792   6.366   2.910
 7943SOL     OW24727   5.809   1.756   0.787
 7943SOL    HW124728   5.884   1.819   0.805
 7943SOL    HW224729   5.772   1.772   0.696
 7944SOL     OW24730   6.979   3.099   1.063
 7944SOL    HW124731   7.002   3.166   1.134
 7944SOL    HW224732   6.962   3.147   0.977
 7945SOL     OW24733   5.348   6.693   2.529
 7945SOL    HW124734   5.404   6.773   2.550
 7945SOL    HW224735   5.385   6.613   2.576
 7946SOL     OW24736   1.322   2.686   5.674
 7946SOL    HW124737   1.299   2.669   5.579
 7946SOL    HW224738   1.418   2.663   5.689
 7947SOL     OW24739   3.866   3.239   6.916
 7947SOL    HW124740   3.855   3.171   6.989
 7947SOL    HW224741   3.890   3.192   6.831
 7948SOL     OW24742   6.746   6.776   1.473
 7948SOL    HW124743   6.680   6.789   1.399
 7948SOL    HW224744   6.799   6.693   1.456
 7949SOL     OW24745   5.296   5.170   3.921
 7949SOL    HW124746   5.232   5.095   3.935
 7949SOL    HW224747   5.254   5.239   3.862
 7950SOL     OW24748   5.133   5.280   3.555
 7950SOL    HW124749   5.135   5.315   3.649
 7950SOL    HW224750   5.183   5.193   3.551
 7951SOL     OW24751   3.096   3.371   1.115
 7951SOL    HW124752   3.089   3.443   1.046
 7951SOL    HW224753   3.039   3.394   1.194
 7952SOL     OW24754   0.294   2.914   6.399
 7952SOL    HW124755   0.318   2.818   6.413
 7952SOL    HW224756   0.200   2.930   6.429
 7953SOL     OW24757   2.000   2.915   3.122
 7953SOL    HW124758   1.932   2.960   3.063
 7953SOL    HW224759   1.962   2.830   3.158
 7954SOL     OW24760   4.602   5.406   4.720
 7954SOL    HW124761   4.580   5.333   4.784
 7954SOL    HW224762   4.654   5.369   4.643
 7955SOL     OW24763   0.083   6.525   6.423
 7955SOL    HW124764   0.088   6.466   6.504
 7955SOL    HW224765   0.161   6.588   6.423
 7956SOL     OW24766   0.763   5.396   2.906
 7956SOL    HW124767   0.854   5.413   2.943
 7956SOL    HW224768   0.696   5.399   2.980
 7957SOL     OW24769   2.375   1.634   0.607
 7957SOL    HW124770   2.422   1.626   0.695
 7957SOL    HW224771   2.295   1.693   0.617
 7958SOL     OW24772   3.471   5.505   4.108
 7958SOL    HW124773   3.537   5.575   4.081
 7958SOL    HW224774   3.515   5.415   4.106
 7959SOL     OW24775   4.153   5.314   0.707
 7959SOL    HW124776   4.102   5.325   0.793
 7959SOL    HW224777   4.093   5.272   0.638
 7960SOL     OW24778   3.583   2.073   1.019
 7960SOL    HW124779   3.641   2.125   0.957
 7960SOL    HW224780   3.587   1.976   0.995
 7961SOL     OW24781   2.259   6.182   6.358
 7961SOL    HW124782   2.346   6.167   6.310
 7961SOL    HW224783   2.201   6.101   6.348
 7962SOL     OW24784   2.160   0.530   0.790
 7962SOL    HW124785   2.126   0.595   0.858
 7962SOL    HW224786   2.120   0.552   0.701
 7963SOL     OW24787   6.951   1.477   4.553
 7963SOL    HW124788   7.008   1.394   4.547
 7963SOL    HW224789   6.985   1.546   4.490
 7964SOL     OW24790   5.971   5.380   3.690
 7964SOL    HW124791   5.962   5.284   3.714
 7964SOL    HW224792   6.010   5.430   3.768
 7965SOL     OW24793   4.171   3.294   0.054
 7965SOL    HW124794   4.195   3.198   0.038
 7965SOL    HW224795   4.188   3.318   0.149
 7966SOL     OW24796   1.036   3.567   4.741
 7966SOL    HW124797   1.014   3.517   4.657
 7966SOL    HW224798   0.963   3.554   4.808
 7967SOL     OW24799   3.113   6.496   3.965
 7967SOL    HW124800   3.068   6.423   3.915
 7967SOL    HW224801   3.076   6.501   4.058
 7968SOL     OW24802   2.158   3.073   3.284
 7968SOL    HW124803   2.105   3.013   3.224
 7968SOL    HW224804   2.196   3.020   3.360
 7969SOL     OW24805   4.530   0.063   2.245
 7969SOL    HW124806   4.562   0.073   2.339
 7969SOL    HW224807   4.437   0.027   2.245
 7970SOL     OW24808   0.222   4.243   2.620
 7970SOL    HW124809   0.243   4.247   2.717
 7970SOL    HW224810   0.279   4.174   2.576
 7971SOL     OW24811   3.259   1.229   1.873
 7971SOL    HW124812   3.177   1.173   1.860
 7971SOL    HW224813   3.233   1.325   1.878
 7972SOL     OW24814   6.752   4.062   1.316
 7972SOL    HW124815   6.806   4.093   1.238
 7972SOL    HW224816   6.757   3.962   1.323
 7973SOL     OW24817   5.147   3.220   3.324
 7973SOL    HW124818   5.134   3.152   3.252
 7973SOL    HW224819   5.139   3.312   3.285
 7974SOL     OW24820   5.916   0.433   4.401
 7974SOL    HW124821   5.855   0.497   4.355
 7974SOL    HW224822   5.957   0.477   4.481
 7975SOL     OW24823   5.382   0.309   3.894
 7975SOL    HW124824   5.323   0.379   3.933
 7975SOL    HW224825   5.367   0.303   3.795
 7976SOL     OW24826   0.307   6.622   5.637
 7976SOL    HW124827   0.321   6.629   5.538
 7976SOL    HW224828   0.228   6.678   5.664
 7977SOL     OW24829   4.354   5.951   2.533
 7977SOL    HW124830   4.451   5.940   2.511
 7977SOL    HW224831   4.345   6.007   2.615
 7978SOL     OW24832   5.955   4.279   5.984
 7978SOL    HW124833   6.017   4.355   6.003
 7978SOL    HW224834   6.009   4.195   5.971
 7979SOL     OW24835   2.711   0.411   4.774
 7979SOL    HW124836   2.739   0.322   4.810
 7979SOL    HW224837   2.790   0.473   4.773
 7980SOL     OW24838   4.011   5.361   0.045
 7980SOL    HW124839   3.997   5.315   0.133
 7980SOL    HW224840   4.058   5.448   0.060
 7981SOL     OW24841   1.051   5.697   1.719
 7981SOL    HW124842   1.100   5.622   1.675
 7981SOL    HW224843   0.953   5.689   1.700
 7982SOL     OW24844   6.819   2.062   0.770
 7982SOL    HW124845   6.899   2.061   0.831
 7982SOL    HW224846   6.766   2.145   0.787
 7983SOL     OW24847   5.098   1.918   3.128
 7983SOL    HW124848   5.035   1.877   3.194
 7983SOL    HW224849   5.158   1.983   3.176
 7984SOL     OW24850   1.513   1.654   1.422
 7984SOL    HW124851   1.421   1.640   1.460
 7984SOL    HW224852   1.557   1.730   1.470
 7985SOL     OW24853   1.892   6.920   3.031
 7985SOL    HW124854   1.941   6.990   2.980
 7985SOL    HW224855   1.828   6.963   3.095
 7986SOL     OW24856   3.473   1.323   0.038
 7986SOL    HW124857   3.425   1.278   0.113
 7986SOL    HW224858   3.449   1.420   0.036
 7987SOL     OW24859   0.503   3.670   6.305
 7987SOL    HW124860   0.528   3.613   6.227
 7987SOL    HW224861   0.413   3.710   6.289
 7988SOL     OW24862   2.485   2.529   4.565
 7988SOL    HW124863   2.536   2.493   4.642
 7988SOL    HW224864   2.440   2.454   4.517
 7989SOL     OW24865   3.524   2.751   5.449
 7989SOL    HW124866   3.536   2.690   5.526
 7989SOL    HW224867   3.431   2.744   5.414
 7990SOL     OW24868   0.344   3.641   3.207
 7990SOL    HW124869   0.371   3.632   3.303
 7990SOL    HW224870   0.265   3.702   3.200
 7991SOL     OW24871   6.464   2.285   5.669
 7991SOL    HW124872   6.510   2.196   5.664
 7991SOL    HW224873   6.506   2.347   5.602
 7992SOL     OW24874   1.268   6.532   0.889
 7992SOL    HW124875   1.366   6.551   0.893
 7992SOL    HW224876   1.221   6.583   0.962
 7993SOL     OW24877   1.865   5.807   6.612
 7993SOL    HW124878   1.826   5.854   6.532
 7993SOL    HW224879   1.801   5.736   6.642
 7994SOL     OW24880   4.704   0.318   3.560
 7994SOL    HW124881   4.748   0.388   3.504
 7994SOL    HW224882   4.692   0.352   3.653
 7995SOL     OW24883   3.833   5.237   3.538
 7995SOL    HW124884   3.837   5.143   3.506
 7995SOL    HW224885   3.738   5.263   3.553
 7996SOL     OW24886   3.217   6.358   4.256
 7996SOL    HW124887   3.189   6.313   4.171
 7996SOL    HW224888   3.316   6.374   4.254
 7997SOL     OW24889   6.375   2.006   1.479
 7997SOL    HW124890   6.403   1.970   1.568
 7997SOL    HW224891   6.352   1.930   1.418
 7998SOL     OW24892   4.433   5.201   0.721
 7998SOL    HW124893   4.349   5.242   0.758
 7998SOL    HW224894   4.498   5.274   0.699
 7999SOL     OW24895   1.255   0.206   5.849
 7999SOL    HW124896   1.280   0.110   5.863
 7999SOL    HW224897   1.291   0.237   5.761
 8000SOL     OW24898   5.595   0.202   6.511
 8000SOL    HW124899   5.664   0.151   6.459
 8000SOL    HW224900   5.521   0.230   6.449
 8001SOL     OW24901   2.950   5.923   1.912
 8001SOL    HW124902   2.964   5.939   1.814
 8001SOL    HW224903   3.003   5.843   1.940
 8002SOL     OW24904   0.663   3.128   5.763
 8002SOL    HW124905   0.725   3.139   5.841
 8002SOL    HW224906   0.702   3.063   5.699
 8003SOL     OW24907   2.826   4.750   2.428
 8003SOL    HW124908   2.867   4.686   2.362
 8003SOL    HW224909   2.899   4.794   2.481
 8004SOL     OW24910   1.605   4.765   3.167
 8004SOL    HW124911   1.606   4.679   3.218
 8004SOL    HW224912   1.569   4.748   3.075
 8005SOL     OW24913   3.528   1.615   2.432
 8005SOL    HW124914   3.524   1.603   2.333
 8005SOL    HW224915   3.475   1.696   2.458
 8006SOL     OW24916   2.421   6.186   0.741
 8006SOL    HW124917   2.389   6.107   0.688
 8006SOL    HW224918   2.430   6.160   0.837
 8007SOL     OW24919   0.586   0.233   4.011
 8007SOL    HW124920   0.494   0.195   4.022
 8007SOL    HW224921   0.645   0.201   4.085
 8008SOL     OW24922   4.515   6.465   5.927
 8008SOL    HW124923   4.466   6.440   6.010
 8008SOL    HW224924   4.530   6.564   5.925
 8009SOL     OW24925   6.153   0.125   2.755
 8009SOL    HW124926   6.150   0.124   2.655
 8009SOL    HW224927   6.109   0.208   2.789
 8010SOL     OW24928   2.176   1.442   7.013
 8010SOL    HW124929   2.106   1.509   0.012
 8010SOL    HW224930   2.140   1.376   6.947
 8011SOL     OW24931   1.966   2.646   1.557
 8011SOL    HW124932   2.046   2.706   1.558
 8011SOL    HW224933   1.996   2.551   1.555
 8012SOL     OW24934   1.575   5.864   1.344
 8012SOL    HW124935   1.622   5.804   1.409
 8012SOL    HW224936   1.530   5.808   1.274
 8013SOL     OW24937   0.402   5.311   4.665
 8013SOL    HW124938   0.386   5.215   4.644
 8013SOL    HW224939   0.372   5.330   4.759
 8014SOL     OW24940   1.442   6.400   5.482
 8014SOL    HW124941   1.509   6.451   5.428
 8014SOL    HW224942   1.461   6.415   5.579
 8015SOL     OW24943   3.067   1.583   0.556
 8015SOL    HW124944   3.011   1.663   0.575
 8015SOL    HW224945   3.011   1.512   0.514
 8016SOL     OW24946   4.418   0.063   6.691
 8016SOL    HW124947   4.476   0.026   6.764
 8016SOL    HW224948   4.472   0.068   6.606
 8017SOL     OW24949   0.160   4.689   5.812
 8017SOL    HW124950   0.116   4.756   5.752
 8017SOL    HW224951   0.111   4.603   5.806
 8018SOL     OW24952   4.901   2.266   5.787
 8018SOL    HW124953   4.990   2.308   5.771
 8018SOL    HW224954   4.829   2.323   5.747
 8019SOL     OW24955   1.906   3.764   6.801
 8019SOL    HW124956   1.972   3.701   6.843
 8019SOL    HW224957   1.954   3.820   6.733
 8020SOL     OW24958   5.687   6.568   0.165
 8020SOL    HW124959   5.740   6.603   0.242
 8020SOL    HW224960   5.706   6.623   0.083
 8021SOL     OW24961   1.379   1.666   2.011
 8021SOL    HW124962   1.403   1.657   1.914
 8021SOL    HW224963   1.463   1.676   2.064
 8022SOL     OW24964   4.128   1.075   2.936
 8022SOL    HW124965   4.150   1.003   2.870
 8022SOL    HW224966   4.041   1.054   2.981
 8023SOL     OW24967   5.782   6.305   3.563
 8023SOL    HW124968   5.787   6.219   3.613
 8023SOL    HW224969   5.854   6.307   3.493
 8024SOL     OW24970   3.305   5.088   0.062
 8024SOL    HW124971   3.368   5.161   0.035
 8024SOL    HW224972   3.283   5.096   0.159
 8025SOL     OW24973   3.607   6.316   5.781
 8025SOL    HW124974   3.613   6.326   5.682
 8025SOL    HW224975   3.582   6.222   5.804
 8026SOL     OW24976   0.437   3.814   6.712
 8026SOL    HW124977   0.361   3.867   6.750
 8026SOL    HW224978   0.501   3.876   6.667
 8027SOL     OW24979   4.687   2.089   5.451
 8027SOL    HW124980   4.639   2.077   5.364
 8027SOL    HW224981   4.661   2.017   5.514
 8028SOL     OW24982   3.702   4.796   5.622
 8028SOL    HW124983   3.706   4.711   5.571
 8028SOL    HW224984   3.749   4.868   5.570
 8029SOL     OW24985   5.661   3.859   6.588
 8029SOL    HW124986   5.723   3.894   6.518
 8029SOL    HW224987   5.635   3.765   6.565
 8030SOL     OW24988   5.714   3.929   5.806
 8030SOL    HW124989   5.682   3.996   5.740
 8030SOL    HW224990   5.660   3.845   5.797
 8031SOL     OW24991   5.330   5.835   2.435
 8031SOL    HW124992   5.413   5.787   2.466
 8031SOL    HW224993   5.267   5.769   2.395
 8032SOL     OW24994   6.138   4.135   5.133
 8032SOL    HW124995   6.208   4.196   5.170
 8032SOL    HW224996   6.143   4.135   5.033
 8033SOL     OW24997   5.058   3.095   6.815
 8033SOL    HW124998   4.971   3.134   6.843
 8033SOL    HW224999   5.126   3.109   6.888
 8034SOL     OW25000   6.347   1.181   5.329
 8034SOL    HW125001   6.355   1.277   5.356
 8034SOL    HW225002   6.289   1.133   5.394
 8035SOL     OW25003   4.876   0.054   5.056
 8035SOL    HW125004   4.831   7.004   5.108
 8035SOL    HW225005   4.840   0.056   4.963
 8036SOL     OW25006   1.476   3.571   1.803
 8036SOL    HW125007   1.385   3.574   1.845
 8036SOL    HW225008   1.508   3.476   1.799
 8037SOL     OW25009   1.617   3.359   1.785
 8037SOL    HW125010   1.592   3.265   1.764
 8037SOL    HW225011   1.716   3.369   1.782
 8038SOL     OW25012   5.063   1.836   2.856
 8038SOL    HW125013   5.156   1.846   2.821
 8038SOL    HW225014   5.059   1.869   2.950
 8039SOL     OW25015   1.630   6.776   3.571
 8039SOL    HW125016   1.717   6.777   3.522
 8039SOL    HW225017   1.618   6.687   3.615
 8040SOL     OW25018   0.863   5.404   0.823
 8040SOL    HW125019   0.804   5.395   0.743
 8040SOL    HW225020   0.920   5.485   0.814
 8041SOL     OW25021   3.681   1.831   2.231
 8041SOL    HW125022   3.677   1.922   2.272
 8041SOL    HW225023   3.724   1.767   2.295
 8042SOL     OW25024   3.539   2.795   1.877
 8042SOL    HW125025   3.552   2.778   1.975
 8042SOL    HW225026   3.535   2.893   1.860
 8043SOL     OW25027   3.139   6.873   0.498
 8043SOL    HW125028   3.063   6.843   0.557
 8043SOL    HW225029   3.125   6.836   0.406
 8044SOL     OW25030   3.177   3.102   1.359
 8044SOL    HW125031   3.174   3.125   1.261
 8044SOL    HW225032   3.088   3.069   1.388
 8045SOL     OW25033   5.598   1.387   1.966
 8045SOL    HW125034   5.567   1.417   1.876
 8045SOL    HW225035   5.550   1.303   1.991
 8046SOL     OW25036   6.149   4.456   6.413
 8046SOL    HW125037   6.073   4.509   6.449
 8046SOL    HW225038   6.230   4.469   6.470
 8047SOL     OW25039   3.518   4.936   4.815
 8047SOL    HW125040   3.519   4.836   4.819
 8047SOL    HW225041   3.581   4.973   4.883
 8048SOL     OW25042   5.648   1.425   5.026
 8048SOL    HW125043   5.675   1.515   4.992
 8048SOL    HW225044   5.711   1.355   4.992
 8049SOL     OW25045   1.234   6.757   1.801
 8049SOL    HW125046   1.164   6.778   1.869
 8049SOL    HW225047   1.324   6.779   1.838
 8050SOL     OW25048   0.994   4.020   1.065
 8050SOL    HW125049   0.986   4.082   0.987
 8050SOL    HW225050   0.990   4.072   1.150
 8051SOL     OW25051   5.187   0.053   3.637
 8051SOL    HW125052   5.120   0.071   3.564
 8051SOL    HW225053   5.235   0.138   3.659
 8052SOL     OW25054   3.248   1.646   2.314
 8052SOL    HW125055   3.272   1.591   2.394
 8052SOL    HW225056   3.306   1.620   2.237
 8053SOL     OW25057   3.785   3.495   2.970
 8053SOL    HW125058   3.751   3.469   3.060
 8053SOL    HW225059   3.749   3.584   2.944
 8054SOL     OW25060   5.208   6.529   4.743
 8054SOL    HW125061   5.213   6.615   4.794
 8054SOL    HW225062   5.206   6.452   4.807
 8055SOL     OW25063   0.883   0.649   5.787
 8055SOL    HW125064   0.812   0.655   5.718
 8055SOL    HW225065   0.858   0.705   5.866
 8056SOL     OW25066   4.729   0.955   3.279
 8056SOL    HW125067   4.768   1.042   3.250
 8056SOL    HW225068   4.799   0.883   3.272
 8057SOL     OW25069   2.771   0.944   2.693
 8057SOL    HW125070   2.813   0.939   2.603
 8057SOL    HW225071   2.765   1.040   2.722
 8058SOL     OW25072   3.702   0.119   2.949
 8058SOL    HW125073   3.725   0.045   3.013
 8058SOL    HW225074   3.630   0.177   2.989
 8059SOL     OW25075   3.733   2.001   4.938
 8059SOL    HW125076   3.813   2.028   4.885
 8059SOL    HW225077   3.716   1.904   4.926
 8060SOL     OW25078   0.393   1.296   4.475
 8060SOL    HW125079   0.367   1.245   4.393
 8060SOL    HW225080   0.320   1.361   4.498
 8061SOL     OW25081   6.871   5.946   1.946
 8061SOL    HW125082   6.825   5.985   1.866
 8061SOL    HW225083   6.841   5.852   1.959
 8062SOL     OW25084   2.238   4.463   3.859
 8062SOL    HW125085   2.308   4.450   3.789
 8062SOL    HW225086   2.262   4.410   3.940
 8063SOL     OW25087   2.109   3.676   6.986
 8063SOL    HW125088   2.187   3.622   7.017
 8063SOL    HW225089   2.093   3.751   0.026
 8064SOL     OW25090   0.562   4.972   0.333
 8064SOL    HW125091   0.490   4.973   0.403
 8064SOL    HW225092   0.569   4.880   0.294
 8065SOL     OW25093   4.267   6.550   3.682
 8065SOL    HW125094   4.187   6.531   3.740
 8065SOL    HW225095   4.342   6.489   3.706
 8066SOL     OW25096   1.176   1.193   6.431
 8066SOL    HW125097   1.273   1.214   6.423
 8066SOL    HW225098   1.137   1.178   6.340
 8067SOL     OW25099   3.985   3.304   1.682
 8067SOL    HW125100   3.981   3.362   1.601
 8067SOL    HW225101   3.992   3.208   1.653
 8068SOL     OW25102   6.237   5.699   5.351
 8068SOL    HW125103   6.178   5.778   5.337
 8068SOL    HW225104   6.331   5.731   5.366
 8069SOL     OW25105   2.236   6.131   1.632
 8069SOL    HW125106   2.185   6.189   1.568
 8069SOL    HW225107   2.237   6.037   1.597
 8070SOL     OW25108   2.824   4.501   0.794
 8070SOL    HW125109   2.823   4.473   0.698
 8070SOL    HW225110   2.898   4.454   0.842
 8071SOL     OW25111   3.849   6.426   5.211
 8071SOL    HW125112   3.771   6.487   5.196
 8071SOL    HW225113   3.933   6.478   5.208
 8072SOL     OW25114   3.506   1.641   0.307
 8072SOL    HW125115   3.464   1.634   0.398
 8072SOL    HW225116   3.446   1.599   0.239
 8073SOL     OW25117   5.033   0.174   6.653
 8073SOL    HW125118   4.977   0.151   6.574
 8073SOL    HW225119   5.115   0.117   6.653
 8074SOL     OW25120   3.421   2.720   7.019
 8074SOL    HW125121   3.468   2.782   0.060
 8074SOL    HW225122   3.400   2.769   6.935
 8075SOL     OW25123   6.687   1.500   1.637
 8075SOL    HW125124   6.630   1.490   1.555
 8075SOL    HW225125   6.683   1.594   1.669
 8076SOL     OW25126   4.615   2.882   5.915
 8076SOL    HW125127   4.627   2.865   6.013
 8076SOL    HW225128   4.644   2.801   5.864
 8077SOL     OW25129   0.546   0.022   1.888
 8077SOL    HW125130   0.548   0.073   1.973
 8077SOL    HW225131   0.546   6.947   1.908
 8078SOL     OW25132   6.190   1.994   0.386
 8078SOL    HW125133   6.101   2.039   0.376
 8078SOL    HW225134   6.176   1.898   0.412
 8079SOL     OW25135   5.672   1.988   3.221
 8079SOL    HW125136   5.601   2.059   3.212
 8079SOL    HW225137   5.743   2.019   3.284
 8080SOL     OW25138   1.878   3.629   0.589
 8080SOL    HW125139   1.977   3.632   0.580
 8080SOL    HW225140   1.836   3.646   0.499
 8081SOL     OW25141   5.805   0.731   5.359
 8081SOL    HW125142   5.825   0.657   5.423
 8081SOL    HW225143   5.876   0.735   5.289
 8082SOL     OW25144   5.567   2.244   2.914
 8082SOL    HW125145   5.496   2.213   2.851
 8082SOL    HW225146   5.528   2.260   3.004
 8083SOL     OW25147   4.986   2.980   1.970
 8083SOL    HW125148   4.900   2.983   2.020
 8083SOL    HW225149   5.055   3.033   2.019
 8084SOL     OW25150   6.146   6.369   1.363
 8084SOL    HW125151   6.094   6.289   1.394
 8084SOL    HW225152   6.189   6.348   1.275
 8085SOL     OW25153   5.788   0.109   1.937
 8085SOL    HW125154   5.842   0.058   1.870
 8085SOL    HW225155   5.803   0.207   1.924
 8086SOL     OW25156   3.989   0.350   4.368
 8086SOL    HW125157   3.996   0.273   4.432
 8086SOL    HW225158   4.033   0.324   4.282
 8087SOL     OW25159   2.170   1.681   0.966
 8087SOL    HW125160   2.235   1.680   1.042
 8087SOL    HW225161   2.185   1.602   0.907
 8088SOL     OW25162   6.461   1.806   2.022
 8088SOL    HW125163   6.460   1.893   2.070
 8088SOL    HW225164   6.553   1.767   2.024
 8089SOL     OW25165   5.060   2.036   6.780
 8089SOL    HW125166   5.157   2.011   6.784
 8089SOL    HW225167   5.005   1.962   6.820
 8090SOL     OW25168   5.131   2.215   6.475
 8090SOL    HW125169   5.148   2.133   6.530
 8090SOL    HW225170   5.094   2.188   6.386
 8091SOL     OW25171   3.138   3.976   6.959
 8091SOL    HW125172   3.166   4.000   6.866
 8091SOL    HW225173   3.112   3.879   6.962
 8092SOL     OW25174   1.663   1.230   4.717
 8092SOL    HW125175   1.743   1.262   4.768
 8092SOL    HW225176   1.602   1.307   4.698
 8093SOL     OW25177   6.216   6.358   1.066
 8093SOL    HW125178   6.162   6.429   1.020
 8093SOL    HW225179   6.310   6.362   1.032
 8094SOL     OW25180   1.931   4.509   5.284
 8094SOL    HW125181   1.868   4.582   5.260
 8094SOL    HW225182   1.884   4.443   5.344
 8095SOL     OW25183   5.937   3.333   3.980
 8095SOL    HW125184   5.840   3.325   3.957
 8095SOL    HW225185   5.991   3.276   3.918
 8096SOL     OW25186   2.597   5.836   3.307
 8096SOL    HW125187   2.651   5.838   3.391
 8096SOL    HW225188   2.570   5.929   3.283
 8097SOL     OW25189   5.287   0.896   3.791
 8097SOL    HW125190   5.261   0.992   3.791
 8097SOL    HW225191   5.358   0.880   3.722
 8098SOL     OW25192   2.305   6.303   4.431
 8098SOL    HW125193   2.297   6.342   4.523
 8098SOL    HW225194   2.215   6.274   4.399
 8099SOL     OW25195   6.361   0.637   4.037
 8099SOL    HW125196   6.373   0.538   4.028
 8099SOL    HW225197   6.450   0.679   4.055
 8100SOL     OW25198   0.459   6.952   0.361
 8100SOL    HW125199   0.524   6.876   0.357
 8100SOL    HW225200   0.383   6.928   0.421
 8101SOL     OW25201   1.550   6.961   4.649
 8101SOL    HW125202   1.543   0.036   4.633
 8101SOL    HW225203   1.572   6.914   4.563
 8102SOL     OW25204   1.545   5.447   6.896
 8102SOL    HW125205   1.627   5.390   6.892
 8102SOL    HW225206   1.506   5.454   6.804
 8103SOL     OW25207   4.078   1.172   1.522
 8103SOL    HW125208   4.086   1.091   1.464
 8103SOL    HW225209   3.987   1.212   1.510
 8104SOL     OW25210   3.390   6.701   6.310
 8104SOL    HW125211   3.380   6.753   6.395
 8104SOL    HW225212   3.485   6.706   6.278
 8105SOL     OW25213   2.454   2.352   3.294
 8105SOL    HW125214   2.444   2.258   3.325
 8105SOL    HW225215   2.384   2.373   3.227
 8106SOL     OW25216   1.564   5.442   3.537
 8106SOL    HW125217   1.650   5.391   3.540
 8106SOL    HW225218   1.508   5.418   3.617
 8107SOL     OW25219   1.899   6.346   5.615
 8107SOL    HW125220   1.956   6.277   5.571
 8107SOL    HW225221   1.871   6.415   5.548
 8108SOL     OW25222   6.629   2.999   4.706
 8108SOL    HW125223   6.643   3.000   4.805
 8108SOL    HW225224   6.624   3.093   4.672
 8109SOL     OW25225   2.000   4.203   4.857
 8109SOL    HW125226   2.019   4.166   4.948
 8109SOL    HW225227   1.912   4.169   4.825
 8110SOL     OW25228   3.324   6.574   0.417
 8110SOL    HW125229   3.351   6.564   0.321
 8110SOL    HW225230   3.268   6.495   0.444
 8111SOL     OW25231   2.757   0.195   5.507
 8111SOL    HW125232   2.697   0.116   5.503
 8111SOL    HW225233   2.708   0.272   5.548
 8112SOL     OW25234   2.504   0.885   5.258
 8112SOL    HW125235   2.454   0.806   5.224
 8112SOL    HW225236   2.575   0.854   5.321
 8113SOL     OW25237   3.111   2.804   0.127
 8113SOL    HW125238   3.184   2.778   0.065
 8113SOL    HW225239   3.031   2.745   0.112
 8114SOL     OW25240   2.368   2.497   2.234
 8114SOL    HW125241   2.376   2.595   2.252
 8114SOL    HW225242   2.271   2.473   2.224
 8115SOL     OW25243   3.813   1.249   1.354
 8115SOL    HW125244   3.786   1.172   1.413
 8115SOL    HW225245   3.898   1.226   1.306
 8116SOL     OW25246   5.204   0.171   4.889
 8116SOL    HW125247   5.234   0.136   4.800
 8116SOL    HW225248   5.281   0.168   4.953
 8117SOL     OW25249   1.767   1.893   3.450
 8117SOL    HW125250   1.711   1.878   3.532
 8117SOL    HW225251   1.800   1.805   3.415
 8118SOL     OW25252   0.585   3.764   5.708
 8118SOL    HW125253   0.489   3.735   5.709
 8118SOL    HW225254   0.592   3.854   5.750
 8119SOL     OW25255   0.479   5.749   4.267
 8119SOL    HW125256   0.420   5.719   4.342
 8119SOL    HW225257   0.434   5.730   4.180
 8120SOL     OW25258   3.979   4.048   6.969
 8120SOL    HW125259   3.888   4.090   6.963
 8120SOL    HW225260   4.045   4.116   7.002
 8121SOL     OW25261   6.840   6.215   2.976
 8121SOL    HW125262   6.840   6.125   2.933
 8121SOL    HW225263   6.933   6.251   2.979
 8122SOL     OW25264   0.026   5.104   2.506
 8122SOL    HW125265   0.092   5.045   2.552
 8122SOL    HW225266   0.038   5.198   2.539
 8123SOL     OW25267   0.800   0.230   6.561
 8123SOL    HW125268   0.757   0.158   6.508
 8123SOL    HW225269   0.736   0.306   6.573
 8124SOL     OW25270   0.965   6.769   1.676
 8124SOL    HW125271   1.037   6.836   1.693
 8124SOL    HW225272   0.891   6.783   1.741
 8125SOL     OW25273   6.323   5.308   3.343
 8125SOL    HW125274   6.233   5.305   3.387
 8125SOL    HW225275   6.330   5.392   3.290
 8126SOL     OW25276   6.026   4.931   2.079
 8126SOL    HW125277   6.044   4.847   2.130
 8126SOL    HW225278   6.108   4.989   2.079
 8127SOL     OW25279   2.544   5.495   0.533
 8127SOL    HW125280   2.634   5.538   0.528
 8127SOL    HW225281   2.476   5.561   0.565
 8128SOL     OW25282   3.612   2.542   6.904
 8128SOL    HW125283   3.574   2.610   6.966
 8128SOL    HW225284   3.607   2.452   6.946
 8129SOL     OW25285   5.308   0.938   6.572
 8129SOL    HW125286   5.326   0.924   6.475
 8129SOL    HW225287   5.376   0.888   6.626
 8130SOL     OW25288   1.024   5.406   6.053
 8130SOL    HW125289   1.067   5.488   6.089
 8130SOL    HW225290   0.932   5.429   6.020
 8131SOL     OW25291   3.099   1.255   0.096
 8131SOL    HW125292   3.001   1.266   0.111
 8131SOL    HW225293   3.114   1.199   0.014
 8132SOL     OW25294   5.448   5.873   6.036
 8132SOL    HW125295   5.355   5.898   6.008
 8132SOL    HW225296   5.501   5.848   5.955
 8133SOL     OW25297   3.175   4.902   2.992
 8133SOL    HW125298   3.186   4.989   2.945
 8133SOL    HW225299   3.164   4.918   3.090
 8134SOL     OW25300   2.117   1.789   4.146
 8134SOL    HW125301   2.164   1.870   4.111
 8134SOL    HW225302   2.069   1.743   4.072
 8135SOL     OW25303   3.102   4.988   2.070
 8135SOL    HW125304   3.105   4.906   2.014
 8135SOL    HW225305   3.056   5.061   2.020
 8136SOL     OW25306   4.428   5.094   2.958
 8136SOL    HW125307   4.351   5.139   3.002
 8136SOL    HW225308   4.416   5.097   2.858
 8137SOL     OW25309   2.277   2.980   4.438
 8137SOL    HW125310   2.252   2.991   4.342
 8137SOL    HW225311   2.362   2.927   4.445
 8138SOL     OW25312   6.042   1.997   1.973
 8138SOL    HW125313   5.966   2.046   2.018
 8138SOL    HW225314   6.122   1.997   2.033
 8139SOL     OW25315   0.938   2.971   3.558
 8139SOL    HW125316   1.019   2.913   3.546
 8139SOL    HW225317   0.873   2.925   3.618
 8140SOL     OW25318   3.903   7.004   0.328
 8140SOL    HW125319   3.831   6.976   0.264
 8140SOL    HW225320   3.870   0.056   0.385
 8141SOL     OW25321   5.039   0.482   5.192
 8141SOL    HW125322   5.017   0.387   5.215
 8141SOL    HW225323   5.129   0.506   5.229
 8142SOL     OW25324   2.100   5.752   0.369
 8142SOL    HW125325   2.062   5.841   0.345
 8142SOL    HW225326   2.170   5.763   0.439
 8143SOL     OW25327   5.010   5.078   1.666
 8143SOL    HW125328   5.036   5.142   1.738
 8143SOL    HW225329   4.912   5.061   1.670
 8144SOL     OW25330   0.279   5.910   5.758
 8144SOL    HW125331   0.373   5.885   5.738
 8144SOL    HW225332   0.277   5.986   5.823
 8145SOL     OW25333   4.736   5.415   0.456
 8145SOL    HW125334   4.766   5.492   0.400
 8145SOL    HW225335   4.653   5.375   0.417
 8146SOL     OW25336   6.123   0.578   5.078
 8146SOL    HW125337   6.160   0.499   5.125
 8146SOL    HW225338   6.156   0.580   4.983
 8147SOL     OW25339   0.604   0.577   0.283
 8147SOL    HW125340   0.529   0.523   0.319
 8147SOL    HW225341   0.682   0.518   0.263
 8148SOL     OW25342   4.130   4.289   6.775
 8148SOL    HW125343   4.074   4.281   6.858
 8148SOL    HW225344   4.075   4.264   6.695
 8149SOL     OW25345   1.958   6.411   4.300
 8149SOL    HW125346   1.982   6.447   4.211
 8149SOL    HW225347   1.909   6.481   4.353
 8150SOL     OW25348   0.723   3.114   0.763
 8150SOL    HW125349   0.711   3.056   0.844
 8150SOL    HW225350   0.734   3.057   0.682
 8151SOL     OW25351   6.166   5.753   3.761
 8151SOL    HW125352   6.067   5.768   3.765
 8151SOL    HW225353   6.213   5.841   3.759
 8152SOL     OW25354   4.469   2.175   2.908
 8152SOL    HW125355   4.564   2.145   2.915
 8152SOL    HW225356   4.434   2.154   2.817
 8153SOL     OW25357   0.801   0.779   3.405
 8153SOL    HW125358   0.778   0.703   3.465
 8153SOL    HW225359   0.721   0.804   3.351
 8154SOL     OW25360   2.971   1.813   3.062
 8154SOL    HW125361   3.033   1.854   2.996
 8154SOL    HW225362   3.002   1.832   3.155
 8155SOL     OW25363   1.517   3.969   2.511
 8155SOL    HW125364   1.449   4.037   2.535
 8155SOL    HW225365   1.477   3.903   2.447
 8156SOL     OW25366   5.773   6.163   1.248
 8156SOL    HW125367   5.710   6.086   1.242
 8156SOL    HW225368   5.839   6.158   1.173
 8157SOL     OW25369   6.095   3.496   6.340
 8157SOL    HW125370   6.001   3.464   6.352
 8157SOL    HW225371   6.094   3.589   6.305
 8158SOL     OW25372   5.678   4.865   6.168
 8158SOL    HW125373   5.694   4.768   6.150
 8158SOL    HW225374   5.762   4.905   6.206
 8159SOL     OW25375   3.823   6.501   5.830
 8159SOL    HW125376   3.734   6.456   5.827
 8159SOL    HW225377   3.884   6.458   5.763
 8160SOL     OW25378   4.991   0.810   3.269
 8160SOL    HW125379   5.067   0.779   3.212
 8160SOL    HW225380   5.008   0.783   3.364
 8161SOL     OW25381   5.657   3.734   0.129
 8161SOL    HW125382   5.601   3.664   0.083
 8161SOL    HW225383   5.751   3.728   0.098
 8162SOL     OW25384   0.572   5.236   0.037
 8162SOL    HW125385   0.550   5.138   0.034
 8162SOL    HW225386   0.598   5.261   0.130
 8163SOL     OW25387   3.947   5.169   5.374
 8163SOL    HW125388   3.986   5.220   5.451
 8163SOL    HW225389   3.994   5.196   5.290
 8164SOL     OW25390   3.997   0.513   6.861
 8164SOL    HW125391   3.977   0.583   6.930
 8164SOL    HW225392   4.096   0.507   6.848
 8165SOL     OW25393   6.445   3.799   6.346
 8165SOL    HW125394   6.533   3.833   6.315
 8165SOL    HW225395   6.423   3.715   6.296
 8166SOL     OW25396   2.076   2.116   3.778
 8166SOL    HW125397   2.106   2.119   3.873
 8166SOL    HW225398   2.137   2.056   3.725
 8167SOL     OW25399   6.750   1.240   3.612
 8167SOL    HW125400   6.816   1.258   3.539
 8167SOL    HW225401   6.797   1.198   3.690
 8168SOL     OW25402   2.675   0.530   1.215
 8168SOL    HW125403   2.654   0.608   1.274
 8168SOL    HW225404   2.766   0.495   1.239
 8169SOL     OW25405   4.190   1.784   0.649
 8169SOL    HW125406   4.241   1.776   0.735
 8169SOL    HW225407   4.222   1.864   0.599
 8170SOL     OW25408   6.470   4.312   1.790
 8170SOL    HW125409   6.508   4.220   1.784
 8170SOL    HW225410   6.540   4.379   1.766
 8171SOL     OW25411   1.467   0.954   6.516
 8171SOL    HW125412   1.431   0.934   6.607
 8171SOL    HW225413   1.412   0.906   6.447
 8172SOL     OW25414   0.226   2.367   2.255
 8172SOL    HW125415   0.239   2.380   2.157
 8172SOL    HW225416   0.313   2.381   2.303
 8173SOL     OW25417   5.659   2.307   2.578
 8173SOL    HW125418   5.669   2.373   2.503
 8173SOL    HW225419   5.640   2.216   2.541
 8174SOL     OW25420   1.156   6.384   2.371
 8174SOL    HW125421   1.082   6.318   2.376
 8174SOL    HW225422   1.182   6.413   2.463
 8175SOL     OW25423   0.362   2.572   4.226
 8175SOL    HW125424   0.395   2.477   4.223
 8175SOL    HW225425   0.372   2.613   4.135
 8176SOL     OW25426   1.953   4.459   1.454
 8176SOL    HW125427   1.948   4.360   1.449
 8176SOL    HW225428   1.919   4.498   1.368
 8177SOL     OW25429   3.391   0.512   2.597
 8177SOL    HW125430   3.373   0.570   2.518
 8177SOL    HW225431   3.466   0.552   2.651
 8178SOL     OW25432   3.133   6.259   1.118
 8178SOL    HW125433   3.140   6.314   1.201
 8178SOL    HW225434   3.165   6.166   1.137
 8179SOL     OW25435   6.178   0.749   4.205
 8179SOL    HW125436   6.232   0.817   4.255
 8179SOL    HW225437   6.237   0.694   4.147
 8180SOL     OW25438   6.337   0.263   6.893
 8180SOL    HW125439   6.334   0.349   6.944
 8180SOL    HW225440   6.401   0.272   6.817
 8181SOL     OW25441   0.772   1.142   0.934
 8181SOL    HW125442   0.674   1.161   0.930
 8181SOL    HW225443   0.790   1.068   0.999
 8182SOL     OW25444   3.823   3.602   4.992
 8182SOL    HW125445   3.785   3.540   4.923
 8182SOL    HW225446   3.771   3.687   4.993
 8183SOL     OW25447   6.672   1.457   5.250
 8183SOL    HW125448   6.596   1.508   5.210
 8183SOL    HW225449   6.654   1.440   5.347
 8184SOL     OW25450   1.059   0.043   0.432
 8184SOL    HW125451   0.984   0.024   0.496
 8184SOL    HW225452   1.131   6.998   0.445
 8185SOL     OW25453   2.054   0.570   0.503
 8185SOL    HW125454   2.011   0.532   0.422
 8185SOL    HW225455   2.038   0.669   0.507
 8186SOL     OW25456   2.517   4.153   5.605
 8186SOL    HW125457   2.525   4.122   5.510
 8186SOL    HW225458   2.445   4.100   5.651
 8187SOL     OW25459   2.615   1.763   5.038
 8187SOL    HW125460   2.643   1.736   4.946
 8187SOL    HW225461   2.516   1.751   5.048
 8188SOL     OW25462   4.340   1.806   3.879
 8188SOL    HW125463   4.258   1.857   3.853
 8188SOL    HW225464   4.320   1.752   3.961
 8189SOL     OW25465   5.868   5.552   2.951
 8189SOL    HW125466   5.895   5.492   3.026
 8189SOL    HW225467   5.905   5.516   2.865
 8190SOL     OW25468   5.164   4.161   3.465
 8190SOL    HW125469   5.077   4.112   3.454
 8190SOL    HW225470   5.235   4.116   3.411
 8191SOL     OW25471   4.392   5.442   2.114
 8191SOL    HW125472   4.312   5.408   2.163
 8191SOL    HW225473   4.364   5.476   2.024
 8192SOL     OW25474   2.177   5.296   1.991
 8192SOL    HW125475   2.160   5.254   2.081
 8192SOL    HW225476   2.122   5.249   1.922
 8193SOL     OW25477   6.707   5.696   4.478
 8193SOL    HW125478   6.700   5.785   4.433
 8193SOL    HW225479   6.617   5.667   4.509
 8194SOL     OW25480   4.113   0.754   1.033
 8194SOL    HW125481   4.128   0.702   0.949
 8194SOL    HW225482   4.016   0.755   1.055
 8195SOL     OW25483   5.875   0.035   3.990
 8195SOL    HW125484   5.831   6.972   3.963
 8195SOL    HW225485   5.814   0.086   4.050
 8196SOL     OW25486   5.470   0.321   6.990
 8196SOL    HW125487   5.470   0.281   6.898
 8196SOL    HW225488   5.520   0.261   0.029
 8197SOL     OW25489   4.519   1.845   1.452
 8197SOL    HW125490   4.461   1.910   1.404
 8197SOL    HW225491   4.609   1.839   1.408
 8198SOL     OW25492   2.683   0.255   2.264
 8198SOL    HW125493   2.691   0.329   2.330
 8198SOL    HW225494   2.774   0.228   2.233
 8199SOL     OW25495   4.940   3.393   5.768
 8199SOL    HW125496   4.957   3.328   5.694
 8199SOL    HW225497   4.845   3.425   5.762
 8200SOL     OW25498   6.037   4.302   2.158
 8200SOL    HW125499   6.048   4.327   2.255
 8200SOL    HW225500   6.124   4.315   2.111
 8201SOL     OW25501   0.052   1.284   5.213
 8201SOL    HW125502   0.084   1.206   5.159
 8201SOL    HW225503   0.112   1.362   5.196
 8202SOL     OW25504   6.871   6.123   2.615
 8202SOL    HW125505   6.916   6.128   2.525
 8202SOL    HW225506   6.820   6.207   2.631
 8203SOL     OW25507   2.032   2.092   0.342
 8203SOL    HW125508   2.002   2.181   0.375
 8203SOL    HW225509   1.982   2.068   0.259
 8204SOL     OW25510   3.813   3.903   0.527
 8204SOL    HW125511   3.784   3.895   0.432
 8204SOL    HW225512   3.817   4.000   0.552
 8205SOL     OW25513   0.154   2.998   0.217
 8205SOL    HW125514   0.077   2.973   0.159
 8205SOL    HW225515   0.205   2.916   0.243
 8206SOL     OW25516   4.868   1.004   0.422
 8206SOL    HW125517   4.840   1.005   0.326
 8206SOL    HW225518   4.837   0.920   0.465
 8207SOL     OW25519   3.464   3.688   4.401
 8207SOL    HW125520   3.486   3.770   4.348
 8207SOL    HW225521   3.375   3.654   4.373
 8208SOL     OW25522   0.956   1.038   0.748
 8208SOL    HW125523   0.893   1.083   0.812
 8208SOL    HW225524   0.909   1.020   0.662
 8209SOL     OW25525   6.985   0.886   4.920
 8209SOL    HW125526   7.004   0.889   5.018
 8209SOL    HW225527   6.907   0.945   4.899
 8210SOL     OW25528   1.987   2.716   0.357
 8210SOL    HW125529   1.955   2.644   0.419
 8210SOL    HW225530   2.054   2.677   0.293
 8211SOL     OW25531   3.575   3.885   1.346
 8211SOL    HW125532   3.647   3.831   1.303
 8211SOL    HW225533   3.592   3.891   1.444
 8212SOL     OW25534   1.389   2.513   2.971
 8212SOL    HW125535   1.438   2.430   2.998
 8212SOL    HW225536   1.443   2.563   2.903
 8213SOL     OW25537   6.782   5.354   1.345
 8213SOL    HW125538   6.858   5.295   1.371
 8213SOL    HW225539   6.783   5.367   1.245
 8214SOL     OW25540   6.043   4.460   3.745
 8214SOL    HW125541   6.052   4.449   3.844
 8214SOL    HW225542   5.951   4.434   3.717
 8215SOL     OW25543   3.210   6.005   5.305
 8215SOL    HW125544   3.237   6.058   5.385
 8215SOL    HW225545   3.148   5.932   5.333
 8216SOL     OW25546   5.710   6.000   4.247
 8216SOL    HW125547   5.634   5.966   4.302
 8216SOL    HW225548   5.675   6.050   4.168
 8217SOL     OW25549   2.436   5.033   6.937
 8217SOL    HW125550   2.426   5.127   6.904
 8217SOL    HW225551   2.486   4.980   6.869
 8218SOL     OW25552   0.684   1.200   6.843
 8218SOL    HW125553   0.641   1.138   6.909
 8218SOL    HW225554   0.761   1.248   6.887
 8219SOL     OW25555   4.924   1.341   0.052
 8219SOL    HW125556   4.893   1.418   7.020
 8219SOL    HW225557   4.986   1.374   0.123
 8220SOL     OW25558   3.812   3.432   3.240
 8220SOL    HW125559   3.800   3.530   3.258
 8220SOL    HW225560   3.885   3.396   3.298
 8221SOL     OW25561   4.484   6.220   4.536
 8221SOL    HW125562   4.533   6.198   4.451
 8221SOL    HW225563   4.441   6.137   4.571
 8222SOL     OW25564   5.159   1.706   2.117
 8222SOL    HW125565   5.088   1.652   2.072
 8222SOL    HW225566   5.227   1.736   2.049
 8223SOL     OW25567   1.673   3.502   6.070
 8223SOL    HW125568   1.689   3.570   5.999
 8223SOL    HW225569   1.638   3.418   6.028
 8224SOL     OW25570   0.550   2.692   2.962
 8224SOL    HW125571   0.605   2.722   3.041
 8224SOL    HW225572   0.604   2.702   2.879
 8225SOL     OW25573   3.459   0.736   6.850
 8225SOL    HW125574   3.454   0.681   6.934
 8225SOL    HW225575   3.407   0.820   6.862
 8226SOL     OW25576   4.487   0.138   2.719
 8226SOL    HW125577   4.404   0.101   2.760
 8226SOL    HW225578   4.517   0.219   2.771
 8227SOL     OW25579   0.095   2.713   3.622
 8227SOL    HW125580   0.043   2.781   3.569
 8227SOL    HW225581   0.080   2.622   3.583
 8228SOL     OW25582   0.277   2.522   5.494
 8228SOL    HW125583   0.341   2.568   5.557
 8228SOL    HW225584   0.328   2.459   5.436
 8229SOL     OW25585   3.584   4.411   0.541
 8229SOL    HW125586   3.543   4.446   0.625
 8229SOL    HW225587   3.526   4.338   0.503
 8230SOL     OW25588   4.544   6.989   5.366
 8230SOL    HW125589   4.467   6.956   5.310
 8230SOL    HW225590   4.548   0.066   5.360
 8231SOL     OW25591   3.773   5.417   1.059
 8231SOL    HW125592   3.699   5.405   0.992
 8231SOL    HW225593   3.803   5.513   1.058
 8232SOL     OW25594   4.887   1.384   0.698
 8232SOL    HW125595   4.941   1.304   0.724
 8232SOL    HW225596   4.893   1.454   0.770
 8233SOL     OW25597   0.294   6.226   6.220
 8233SOL    HW125598   0.318   6.129   6.226
 8233SOL    HW225599   0.225   6.247   6.289
 8234SOL     OW25600   2.843   3.802   0.085
 8234SOL    HW125601   2.859   3.845   0.174
 8234SOL    HW225602   2.789   3.863   0.028
 8235SOL     OW25603   1.743   3.659   0.345
 8235SOL    HW125604   1.721   3.741   0.292
 8235SOL    HW225605   1.695   3.580   0.307
 8236SOL     OW25606   6.866   4.021   0.241
 8236SOL    HW125607   6.930   4.095   0.221
 8236SOL    HW225608   6.773   4.050   0.220
 8237SOL     OW25609   5.187   6.134   4.445
 8237SOL    HW125610   5.197   6.223   4.402
 8237SOL    HW225611   5.140   6.072   4.382
 8238SOL     OW25612   1.637   4.918   0.649
 8238SOL    HW125613   1.612   4.929   0.553
 8238SOL    HW225614   1.707   4.847   0.658
 8239SOL     OW25615   6.676   1.235   5.542
 8239SOL    HW125616   6.604   1.175   5.576
 8239SOL    HW225617   6.719   1.193   5.462
 8240SOL     OW25618   3.343   3.786   2.914
 8240SOL    HW125619   3.256   3.829   2.888
 8240SOL    HW225620   3.405   3.856   2.950
 8241SOL     OW25621   3.738   6.891   0.107
 8241SOL    HW125622   3.723   6.889   0.008
 8241SOL    HW225623   3.713   6.802   0.146
 8242SOL     OW25624   1.394   4.480   5.906
 8242SOL    HW125625   1.304   4.523   5.913
 8242SOL    HW225626   1.461   4.548   5.877
 8243SOL     OW25627   1.215   2.924   0.427
 8243SOL    HW125628   1.249   2.892   0.339
 8243SOL    HW225629   1.207   3.024   0.426
 8244SOL     OW25630   0.998   6.932   3.619
 8244SOL    HW125631   1.086   6.978   3.630
 8244SOL    HW225632   0.935   6.992   3.568
 8245SOL     OW25633   3.790   1.492   2.821
 8245SOL    HW125634   3.693   1.506   2.802
 8245SOL    HW225635   3.824   1.414   2.768
 8246SOL     OW25636   0.015   3.106   5.490
 8246SOL    HW125637   0.004   3.015   5.452
 8246SOL    HW225638   0.085   3.104   5.562
 8247SOL     OW25639   1.256   0.227   2.305
 8247SOL    HW125640   1.187   0.297   2.287
 8247SOL    HW225641   1.297   0.243   2.395
 8248SOL     OW25642   5.752   5.549   3.637
 8248SOL    HW125643   5.734   5.559   3.539
 8248SOL    HW225644   5.834   5.493   3.651
 8249SOL     OW25645   2.398   3.252   5.476
 8249SOL    HW125646   2.469   3.183   5.486
 8249SOL    HW225647   2.321   3.214   5.425
 8250SOL     OW25648   3.326   4.045   2.496
 8250SOL    HW125649   3.302   4.084   2.585
 8250SOL    HW225650   3.404   4.095   2.458
 8251SOL     OW25651   5.999   2.887   4.350
 8251SOL    HW125652   5.912   2.895   4.301
 8251SOL    HW225653   5.983   2.893   4.448
 8252SOL     OW25654   3.438   2.808   6.363
 8252SOL    HW125655   3.406   2.731   6.307
 8252SOL    HW225656   3.516   2.851   6.318
 8253SOL     OW25657   3.944   4.338   5.237
 8253SOL    HW125658   4.033   4.327   5.192
 8253SOL    HW225659   3.875   4.287   5.186
 8254SOL     OW25660   4.647   4.620   4.589
 8254SOL    HW125661   4.694   4.682   4.527
 8254SOL    HW225662   4.552   4.608   4.559
 8255SOL     OW25663   2.865   6.342   5.099
 8255SOL    HW125664   2.835   6.297   5.182
 8255SOL    HW225665   2.962   6.364   5.106
 8256SOL     OW25666   6.504   0.924   2.084
 8256SOL    HW125667   6.488   0.825   2.085
 8256SOL    HW225668   6.422   0.971   2.054
 8257SOL     OW25669   6.410   3.794   3.815
 8257SOL    HW125670   6.439   3.890   3.811
 8257SOL    HW225671   6.357   3.772   3.733
 8258SOL     OW25672   5.327   1.156   0.592
 8258SOL    HW125673   5.262   1.150   0.668
 8258SOL    HW225674   5.277   1.167   0.506
 8259SOL     OW25675   4.629   1.879   3.363
 8259SOL    HW125676   4.709   1.910   3.414
 8259SOL    HW225677   4.633   1.780   3.350
 8260SOL     OW25678   2.635   0.002   2.141
 8260SOL    HW125679   2.648   0.096   2.173
 8260SOL    HW225680   2.671   6.962   2.210
 8261SOL     OW25681   6.716   1.186   2.176
 8261SOL    HW125682   6.628   1.158   2.137
 8261SOL    HW225683   6.768   1.237   2.107
 8262SOL     OW25684   0.689   2.807   0.956
 8262SOL    HW125685   0.627   2.797   0.879
 8262SOL    HW225686   0.778   2.767   0.933
 8263SOL     OW25687   1.236   2.523   0.449
 8263SOL    HW125688   1.290   2.524   0.365
 8263SOL    HW225689   1.189   2.434   0.456
 8264SOL     OW25690   2.319   6.261   2.407
 8264SOL    HW125691   2.254   6.301   2.342
 8264SOL    HW225692   2.327   6.163   2.390
 8265SOL     OW25693   0.826   6.965   1.360
 8265SOL    HW125694   0.858   6.998   1.449
 8265SOL    HW225695   0.726   6.963   1.359
 8266SOL     OW25696   2.037   1.204   3.787
 8266SOL    HW125697   2.048   1.122   3.844
 8266SOL    HW225698   2.121   1.258   3.789
 8267SOL     OW25699   1.619   3.229   1.218
 8267SOL    HW125700   1.709   3.215   1.258
 8267SOL    HW225701   1.629   3.248   1.120
 8268SOL     OW25702   2.427   6.366   5.543
 8268SOL    HW125703   2.443   6.423   5.624
 8268SOL    HW225704   2.379   6.282   5.570
 8269SOL     OW25705   5.179   1.505   1.518
 8269SOL    HW125706   5.217   1.596   1.502
 8269SOL    HW225707   5.131   1.474   1.436
 8270SOL     OW25708   2.796   6.605   5.041
 8270SOL    HW125709   2.820   6.654   4.957
 8270SOL    HW225710   2.830   6.512   5.036
 8271SOL     OW25711   0.041   0.511   2.784
 8271SOL    HW125712   6.967   0.517   2.808
 8271SOL    HW225713   0.051   0.454   2.702
 8272SOL     OW25714   4.923   1.684   1.456
 8272SOL    HW125715   4.982   1.741   1.512
 8272SOL    HW225716   4.880   1.614   1.513
 8273SOL     OW25717   1.944   6.305   0.860
 8273SOL    HW125718   1.970   6.210   0.877
 8273SOL    HW225719   1.871   6.308   0.792
 8274SOL     OW25720   4.816   4.571   3.145
 8274SOL    HW125721   4.848   4.517   3.223
 8274SOL    HW225722   4.737   4.626   3.173
 8275SOL     OW25723   4.995   1.783   5.709
 8275SOL    HW125724   4.958   1.777   5.802
 8275SOL    HW225725   4.929   1.747   5.644
 8276SOL     OW25726   1.451   2.660   3.586
 8276SOL    HW125727   1.424   2.682   3.679
 8276SOL    HW225728   1.402   2.719   3.522
 8277SOL     OW25729   6.642   0.885   0.205
 8277SOL    HW125730   6.545   0.874   0.181
 8277SOL    HW225731   6.676   0.801   0.248
 8278SOL     OW25732   2.841   1.952   5.475
 8278SOL    HW125733   2.857   1.916   5.567
 8278SOL    HW225734   2.743   1.948   5.455
 8279SOL     OW25735   1.649   0.447   4.120
 8279SOL    HW125736   1.556   0.454   4.083
 8279SOL    HW225737   1.675   0.534   4.162
 8280SOL     OW25738   2.198   2.667   0.559
 8280SOL    HW125739   2.285   2.716   0.550
 8280SOL    HW225740   2.186   2.605   0.481
 8281SOL     OW25741   2.159   4.814   1.375
 8281SOL    HW125742   2.123   4.782   1.463
 8281SOL    HW225743   2.237   4.757   1.349
 8282SOL     OW25744   5.156   3.939   0.402
 8282SOL    HW125745   5.143   4.031   0.364
 8282SOL    HW225746   5.081   3.880   0.372
 8283SOL     OW25747   2.299   5.092   0.244
 8283SOL    HW125748   2.210   5.069   0.284
 8283SOL    HW225749   2.316   5.190   0.257
 8284SOL     OW25750   1.095   3.649   0.399
 8284SOL    HW125751   1.069   3.571   0.456
 8284SOL    HW225752   1.030   3.659   0.323
 8285SOL     OW25753   3.347   2.935   4.701
 8285SOL    HW125754   3.437   2.922   4.744
 8285SOL    HW225755   3.300   3.012   4.745
 8286SOL     OW25756   5.521   3.274   6.524
 8286SOL    HW125757   5.427   3.238   6.534
 8286SOL    HW225758   5.562   3.238   6.441
 8287SOL     OW25759   2.082   5.472   4.319
 8287SOL    HW125760   1.993   5.517   4.318
 8287SOL    HW225761   2.110   5.451   4.225
 8288SOL     OW25762   2.845   1.616   1.505
 8288SOL    HW125763   2.888   1.692   1.553
 8288SOL    HW225764   2.915   1.551   1.476
 8289SOL     OW25765   0.790   5.949   1.517
 8289SOL    HW125766   0.855   6.017   1.552
 8289SOL    HW225767   0.713   5.995   1.474
 8290SOL     OW25768   5.858   0.801   1.146
 8290SOL    HW125769   5.905   0.873   1.196
 8290SOL    HW225770   5.921   0.759   1.080
 8291SOL     OW25771   5.332   6.285   5.857
 8291SOL    HW125772   5.349   6.372   5.810
 8291SOL    HW225773   5.344   6.297   5.956
 8292SOL     OW25774   2.459   6.384   0.107
 8292SOL    HW125775   2.531   6.362   0.041
 8292SOL    HW225776   2.398   6.452   0.068
 8293SOL     OW25777   3.274   6.763   6.849
 8293SOL    HW125778   3.370   6.744   6.872
 8293SOL    HW225779   3.216   6.689   6.883
 8294SOL     OW25780   5.753   4.501   5.197
 8294SOL    HW125781   5.733   4.594   5.227
 8294SOL    HW225782   5.732   4.492   5.100
 8295SOL     OW25783   4.715   5.789   1.626
 8295SOL    HW125784   4.716   5.884   1.597
 8295SOL    HW225785   4.791   5.740   1.584
 8296SOL     OW25786   2.494   6.504   6.519
 8296SOL    HW125787   2.489   6.597   6.482
 8296SOL    HW225788   2.483   6.438   6.444
 8297SOL     OW25789   6.442   2.676   2.238
 8297SOL    HW125790   6.540   2.670   2.254
 8297SOL    HW225791   6.395   2.689   2.325
 8298SOL     OW25792   5.850   2.349   1.021
 8298SOL    HW125793   5.899   2.263   1.031
 8298SOL    HW225794   5.908   2.425   1.052
 8299SOL     OW25795   0.169   2.566   1.874
 8299SOL    HW125796   0.070   2.556   1.864
 8299SOL    HW225797   0.189   2.659   1.905
 8300SOL     OW25798   0.527   6.154   5.325
 8300SOL    HW125799   0.483   6.185   5.408
 8300SOL    HW225800   0.460   6.111   5.265
 8301SOL     OW25801   4.270   1.780   1.787
 8301SOL    HW125802   4.208   1.703   1.773
 8301SOL    HW225803   4.226   1.864   1.755
 8302SOL     OW25804   6.047   6.321   6.583
 8302SOL    HW125805   6.099   6.312   6.668
 8302SOL    HW225806   6.111   6.333   6.506
 8303SOL     OW25807   6.617   1.220   4.110
 8303SOL    HW125808   6.535   1.212   4.053
 8303SOL    HW225809   6.686   1.156   4.078
 8304SOL     OW25810   1.164   3.700   0.757
 8304SOL    HW125811   1.183   3.757   0.837
 8304SOL    HW225812   1.099   3.629   0.780
 8305SOL     OW25813   4.140   4.759   4.510
 8305SOL    HW125814   4.070   4.719   4.451
 8305SOL    HW225815   4.101   4.836   4.560
 8306SOL     OW25816   6.784   2.881   5.266
 8306SOL    HW125817   6.814   2.976   5.254
 8306SOL    HW225818   6.797   2.853   5.361
 8307SOL     OW25819   4.128   5.126   1.663
 8307SOL    HW125820   4.034   5.137   1.696
 8307SOL    HW225821   4.154   5.030   1.666
 8308SOL     OW25822   3.937   5.647   1.018
 8308SOL    HW125823   3.919   5.745   1.013
 8308SOL    HW225824   4.032   5.629   0.991
 8309SOL     OW25825   6.290   5.940   3.308
 8309SOL    HW125826   6.240   6.026   3.314
 8309SOL    HW225827   6.338   5.935   3.221
 8310SOL     OW25828   1.201   4.404   0.668
 8310SOL    HW125829   1.190   4.317   0.621
 8310SOL    HW225830   1.111   4.437   0.698
 8311SOL     OW25831   0.453   1.206   4.941
 8311SOL    HW125832   0.363   1.176   4.971
 8311SOL    HW225833   0.502   1.129   4.900
 8312SOL     OW25834   4.099   6.482   0.729
 8312SOL    HW125835   4.071   6.543   0.654
 8312SOL    HW225836   4.018   6.440   0.769
 8313SOL     OW25837   5.049   1.224   2.616
 8313SOL    HW125838   4.976   1.156   2.611
 8313SOL    HW225839   5.137   1.180   2.602
 8314SOL     OW25840   4.584   0.029   1.032
 8314SOL    HW125841   4.495   7.022   1.066
 8314SOL    HW225842   4.646   6.974   1.028
 8315SOL     OW25843   3.923   3.518   0.848
 8315SOL    HW125844   4.021   3.537   0.843
 8315SOL    HW225845   3.893   3.522   0.944
 8316SOL     OW25846   1.175   2.141   1.777
 8316SOL    HW125847   1.214   2.222   1.820
 8316SOL    HW225848   1.204   2.060   1.828
 8317SOL     OW25849   2.199   2.307   2.623
 8317SOL    HW125850   2.220   2.254   2.541
 8317SOL    HW225851   2.252   2.273   2.700
 8318SOL     OW25852   4.511   1.002   5.128
 8318SOL    HW125853   4.596   0.988   5.077
 8318SOL    HW225854   4.483   1.098   5.121
 8319SOL     OW25855   2.883   1.430   6.146
 8319SOL    HW125856   2.795   1.387   6.164
 8319SOL    HW225857   2.885   1.466   6.052
 8320SOL     OW25858   3.413   3.632   1.468
 8320SOL    HW125859   3.475   3.589   1.533
 8320SOL    HW225860   3.446   3.723   1.445
 8321SOL     OW25861   0.005   0.980   0.489
 8321SOL    HW125862   0.044   1.040   0.419
 8321SOL    HW225863   6.941   1.019   0.520
 8322SOL     OW25864   0.070   0.913   0.790
 8322SOL    HW125865   0.018   0.980   0.737
 8322SOL    HW225866   0.127   0.858   0.729
 8323SOL     OW25867   5.889   5.743   2.648
 8323SOL    HW125868   5.921   5.774   2.737
 8323SOL    HW225869   5.801   5.787   2.627
 8324SOL     OW25870   5.649   1.192   1.716
 8324SOL    HW125871   5.564   1.225   1.677
 8324SOL    HW225872   5.640   1.095   1.738
 8325SOL     OW25873   3.268   3.376   5.336
 8325SOL    HW125874   3.335   3.315   5.378
 8325SOL    HW225875   3.262   3.358   5.238
 8326SOL     OW25876   4.767   3.351   5.314
 8326SOL    HW125877   4.744   3.432   5.260
 8326SOL    HW225878   4.778   3.378   5.410
 8327SOL     OW25879   6.158   2.023   6.153
 8327SOL    HW125880   6.224   2.067   6.214
 8327SOL    HW225881   6.093   1.969   6.207
 8328SOL     OW25882   2.665   4.258   5.812
 8328SOL    HW125883   2.706   4.333   5.760
 8328SOL    HW225884   2.595   4.213   5.757
 8329SOL     OW25885   0.213   3.667   6.185
 8329SOL    HW125886   0.148   3.737   6.215
 8329SOL    HW225887   0.215   3.664   6.085
 8330SOL     OW25888   2.995   0.111   0.193
 8330SOL    HW125889   3.094   0.128   0.194
 8330SOL    HW225890   2.960   0.127   0.101
 8331SOL     OW25891   2.695   1.189   0.878
 8331SOL    HW125892   2.595   1.196   0.870
 8331SOL    HW225893   2.717   1.128   0.954
 8332SOL     OW25894   4.856   4.789   2.439
 8332SOL    HW125895   4.943   4.795   2.489
 8332SOL    HW225896   4.831   4.693   2.427
 8333SOL     OW25897   0.573   6.509   6.677
 8333SOL    HW125898   0.555   6.470   6.767
 8333SOL    HW225899   0.515   6.465   6.609
 8334SOL     OW25900   4.631   1.445   3.912
 8334SOL    HW125901   4.675   1.373   3.857
 8334SOL    HW225902   4.699   1.513   3.937
 8335SOL     OW25903   6.470   5.380   6.410
 8335SOL    HW125904   6.439   5.467   6.372
 8335SOL    HW225905   6.497   5.319   6.335
 8336SOL     OW25906   6.405   6.847   2.688
 8336SOL    HW125907   6.425   6.924   2.627
 8336SOL    HW225908   6.401   6.879   2.782
 8337SOL     OW25909   0.833   6.446   3.308
 8337SOL    HW125910   0.836   6.456   3.209
 8337SOL    HW225911   0.867   6.356   3.334
 8338SOL     OW25912   2.305   4.981   1.729
 8338SOL    HW125913   2.273   4.892   1.761
 8338SOL    HW225914   2.234   5.050   1.746
 8339SOL     OW25915   5.907   0.359   1.862
 8339SOL    HW125916   5.857   0.371   1.776
 8339SOL    HW225917   5.949   0.446   1.887
 8340SOL     OW25918   5.268   3.950   1.515
 8340SOL    HW125919   5.239   3.897   1.435
 8340SOL    HW225920   5.195   4.012   1.543
 8341SOL     OW25921   2.153   6.903   0.022
 8341SOL    HW125922   2.234   6.871   6.996
 8341SOL    HW225923   2.170   6.996   0.056
 8342SOL     OW25924   3.740   0.344   1.721
 8342SOL    HW125925   3.680   0.289   1.779
 8342SOL    HW225926   3.705   0.343   1.627
 8343SOL     OW25927   1.203   4.732   6.092
 8343SOL    HW125928   1.274   4.797   6.118
 8343SOL    HW225929   1.165   4.757   6.003
 8344SOL     OW25930   4.344   0.506   5.306
 8344SOL    HW125931   4.379   0.589   5.264
 8344SOL    HW225932   4.280   0.461   5.244
 8345SOL     OW25933   5.069   1.831   3.663
 8345SOL    HW125934   5.160   1.794   3.644
 8345SOL    HW225935   5.028   1.782   3.740
 8346SOL     OW25936   2.778   4.240   0.090
 8346SOL    HW125937   2.875   4.223   0.107
 8346SOL    HW225938   2.732   4.256   0.178
 8347SOL     OW25939   3.933   5.643   4.373
 8347SOL    HW125940   4.003   5.639   4.445
 8347SOL    HW225941   3.864   5.573   4.391
 8348SOL     OW25942   1.142   7.006   2.081
 8348SOL    HW125943   1.242   7.003   2.075
 8348SOL    HW225944   1.114   7.005   2.177
 8349SOL     OW25945   6.426   6.032   1.339
 8349SOL    HW125946   6.465   6.087   1.265
 8349SOL    HW225947   6.457   5.937   1.329
 8350SOL     OW25948   4.908   0.955   4.606
 8350SOL    HW125949   4.959   0.976   4.690
 8350SOL    HW225950   4.810   0.957   4.626
 8351SOL     OW25951   4.540   5.357   4.261
 8351SOL    HW125952   4.496   5.269   4.244
 8351SOL    HW225953   4.636   5.352   4.233
 8352SOL     OW25954   6.665   6.312   2.619
 8352SOL    HW125955   6.638   6.382   2.553
 8352SOL    HW225956   6.710   6.356   2.697
 8353SOL     OW25957   6.699   3.169   1.573
 8353SOL    HW125958   6.709   3.182   1.474
 8353SOL    HW225959   6.603   3.153   1.596
 8354SOL     OW25960   3.861   0.320   6.703
 8354SOL    HW125961   3.903   0.380   6.772
 8354SOL    HW225962   3.891   0.226   6.719
 8355SOL     OW25963   2.938   0.377   6.890
 8355SOL    HW125964   2.942   0.291   6.940
 8355SOL    HW225965   2.876   0.368   6.812
 8356SOL     OW25966   1.619   6.424   0.746
 8356SOL    HW125967   1.670   6.456   0.825
 8356SOL    HW225968   1.551   6.357   0.775
 8357SOL     OW25969   3.899   0.286   6.022
 8357SOL    HW125970   3.839   0.361   6.050
 8357SOL    HW225971   3.974   0.323   5.966
 8358SOL     OW25972   0.970   3.449   5.605
 8358SOL    HW125973   0.907   3.515   5.563
 8358SOL    HW225974   1.063   3.468   5.574
 8359SOL     OW25975   3.143   6.227   4.505
 8359SOL    HW125976   3.071   6.273   4.557
 8359SOL    HW225977   3.175   6.287   4.432
 8360SOL     OW25978   3.677   5.965   1.146
 8360SOL    HW125979   3.745   6.015   1.092
 8360SOL    HW225980   3.631   6.027   1.209
 8361SOL     OW25981   2.108   0.297   2.735
 8361SOL    HW125982   2.202   0.324   2.715
 8361SOL    HW225983   2.045   0.346   2.675
 8362SOL     OW25984   3.193   1.612   0.833
 8362SOL    HW125985   3.174   1.600   0.736
 8362SOL    HW225986   3.123   1.669   0.874
 8363SOL     OW25987   0.599   2.587   0.381
 8363SOL    HW125988   0.582   2.661   0.316
 8363SOL    HW225989   0.567   2.500   0.343
 8364SOL     OW25990   6.564   3.300   2.598
 8364SOL    HW125991   6.610   3.314   2.510
 8364SOL    HW225992   6.559   3.202   2.618
 8365SOL     OW25993   1.806   4.291   1.833
 8365SOL    HW125994   1.866   4.223   1.791
 8365SOL    HW225995   1.821   4.293   1.931
 8366SOL     OW25996   3.221   5.283   2.285
 8366SOL    HW125997   3.216   5.203   2.346
 8366SOL    HW225998   3.129   5.311   2.259
 8367SOL     OW25999   3.827   5.983   3.905
 8367SOL    HW126000   3.880   5.931   3.838
 8367SOL    HW226001   3.886   6.011   3.980
 8368SOL     OW26002   2.242   6.707   5.691
 8368SOL    HW126003   2.158   6.759   5.699
 8368SOL    HW226004   2.276   6.712   5.597
 8369SOL     OW26005   1.691   6.570   6.823
 8369SOL    HW126006   1.625   6.561   6.749
 8369SOL    HW226007   1.719   6.665   6.832
 8370SOL     OW26008   2.547   2.300   5.606
 8370SOL    HW126009   2.506   2.230   5.547
 8370SOL    HW226010   2.634   2.266   5.642
 8371SOL     OW26011   1.943   4.178   1.451
 8371SOL    HW126012   1.960   4.158   1.547
 8371SOL    HW226013   1.962   4.096   1.396
 8372SOL     OW26014   0.410   5.644   2.162
 8372SOL    HW126015   0.462   5.592   2.230
 8372SOL    HW226016   0.459   5.728   2.139
 8373SOL     OW26017   1.277   0.389   4.248
 8373SOL    HW126018   1.274   0.419   4.343
 8373SOL    HW226019   1.261   0.468   4.188
 8374SOL     OW26020   6.716   1.038   6.169
 8374SOL    HW126021   6.787   0.974   6.138
 8374SOL    HW226022   6.735   1.065   6.263
 8375SOL     OW26023   3.033   0.066   5.983
 8375SOL    HW126024   2.949   0.115   6.007
 8375SOL    HW226025   3.103   0.132   5.955
 8376SOL     OW26026   1.780   0.343   4.344
 8376SOL    HW126027   1.800   0.246   4.357
 8376SOL    HW226028   1.728   0.355   4.259
 8377SOL     OW26029   5.768   5.489   1.499
 8377SOL    HW126030   5.717   5.508   1.416
 8377SOL    HW226031   5.838   5.419   1.480
 8378SOL     OW26032   4.994   4.698   2.931
 8378SOL    HW126033   4.933   4.761   2.883
 8378SOL    HW226034   4.949   4.665   3.014
 8379SOL     OW26035   6.573   2.337   0.934
 8379SOL    HW126036   6.573   2.248   0.980
 8379SOL    HW226037   6.610   2.407   0.995
 8380SOL     OW26038   6.699   1.609   2.533
 8380SOL    HW126039   6.688   1.613   2.434
 8380SOL    HW226040   6.620   1.562   2.574
 8381SOL     OW26041   0.134   4.014   4.787
 8381SOL    HW126042   0.059   4.076   4.811
 8381SOL    HW226043   0.217   4.067   4.772
 8382SOL     OW26044   1.244   0.923   1.992
 8382SOL    HW126045   1.248   1.023   2.001
 8382SOL    HW226046   1.260   0.881   2.081
 8383SOL     OW26047   2.448   0.229   5.824
 8383SOL    HW126048   2.455   0.288   5.905
 8383SOL    HW226049   2.390   0.274   5.755
 8384SOL     OW26050   0.383   0.434   0.374
 8384SOL    HW126051   0.367   0.338   0.353
 8384SOL    HW226052   0.403   0.444   0.472
 8385SOL     OW26053   5.853   2.437   1.462
 8385SOL    HW126054   5.893   2.520   1.502
 8385SOL    HW226055   5.927   2.375   1.435
 8386SOL     OW26056   0.705   4.121   2.606
 8386SOL    HW126057   0.716   4.035   2.657
 8386SOL    HW226058   0.756   4.115   2.520
 8387SOL     OW26059   0.873   1.194   1.329
 8387SOL    HW126060   0.814   1.200   1.249
 8387SOL    HW226061   0.944   1.264   1.324
 8388SOL     OW26062   1.617   6.453   0.267
 8388SOL    HW126063   1.604   6.379   0.201
 8388SOL    HW226064   1.638   6.538   0.219
 8389SOL     OW26065   6.319   4.061   3.116
 8389SOL    HW126066   6.393   4.004   3.078
 8389SOL    HW226067   6.320   4.151   3.070
 8390SOL     OW26068   3.948   1.554   6.714
 8390SOL    HW126069   3.966   1.531   6.809
 8390SOL    HW226070   3.851   1.543   6.694
 8391SOL     OW26071   6.103   5.541   0.270
 8391SOL    HW126072   6.085   5.448   0.239
 8391SOL    HW226073   6.053   5.606   0.213
 8392SOL     OW26074   6.267   3.764   3.561
 8392SOL    HW126075   6.195   3.697   3.577
 8392SOL    HW226076   6.245   3.819   3.480
 8393SOL     OW26077   6.271   1.129   2.848
 8393SOL    HW126078   6.207   1.134   2.925
 8393SOL    HW226079   6.362   1.159   2.878
 8394SOL     OW26080   5.672   2.920   1.557
 8394SOL    HW126081   5.690   2.895   1.462
 8394SOL    HW226082   5.575   2.905   1.577
 8395SOL     OW26083   2.752   6.723   5.298
 8395SOL    HW126084   2.727   6.661   5.223
 8395SOL    HW226085   2.723   6.816   5.276
 8396SOL     OW26086   5.292   4.770   3.150
 8396SOL    HW126087   5.288   4.802   3.055
 8396SOL    HW226088   5.309   4.848   3.210
 8397SOL     OW26089   0.933   1.329   3.281
 8397SOL    HW126090   0.968   1.287   3.365
 8397SOL    HW226091   1.006   1.331   3.212
 8398SOL     OW26092   4.988   2.854   5.876
 8398SOL    HW126093   4.990   2.870   5.974
 8398SOL    HW226094   4.945   2.932   5.830
 8399SOL     OW26095   6.199   6.360   6.838
 8399SOL    HW126096   6.265   6.312   6.896
 8399SOL    HW226097   6.107   6.346   6.875
 8400SOL     OW26098   1.772   2.307   3.978
 8400SOL    HW126099   1.848   2.318   4.042
 8400SOL    HW226100   1.790   2.229   3.918
 8401SOL     OW26101   1.890   1.621   5.353
 8401SOL    HW126102   1.880   1.538   5.407
 8401SOL    HW226103   1.801   1.664   5.340
 8402SOL     OW26104   5.507   1.756   6.483
 8402SOL    HW126105   5.485   1.742   6.386
 8402SOL    HW226106   5.462   1.839   6.516
 8403SOL     OW26107   0.405   3.391   4.369
 8403SOL    HW126108   0.444   3.315   4.421
 8403SOL    HW226109   0.318   3.363   4.329
 8404SOL     OW26110   3.714   0.104   5.919
 8404SOL    HW126111   3.778   0.181   5.913
 8404SOL    HW226112   3.651   0.119   5.995
 8405SOL     OW26113   3.233   1.746   5.985
 8405SOL    HW126114   3.263   1.776   6.075
 8405SOL    HW226115   3.211   1.825   5.929
 8406SOL     OW26116   4.136   0.122   0.424
 8406SOL    HW126117   4.107   0.056   0.354
 8406SOL    HW226118   4.232   0.108   0.445
 8407SOL     OW26119   3.991   6.483   3.502
 8407SOL    HW126120   3.943   6.455   3.419
 8407SOL    HW226121   3.930   6.538   3.559
 8408SOL     OW26122   5.498   4.953   0.821
 8408SOL    HW126123   5.503   4.883   0.893
 8408SOL    HW226124   5.577   5.013   0.828
 8409SOL     OW26125   4.821   2.333   1.921
 8409SOL    HW126126   4.768   2.267   1.867
 8409SOL    HW226127   4.837   2.296   2.013
 8410SOL     OW26128   6.157   1.909   1.738
 8410SOL    HW126129   6.256   1.899   1.752
 8410SOL    HW226130   6.112   1.922   1.827
 8411SOL     OW26131   0.209   5.815   1.148
 8411SOL    HW126132   0.301   5.842   1.176
 8411SOL    HW226133   0.195   5.717   1.165
 8412SOL     OW26134   3.793   2.103   1.223
 8412SOL    HW126135   3.775   2.175   1.289
 8412SOL    HW226136   3.720   2.101   1.155
 8413SOL     OW26137   4.540   5.838   5.989
 8413SOL    HW126138   4.491   5.848   6.075
 8413SOL    HW226139   4.633   5.806   6.007
 8414SOL     OW26140   2.188   0.876   3.329
 8414SOL    HW126141   2.240   0.797   3.359
 8414SOL    HW226142   2.119   0.899   3.398
 8415SOL     OW26143   1.811   6.653   4.086
 8415SOL    HW126144   1.774   6.743   4.064
 8415SOL    HW226145   1.784   6.627   4.179
 8416SOL     OW26146   6.459   1.677   4.857
 8416SOL    HW126147   6.541   1.706   4.908
 8416SOL    HW226148   6.487   1.639   4.769
 8417SOL     OW26149   1.219   2.989   5.403
 8417SOL    HW126150   1.239   3.034   5.316
 8417SOL    HW226151   1.259   3.042   5.478
 8418SOL     OW26152   0.149   5.209   2.117
 8418SOL    HW126153   0.098   5.126   2.140
 8418SOL    HW226154   0.085   5.287   2.115
 8419SOL     OW26155   5.882   1.146   2.701
 8419SOL    HW126156   5.972   1.166   2.664
 8419SOL    HW226157   5.861   1.049   2.687
 8420SOL     OW26158   3.511   6.446   1.971
 8420SOL    HW126159   3.466   6.510   1.908
 8420SOL    HW226160   3.606   6.433   1.942
 8421SOL     OW26161   3.810   4.608   0.204
 8421SOL    HW126162   3.882   4.640   0.142
 8421SOL    HW226163   3.787   4.513   0.183
 8422SOL     OW26164   4.039   1.581   2.507
 8422SOL    HW126165   4.033   1.485   2.481
 8422SOL    HW226166   4.080   1.588   2.598
 8423SOL     OW26167   4.605   4.337   5.672
 8423SOL    HW126168   4.611   4.435   5.651
 8423SOL    HW226169   4.577   4.287   5.590
 8424SOL     OW26170   1.981   2.474   3.121
 8424SOL    HW126171   2.019   2.502   3.033
 8424SOL    HW226172   1.917   2.544   3.153
 8425SOL     OW26173   4.144   3.607   4.802
 8425SOL    HW126174   4.115   3.610   4.897
 8425SOL    HW226175   4.244   3.600   4.798
 8426SOL     OW26176   3.619   3.225   2.804
 8426SOL    HW126177   3.598   3.131   2.828
 8426SOL    HW226178   3.534   3.273   2.781
 8427SOL     OW26179   3.173   3.828   3.686
 8427SOL    HW126180   3.219   3.917   3.688
 8427SOL    HW226181   3.193   3.783   3.599
 8428SOL     OW26182   0.214   6.718   1.702
 8428SOL    HW126183   0.247   6.812   1.715
 8428SOL    HW226184   0.153   6.694   1.777
 8429SOL     OW26185   1.561   5.606   5.650
 8429SOL    HW126186   1.546   5.614   5.552
 8429SOL    HW226187   1.644   5.553   5.668
 8430SOL     OW26188   4.130   5.068   4.268
 8430SOL    HW126189   4.050   5.029   4.315
 8430SOL    HW226190   4.148   5.017   4.184
 8431SOL     OW26191   3.902   3.765   0.174
 8431SOL    HW126192   3.959   3.808   0.103
 8431SOL    HW226193   3.898   3.667   0.159
 8432SOL     OW26194   6.556   5.224   5.654
 8432SOL    HW126195   6.503   5.292   5.704
 8432SOL    HW226196   6.653   5.236   5.674
 8433SOL     OW26197   4.575   2.797   0.735
 8433SOL    HW126198   4.606   2.745   0.815
 8433SOL    HW226199   4.478   2.777   0.718
 8434SOL     OW26200   2.627   6.824   4.495
 8434SOL    HW126201   2.591   6.857   4.408
 8434SOL    HW226202   2.713   6.776   4.480
 8435SOL     OW26203   5.590   0.176   2.622
 8435SOL    HW126204   5.676   0.126   2.623
 8435SOL    HW226205   5.600   0.261   2.673
 8436SOL     OW26206   3.365   6.460   3.862
 8436SOL    HW126207   3.353   6.479   3.764
 8436SOL    HW226208   3.277   6.473   3.909
 8437SOL     OW26209   2.434   2.467   2.519
 8437SOL    HW126210   2.420   2.475   2.420
 8437SOL    HW226211   2.351   2.433   2.562
 8438SOL     OW26212   2.440   4.517   3.064
 8438SOL    HW126213   2.409   4.458   2.990
 8438SOL    HW226214   2.419   4.613   3.042
 8439SOL     OW26215   6.398   4.469   2.651
 8439SOL    HW126216   6.346   4.546   2.690
 8439SOL    HW226217   6.485   4.460   2.700
 8440SOL     OW26218   2.625   2.492   3.141
 8440SOL    HW126219   2.578   2.426   3.200
 8440SOL    HW226220   2.558   2.542   3.087
 8441SOL     OW26221   5.840   6.011   6.044
 8441SOL    HW126222   5.808   5.938   6.104
 8441SOL    HW226223   5.930   6.042   6.075
 8442SOL     OW26224   3.710   1.198   4.290
 8442SOL    HW126225   3.658   1.280   4.263
 8442SOL    HW226226   3.805   1.208   4.261
 8443SOL     OW26227   2.300   5.133   3.716
 8443SOL    HW126228   2.289   5.036   3.740
 8443SOL    HW226229   2.385   5.146   3.666
 8444SOL     OW26230   3.166   6.827   3.688
 8444SOL    HW126231   3.120   6.915   3.693
 8444SOL    HW226232   3.258   6.840   3.650
 8445SOL     OW26233   3.050   0.357   1.081
 8445SOL    HW126234   2.960   0.337   1.043
 8445SOL    HW226235   3.121   0.332   1.015
 8446SOL     OW26236   6.525   5.091   5.365
 8446SOL    HW126237   6.618   5.060   5.348
 8446SOL    HW226238   6.522   5.142   5.452
 8447SOL     OW26239   3.863   1.402   1.582
 8447SOL    HW126240   3.789   1.406   1.649
 8447SOL    HW226241   3.831   1.354   1.500
 8448SOL     OW26242   4.705   6.212   3.488
 8448SOL    HW126243   4.619   6.195   3.535
 8448SOL    HW226244   4.708   6.307   3.456
 8449SOL     OW26245   0.069   3.162   3.343
 8449SOL    HW126246   0.032   3.254   3.353
 8449SOL    HW226247   0.040   3.123   3.255
 8450SOL     OW26248   0.539   1.063   1.441
 8450SOL    HW126249   0.601   1.005   1.389
 8450SOL    HW226250   0.591   1.136   1.485
 8451SOL     OW26251   3.274   0.988   0.001
 8451SOL    HW126252   3.277   1.053   6.948
 8451SOL    HW226253   3.296   1.035   0.086
 8452SOL     OW26254   5.469   2.714   4.801
 8452SOL    HW126255   5.376   2.750   4.815
 8452SOL    HW226256   5.465   2.616   4.784
 8453SOL     OW26257   0.215   5.467   0.265
 8453SOL    HW126258   0.249   5.547   0.216
 8453SOL    HW226259   0.162   5.409   0.203
 8454SOL     OW26260   0.495   5.400   0.336
 8454SOL    HW126261   0.571   5.336   0.328
 8454SOL    HW226262   0.408   5.351   0.322
 8455SOL     OW26263   6.480   2.390   3.130
 8455SOL    HW126264   6.421   2.466   3.102
 8455SOL    HW226265   6.424   2.312   3.157
 8456SOL     OW26266   4.312   0.565   3.579
 8456SOL    HW126267   4.366   0.495   3.533
 8456SOL    HW226268   4.372   0.625   3.632
 8457SOL     OW26269   6.740   5.903   4.711
 8457SOL    HW126270   6.782   5.994   4.713
 8457SOL    HW226271   6.760   5.859   4.623
 8458SOL     OW26272   1.747   0.254   0.356
 8458SOL    HW126273   1.828   0.197   0.368
 8458SOL    HW226274   1.668   0.196   0.338
 8459SOL     OW26275   2.175   5.801   3.069
 8459SOL    HW126276   2.245   5.815   2.999
 8459SOL    HW226277   2.110   5.876   3.067
 8460SOL     OW26278   4.445   3.952   5.385
 8460SOL    HW126279   4.481   3.924   5.296
 8460SOL    HW226280   4.457   3.878   5.451
 8461SOL     OW26281   0.736   2.628   5.006
 8461SOL    HW126282   0.797   2.555   4.974
 8461SOL    HW226283   0.786   2.691   5.064
 8462SOL     OW26284   3.458   1.690   6.775
 8462SOL    HW126285   3.440   1.667   6.679
 8462SOL    HW226286   3.371   1.701   6.823
 8463SOL     OW26287   6.544   0.344   2.147
 8463SOL    HW126288   6.464   0.401   2.165
 8463SOL    HW226289   6.623   0.402   2.127
 8464SOL     OW26290   5.550   4.586   3.768
 8464SOL    HW126291   5.592   4.641   3.840
 8464SOL    HW226292   5.491   4.645   3.712
 8465SOL     OW26293   1.655   2.432   0.686
 8465SOL    HW126294   1.571   2.377   0.688
 8465SOL    HW226295   1.631   2.528   0.672
 8466SOL     OW26296   1.135   6.836   3.865
 8466SOL    HW126297   1.071   6.763   3.886
 8466SOL    HW226298   1.113   6.876   3.776
 8467SOL     OW26299   2.743   5.848   0.623
 8467SOL    HW126300   2.837   5.826   0.595
 8467SOL    HW226301   2.692   5.882   0.544
 8468SOL     OW26302   3.256   1.388   0.942
 8468SOL    HW126303   3.290   1.401   1.035
 8468SOL    HW226304   3.219   1.475   0.909
 8469SOL     OW26305   3.203   2.590   6.751
 8469SOL    HW126306   3.154   2.544   6.825
 8469SOL    HW226307   3.144   2.593   6.670
 8470SOL     OW26308   2.583   3.603   1.246
 8470SOL    HW126309   2.508   3.668   1.254
 8470SOL    HW226310   2.554   3.515   1.284
 8471SOL     OW26311   2.910   1.074   3.369
 8471SOL    HW126312   2.923   1.040   3.463
 8471SOL    HW226313   2.812   1.082   3.350
 8472SOL     OW26314   0.004   6.774   4.134
 8472SOL    HW126315   0.009   6.759   4.035
 8472SOL    HW226316   0.011   6.872   4.154
 8473SOL     OW26317   0.295   5.325   6.760
 8473SOL    HW126318   0.212   5.270   6.764
 8473SOL    HW226319   0.374   5.269   6.782
 8474SOL     OW26320   3.258   3.079   1.852
 8474SOL    HW126321   3.303   3.087   1.763
 8474SOL    HW226322   3.241   3.170   1.890
 8475SOL     OW26323   6.881   1.264   2.716
 8475SOL    HW126324   6.790   1.248   2.678
 8475SOL    HW226325   6.913   1.354   2.687
 8476SOL     OW26326   6.361   0.692   2.103
 8476SOL    HW126327   6.331   0.695   2.008
 8476SOL    HW226328   6.294   0.739   2.161
 8477SOL     OW26329   2.993   6.549   1.354
 8477SOL    HW126330   2.954   6.462   1.384
 8477SOL    HW226331   2.920   6.617   1.348
 8478SOL     OW26332   1.232   0.658   5.608
 8478SOL    HW126333   1.303   0.621   5.548
 8478SOL    HW226334   1.149   0.602   5.601
 8479SOL     OW26335   5.941   1.356   0.412
 8479SOL    HW126336   5.928   1.309   0.325
 8479SOL    HW226337   5.962   1.290   0.483
 8480SOL     OW26338   3.304   1.081   1.460
 8480SOL    HW126339   3.301   1.173   1.500
 8480SOL    HW226340   3.224   1.068   1.401
 8481SOL     OW26341   4.468   1.627   4.114
 8481SOL    HW126342   4.539   1.566   4.079
 8481SOL    HW226343   4.511   1.708   4.153
 8482SOL     OW26344   2.274   0.078   2.131
 8482SOL    HW126345   2.320   0.074   2.042
 8482SOL    HW226346   2.176   0.071   2.118
 8483SOL     OW26347   3.534   5.865   2.027
 8483SOL    HW126348   3.610   5.865   1.962
 8483SOL    HW226349   3.544   5.940   2.092
 8484SOL     OW26350   6.722   4.863   3.105
 8484SOL    HW126351   6.815   4.858   3.142
 8484SOL    HW226352   6.680   4.948   3.134
 8485SOL     OW26353   1.636   3.497   6.661
 8485SOL    HW126354   1.553   3.542   6.630
 8485SOL    HW226355   1.713   3.525   6.603
 8486SOL     OW26356   5.335   1.281   2.901
 8486SOL    HW126357   5.338   1.378   2.875
 8486SOL    HW226358   5.406   1.231   2.852
 8487SOL     OW26359   5.379   6.880   0.661
 8487SOL    HW126360   5.282   6.871   0.683
 8487SOL    HW226361   5.390   6.943   0.584
 8488SOL     OW26362   5.681   5.292   5.261
 8488SOL    HW126363   5.731   5.357   5.318
 8488SOL    HW226364   5.716   5.200   5.277
 8489SOL     OW26365   6.202   6.817   1.441
 8489SOL    HW126366   6.170   6.764   1.363
 8489SOL    HW226367   6.285   6.775   1.479
 8490SOL     OW26368   4.480   6.164   3.631
 8490SOL    HW126369   4.504   6.130   3.722
 8490SOL    HW226370   4.382   6.151   3.616
 8491SOL     OW26371   2.441   0.508   1.540
 8491SOL    HW126372   2.535   0.474   1.528
 8491SOL    HW226373   2.440   0.606   1.523
 8492SOL     OW26374   4.516   3.855   5.778
 8492SOL    HW126375   4.460   3.903   5.846
 8492SOL    HW226376   4.459   3.831   5.699
 8493SOL     OW26377   3.354   2.140   6.964
 8493SOL    HW126378   3.324   2.095   0.025
 8493SOL    HW226379   3.403   2.074   6.907
 8494SOL     OW26380   1.725   4.506   6.385
 8494SOL    HW126381   1.768   4.472   6.301
 8494SOL    HW226382   1.634   4.465   6.395
 8495SOL     OW26383   0.110   3.271   0.781
 8495SOL    HW126384   0.104   3.194   0.719
 8495SOL    HW226385   0.198   3.270   0.828
 8496SOL     OW26386   0.202   2.128   2.990
 8496SOL    HW126387   0.231   2.220   2.962
 8496SOL    HW226388   0.120   2.136   3.047
 8497SOL     OW26389   5.362   6.484   4.130
 8497SOL    HW126390   5.456   6.451   4.138
 8497SOL    HW226391   5.345   6.515   4.036
 8498SOL     OW26392   0.292   6.231   1.975
 8498SOL    HW126393   0.269   6.313   2.026
 8498SOL    HW226394   0.267   6.244   1.879
 8499SOL     OW26395   2.337   5.546   6.246
 8499SOL    HW126396   2.339   5.453   6.210
 8499SOL    HW226397   2.410   5.559   6.312
 8500SOL     OW26398   2.342   0.620   5.683
 8500SOL    HW126399   2.261   0.636   5.739
 8500SOL    HW226400   2.355   0.697   5.621
 8501SOL     OW26401   1.562   2.147   0.064
 8501SOL    HW126402   1.536   2.156   0.160
 8501SOL    HW226403   1.526   2.062   0.026
 8502SOL     OW26404   1.142   5.067   1.415
 8502SOL    HW126405   1.097   4.986   1.451
 8502SOL    HW226406   1.241   5.051   1.412
 8503SOL     OW26407   1.213   5.251   2.529
 8503SOL    HW126408   1.266   5.189   2.472
 8503SOL    HW226409   1.171   5.200   2.604
 8504SOL     OW26410   1.673   6.068   3.255
 8504SOL    HW126411   1.666   6.120   3.170
 8504SOL    HW226412   1.681   5.971   3.234
 8505SOL     OW26413   5.083   4.237   3.182
 8505SOL    HW126414   5.006   4.194   3.228
 8505SOL    HW226415   5.050   4.299   3.112
 8506SOL     OW26416   0.819   0.029   0.571
 8506SOL    HW126417   0.816   6.977   0.638
 8506SOL    HW226418   0.801   0.115   0.617
 8507SOL     OW26419   2.316   0.414   5.369
 8507SOL    HW126420   2.309   0.316   5.347
 8507SOL    HW226421   2.289   0.428   5.464
 8508SOL     OW26422   6.984   2.828   4.776
 8508SOL    HW126423   6.983   2.915   4.726
 8508SOL    HW226424   0.020   2.763   4.729
 8509SOL     OW26425   6.502   1.549   4.608
 8509SOL    HW126426   6.572   1.492   4.566
 8509SOL    HW226427   6.433   1.573   4.541
 8510SOL     OW26428   6.551   4.950   3.445
 8510SOL    HW126429   6.626   4.979   3.386
 8510SOL    HW226430   6.566   4.856   3.475
 8511SOL     OW26431   5.811   4.393   2.014
 8511SOL    HW126432   5.883   4.355   2.072
 8511SOL    HW226433   5.845   4.475   1.967
 8512SOL     OW26434   3.955   2.431   0.390
 8512SOL    HW126435   3.913   2.501   0.332
 8512SOL    HW226436   4.042   2.402   0.349
 8513SOL     OW26437   4.838   4.148   1.348
 8513SOL    HW126438   4.882   4.072   1.301
 8513SOL    HW226439   4.744   4.122   1.371
 8514SOL     OW26440   2.339   2.713   3.311
 8514SOL    HW126441   2.267   2.649   3.337
 8514SOL    HW226442   2.360   2.702   3.214
 8515SOL     OW26443   0.320   1.311   6.780
 8515SOL    HW126444   0.234   1.338   6.736
 8515SOL    HW226445   0.306   1.225   6.829
 8516SOL     OW26446   6.144   2.963   1.561
 8516SOL    HW126447   6.182   2.916   1.641
 8516SOL    HW226448   6.167   2.913   1.478
 8517SOL     OW26449   2.076   2.497   6.045
 8517SOL    HW126450   2.155   2.493   5.984
 8517SOL    HW226451   2.068   2.410   6.094
 8518SOL     OW26452   5.133   4.082   5.856
 8518SOL    HW126453   5.073   4.067   5.777
 8518SOL    HW226454   5.144   4.180   5.871
 8519SOL     OW26455   0.755   4.978   0.828
 8519SOL    HW126456   0.697   5.045   0.781
 8519SOL    HW226457   0.823   4.942   0.765
 8520SOL     OW26458   2.972   2.831   5.957
 8520SOL    HW126459   2.934   2.858   5.868
 8520SOL    HW226460   3.058   2.880   5.973
 8521SOL     OW26461   2.172   5.693   5.672
 8521SOL    HW126462   2.236   5.769   5.657
 8521SOL    HW226463   2.161   5.678   5.770
 8522SOL     OW26464   0.469   0.111   1.556
 8522SOL    HW126465   0.404   0.066   1.617
 8522SOL    HW226466   0.541   0.154   1.610
 8523SOL     OW26467   2.380   6.805   6.909
 8523SOL    HW126468   2.454   6.865   6.938
 8523SOL    HW226469   2.401   6.711   6.935
 8524SOL     OW26470   1.047   3.845   4.562
 8524SOL    HW126471   1.064   3.793   4.478
 8524SOL    HW226472   1.024   3.782   4.636
 8525SOL     OW26473   5.775   4.864   0.969
 8525SOL    HW126474   5.699   4.884   1.030
 8525SOL    HW226475   5.799   4.947   0.917
 8526SOL     OW26476   3.527   6.700   0.936
 8526SOL    HW126477   3.550   6.770   1.004
 8526SOL    HW226478   3.436   6.718   0.899
 8527SOL     OW26479   3.649   0.380   6.993
 8527SOL    HW126480   3.587   0.310   0.005
 8527SOL    HW226481   3.732   0.337   6.958
 8528SOL     OW26482   3.547   1.548   0.688
 8528SOL    HW126483   3.571   1.632   0.736
 8528SOL    HW226484   3.622   1.520   0.629
 8529SOL     OW26485   1.224   6.776   0.282
 8529SOL    HW126486   1.205   6.812   0.374
 8529SOL    HW226487   1.284   6.839   0.233
 8530SOL     OW26488   3.826   3.419   5.198
 8530SOL    HW126489   3.843   3.478   5.120
 8530SOL    HW226490   3.899   3.351   5.205
 8531SOL     OW26491   6.922   5.721   2.811
 8531SOL    HW126492   7.014   5.687   2.833
 8531SOL    HW226493   6.915   5.817   2.839
 8532SOL     OW26494   3.881   6.040   4.391
 8532SOL    HW126495   3.951   5.969   4.394
 8532SOL    HW226496   3.804   6.010   4.334
 8533SOL     OW26497   1.778   5.840   0.190
 8533SOL    HW126498   1.819   5.752   0.163
 8533SOL    HW226499   1.787   5.852   0.288
 8534SOL     OW26500   4.974   2.735   3.984
 8534SOL    HW126501   5.056   2.770   3.938
 8534SOL    HW226502   4.979   2.635   3.988
 8535SOL     OW26503   5.894   1.459   3.981
 8535SOL    HW126504   5.794   1.453   3.984
 8535SOL    HW226505   5.921   1.539   3.928
 8536SOL     OW26506   0.499   1.598   5.258
 8536SOL    HW126507   0.593   1.564   5.263
 8536SOL    HW226508   0.455   1.564   5.175
 8537SOL     OW26509   5.574   1.533   3.362
 8537SOL    HW126510   5.640   1.482   3.308
 8537SOL    HW226511   5.489   1.480   3.370
 8538SOL     OW26512   2.018   1.247   6.865
 8538SOL    HW126513   2.038   1.184   6.791
 8538SOL    HW226514   1.927   1.228   6.902
 8539SOL     OW26515   6.729   2.004   2.236
 8539SOL    HW126516   6.738   2.103   2.231
 8539SOL    HW226517   6.654   1.980   2.298
 8540SOL     OW26518   5.540   0.005   6.735
 8540SOL    HW126519   5.544   6.928   6.738
 8540SOL    HW226520   5.589   0.037   6.654
 8541SOL     OW26521   3.735   1.743   3.548
 8541SOL    HW126522   3.677   1.821   3.529
 8541SOL    HW226523   3.821   1.752   3.498
 8542SOL     OW26524   3.609   4.494   6.462
 8542SOL    HW126525   3.573   4.415   6.512
 8542SOL    HW226526   3.703   4.513   6.493
 8543SOL     OW26527   2.037   1.616   1.642
 8543SOL    HW126528   1.969   1.610   1.715
 8543SOL    HW226529   1.992   1.631   1.554
 8544SOL     OW26530   5.741   3.144   4.237
 8544SOL    HW126531   5.795   3.219   4.276
 8544SOL    HW226532   5.697   3.175   4.152
 8545SOL     OW26533   4.224   0.071   5.674
 8545SOL    HW126534   4.256   0.034   5.586
 8545SOL    HW226535   4.283   0.147   5.701
 8546SOL     OW26536   5.710   2.131   4.300
 8546SOL    HW126537   5.773   2.063   4.339
 8546SOL    HW226538   5.716   2.127   4.200
 8547SOL     OW26539   0.366   6.389   5.775
 8547SOL    HW126540   0.337   6.453   5.704
 8547SOL    HW226541   0.412   6.440   5.848
 8548SOL     OW26542   5.867   2.829   5.582
 8548SOL    HW126543   5.784   2.842   5.528
 8548SOL    HW226544   5.895   2.733   5.578
 8549SOL     OW26545   0.409   3.597   3.767
 8549SOL    HW126546   0.319   3.639   3.773
 8549SOL    HW226547   0.403   3.502   3.798
 8550SOL     OW26548   1.946   4.622   6.110
 8550SOL    HW126549   1.905   4.538   6.145
 8550SOL    HW226550   1.980   4.606   6.017
 8551SOL     OW26551   3.460   3.724   6.267
 8551SOL    HW126552   3.541   3.780   6.247
 8551SOL    HW226553   3.452   3.709   6.365
 8552SOL     OW26554   2.825   6.223   4.119
 8552SOL    HW126555   2.818   6.149   4.186
 8552SOL    HW226556   2.779   6.197   4.034
 8553SOL     OW26557   5.238   5.561   6.380
 8553SOL    HW126558   5.336   5.548   6.364
 8553SOL    HW226559   5.218   5.545   6.477
 8554SOL     OW26560   0.744   4.732   0.533
 8554SOL    HW126561   0.827   4.763   0.581
 8554SOL    HW226562   0.690   4.812   0.506
 8555SOL     OW26563   0.793   0.367   3.134
 8555SOL    HW126564   0.857   0.333   3.203
 8555SOL    HW226565   0.842   0.387   3.050
 8556SOL     OW26566   0.838   6.797   3.443
 8556SOL    HW126567   0.883   6.730   3.384
 8556SOL    HW226568   0.907   6.845   3.497
 8557SOL     OW26569   6.659   1.608   2.011
 8557SOL    HW126570   6.730   1.552   2.054
 8557SOL    HW226571   6.587   1.549   1.974
 8558SOL     OW26572   2.610   5.805   2.944
 8558SOL    HW126573   2.676   5.879   2.944
 8558SOL    HW226574   2.600   5.768   3.037
 8559SOL     OW26575   6.285   0.624   2.617
 8559SOL    HW126576   6.373   0.605   2.660
 8559SOL    HW226577   6.262   0.720   2.628
 8560SOL     OW26578   6.890   0.084   1.211
 8560SOL    HW126579   6.945   0.034   1.278
 8560SOL    HW226580   6.810   0.029   1.186
 8561SOL     OW26581   3.391   6.084   2.192
 8561SOL    HW126582   3.357   6.178   2.204
 8561SOL    HW226583   3.346   6.024   2.258
 8562SOL     OW26584   4.970   6.778   5.091
 8562SOL    HW126585   4.949   6.779   4.993
 8562SOL    HW226586   4.912   6.844   5.138
 8563SOL     OW26587   2.544   3.086   6.825
 8563SOL    HW126588   2.475   3.023   6.859
 8563SOL    HW226589   2.550   3.078   6.726
 8564SOL     OW26590   2.538   0.879   3.525
 8564SOL    HW126591   2.502   0.970   3.502
 8564SOL    HW226592   2.479   0.809   3.483
 8565SOL     OW26593   4.788   6.816   1.428
 8565SOL    HW126594   4.707   6.867   1.456
 8565SOL    HW226595   4.766   6.718   1.425
 8566SOL     OW26596   0.935   1.252   2.116
 8566SOL    HW126597   0.974   1.302   2.039
 8566SOL    HW226598   1.005   1.195   2.158
 8567SOL     OW26599   0.040   1.749   1.881
 8567SOL    HW126600   0.088   1.810   1.944
 8567SOL    HW226601   0.047   1.785   1.788
 8568SOL     OW26602   4.627   1.068   6.577
 8568SOL    HW126603   4.670   1.144   6.528
 8568SOL    HW226604   4.578   1.010   6.512
 8569SOL     OW26605   4.866   1.311   5.886
 8569SOL    HW126606   4.932   1.366   5.938
 8569SOL    HW226607   4.914   1.236   5.841
 8570SOL     OW26608   1.061   2.312   6.186
 8570SOL    HW126609   1.013   2.267   6.261
 8570SOL    HW226610   1.151   2.270   6.174
 8571SOL     OW26611   6.896   5.469   5.927
 8571SOL    HW126612   6.965   5.541   5.917
 8571SOL    HW226613   6.897   5.436   6.022
 8572SOL     OW26614   3.117   5.313   6.053
 8572SOL    HW126615   3.146   5.387   6.113
 8572SOL    HW226616   3.158   5.227   6.083
 8573SOL     OW26617   3.917   6.202   6.796
 8573SOL    HW126618   3.878   6.257   6.870
 8573SOL    HW226619   3.856   6.206   6.716
 8574SOL     OW26620   0.226   4.915   5.176
 8574SOL    HW126621   0.310   4.957   5.142
 8574SOL    HW226622   0.212   4.827   5.132
 8575SOL     OW26623   3.068   2.434   0.270
 8575SOL    HW126624   3.025   2.357   0.223
 8575SOL    HW226625   3.144   2.468   0.215
 8576SOL     OW26626   0.990   6.692   0.643
 8576SOL    HW126627   1.090   6.700   0.641
 8576SOL    HW226628   0.954   6.707   0.551
 8577SOL     OW26629   6.440   4.955   4.664
 8577SOL    HW126630   6.504   5.005   4.723
 8577SOL    HW226631   6.480   4.944   4.573
 8578SOL     OW26632   5.037   0.518   4.082
 8578SOL    HW126633   4.982   0.507   4.164
 8578SOL    HW226634   4.988   0.576   4.016
 8579SOL     OW26635   1.617   5.713   3.522
 8579SOL    HW126636   1.611   5.613   3.518
 8579SOL    HW226637   1.541   5.753   3.470
 8580SOL     OW26638   2.483   6.811   2.071
 8580SOL    HW126639   2.518   6.901   2.098
 8580SOL    HW226640   2.477   6.752   2.152
 8581SOL     OW26641   3.152   2.705   1.615
 8581SOL    HW126642   3.181   2.735   1.706
 8581SOL    HW226643   3.185   2.612   1.599
 8582SOL     OW26644   4.527   4.539   2.246
 8582SOL    HW126645   4.602   4.542   2.179
 8582SOL    HW226646   4.555   4.485   2.325
 8583SOL     OW26647   5.943   0.796   5.869
 8583SOL    HW126648   5.948   0.836   5.777
 8583SOL    HW226649   5.849   0.802   5.902
 8584SOL     OW26650   0.577   4.085   6.572
 8584SOL    HW126651   0.644   4.159   6.575
 8584SOL    HW226652   0.561   4.058   6.477
 8585SOL     OW26653   6.917   6.615   0.257
 8585SOL    HW126654   6.972   6.650   0.333
 8585SOL    HW226655   6.841   6.678   0.238
 8586SOL     OW26656   2.666   6.251   3.310
 8586SOL    HW126657   2.715   6.337   3.322
 8586SOL    HW226658   2.570   6.263   3.335
 8587SOL     OW26659   1.097   0.290   3.020
 8587SOL    HW126660   1.150   0.209   2.993
 8587SOL    HW226661   1.142   0.372   2.984
 8588SOL     OW26662   2.944   0.883   0.065
 8588SOL    HW126663   2.939   0.808   0.131
 8588SOL    HW226664   2.952   0.970   0.114
 8589SOL     OW26665   4.437   2.072   4.735
 8589SOL    HW126666   4.352   2.044   4.691
 8589SOL    HW226667   4.505   2.094   4.665
 8590SOL     OW26668   6.736   5.866   4.050
 8590SOL    HW126669   6.733   5.832   3.956
 8590SOL    HW226670   6.672   5.815   4.107
 8591SOL     OW26671   0.978   4.608   6.224
 8591SOL    HW126672   1.066   4.621   6.178
 8591SOL    HW226673   0.934   4.697   6.237
 8592SOL     OW26674   7.022   4.255   0.257
 8592SOL    HW126675   0.080   4.231   0.203
 8592SOL    HW226676   0.007   4.349   0.289
 8593SOL     OW26677   1.411   6.778   2.295
 8593SOL    HW126678   1.432   6.876   2.295
 8593SOL    HW226679   1.463   6.733   2.368
 8594SOL     OW26680   3.622   3.789   5.083
 8594SOL    HW126681   3.591   3.846   5.007
 8594SOL    HW226682   3.549   3.782   5.151
 8595SOL     OW26683   2.346   1.524   2.559
 8595SOL    HW126684   2.349   1.542   2.461
 8595SOL    HW226685   2.400   1.442   2.580
 8596SOL     OW26686   6.162   5.244   2.383
 8596SOL    HW126687   6.232   5.277   2.446
 8596SOL    HW226688   6.071   5.269   2.417
 8597SOL     OW26689   4.235   2.227   1.290
 8597SOL    HW126690   4.188   2.220   1.378
 8597SOL    HW226691   4.168   2.248   1.219
 8598SOL     OW26692   0.171   5.473   1.624
 8598SOL    HW126693   0.109   5.433   1.691
 8598SOL    HW226694   0.232   5.539   1.668
 8599SOL     OW26695   1.010   2.963   4.013
 8599SOL    HW126696   1.104   2.950   3.981
 8599SOL    HW226697   0.954   2.886   3.983
 8600SOL     OW26698   5.846   5.113   6.927
 8600SOL    HW126699   5.909   5.082   6.855
 8600SOL    HW226700   5.756   5.071   6.913
 8601SOL     OW26701   0.581   1.090   4.540
 8601SOL    HW126702   0.576   1.057   4.634
 8601SOL    HW226703   0.518   1.167   4.528
 8602SOL     OW26704   2.292   6.444   2.604
 8602SOL    HW126705   2.318   6.392   2.522
 8602SOL    HW226706   2.240   6.385   2.666
 8603SOL     OW26707   3.791   4.167   0.603
 8603SOL    HW126708   3.733   4.244   0.629
 8603SOL    HW226709   3.871   4.202   0.554
 8604SOL     OW26710   6.278   3.095   3.371
 8604SOL    HW126711   6.274   3.193   3.348
 8604SOL    HW226712   6.242   3.082   3.463
 8605SOL     OW26713   3.474   4.940   4.419
 8605SOL    HW126714   3.390   4.900   4.454
 8605SOL    HW226715   3.472   4.939   4.319
 8606SOL     OW26716   2.152   4.542   5.571
 8606SOL    HW126717   2.139   4.537   5.472
 8606SOL    HW226718   2.231   4.486   5.597
 8607SOL     OW26719   2.706   4.882   1.083
 8607SOL    HW126720   2.762   4.831   1.148
 8607SOL    HW226721   2.661   4.819   1.020
 8608SOL     OW26722   5.110   4.971   2.998
 8608SOL    HW126723   5.077   5.014   3.082
 8608SOL    HW226724   5.062   4.885   2.984
 8609SOL     OW26725   4.439   0.843   4.100
 8609SOL    HW126726   4.386   0.803   4.175
 8609SOL    HW226727   4.416   0.940   4.090
 8610SOL     OW26728   1.283   0.323   2.759
 8610SOL    HW126729   1.320   0.346   2.849
 8610SOL    HW226730   1.210   0.387   2.735
 8611SOL     OW26731   1.857   2.624   3.802
 8611SOL    HW126732   1.843   2.545   3.743
 8611SOL    HW226733   1.865   2.706   3.746
 8612SOL     OW26734   3.229   3.092   6.803
 8612SOL    HW126735   3.247   3.152   6.725
 8612SOL    HW226736   3.282   3.008   6.794
 8613SOL     OW26737   2.369   1.220   1.235
 8613SOL    HW126738   2.430   1.281   1.184
 8613SOL    HW226739   2.277   1.223   1.195
 8614SOL     OW26740   0.672   3.871   2.773
 8614SOL    HW126741   0.679   3.954   2.828
 8614SOL    HW226742   0.697   3.792   2.829
 8615SOL     OW26743   5.227   1.880   4.919
 8615SOL    HW126744   5.268   1.803   4.870
 8615SOL    HW226745   5.261   1.966   4.881
 8616SOL     OW26746   1.038   5.139   0.961
 8616SOL    HW126747   0.998   5.061   1.007
 8616SOL    HW226748   0.969   5.210   0.949
 8617SOL     OW26749   6.043   1.270   0.100
 8617SOL    HW126750   6.130   1.320   0.092
 8617SOL    HW226751   6.059   1.186   0.151
 8618SOL     OW26752   5.227   6.946   1.205
 8618SOL    HW126753   5.207   0.012   1.247
 8618SOL    HW226754   5.172   6.875   1.249
 8619SOL     OW26755   3.760   4.888   0.780
 8619SOL    HW126756   3.787   4.893   0.683
 8619SOL    HW226757   3.772   4.977   0.822
 8620SOL     OW26758   6.066   6.825   3.485
 8620SOL    HW126759   5.991   6.864   3.431
 8620SOL    HW226760   6.063   6.725   3.479
 8621SOL     OW26761   5.892   1.456   3.519
 8621SOL    HW126762   5.982   1.421   3.543
 8621SOL    HW226763   5.829   1.380   3.506
 8622SOL     OW26764   4.594   4.822   0.936
 8622SOL    HW126765   4.613   4.827   0.838
 8622SOL    HW226766   4.640   4.898   0.983
 8623SOL     OW26767   0.179   4.315   3.121
 8623SOL    HW126768   0.219   4.226   3.102
 8623SOL    HW226769   0.252   4.381   3.140
 8624SOL     OW26770   1.310   4.934   3.672
 8624SOL    HW126771   1.389   4.873   3.664
 8624SOL    HW226772   1.281   4.939   3.767
 8625SOL     OW26773   4.831   0.552   4.268
 8625SOL    HW126774   4.813   0.628   4.207
 8625SOL    HW226775   4.745   0.509   4.295
 8626SOL     OW26776   3.939   3.069   4.497
 8626SOL    HW126777   3.914   3.019   4.414
 8626SOL    HW226778   3.916   3.166   4.486
 8627SOL     OW26779   1.282   0.523   2.493
 8627SOL    HW126780   1.352   0.473   2.544
 8627SOL    HW226781   1.267   0.612   2.535
 8628SOL     OW26782   6.501   6.858   1.346
 8628SOL    HW126783   6.470   6.921   1.418
 8628SOL    HW226784   6.545   6.910   1.273
 8629SOL     OW26785   1.735   5.582   4.606
 8629SOL    HW126786   1.692   5.492   4.603
 8629SOL    HW226787   1.781   5.600   4.519
 8630SOL     OW26788   6.111   4.059   4.629
 8630SOL    HW126789   6.121   4.005   4.713
 8630SOL    HW226790   6.017   4.049   4.595
 8631SOL     OW26791   4.102   6.201   6.347
 8631SOL    HW126792   4.071   6.296   6.353
 8631SOL    HW226793   4.124   6.167   6.439
 8632SOL     OW26794   3.596   6.433   3.544
 8632SOL    HW126795   3.678   6.487   3.562
 8632SOL    HW226796   3.517   6.477   3.586
 8633SOL     OW26797   5.145   1.064   4.426
 8633SOL    HW126798   5.113   1.158   4.435
 8633SOL    HW226799   5.221   1.060   4.361
 8634SOL     OW26800   6.194   3.064   1.080
 8634SOL    HW126801   6.116   3.018   1.040
 8634SOL    HW226802   6.275   3.049   1.024
 8635SOL     OW26803   6.128   4.083   5.906
 8635SOL    HW126804   6.054   4.015   5.914
 8635SOL    HW226805   6.215   4.037   5.896
 8636SOL     OW26806   5.598   4.951   6.862
 8636SOL    HW126807   5.647   4.918   6.781
 8636SOL    HW226808   5.538   4.879   6.897
 8637SOL     OW26809   1.667   0.406   0.586
 8637SOL    HW126810   1.700   0.362   0.503
 8637SOL    HW226811   1.745   0.427   0.645
 8638SOL     OW26812   1.968   3.427   0.128
 8638SOL    HW126813   1.997   3.505   0.072
 8638SOL    HW226814   2.021   3.346   0.102
 8639SOL     OW26815   6.098   2.627   1.712
 8639SOL    HW126816   6.136   2.535   1.699
 8639SOL    HW226817   6.045   2.652   1.632
 8640SOL     OW26818   4.566   4.100   0.602
 8640SOL    HW126819   4.657   4.085   0.563
 8640SOL    HW226820   4.559   4.053   0.690
 8641SOL     OW26821   6.977   4.210   4.607
 8641SOL    HW126822   6.935   4.165   4.686
 8641SOL    HW226823   0.023   4.150   4.568
 8642SOL     OW26824   4.062   0.498   2.740
 8642SOL    HW126825   4.081   0.441   2.660
 8642SOL    HW226826   4.003   0.448   2.803
 8643SOL     OW26827   3.996   6.852   6.887
 8643SOL    HW126828   3.997   6.773   6.825
 8643SOL    HW226829   4.054   6.832   6.966
 8644SOL     OW26830   4.717   2.506   5.736
 8644SOL    HW126831   4.627   2.546   5.753
 8644SOL    HW226832   4.737   2.508   5.638
 8645SOL     OW26833   5.433   4.734   1.556
 8645SOL    HW126834   5.426   4.826   1.596
 8645SOL    HW226835   5.392   4.734   1.465
 8646SOL     OW26836   5.714   1.110   1.367
 8646SOL    HW126837   5.704   1.098   1.268
 8646SOL    HW226838   5.761   1.030   1.405
 8647SOL     OW26839   3.864   4.945   6.188
 8647SOL    HW126840   3.843   4.848   6.184
 8647SOL    HW226841   3.896   4.976   6.099
 8648SOL     OW26842   5.651   1.641   4.851
 8648SOL    HW126843   5.586   1.628   4.776
 8648SOL    HW226844   5.608   1.695   4.923
 8649SOL     OW26845   5.499   5.269   5.848
 8649SOL    HW126846   5.468   5.255   5.942
 8649SOL    HW226847   5.479   5.188   5.793
 8650SOL     OW26848   1.421   4.697   4.551
 8650SOL    HW126849   1.478   4.772   4.518
 8650SOL    HW226850   1.407   4.631   4.476
 8651SOL     OW26851   3.913   0.528   0.593
 8651SOL    HW126852   3.880   0.579   0.513
 8651SOL    HW226853   3.837   0.476   0.633
 8652SOL     OW26854   1.559   4.319   3.161
 8652SOL    HW126855   1.470   4.323   3.116
 8652SOL    HW226856   1.565   4.236   3.217
 8653SOL     OW26857   5.782   2.281   5.869
 8653SOL    HW126858   5.777   2.370   5.824
 8653SOL    HW226859   5.761   2.291   5.966
 8654SOL     OW26860   1.042   6.352   1.814
 8654SOL    HW126861   1.122   6.397   1.856
 8654SOL    HW226862   1.018   6.399   1.730
 8655SOL     OW26863   5.916   0.805   3.861
 8655SOL    HW126864   5.882   0.790   3.768
 8655SOL    HW226865   6.002   0.855   3.857
 8656SOL     OW26866   6.538   1.443   1.383
 8656SOL    HW126867   6.555   1.541   1.366
 8656SOL    HW226868   6.613   1.390   1.344
 8657SOL     OW26869   4.339   4.781   6.921
 8657SOL    HW126870   4.258   4.725   6.903
 8657SOL    HW226871   4.389   4.796   6.836
 8658SOL     OW26872   4.726   6.010   0.142
 8658SOL    HW126873   4.661   6.077   0.106
 8658SOL    HW226874   4.807   6.056   0.176
 8659SOL     OW26875   4.745   1.218   3.193
 8659SOL    HW126876   4.682   1.259   3.259
 8659SOL    HW226877   4.705   1.223   3.102
 8660SOL     OW26878   4.893   3.636   0.789
 8660SOL    HW126879   4.871   3.730   0.817
 8660SOL    HW226880   4.917   3.583   0.870
 8661SOL     OW26881   5.625   3.979   1.800
 8661SOL    HW126882   5.664   3.888   1.787
 8661SOL    HW226883   5.699   4.045   1.810
 8662SOL     OW26884   4.946   6.256   1.781
 8662SOL    HW126885   5.044   6.253   1.802
 8662SOL    HW226886   4.929   6.213   1.693
 8663SOL     OW26887   2.390   5.742   0.674
 8663SOL    HW126888   2.432   5.780   0.756
 8663SOL    HW226889   2.374   5.815   0.608
 8664SOL     OW26890   3.327   5.163   0.688
 8664SOL    HW126891   3.290   5.079   0.648
 8664SOL    HW226892   3.290   5.175   0.780
 8665SOL     OW26893   5.389   5.604   5.335
 8665SOL    HW126894   5.321   5.658   5.288
 8665SOL    HW226895   5.397   5.514   5.291
 8666SOL     OW26896   5.551   2.427   5.260
 8666SOL    HW126897   5.597   2.374   5.331
 8666SOL    HW226898   5.598   2.414   5.173
 8667SOL     OW26899   4.600   2.314   3.268
 8667SOL    HW126900   4.542   2.234   3.285
 8667SOL    HW226901   4.568   2.362   3.187
 8668SOL     OW26902   5.173   2.772   3.744
 8668SOL    HW126903   5.126   2.688   3.720
 8668SOL    HW226904   5.221   2.807   3.663
 8669SOL     OW26905   2.935   6.826   6.555
 8669SOL    HW126906   2.926   6.738   6.601
 8669SOL    HW226907   2.878   6.894   6.602
 8670SOL     OW26908   3.473   4.700   5.406
 8670SOL    HW126909   3.411   4.630   5.371
 8670SOL    HW226910   3.437   4.737   5.491
 8671SOL     OW26911   5.561   1.285   4.055
 8671SOL    HW126912   5.528   1.229   3.980
 8671SOL    HW226913   5.561   1.382   4.028
 8672SOL     OW26914   2.432   5.960   4.041
 8672SOL    HW126915   2.501   5.922   4.103
 8672SOL    HW226916   2.420   5.899   3.963
 8673SOL     OW26917   0.320   0.986   6.905
 8673SOL    HW126918   0.266   0.915   6.950
 8673SOL    HW226919   0.415   0.980   6.934
 8674SOL     OW26920   6.710   5.858   1.341
 8674SOL    HW126921   6.709   5.823   1.434
 8674SOL    HW226922   6.801   5.893   1.318
 8675SOL     OW26923   3.415   1.752   3.798
 8675SOL    HW126924   3.487   1.817   3.773
 8675SOL    HW226925   3.330   1.803   3.817
 8676SOL     OW26926   3.696   6.850   3.309
 8676SOL    HW126927   3.711   6.821   3.403
 8676SOL    HW226928   3.600   6.839   3.285
 8677SOL     OW26929   2.354   5.890   5.737
 8677SOL    HW126930   2.445   5.925   5.713
 8677SOL    HW226931   2.357   5.845   5.826
 8678SOL     OW26932   0.237   0.572   0.845
 8678SOL    HW126933   0.285   0.653   0.812
 8678SOL    HW226934   0.153   0.600   0.893
 8679SOL     OW26935   6.357   2.938   4.929
 8679SOL    HW126936   6.457   2.941   4.926
 8679SOL    HW226937   6.327   2.845   4.950
 8680SOL     OW26938   0.501   3.613   1.244
 8680SOL    HW126939   0.464   3.615   1.337
 8680SOL    HW226940   0.441   3.558   1.186
 8681SOL     OW26941   4.623   4.770   0.634
 8681SOL    HW126942   4.537   4.734   0.671
 8681SOL    HW226943   4.655   4.712   0.560
 8682SOL     OW26944   4.027   6.945   2.413
 8682SOL    HW126945   4.067   6.934   2.504
 8682SOL    HW226946   3.932   6.914   2.413
 8683SOL     OW26947   1.385   2.593   1.841
 8683SOL    HW126948   1.356   2.587   1.937
 8683SOL    HW226949   1.335   2.668   1.796
 8684SOL     OW26950   0.470   3.210   4.552
 8684SOL    HW126951   0.388   3.221   4.608
 8684SOL    HW226952   0.551   3.231   4.608
 8685SOL     OW26953   1.065   2.453   5.945
 8685SOL    HW126954   0.969   2.440   5.918
 8685SOL    HW226955   1.077   2.421   6.039
 8686SOL     OW26956   6.443   1.846   1.727
 8686SOL    HW126957   6.431   1.843   1.826
 8686SOL    HW226958   6.538   1.821   1.705
 8687SOL     OW26959   3.609   6.047   3.008
 8687SOL    HW126960   3.542   6.071   3.079
 8687SOL    HW226961   3.563   6.043   2.919
 8688SOL     OW26962   2.568   6.465   0.337
 8688SOL    HW126963   2.523   6.447   0.250
 8688SOL    HW226964   2.627   6.545   0.329
 8689SOL     OW26965   3.499   4.674   0.152
 8689SOL    HW126966   3.510   4.769   0.122
 8689SOL    HW226967   3.585   4.641   0.190
 8690SOL     OW26968   1.812   2.453   3.502
 8690SOL    HW126969   1.819   2.552   3.497
 8690SOL    HW226970   1.726   2.423   3.459
 8691SOL     OW26971   4.390   2.665   6.229
 8691SOL    HW126972   4.387   2.565   6.232
 8691SOL    HW226973   4.383   2.696   6.134
 8692SOL     OW26974   3.552   2.061   2.780
 8692SOL    HW126975   3.567   1.963   2.792
 8692SOL    HW226976   3.528   2.080   2.684
 8693SOL     OW26977   5.497   1.589   0.891
 8693SOL    HW126978   5.556   1.637   0.956
 8693SOL    HW226979   5.513   1.490   0.898
 8694SOL     OW26980   4.224   1.142   6.286
 8694SOL    HW126981   4.184   1.060   6.244
 8694SOL    HW226982   4.155   1.189   6.341
 8695SOL     OW26983   4.360   2.833   6.017
 8695SOL    HW126984   4.452   2.871   6.001
 8695SOL    HW226985   4.301   2.858   5.940
 8696SOL     OW26986   3.254   6.030   0.826
 8696SOL    HW126987   3.331   6.081   0.864
 8696SOL    HW226988   3.169   6.061   0.869
 8697SOL     OW26989   6.445   3.452   0.837
 8697SOL    HW126990   6.440   3.504   0.752
 8697SOL    HW226991   6.514   3.492   0.898
 8698SOL     OW26992   5.928   6.061   3.997
 8698SOL    HW126993   5.948   6.078   4.093
 8698SOL    HW226994   5.854   5.993   3.991
 8699SOL     OW26995   1.533   2.590   5.378
 8699SOL    HW126996   1.597   2.660   5.409
 8699SOL    HW226997   1.444   2.631   5.358
 8700SOL     OW26998   2.466   1.218   4.498
 8700SOL    HW126999   2.455   1.124   4.531
 8700SOL    HW227000   2.376   1.261   4.490
 8701SOL     OW27001   1.436   0.575   6.906
 8701SOL    HW127002   1.459   0.523   6.824
 8701SOL    HW227003   1.346   0.547   6.939
 8702SOL     OW27004   5.382   4.920   0.372
 8702SOL    HW127005   5.382   5.015   0.406
 8702SOL    HW227006   5.423   4.861   0.442
 8703SOL     OW27007   2.638   5.574   1.328
 8703SOL    HW127008   2.664   5.514   1.403
 8703SOL    HW227009   2.692   5.552   1.247
 8704SOL     OW27010   6.119   3.658   2.560
 8704SOL    HW127011   6.048   3.617   2.618
 8704SOL    HW227012   6.148   3.591   2.492
 8705SOL     OW27013   4.826   0.767   0.578
 8705SOL    HW127014   4.824   0.667   0.580
 8705SOL    HW227015   4.834   0.801   0.672
 8706SOL     OW27016   4.534   1.899   6.009
 8706SOL    HW127017   4.483   1.832   6.064
 8706SOL    HW227018   4.556   1.979   6.064
 8707SOL     OW27019   5.128   2.241   6.959
 8707SOL    HW127020   5.081   2.165   6.913
 8707SOL    HW227021   5.112   2.235   0.034
 8708SOL     OW27022   4.239   2.255   2.276
 8708SOL    HW127023   4.151   2.250   2.322
 8708SOL    HW227024   4.269   2.163   2.251
 8709SOL     OW27025   6.672   6.079   6.368
 8709SOL    HW127026   6.700   6.058   6.461
 8709SOL    HW227027   6.743   6.135   6.324
 8710SOL     OW27028   1.968   3.684   3.075
 8710SOL    HW127029   2.012   3.651   3.158
 8710SOL    HW227030   2.012   3.768   3.044
 8711SOL     OW27031   0.136   6.025   2.540
 8711SOL    HW127032   0.115   6.096   2.606
 8711SOL    HW227033   0.199   5.958   2.581
 8712SOL     OW27034   4.208   2.123   4.269
 8712SOL    HW127035   4.223   2.123   4.170
 8712SOL    HW227036   4.290   2.159   4.314
 8713SOL     OW27037   0.409   4.248   3.544
 8713SOL    HW127038   0.507   4.234   3.532
 8713SOL    HW227039   0.393   4.314   3.617
 8714SOL     OW27040   0.333   0.984   6.013
 8714SOL    HW127041   0.273   0.915   5.972
 8714SOL    HW227042   0.294   1.017   6.098
 8715SOL     OW27043   5.144   0.294   0.781
 8715SOL    HW127044   5.080   0.226   0.817
 8715SOL    HW227045   5.238   0.263   0.797
 8716SOL     OW27046   0.943   0.624   1.463
 8716SOL    HW127047   0.913   0.571   1.383
 8716SOL    HW227048   1.043   0.630   1.463
 8717SOL     OW27049   3.989   3.048   2.848
 8717SOL    HW127050   3.975   3.146   2.835
 8717SOL    HW227051   3.947   2.997   2.773
 8718SOL     OW27052   0.781   3.156   5.279
 8718SOL    HW127053   0.858   3.097   5.258
 8718SOL    HW227054   0.791   3.194   5.371
 8719SOL     OW27055   1.871   0.051   6.067
 8719SOL    HW127056   1.793   0.067   6.007
 8719SOL    HW227057   1.856   0.095   6.155
 8720SOL     OW27058   6.345   5.080   5.727
 8720SOL    HW127059   6.266   5.119   5.680
 8720SOL    HW227060   6.428   5.127   5.697
 8721SOL     OW27061   5.648   2.144   3.797
 8721SOL    HW127062   5.600   2.217   3.748
 8721SOL    HW227063   5.646   2.061   3.742
 8722SOL     OW27064   3.737   0.753   0.732
 8722SOL    HW127065   3.678   0.684   0.690
 8722SOL    HW227066   3.693   0.843   0.726
 8723SOL     OW27067   5.537   6.009   1.215
 8723SOL    HW127068   5.529   6.060   1.130
 8723SOL    HW227069   5.446   5.983   1.248
 8724SOL     OW27070   6.270   0.067   5.128
 8724SOL    HW127071   6.251   0.161   5.156
 8724SOL    HW227072   6.264   0.060   5.029
 8725SOL     OW27073   2.729   6.981   6.702
 8725SOL    HW127074   2.704   0.018   6.777
 8725SOL    HW227075   2.664   6.905   6.697
 8726SOL     OW27076   6.327   1.000   1.863
 8726SOL    HW127077   6.247   0.973   1.809
 8726SOL    HW227078   6.408   0.952   1.828
 8727SOL     OW27079   6.914   0.084   1.685
 8727SOL    HW127080   7.010   0.107   1.696
 8727SOL    HW227081   6.860   0.131   1.755
 8728SOL     OW27082   3.920   0.145   4.520
 8728SOL    HW127083   3.836   0.096   4.499
 8728SOL    HW227084   3.999   0.086   4.503
 8729SOL     OW27085   4.588   6.091   3.267
 8729SOL    HW127086   4.642   6.135   3.338
 8729SOL    HW227087   4.508   6.048   3.308
 8730SOL     OW27088   6.513   4.596   2.452
 8730SOL    HW127089   6.460   4.544   2.520
 8730SOL    HW227090   6.604   4.556   2.444
 8731SOL     OW27091   1.932   1.635   2.674
 8731SOL    HW127092   1.836   1.620   2.653
 8731SOL    HW227093   1.941   1.674   2.766
 8732SOL     OW27094   5.176   4.734   1.877
 8732SOL    HW127095   5.177   4.635   1.889
 8732SOL    HW227096   5.160   4.756   1.781
 8733SOL     OW27097   1.515   5.800   3.272
 8733SOL    HW127098   1.521   5.701   3.280
 8733SOL    HW227099   1.439   5.824   3.211
 8734SOL     OW27100   0.785   4.658   1.874
 8734SOL    HW127101   0.696   4.630   1.837
 8734SOL    HW227102   0.782   4.756   1.896
 8735SOL     OW27103   0.722   1.652   6.952
 8735SOL    HW127104   0.782   1.680   6.877
 8735SOL    HW227105   0.701   1.731   7.009
 8736SOL     OW27106   0.673   6.628   6.985
 8736SOL    HW127107   0.769   6.602   6.997
 8736SOL    HW227108   0.667   6.725   6.963
 8737SOL     OW27109   2.966   6.946   5.770
 8737SOL    HW127110   3.012   6.995   5.844
 8737SOL    HW227111   3.034   6.903   5.710
 8738SOL     OW27112   1.734   4.605   3.695
 8738SOL    HW127113   1.782   4.656   3.767
 8738SOL    HW227114   1.784   4.521   3.675
 8739SOL     OW27115   6.150   4.999   5.964
 8739SOL    HW127116   6.239   5.022   5.925
 8739SOL    HW227117   6.098   4.945   5.899
 8740SOL     OW27118   4.819   1.354   5.461
 8740SOL    HW127119   4.896   1.417   5.464
 8740SOL    HW227120   4.813   1.314   5.369
 8741SOL     OW27121   2.415   0.894   2.231
 8741SOL    HW127122   2.332   0.841   2.247
 8741SOL    HW227123   2.435   0.950   2.311
 8742SOL     OW27124   5.440   5.525   1.532
 8742SOL    HW127125   5.436   5.579   1.448
 8742SOL    HW227126   5.361   5.464   1.535
 8743SOL     OW27127   2.360   6.671   2.464
 8743SOL    HW127128   2.301   6.718   2.398
 8743SOL    HW227129   2.314   6.589   2.497
 8744SOL     OW27130   4.167   2.349   6.433
 8744SOL    HW127131   4.153   2.407   6.353
 8744SOL    HW227132   4.158   2.405   6.516
 8745SOL     OW27133   6.352   2.476   6.371
 8745SOL    HW127134   6.420   2.549   6.371
 8745SOL    HW227135   6.297   2.481   6.287
 8746SOL     OW27136   4.529   4.240   5.449
 8746SOL    HW127137   4.572   4.179   5.383
 8746SOL    HW227138   4.435   4.258   5.422
 8747SOL     OW27139   0.708   2.755   3.180
 8747SOL    HW127140   0.634   2.745   3.247
 8747SOL    HW227141   0.770   2.827   3.209
 8748SOL     OW27142   0.202   1.513   6.520
 8748SOL    HW127143   0.294   1.541   6.547
 8748SOL    HW227144   0.173   1.567   6.441
 8749SOL     OW27145   2.896   0.181   5.123
 8749SOL    HW127146   2.938   0.109   5.069
 8749SOL    HW227147   2.836   0.141   5.192
 8750SOL     OW27148   2.951   3.144   5.095
 8750SOL    HW127149   2.923   3.223   5.042
 8750SOL    HW227150   2.973   3.068   5.034
 8751SOL     OW27151   6.298   6.933   2.381
 8751SOL    HW127152   6.325   6.848   2.427
 8751SOL    HW227153   6.200   6.950   2.396
 8752SOL     OW27154   2.906   4.446   6.695
 8752SOL    HW127155   2.823   4.406   6.733
 8752SOL    HW227156   2.986   4.400   6.735
 8753SOL     OW27157   4.957   1.417   4.672
 8753SOL    HW127158   5.035   1.446   4.728
 8753SOL    HW227159   4.971   1.446   4.578
 8754SOL     OW27160   1.500   1.576   6.043
 8754SOL    HW127161   1.460   1.515   6.111
 8754SOL    HW227162   1.594   1.599   6.070
 8755SOL     OW27163   2.512   1.141   6.485
 8755SOL    HW127164   2.423   1.135   6.439
 8755SOL    HW227165   2.501   1.188   6.572
 8756SOL     OW27166   2.017   3.581   3.336
 8756SOL    HW127167   2.012   3.486   3.303
 8756SOL    HW227168   2.076   3.585   3.416
 8757SOL     OW27169   5.669   6.859   6.027
 8757SOL    HW127170   5.635   6.888   5.938
 8757SOL    HW227171   5.625   6.913   6.099
 8758SOL     OW27172   4.865   6.275   2.175
 8758SOL    HW127173   4.844   6.358   2.124
 8758SOL    HW227174   4.912   6.299   2.260
 8759SOL     OW27175   4.220   2.072   6.368
 8759SOL    HW127176   4.188   2.165   6.384
 8759SOL    HW227177   4.160   2.026   6.303
 8760SOL     OW27178   2.350   1.702   5.062
 8760SOL    HW127179   2.290   1.706   5.142
 8760SOL    HW227180   2.324   1.624   5.005
 8761SOL     OW27181   4.242   0.552   1.196
 8761SOL    HW127182   4.156   0.533   1.245
 8761SOL    HW227183   4.224   0.617   1.122
 8762SOL     OW27184   1.146   3.509   2.908
 8762SOL    HW127185   1.145   3.435   2.841
 8762SOL    HW227186   1.195   3.588   2.870
 8763SOL     OW27187   6.115   5.878   4.826
 8763SOL    HW127188   6.166   5.842   4.749
 8763SOL    HW227189   6.040   5.816   4.850
 8764SOL     OW27190   4.640   0.914   4.631
 8764SOL    HW127191   4.586   0.833   4.651
 8764SOL    HW227192   4.605   0.958   4.548
 8765SOL     OW27193   5.957   6.670   5.089
 8765SOL    HW127194   6.020   6.723   5.031
 8765SOL    HW227195   6.000   6.583   5.113
 8766SOL     OW27196   3.497   4.957   3.217
 8766SOL    HW127197   3.534   4.877   3.263
 8766SOL    HW227198   3.505   4.946   3.118
 8767SOL     OW27199   4.172   0.708   3.402
 8767SOL    HW127200   4.235   0.654   3.458
 8767SOL    HW227201   4.219   0.790   3.369
 8768SOL     OW27202   1.528   2.701   0.093
 8768SOL    HW127203   1.589   2.722   0.170
 8768SOL    HW227204   1.579   2.709   0.007
 8769SOL     OW27205   1.278   6.877   4.853
 8769SOL    HW127206   1.282   6.903   4.756
 8769SOL    HW227207   1.347   6.928   4.904
 8770SOL     OW27208   4.974   4.469   2.048
 8770SOL    HW127209   5.035   4.502   1.976
 8770SOL    HW227210   5.019   4.477   2.137
 8771SOL     OW27211   1.971   0.772   5.727
 8771SOL    HW127212   1.937   0.693   5.676
 8771SOL    HW227213   2.047   0.743   5.786
 8772SOL     OW27214   6.137   6.819   0.218
 8772SOL    HW127215   6.147   6.914   0.246
 8772SOL    HW227216   6.083   6.815   0.134
 8773SOL     OW27217   4.882   1.936   3.482
 8773SOL    HW127218   4.886   2.036   3.482
 8773SOL    HW227219   4.963   1.900   3.528
 8774SOL     OW27220   1.988   1.273   0.361
 8774SOL    HW127221   2.080   1.240   0.341
 8774SOL    HW227222   1.973   1.273   0.460
 8775SOL     OW27223   6.156   0.408   4.257
 8775SOL    HW127224   6.144   0.508   4.255
 8775SOL    HW227225   6.116   0.372   4.342
 8776SOL     OW27226   2.994   3.221   4.805
 8776SOL    HW127227   2.995   3.247   4.708
 8776SOL    HW227228   2.971   3.300   4.861
 8777SOL     OW27229   6.925   4.142   1.116
 8777SOL    HW127230   6.977   4.225   1.094
 8777SOL    HW227231   6.982   4.062   1.099
 8778SOL     OW27232   6.833   2.699   4.214
 8778SOL    HW127233   6.927   2.730   4.197
 8778SOL    HW227234   6.773   2.778   4.225
 8779SOL     OW27235   2.412   5.436   2.040
 8779SOL    HW127236   2.324   5.396   2.014
 8779SOL    HW227237   2.486   5.374   2.015
 8780SOL     OW27238   1.339   5.652   3.748
 8780SOL    HW127239   1.259   5.626   3.802
 8780SOL    HW227240   1.319   5.644   3.651
 8781SOL     OW27241   6.548   2.213   4.121
 8781SOL    HW127242   6.532   2.308   4.094
 8781SOL    HW227243   6.592   2.210   4.210
 8782SOL     OW27244   5.684   0.691   1.517
 8782SOL    HW127245   5.595   0.677   1.475
 8782SOL    HW227246   5.724   0.776   1.484
 8783SOL     OW27247   5.659   3.477   3.855
 8783SOL    HW127248   5.720   3.446   3.782
 8783SOL    HW227249   5.615   3.563   3.828
 8784SOL     OW27250   5.017   4.353   4.851
 8784SOL    HW127251   4.965   4.383   4.772
 8784SOL    HW227252   4.977   4.391   4.935
 8785SOL     OW27253   6.095   3.264   0.066
 8785SOL    HW127254   5.995   3.272   0.074
 8785SOL    HW227255   6.138   3.337   0.119
 8786SOL     OW27256   2.620   6.599   6.947
 8786SOL    HW127257   2.715   6.629   6.959
 8786SOL    HW227258   2.620   6.505   6.913
 8787SOL     OW27259   1.635   2.731   1.935
 8787SOL    HW127260   1.686   2.667   1.878
 8787SOL    HW227261   1.539   2.701   1.941
 8788SOL     OW27262   6.586   2.024   5.645
 8788SOL    HW127263   6.672   2.006   5.692
 8788SOL    HW227264   6.567   1.951   5.580
 8789SOL     OW27265   6.202   0.401   5.483
 8789SOL    HW127266   6.143   0.328   5.517
 8789SOL    HW227267   6.287   0.403   5.536
 8790SOL     OW27268   6.775   1.060   0.582
 8790SOL    HW127269   6.809   1.124   0.652
 8790SOL    HW227270   6.710   0.997   0.624
 8791SOL     OW27271   5.288   6.809   5.292
 8791SOL    HW127272   5.188   6.809   5.304
 8791SOL    HW227273   5.310   6.821   5.195
 8792SOL     OW27274   3.731   6.315   2.971
 8792SOL    HW127275   3.698   6.226   3.005
 8792SOL    HW227276   3.672   6.388   3.007
 8793SOL     OW27277   2.108   5.832   3.817
 8793SOL    HW127278   2.028   5.774   3.802
 8793SOL    HW227279   2.172   5.820   3.742
 8794SOL     OW27280   3.853   6.619   1.794
 8794SOL    HW127281   3.947   6.589   1.775
 8794SOL    HW227282   3.800   6.542   1.828
 8795SOL     OW27283   1.387   6.688   5.098
 8795SOL    HW127284   1.333   6.617   5.052
 8795SOL    HW227285   1.434   6.744   5.030
 8796SOL     OW27286   4.061   0.940   5.479
 8796SOL    HW127287   4.127   0.865   5.481
 8796SOL    HW227288   4.108   1.026   5.461
 8797SOL     OW27289   1.070   6.979   5.358
 8797SOL    HW127290   1.061   0.023   5.431
 8797SOL    HW227291   1.007   6.902   5.375
 8798SOL     OW27292   5.372   4.657   5.193
 8798SOL    HW127293   5.403   4.597   5.120
 8798SOL    HW227294   5.302   4.719   5.157
 8799SOL     OW27295   2.111   4.956   3.109
 8799SOL    HW127296   2.144   4.970   3.203
 8799SOL    HW227297   2.163   4.882   3.067
 8800SOL     OW27298   5.623   3.573   5.147
 8800SOL    HW127299   5.696   3.618   5.095
 8800SOL    HW227300   5.640   3.583   5.245
 8801SOL     OW27301   2.228   1.336   4.430
 8801SOL    HW127302   2.162   1.316   4.358
 8801SOL    HW227303   2.264   1.429   4.418
 8802SOL     OW27304   1.386   0.438   1.049
 8802SOL    HW127305   1.381   0.535   1.074
 8802SOL    HW227306   1.328   0.421   0.969
 8803SOL     OW27307   1.489   4.842   5.940
 8803SOL    HW127308   1.567   4.780   5.950
 8803SOL    HW227309   1.459   4.873   6.031
 8804SOL     OW27310   3.483   0.738   1.991
 8804SOL    HW127311   3.416   0.703   1.926
 8804SOL    HW227312   3.522   0.662   2.043
 8805SOL     OW27313   2.321   0.537   3.984
 8805SOL    HW127314   2.402   0.478   3.990
 8805SOL    HW227315   2.334   0.618   4.042
 8806SOL     OW27316   2.063   5.353   1.524
 8806SOL    HW127317   2.001   5.353   1.446
 8806SOL    HW227318   2.135   5.421   1.509
 8807SOL     OW27319   6.327   6.050   6.013
 8807SOL    HW127320   6.376   5.985   6.070
 8807SOL    HW227321   6.240   6.073   6.056
 8808SOL     OW27322   5.680   1.662   0.533
 8808SOL    HW127323   5.661   1.565   0.517
 8808SOL    HW227324   5.596   1.709   0.557
 8809SOL     OW27325   5.350   4.295   2.289
 8809SOL    HW127326   5.404   4.235   2.347
 8809SOL    HW227327   5.409   4.333   2.217
 8810SOL     OW27328   5.720   1.301   5.476
 8810SOL    HW127329   5.725   1.246   5.559
 8810SOL    HW227330   5.794   1.275   5.414
 8811SOL     OW27331   2.399   1.679   4.034
 8811SOL    HW127332   2.437   1.747   4.097
 8811SOL    HW227333   2.399   1.716   3.941
 8812SOL     OW27334   1.196   0.855   0.727
 8812SOL    HW127335   1.126   0.921   0.754
 8812SOL    HW227336   1.277   0.905   0.695
 8813SOL     OW27337   1.024   4.432   1.648
 8813SOL    HW127338   1.062   4.507   1.702
 8813SOL    HW227339   1.062   4.345   1.680
 8814SOL     OW27340   6.344   1.032   0.817
 8814SOL    HW127341   6.326   1.103   0.750
 8814SOL    HW227342   6.359   1.074   0.907
 8815SOL     OW27343   6.782   6.062   0.549
 8815SOL    HW127344   6.842   5.982   0.551
 8815SOL    HW227345   6.836   6.143   0.524
 8816SOL     OW27346   1.594   0.188   0.843
 8816SOL    HW127347   1.588   0.233   0.754
 8816SOL    HW227348   1.602   0.258   0.914
 8817SOL     OW27349   0.521   5.715   6.007
 8817SOL    HW127350   0.512   5.812   5.986
 8817SOL    HW227351   0.535   5.664   5.922
 8818SOL     OW27352   6.794   3.641   3.073
 8818SOL    HW127353   6.707   3.593   3.066
 8818SOL    HW227354   6.842   3.637   2.985
 8819SOL     OW27355   4.311   5.530   4.344
 8819SOL    HW127356   4.386   5.473   4.310
 8819SOL    HW227357   4.234   5.525   4.279
 8820SOL     OW27358   2.524   2.094   4.076
 8820SOL    HW127359   2.569   2.005   4.085
 8820SOL    HW227360   2.545   2.150   4.156
 8821SOL     OW27361   1.581   6.364   6.945
 8821SOL    HW127362   1.648   6.426   6.904
 8821SOL    HW227363   1.496   6.413   6.963
 8822SOL     OW27364   1.011   0.324   3.285
 8822SOL    HW127365   1.064   0.290   3.362
 8822SOL    HW227366   1.064   0.315   3.201
 8823SOL     OW27367   2.086   0.766   0.904
 8823SOL    HW127368   2.144   0.844   0.881
 8823SOL    HW227369   2.032   0.789   0.985
 8824SOL     OW27370   1.848   3.739   0.865
 8824SOL    HW127371   1.902   3.822   0.847
 8824SOL    HW227372   1.847   3.682   0.783
 8825SOL     OW27373   1.786   0.953   3.566
 8825SOL    HW127374   1.763   1.004   3.649
 8825SOL    HW227375   1.758   0.858   3.577
 8826SOL     OW27376   6.177   2.400   0.533
 8826SOL    HW127377   6.235   2.387   0.613
 8826SOL    HW227378   6.196   2.490   0.492
 8827SOL     OW27379   3.080   1.532   3.083
 8827SOL    HW127380   3.037   1.622   3.071
 8827SOL    HW227381   3.165   1.528   3.031
 8828SOL     OW27382   4.269   5.167   3.990
 8828SOL    HW127383   4.301   5.254   3.953
 8828SOL    HW227384   4.225   5.182   4.078
 8829SOL     OW27385   0.303   2.683   0.006
 8829SOL    HW127386   0.400   2.676   7.009
 8829SOL    HW227387   0.259   2.595   7.015
 8830SOL     OW27388   0.363   1.741   1.035
 8830SOL    HW127389   0.444   1.745   0.977
 8830SOL    HW227390   0.282   1.732   0.977
 8831SOL     OW27391   5.345   1.391   3.385
 8831SOL    HW127392   5.280   1.458   3.348
 8831SOL    HW227393   5.377   1.332   3.311
 8832SOL     OW27394   6.181   6.366   2.691
 8832SOL    HW127395   6.116   6.422   2.743
 8832SOL    HW227396   6.253   6.333   2.753
 8833SOL     OW27397   1.836   6.490   5.375
 8833SOL    HW127398   1.923   6.496   5.326
 8833SOL    HW227399   1.792   6.580   5.376
 8834SOL     OW27400   5.569   3.704   4.605
 8834SOL    HW127401   5.490   3.749   4.648
 8834SOL    HW227402   5.539   3.658   4.521
 8835SOL     OW27403   6.100   0.578   5.948
 8835SOL    HW127404   6.031   0.648   5.931
 8835SOL    HW227405   6.187   0.606   5.908
 8836SOL     OW27406   4.380   0.921   0.055
 8836SOL    HW127407   4.426   0.977   7.010
 8836SOL    HW227408   4.281   0.920   0.037
 8837SOL     OW27409   0.544   0.078   2.427
 8837SOL    HW127410   0.583   0.100   2.338
 8837SOL    HW227411   0.536   0.161   2.482
 8838SOL     OW27412   2.827   5.234   2.889
 8838SOL    HW127413   2.892   5.170   2.848
 8838SOL    HW227414   2.744   5.185   2.915
 8839SOL     OW27415   5.462   5.559   2.254
 8839SOL    HW127416   5.367   5.588   2.266
 8839SOL    HW227417   5.464   5.476   2.199
 8840SOL     OW27418   6.869   2.347   1.833
 8840SOL    HW127419   6.936   2.331   1.761
 8840SOL    HW227420   6.843   2.260   1.875
 8841SOL     OW27421   1.521   0.827   5.192
 8841SOL    HW127422   1.578   0.898   5.152
 8841SOL    HW227423   1.425   0.853   5.184
 8842SOL     OW27424   3.509   2.706   0.471
 8842SOL    HW127425   3.504   2.609   0.449
 8842SOL    HW227426   3.416   2.744   0.475
 8843SOL     OW27427   1.706   2.920   5.469
 8843SOL    HW127428   1.715   2.853   5.543
 8843SOL    HW227429   1.744   2.882   5.385
 8844SOL     OW27430   5.530   1.214   0.220
 8844SOL    HW127431   5.462   1.272   0.175
 8844SOL    HW227432   5.622   1.240   0.190
 8845SOL     OW27433   4.223   4.212   0.102
 8845SOL    HW127434   4.211   4.145   0.175
 8845SOL    HW227435   4.294   4.180   0.039
 8846SOL     OW27436   2.263   6.140   3.955
 8846SOL    HW127437   2.331   6.079   3.996
 8846SOL    HW227438   2.291   6.235   3.967
 8847SOL     OW27439   2.905   0.872   2.947
 8847SOL    HW127440   2.839   0.902   2.878
 8847SOL    HW227441   2.989   0.842   2.901
 8848SOL     OW27442   2.582   0.719   1.405
 8848SOL    HW127443   2.565   0.812   1.438
 8848SOL    HW227444   2.673   0.689   1.435
 8849SOL     OW27445   3.068   6.201   3.088
 8849SOL    HW127446   3.111   6.204   2.997
 8849SOL    HW227447   2.975   6.236   3.081
 8850SOL     OW27448   1.368   1.728   0.177
 8850SOL    HW127449   1.278   1.748   0.214
 8850SOL    HW227450   1.371   1.634   0.145
 8851SOL     OW27451   1.925   4.352   2.756
 8851SOL    HW127452   1.872   4.371   2.838
 8851SOL    HW227453   1.955   4.257   2.757
 8852SOL     OW27454   1.037   1.955   5.399
 8852SOL    HW127455   1.119   1.917   5.442
 8852SOL    HW227456   1.061   1.994   5.310
 8853SOL     OW27457   3.162   0.687   2.044
 8853SOL    HW127458   3.224   0.663   2.119
 8853SOL    HW227459   3.161   0.787   2.032
 8854SOL     OW27460   2.045   3.376   4.538
 8854SOL    HW127461   2.012   3.385   4.444
 8854SOL    HW227462   2.043   3.465   4.582
 8855SOL     OW27463   6.271   5.007   1.481
 8855SOL    HW127464   6.183   5.042   1.514
 8855SOL    HW227465   6.326   4.976   1.559
 8856SOL     OW27466   6.735   6.070   6.651
 8856SOL    HW127467   6.789   6.154   6.653
 8856SOL    HW227468   6.648   6.085   6.698
 8857SOL     OW27469   6.726   1.793   5.228
 8857SOL    HW127470   6.687   1.766   5.139
 8857SOL    HW227471   6.652   1.818   5.290
 8858SOL     OW27472   6.984   4.678   4.864
 8858SOL    HW127473   6.945   4.750   4.808
 8858SOL    HW227474   0.005   4.610   4.805
 8859SOL     OW27475   1.208   1.000   3.799
 8859SOL    HW127476   1.179   0.909   3.770
 8859SOL    HW227477   1.147   1.033   3.871
 8860SOL     OW27478   0.137   2.950   1.318
 8860SOL    HW127479   0.078   3.031   1.320
 8860SOL    HW227480   0.090   2.876   1.270
 8861SOL     OW27481   3.938   1.233   0.362
 8861SOL    HW127482   4.016   1.186   0.321
 8861SOL    HW227483   3.949   1.331   0.352
 8862SOL     OW27484   4.964   5.925   4.031
 8862SOL    HW127485   4.974   6.001   3.967
 8862SOL    HW227486   4.900   5.951   4.104
 8863SOL     OW27487   1.781   4.990   3.114
 8863SOL    HW127488   1.749   4.900   3.145
 8863SOL    HW227489   1.880   4.987   3.101
 8864SOL     OW27490   4.847   3.865   6.714
 8864SOL    HW127491   4.893   3.797   6.656
 8864SOL    HW227492   4.813   3.939   6.657
 8865SOL     OW27493   2.743   0.791   5.789
 8865SOL    HW127494   2.650   0.814   5.818
 8865SOL    HW227495   2.767   0.842   5.707
 8866SOL     OW27496   4.981   6.686   2.845
 8866SOL    HW127497   5.033   6.677   2.760
 8866SOL    HW227498   5.018   6.625   2.914
 8867SOL     OW27499   6.043   3.597   3.699
 8867SOL    HW127500   6.010   3.605   3.793
 8867SOL    HW227501   6.063   3.501   3.679
 8868SOL     OW27502   6.761   3.554   2.490
 8868SOL    HW127503   6.699   3.494   2.438
 8868SOL    HW227504   6.807   3.501   2.560
 8869SOL     OW27505   3.856   5.942   4.792
 8869SOL    HW127506   3.951   5.969   4.776
 8869SOL    HW227507   3.808   6.016   4.841
 8870SOL     OW27508   1.994   6.931   1.494
 8870SOL    HW127509   1.898   6.948   1.516
 8870SOL    HW227510   2.053   6.984   1.555
 8871SOL     OW27511   1.701   1.371   3.335
 8871SOL    HW127512   1.646   1.351   3.416
 8871SOL    HW227513   1.709   1.470   3.323
 8872SOL     OW27514   1.449   4.459   6.333
 8872SOL    HW127515   1.364   4.432   6.379
 8872SOL    HW227516   1.438   4.551   6.295
 8873SOL     OW27517   1.855   0.667   1.522
 8873SOL    HW127518   1.780   0.733   1.522
 8873SOL    HW227519   1.934   0.707   1.570
 8874SOL     OW27520   1.403   5.824   1.812
 8874SOL    HW127521   1.329   5.870   1.764
 8874SOL    HW227522   1.487   5.878   1.803
 8875SOL     OW27523   0.116   3.384   4.184
 8875SOL    HW127524   0.052   3.419   4.115
 8875SOL    HW227525   0.070   3.313   4.238
 8876SOL     OW27526   3.159   0.721   6.393
 8876SOL    HW127527   3.199   0.759   6.476
 8876SOL    HW227528   3.167   0.787   6.318
 8877SOL     OW27529   1.548   3.671   2.850
 8877SOL    HW127530   1.590   3.678   2.760
 8877SOL    HW227531   1.522   3.762   2.882
 8878SOL     OW27532   3.263   4.498   0.546
 8878SOL    HW127533   3.347   4.514   0.597
 8878SOL    HW227534   3.237   4.401   0.555
 8879SOL     OW27535   6.461   4.882   2.523
 8879SOL    HW127536   6.471   4.789   2.489
 8879SOL    HW227537   6.403   4.935   2.461
 8880SOL     OW27538   3.930   6.255   4.152
 8880SOL    HW127539   3.852   6.247   4.214
 8880SOL    HW227540   4.004   6.194   4.182
 8881SOL     OW27541   5.346   4.999   4.730
 8881SOL    HW127542   5.259   4.963   4.765
 8881SOL    HW227543   5.351   4.982   4.632
 8882SOL     OW27544   3.563   0.892   0.270
 8882SOL    HW127545   3.580   0.846   0.183
 8882SOL    HW227546   3.646   0.940   0.300
 8883SOL     OW27547   0.769   6.237   5.672
 8883SOL    HW127548   0.824   6.268   5.750
 8883SOL    HW227549   0.829   6.211   5.597
 8884SOL     OW27550   6.146   4.132   5.403
 8884SOL    HW127551   6.123   4.226   5.428
 8884SOL    HW227552   6.133   4.119   5.305
 8885SOL     OW27553   5.161   4.874   0.078
 8885SOL    HW127554   5.259   4.889   0.065
 8885SOL    HW227555   5.142   4.776   0.072
 8886SOL     OW27556   3.930   5.635   6.102
 8886SOL    HW127557   3.951   5.583   6.019
 8886SOL    HW227558   3.842   5.606   6.138
 8887SOL     OW27559   4.142   1.015   0.789
 8887SOL    HW127560   4.227   1.034   0.740
 8887SOL    HW227561   4.074   0.979   0.725
 8888SOL     OW27562   2.045   2.371   3.635
 8888SOL    HW127563   2.062   2.277   3.661
 8888SOL    HW227564   1.955   2.379   3.592
 8889SOL     OW27565   6.644   6.515   6.432
 8889SOL    HW127566   6.618   6.531   6.527
 8889SOL    HW227567   6.610   6.591   6.376
 8890SOL     OW27568   0.693   6.265   6.804
 8890SOL    HW127569   0.673   6.265   6.706
 8890SOL    HW227570   0.628   6.324   6.851
 8891SOL     OW27571   4.393   4.467   0.040
 8891SOL    HW127572   4.407   4.405   6.985
 8891SOL    HW227573   4.340   4.420   0.110
 8892SOL     OW27574   4.023   4.899   4.037
 8892SOL    HW127575   3.933   4.930   4.066
 8892SOL    HW227576   4.017   4.861   3.944
 8893SOL     OW27577   1.138   5.592   5.298
 8893SOL    HW127578   1.074   5.517   5.283
 8893SOL    HW227579   1.184   5.615   5.212
 8894SOL     OW27580   4.563   1.446   0.095
 8894SOL    HW127581   4.534   1.382   0.166
 8894SOL    HW227582   4.640   1.500   0.128
 8895SOL     OW27583   0.534   2.794   0.664
 8895SOL    HW127584   0.609   2.791   0.598
 8895SOL    HW227585   0.482   2.709   0.659
 8896SOL     OW27586   1.408   2.925   4.919
 8896SOL    HW127587   1.331   2.976   4.880
 8896SOL    HW227588   1.493   2.956   4.877
 8897SOL     OW27589   2.185   3.879   3.623
 8897SOL    HW127590   2.174   3.837   3.713
 8897SOL    HW227591   2.249   3.955   3.630
 8898SOL     OW27592   5.878   4.059   2.158
 8898SOL    HW127593   5.918   4.130   2.216
 8898SOL    HW227594   5.841   4.100   2.075
 8899SOL     OW27595   6.938   4.907   6.706
 8899SOL    HW127596   6.844   4.932   6.729
 8899SOL    HW227597   6.964   4.826   6.760
 8900SOL     OW27598   5.708   2.651   3.236
 8900SOL    HW127599   5.626   2.694   3.196
 8900SOL    HW227600   5.735   2.573   3.180
 8901SOL     OW27601   0.777   2.016   3.671
 8901SOL    HW127602   0.718   2.096   3.660
 8901SOL    HW227603   0.866   2.034   3.630
 8902SOL     OW27604   1.792   5.414   0.067
 8902SOL    HW127605   1.872   5.472   0.085
 8902SOL    HW227606   1.822   5.320   0.052
 8903SOL     OW27607   1.567   1.698   4.998
 8903SOL    HW127608   1.483   1.655   4.964
 8903SOL    HW227609   1.602   1.761   4.929
 8904SOL     OW27610   1.007   2.150   3.230
 8904SOL    HW127611   0.942   2.108   3.167
 8904SOL    HW227612   1.097   2.109   3.218
 8905SOL     OW27613   1.581   3.385   2.544
 8905SOL    HW127614   1.585   3.478   2.579
 8905SOL    HW227615   1.654   3.372   2.477
 8906SOL     OW27616   0.671   6.157   0.827
 8906SOL    HW127617   0.705   6.251   0.831
 8906SOL    HW227618   0.719   6.101   0.894
 8907SOL     OW27619   3.257   2.805   5.411
 8907SOL    HW127620   3.220   2.723   5.367
 8907SOL    HW227621   3.196   2.882   5.394
 8908SOL     OW27622   1.740   4.873   0.230
 8908SOL    HW127623   1.670   4.813   0.269
 8908SOL    HW227624   1.703   4.922   0.151
 8909SOL     OW27625   2.717   1.098   6.296
 8909SOL    HW127626   2.643   1.156   6.330
 8909SOL    HW227627   2.714   1.009   6.342
 8910SOL     OW27628   0.579   2.912   5.296
 8910SOL    HW127629   0.670   2.940   5.326
 8910SOL    HW227630   0.563   2.947   5.204
 8911SOL     OW27631   5.386   2.429   4.732
 8911SOL    HW127632   5.345   2.431   4.823
 8911SOL    HW227633   5.328   2.376   4.670
 8912SOL     OW27634   3.245   2.749   5.679
 8912SOL    HW127635   3.254   2.765   5.581
 8912SOL    HW227636   3.293   2.821   5.729
 8913SOL     OW27637   4.524   5.297   0.339
 8913SOL    HW127638   4.543   5.199   0.338
 8913SOL    HW227639   4.447   5.315   0.400
 8914SOL     OW27640   4.932   6.856   4.794
 8914SOL    HW127641   4.938   6.801   4.711
 8914SOL    HW227642   4.845   6.905   4.796
 8915SOL     OW27643   1.333   1.750   4.607
 8915SOL    HW127644   1.385   1.698   4.539
 8915SOL    HW227645   1.236   1.726   4.602
 8916SOL     OW27646   6.007   1.987   6.415
 8916SOL    HW127647   6.071   1.977   6.491
 8916SOL    HW227648   5.968   2.079   6.417
 8917SOL     OW27649   5.623   2.011   0.564
 8917SOL    HW127650   5.605   1.922   0.605
 8917SOL    HW227651   5.580   2.083   0.619
 8918SOL     OW27652   1.649   5.497   1.141
 8918SOL    HW127653   1.550   5.488   1.143
 8918SOL    HW227654   1.689   5.416   1.098
 8919SOL     OW27655   5.057   4.693   6.529
 8919SOL    HW127656   5.109   4.772   6.498
 8919SOL    HW227657   4.968   4.692   6.484
 8920SOL     OW27658   0.840   1.747   6.710
 8920SOL    HW127659   0.816   1.844   6.719
 8920SOL    HW227660   0.772   1.702   6.652
 8921SOL     OW27661   1.433   2.554   1.519
 8921SOL    HW127662   1.462   2.526   1.428
 8921SOL    HW227663   1.333   2.548   1.526
 8922SOL     OW27664   3.842   6.815   2.014
 8922SOL    HW127665   3.747   6.802   2.042
 8922SOL    HW227666   3.859   6.759   1.932
 8923SOL     OW27667   1.285   2.068   5.754
 8923SOL    HW127668   1.300   2.167   5.758
 8923SOL    HW227669   1.306   2.035   5.662
 8924SOL     OW27670   4.927   5.539   4.773
 8924SOL    HW127671   4.989   5.599   4.723
 8924SOL    HW227672   4.840   5.586   4.788
 8925SOL     OW27673   6.880   0.115   2.550
 8925SOL    HW127674   6.783   0.108   2.570
 8925SOL    HW227675   6.920   0.023   2.545
 8926SOL     OW27676   6.581   3.385   5.327
 8926SOL    HW127677   6.523   3.456   5.367
 8926SOL    HW227678   6.525   3.304   5.306
 8927SOL     OW27679   6.548   1.476   5.520
 8927SOL    HW127680   6.593   1.387   5.514
 8927SOL    HW227681   6.468   1.469   5.579
 8928SOL     OW27682   1.461   6.911   6.146
 8928SOL    HW127683   1.494   7.003   6.128
 8928SOL    HW227684   1.479   6.852   6.068
 8929SOL     OW27685   6.298   2.022   5.110
 8929SOL    HW127686   6.362   2.066   5.048
 8929SOL    HW227687   6.214   1.998   5.061
 8930SOL     OW27688   0.900   3.392   3.003
 8930SOL    HW127689   0.969   3.465   2.997
 8930SOL    HW227690   0.881   3.373   3.100
 8931SOL     OW27691   3.316   3.152   1.589
 8931SOL    HW127692   3.262   3.133   1.507
 8931SOL    HW227693   3.413   3.153   1.566
 8932SOL     OW27694   0.043   2.581   2.683
 8932SOL    HW127695   0.054   2.653   2.615
 8932SOL    HW227696   0.092   2.499   2.654
 8933SOL     OW27697   2.881   2.547   6.511
 8933SOL    HW127698   2.799   2.598   6.485
 8933SOL    HW227699   2.879   2.528   6.609
 8934SOL     OW27700   3.691   5.101   5.020
 8934SOL    HW127701   3.681   5.198   5.043
 8934SOL    HW227702   3.685   5.046   5.103
 8935SOL     OW27703   0.411   4.394   0.504
 8935SOL    HW127704   0.469   4.315   0.486
 8935SOL    HW227705   0.466   4.469   0.540
 8936SOL     OW27706   1.729   3.765   0.024
 8936SOL    HW127707   1.783   3.755   6.963
 8936SOL    HW227708   1.711   3.674   0.062
 8937SOL     OW27709   0.838   6.891   4.924
 8937SOL    HW127710   0.743   6.909   4.950
 8937SOL    HW227711   0.842   6.808   4.868
 8938SOL     OW27712   0.489   5.617   0.966
 8938SOL    HW127713   0.402   5.568   0.967
 8938SOL    HW227714   0.491   5.681   0.889
 8939SOL     OW27715   4.693   2.768   4.336
 8939SOL    HW127716   4.665   2.672   4.327
 8939SOL    HW227717   4.704   2.808   4.246
 8940SOL     OW27718   0.264   0.931   3.748
 8940SOL    HW127719   0.273   1.013   3.804
 8940SOL    HW227720   0.185   0.878   3.778
 8941SOL     OW27721   5.540   2.394   5.628
 8941SOL    HW127722   5.617   2.451   5.656
 8941SOL    HW227723   5.496   2.355   5.708
 8942SOL     OW27724   1.015   3.757   5.806
 8942SOL    HW127725   0.988   3.828   5.741
 8942SOL    HW227726   1.112   3.764   5.825
 8943SOL     OW27727   4.119   3.977   0.271
 8943SOL    HW127728   4.090   3.882   0.260
 8943SOL    HW227729   4.181   3.984   0.350
 8944SOL     OW27730   4.877   4.904   5.169
 8944SOL    HW127731   4.807   4.947   5.227
 8944SOL    HW227732   4.842   4.817   5.135
 8945SOL     OW27733   2.020   0.982   3.918
 8945SOL    HW127734   2.061   0.950   4.004
 8945SOL    HW227735   1.923   0.961   3.918
 8946SOL     OW27736   3.022   1.566   5.326
 8946SOL    HW127737   2.934   1.587   5.283
 8946SOL    HW227738   3.012   1.483   5.381
 8947SOL     OW27739   1.137   3.685   5.047
 8947SOL    HW127740   1.092   3.738   4.975
 8947SOL    HW227741   1.209   3.628   5.007
 8948SOL     OW27742   6.065   5.761   4.078
 8948SOL    HW127743   6.158   5.724   4.080
 8948SOL    HW227744   6.031   5.772   4.172
 8949SOL     OW27745   1.928   0.356   0.951
 8949SOL    HW127746   1.930   0.411   0.868
 8949SOL    HW227747   1.834   0.352   0.985
 8950SOL     OW27748   4.801   3.037   5.727
 8950SOL    HW127749   4.843   3.105   5.667
 8950SOL    HW227750   4.702   3.049   5.728
 8951SOL     OW27751   1.316   2.255   5.093
 8951SOL    HW127752   1.400   2.289   5.137
 8951SOL    HW227753   1.239   2.312   5.121
 8952SOL     OW27754   1.128   0.665   1.968
 8952SOL    HW127755   1.175   0.753   1.964
 8952SOL    HW227756   1.137   0.618   1.880
 8953SOL     OW27757   1.242   3.739   0.004
 8953SOL    HW127758   1.186   3.656   0.002
 8953SOL    HW227759   1.291   3.744   0.090
 8954SOL     OW27760   0.489   6.002   5.982
 8954SOL    HW127761   0.540   6.020   5.897
 8954SOL    HW227762   0.410   6.062   5.986
 8955SOL     OW27763   0.499   4.489   2.286
 8955SOL    HW127764   0.544   4.486   2.197
 8955SOL    HW227765   0.406   4.454   2.278
 8956SOL     OW27766   0.022   1.456   0.013
 8956SOL    HW127767   6.964   1.499   6.997
 8956SOL    HW227768   0.052   1.508   0.093
 8957SOL     OW27769   3.157   4.123   1.610
 8957SOL    HW127770   3.223   4.196   1.595
 8957SOL    HW227771   3.079   4.136   1.548
 8958SOL     OW27772   1.010   0.548   3.984
 8958SOL    HW127773   0.911   0.549   3.989
 8958SOL    HW227774   1.043   0.454   3.975
 8959SOL     OW27775   1.878   4.533   1.192
 8959SOL    HW127776   1.782   4.523   1.168
 8959SOL    HW227777   1.931   4.459   1.150
 8960SOL     OW27778   5.181   5.619   2.285
 8960SOL    HW127779   5.162   5.526   2.252
 8960SOL    HW227780   5.112   5.682   2.250
 8961SOL     OW27781   1.937   2.210   4.365
 8961SOL    HW127782   1.923   2.118   4.328
 8961SOL    HW227783   1.974   2.204   4.457
 8962SOL     OW27784   6.338   6.670   2.166
 8962SOL    HW127785   6.330   6.619   2.252
 8962SOL    HW227786   6.381   6.759   2.184
 8963SOL     OW27787   4.869   6.666   4.577
 8963SOL    HW127788   4.955   6.621   4.549
 8963SOL    HW227789   4.804   6.662   4.501
 8964SOL     OW27790   5.972   3.752   3.185
 8964SOL    HW127791   5.928   3.763   3.096
 8964SOL    HW227792   6.038   3.678   3.181
 8965SOL     OW27793   1.880   4.756   1.028
 8965SOL    HW127794   1.953   4.756   0.959
 8965SOL    HW227795   1.903   4.692   1.101
 8966SOL     OW27796   1.904   3.726   5.437
 8966SOL    HW127797   1.981   3.674   5.398
 8966SOL    HW227798   1.837   3.662   5.476
 8967SOL     OW27799   3.053   5.844   1.620
 8967SOL    HW127800   3.027   5.801   1.534
 8967SOL    HW227801   3.146   5.818   1.644
 8968SOL     OW27802   4.983   5.491   2.480
 8968SOL    HW127803   5.077   5.513   2.508
 8968SOL    HW227804   4.961   5.542   2.397
 8969SOL     OW27805   6.298   0.242   4.099
 8969SOL    HW127806   6.237   0.170   4.064
 8969SOL    HW227807   6.245   0.308   4.151
 8970SOL     OW27808   3.079   2.174   0.473
 8970SOL    HW127809   3.028   2.204   0.392
 8970SOL    HW227810   3.172   2.211   0.470
 8971SOL     OW27811   3.732   5.627   2.368
 8971SOL    HW127812   3.824   5.604   2.400
 8971SOL    HW227813   3.666   5.565   2.412
 8972SOL     OW27814   4.809   5.738   6.064
 8972SOL    HW127815   4.858   5.713   6.148
 8972SOL    HW227816   4.862   5.707   5.985
 8973SOL     OW27817   0.999   3.481   2.150
 8973SOL    HW127818   1.052   3.402   2.182
 8973SOL    HW227819   0.943   3.453   2.072
 8974SOL     OW27820   1.173   4.225   5.501
 8974SOL    HW127821   1.208   4.184   5.586
 8974SOL    HW227822   1.075   4.205   5.493
 8975SOL     OW27823   2.559   0.376   6.883
 8975SOL    HW127824   2.469   0.333   6.871
 8975SOL    HW227825   2.623   0.338   6.816
 8976SOL     OW27826   0.670   5.079   5.373
 8976SOL    HW127827   0.754   5.043   5.414
 8976SOL    HW227828   0.644   5.164   5.420
 8977SOL     OW27829   5.917   1.789   6.685
 8977SOL    HW127830   5.863   1.740   6.616
 8977SOL    HW227831   5.944   1.725   6.757
 8978SOL     OW27832   6.145   6.979   6.472
 8978SOL    HW127833   6.178   6.946   6.561
 8978SOL    HW227834   6.221   7.019   6.421
 8979SOL     OW27835   1.264   3.166   4.350
 8979SOL    HW127836   1.358   3.180   4.318
 8979SOL    HW227837   1.261   3.089   4.413
 8980SOL     OW27838   2.247   3.126   5.287
 8980SOL    HW127839   2.164   3.157   5.242
 8980SOL    HW227840   2.315   3.100   5.217
 8981SOL     OW27841   3.724   1.706   5.010
 8981SOL    HW127842   3.733   1.639   4.936
 8981SOL    HW227843   3.639   1.691   5.059
 8982SOL     OW27844   1.611   2.613   0.456
 8982SOL    HW127845   1.628   2.667   0.373
 8982SOL    HW227846   1.537   2.656   0.508
 8983SOL     OW27847   2.774   6.348   6.202
 8983SOL    HW127848   2.739   6.256   6.187
 8983SOL    HW227849   2.873   6.344   6.219
 8984SOL     OW27850   0.913   6.815   4.168
 8984SOL    HW127851   0.911   6.836   4.266
 8984SOL    HW227852   0.820   6.808   4.134
 8985SOL     OW27853   3.832   2.111   0.588
 8985SOL    HW127854   3.849   2.043   0.517
 8985SOL    HW227855   3.891   2.191   0.572
 8986SOL     OW27856   4.268   5.311   2.622
 8986SOL    HW127857   4.237   5.302   2.717
 8986SOL    HW227858   4.261   5.222   2.576
 8987SOL     OW27859   4.291   6.455   1.946
 8987SOL    HW127860   4.355   6.402   1.891
 8987SOL    HW227861   4.342   6.524   1.999
 8988SOL     OW27862   1.250   4.521   4.711
 8988SOL    HW127863   1.291   4.580   4.641
 8988SOL    HW227864   1.323   4.475   4.762
 8989SOL     OW27865   4.779   3.508   6.994
 8989SOL    HW127866   4.703   3.472   6.941
 8989SOL    HW227867   4.782   3.464   0.060
 8990SOL     OW27868   1.359   5.396   4.618
 8990SOL    HW127869   1.374   5.486   4.576
 8990SOL    HW227870   1.398   5.395   4.710
 8991SOL     OW27871   1.743   3.050   4.459
 8991SOL    HW127872   1.793   2.988   4.519
 8991SOL    HW227873   1.750   3.018   4.364
 8992SOL     OW27874   4.280   1.413   0.624
 8992SOL    HW127875   4.368   1.368   0.632
 8992SOL    HW227876   4.276   1.465   0.538
 8993SOL     OW27877   4.456   2.358   0.295
 8993SOL    HW127878   4.479   2.386   0.388
 8993SOL    HW227879   4.526   2.391   0.232
 8994SOL     OW27880   1.497   4.065   5.590
 8994SOL    HW127881   1.496   3.966   5.607
 8994SOL    HW227882   1.488   4.081   5.492
 8995SOL     OW27883   0.763   2.298   0.039
 8995SOL    HW127884   0.785   2.358   6.986
 8995SOL    HW227885   0.835   2.229   0.049
 8996SOL     OW27886   5.050   4.177   6.772
 8996SOL    HW127887   5.100   4.110   6.717
 8996SOL    HW227888   5.105   4.203   6.851
 8997SOL     OW27889   5.030   1.996   6.301
 8997SOL    HW127890   4.956   1.965   6.361
 8997SOL    HW227891   5.082   1.916   6.269
 8998SOL     OW27892   6.231   3.512   4.501
 8998SOL    HW127893   6.198   3.421   4.479
 8998SOL    HW227894   6.196   3.578   4.433
 8999SOL     OW27895   4.920   6.421   6.298
 8999SOL    HW127896   4.984   6.352   6.329
 8999SOL    HW227897   4.829   6.401   6.334
 9000SOL     OW27898   1.742   3.461   2.021
 9000SOL    HW127899   1.684   3.404   1.963
 9000SOL    HW227900   1.732   3.557   1.994
 9001SOL     OW27901   1.298   4.633   2.172
 9001SOL    HW127902   1.232   4.559   2.159
 9001SOL    HW227903   1.387   4.606   2.136
 9002SOL     OW27904   1.487   5.115   4.953
 9002SOL    HW127905   1.477   5.084   5.047
 9002SOL    HW227906   1.583   5.136   4.935
 9003SOL     OW27907   6.003   4.137   1.510
 9003SOL    HW127908   6.040   4.062   1.565
 9003SOL    HW227909   5.991   4.218   1.568
 9004SOL     OW27910   4.201   5.573   0.958
 9004SOL    HW127911   4.263   5.582   1.036
 9004SOL    HW227912   4.207   5.655   0.901
 9005SOL     OW27913   6.536   1.759   5.492
 9005SOL    HW127914   6.462   1.782   5.429
 9005SOL    HW227915   6.543   1.660   5.500
 9006SOL     OW27916   1.908   5.857   1.449
 9006SOL    HW127917   1.866   5.946   1.430
 9006SOL    HW227918   1.869   5.788   1.388
 9007SOL     OW27919   3.464   0.731   3.524
 9007SOL    HW127920   3.498   0.825   3.532
 9007SOL    HW227921   3.493   0.678   3.603
 9008SOL     OW27922   1.052   5.448   2.878
 9008SOL    HW127923   1.001   5.460   2.793
 9008SOL    HW227924   1.147   5.476   2.864
 9009SOL     OW27925   2.810   5.474   0.783
 9009SOL    HW127926   2.846   5.419   0.858
 9009SOL    HW227927   2.833   5.432   0.696
 9010SOL     OW27928   1.750   6.296   4.106
 9010SOL    HW127929   1.829   6.296   4.168
 9010SOL    HW227930   1.702   6.209   4.115
 9011SOL     OW27931   4.738   0.967   1.086
 9011SOL    HW127932   4.793   0.902   1.138
 9011SOL    HW227933   4.641   0.951   1.105
 9012SOL     OW27934   2.182   4.961   6.693
 9012SOL    HW127935   2.232   4.876   6.674
 9012SOL    HW227936   2.171   4.971   6.792
 9013SOL     OW27937   0.160   0.304   6.339
 9013SOL    HW127938   0.168   0.331   6.244
 9013SOL    HW227939   0.234   0.240   6.362
 9014SOL     OW27940   0.144   2.049   0.759
 9014SOL    HW127941   0.243   2.059   0.745
 9014SOL    HW227942   0.126   1.961   0.804
 9015SOL     OW27943   4.528   2.524   1.782
 9015SOL    HW127944   4.582   2.595   1.827
 9015SOL    HW227945   4.574   2.435   1.794
 9016SOL     OW27946   6.634   6.363   6.763
 9016SOL    HW127947   6.551   6.390   6.714
 9016SOL    HW227948   6.668   6.442   6.816
 9017SOL     OW27949   4.738   1.530   4.257
 9017SOL    HW127950   4.739   1.629   4.270
 9017SOL    HW227951   4.690   1.486   4.333
 9018SOL     OW27952   2.679   3.116   5.871
 9018SOL    HW127953   2.746   3.050   5.837
 9018SOL    HW227954   2.645   3.172   5.795
 9019SOL     OW27955   1.480   5.160   2.710
 9019SOL    HW127956   1.475   5.114   2.622
 9019SOL    HW227957   1.522   5.100   2.777
 9020SOL     OW27958   0.074   3.942   1.058
 9020SOL    HW127959   0.063   3.856   1.108
 9020SOL    HW227960   0.169   3.951   1.028
 9021SOL     OW27961   0.051   1.136   3.632
 9021SOL    HW127962   0.135   1.096   3.668
 9021SOL    HW227963   0.072   1.190   3.550
 9022SOL     OW27964   2.549   0.951   6.990
 9022SOL    HW127965   2.626   1.003   6.955
 9022SOL    HW227966   2.559   0.855   6.964
 9023SOL     OW27967   3.360   3.436   1.802
 9023SOL    HW127968   3.436   3.386   1.760
 9023SOL    HW227969   3.389   3.528   1.826
 9024SOL     OW27970   1.336   3.790   5.837
 9024SOL    HW127971   1.381   3.753   5.756
 9024SOL    HW227972   1.383   3.758   5.919
 9025SOL     OW27973   0.768   5.383   0.579
 9025SOL    HW127974   0.850   5.357   0.527
 9025SOL    HW227975   0.693   5.322   0.556
 9026SOL     OW27976   3.336   2.766   0.716
 9026SOL    HW127977   3.331   2.751   0.815
 9026SOL    HW227978   3.292   2.690   0.668
 9027SOL     OW27979   0.373   3.420   2.833
 9027SOL    HW127980   0.447   3.365   2.795
 9027SOL    HW227981   0.406   3.512   2.853
 9028SOL     OW27982   3.130   3.035   5.324
 9028SOL    HW127983   3.224   3.068   5.331
 9028SOL    HW227984   3.085   3.079   5.246
 9029SOL     OW27985   3.573   6.766   5.015
 9029SOL    HW127986   3.597   6.862   5.006
 9029SOL    HW227987   3.483   6.758   5.058
 9030SOL     OW27988   2.216   1.957   3.549
 9030SOL    HW127989   2.121   1.986   3.566
 9030SOL    HW227990   2.231   1.952   3.450
 9031SOL     OW27991   4.231   6.251   3.907
 9031SOL    HW127992   4.285   6.174   3.940
 9031SOL    HW227993   4.149   6.261   3.965
 9032SOL     OW27994   4.553   4.149   1.041
 9032SOL    HW127995   4.650   4.171   1.053
 9032SOL    HW227996   4.514   4.122   1.129
 9033SOL     OW27997   0.358   4.314   2.841
 9033SOL    HW127998   0.421   4.306   2.764
 9033SOL    HW227999   0.384   4.393   2.897
 9034SOL     OW28000   2.876   5.603   4.739
 9034SOL    HW128001   2.792   5.583   4.687
 9034SOL    HW228002   2.956   5.584   4.682
 9035SOL     OW28003   2.578   4.709   6.977
 9035SOL    HW128004   2.479   4.715   6.966
 9035SOL    HW228005   2.603   4.736   0.047
 9036SOL     OW28006   2.223   3.281   5.720
 9036SOL    HW128007   2.245   3.299   5.816
 9036SOL    HW228008   2.300   3.236   5.675
 9037SOL     OW28009   1.146   4.262   3.900
 9037SOL    HW128010   1.118   4.275   3.995
 9037SOL    HW228011   1.214   4.189   3.895
 9038SOL     OW28012   4.671   2.113   6.530
 9038SOL    HW128013   4.713   2.036   6.483
 9038SOL    HW228014   4.738   2.186   6.543
 9039SOL     OW28015   1.994   4.895   6.161
 9039SOL    HW128016   1.977   4.796   6.167
 9039SOL    HW228017   1.912   4.944   6.191
 9040SOL     OW28018   2.554   2.510   2.775
 9040SOL    HW128019   2.494   2.560   2.838
 9040SOL    HW228020   2.545   2.549   2.684
 9041SOL     OW28021   1.380   2.346   0.696
 9041SOL    HW128022   1.361   2.256   0.658
 9041SOL    HW228023   1.308   2.409   0.669
 9042SOL     OW28024   4.318   0.244   4.343
 9042SOL    HW128025   4.310   0.295   4.428
 9042SOL    HW228026   4.349   0.151   4.362
 9043SOL     OW28027   2.415   0.847   6.045
 9043SOL    HW128028   2.380   0.913   5.978
 9043SOL    HW228029   2.341   0.785   6.072
 9044SOL     OW28030   6.353   0.538   0.682
 9044SOL    HW128031   6.439   0.531   0.630
 9044SOL    HW228032   6.294   0.461   0.659
 9045SOL     OW28033   3.517   1.317   2.464
 9045SOL    HW128034   3.454   1.258   2.514
 9045SOL    HW228035   3.473   1.406   2.448
 9046SOL     OW28036   3.428   4.030   3.029
 9046SOL    HW128037   3.522   4.048   3.059
 9046SOL    HW228038   3.366   4.035   3.108
 9047SOL     OW28039   1.757   3.627   4.752
 9047SOL    HW128040   1.739   3.554   4.818
 9047SOL    HW228041   1.687   3.625   4.680
 9048SOL     OW28042   6.652   3.206   6.016
 9048SOL    HW128043   6.705   3.286   6.042
 9048SOL    HW228044   6.663   3.190   5.918
 9049SOL     OW28045   3.794   6.705   5.578
 9049SOL    HW128046   3.878   6.757   5.561
 9049SOL    HW228047   3.809   6.641   5.653
 9050SOL     OW28048   0.905   3.810   1.212
 9050SOL    HW128049   0.954   3.828   1.297
 9050SOL    HW228050   0.933   3.877   1.143
 9051SOL     OW28051   2.879   0.344   1.307
 9051SOL    HW128052   2.908   0.254   1.339
 9051SOL    HW228053   2.943   0.378   1.238
 9052SOL     OW28054   2.553   2.521   3.924
 9052SOL    HW128055   2.499   2.437   3.913
 9052SOL    HW228056   2.634   2.501   3.978
 9053SOL     OW28057   2.547   1.380   2.331
 9053SOL    HW128058   2.568   1.335   2.417
 9053SOL    HW228059   2.630   1.420   2.292
 9054SOL     OW28060   3.167   5.682   4.329
 9054SOL    HW128061   3.163   5.655   4.425
 9054SOL    HW228062   3.205   5.774   4.322
 9055SOL     OW28063   5.867   1.771   4.218
 9055SOL    HW128064   5.849   1.840   4.289
 9055SOL    HW228065   5.945   1.801   4.162
 9056SOL     OW28066   0.539   2.325   1.481
 9056SOL    HW128067   0.564   2.228   1.479
 9056SOL    HW228068   0.476   2.342   1.557
 9057SOL     OW28069   4.367   3.023   5.536
 9057SOL    HW128070   4.427   2.981   5.469
 9057SOL    HW228071   4.339   3.114   5.505
 9058SOL     OW28072   1.575   1.142   1.938
 9058SOL    HW128073   1.577   1.141   2.038
 9058SOL    HW228074   1.564   1.048   1.904
 9059SOL     OW28075   1.166   2.555   2.807
 9059SOL    HW128076   1.237   2.564   2.877
 9059SOL    HW228077   1.197   2.598   2.723
 9060SOL     OW28078   5.762   2.612   4.505
 9060SOL    HW128079   5.716   2.617   4.416
 9060SOL    HW228080   5.708   2.662   4.573
 9061SOL     OW28081   2.870   5.471   2.316
 9061SOL    HW128082   2.791   5.504   2.367
 9061SOL    HW228083   2.952   5.478   2.373
 9062SOL     OW28084   1.339   6.145   2.109
 9062SOL    HW128085   1.280   6.090   2.051
 9062SOL    HW228086   1.380   6.219   2.056
 9063SOL     OW28087   2.689   0.444   4.051
 9063SOL    HW128088   2.696   0.424   4.149
 9063SOL    HW228089   2.680   0.543   4.038
 9064SOL     OW28090   6.258   3.292   6.498
 9064SOL    HW128091   6.184   3.359   6.490
 9064SOL    HW228092   6.226   3.212   6.548
 9065SOL     OW28093   3.758   0.334   0.223
 9065SOL    HW128094   3.784   0.278   0.301
 9065SOL    HW228095   3.754   0.276   0.141
 9066SOL     OW28096   5.244   6.748   0.210
 9066SOL    HW128097   5.182   6.813   0.253
 9066SOL    HW228098   5.336   6.760   0.247
 9067SOL     OW28099   0.988   0.681   3.725
 9067SOL    HW128100   1.007   0.665   3.822
 9067SOL    HW228101   0.942   0.601   3.686
 9068SOL     OW28102   1.811   6.258   4.469
 9068SOL    HW128103   1.856   6.290   4.386
 9068SOL    HW228104   1.714   6.285   4.467
 9069SOL     OW28105   1.346   3.370   0.917
 9069SOL    HW128106   1.315   3.383   0.822
 9069SOL    HW228107   1.273   3.327   0.970
 9070SOL     OW28108   1.712   3.698   5.043
 9070SOL    HW128109   1.681   3.612   5.084
 9070SOL    HW228110   1.643   3.731   4.979
 9071SOL     OW28111   6.870   6.445   1.143
 9071SOL    HW128112   6.787   6.492   1.171
 9071SOL    HW228113   6.847   6.363   1.091
 9072SOL     OW28114   0.107   2.683   1.184
 9072SOL    HW128115   0.139   2.695   1.090
 9072SOL    HW228116   0.174   2.630   1.236
 9073SOL     OW28117   2.012   0.033   2.211
 9073SOL    HW128118   2.013   0.046   2.311
 9073SOL    HW228119   1.951   0.100   2.170
 9074SOL     OW28120   1.032   0.478   2.414
 9074SOL    HW128121   1.127   0.496   2.438
 9074SOL    HW228122   0.973   0.547   2.456
 9075SOL     OW28123   6.902   1.494   2.322
 9075SOL    HW128124   6.919   1.560   2.396
 9075SOL    HW228125   6.865   1.409   2.361
 9076SOL     OW28126   0.380   1.146   6.541
 9076SOL    HW128127   0.370   1.201   6.623
 9076SOL    HW228128   0.354   1.051   6.561
 9077SOL     OW28129   4.232   6.685   1.526
 9077SOL    HW128130   4.173   6.694   1.446
 9077SOL    HW228131   4.197   6.743   1.599
 9078SOL     OW28132   3.515   3.170   4.561
 9078SOL    HW128133   3.415   3.172   4.549
 9078SOL    HW228134   3.553   3.094   4.509
 9079SOL     OW28135   2.678   0.787   4.676
 9079SOL    HW128136   2.777   0.788   4.664
 9079SOL    HW228137   2.655   0.819   4.768
 9080SOL     OW28138   5.420   2.935   6.315
 9080SOL    HW128139   5.385   2.884   6.237
 9080SOL    HW228140   5.384   3.029   6.312
 9081SOL     OW28141   5.213   6.219   2.304
 9081SOL    HW128142   5.240   6.183   2.393
 9081SOL    HW228143   5.158   6.302   2.316
 9082SOL     OW28144   1.621   0.230   4.553
 9082SOL    HW128145   1.575   0.316   4.577
 9082SOL    HW228146   1.623   0.220   4.453
 9083SOL     OW28147   4.628   4.801   5.907
 9083SOL    HW128148   4.702   4.737   5.888
 9083SOL    HW228149   4.622   4.816   6.006
 9084SOL     OW28150   3.954   3.858   3.132
 9084SOL    HW128151   3.873   3.801   3.144
 9084SOL    HW228152   3.957   3.927   3.204
 9085SOL     OW28153   2.436   0.621   0.680
 9085SOL    HW128154   2.400   0.544   0.733
 9085SOL    HW228155   2.399   0.618   0.587
 9086SOL     OW28156   0.594   4.205   0.401
 9086SOL    HW128157   0.641   4.136   0.456
 9086SOL    HW228158   0.661   4.259   0.350
 9087SOL     OW28159   5.073   2.747   1.838
 9087SOL    HW128160   5.033   2.675   1.894
 9087SOL    HW228161   5.075   2.832   1.890
 9088SOL     OW28162   6.287   0.384   1.157
 9088SOL    HW128163   6.355   0.356   1.225
 9088SOL    HW228164   6.301   0.331   1.073
 9089SOL     OW28165   5.384   6.539   5.749
 9089SOL    HW128166   5.287   6.549   5.726
 9089SOL    HW228167   5.405   6.600   5.826
 9090SOL     OW28168   6.088   1.118   5.543
 9090SOL    HW128169   6.102   1.212   5.574
 9090SOL    HW228170   6.028   1.118   5.463
 9091SOL     OW28171   2.997   3.726   6.865
 9091SOL    HW128172   2.918   3.736   6.804
 9091SOL    HW228173   2.965   3.723   6.960
 9092SOL     OW28174   6.719   1.143   0.327
 9092SOL    HW128175   6.724   1.052   0.284
 9092SOL    HW228176   6.740   1.134   0.424
 9093SOL     OW28177   1.925   5.860   5.615
 9093SOL    HW128178   1.942   5.842   5.519
 9093SOL    HW228179   1.893   5.777   5.660
 9094SOL     OW28180   6.871   4.355   2.597
 9094SOL    HW128181   6.826   4.362   2.508
 9094SOL    HW228182   6.886   4.447   2.634
 9095SOL     OW28183   4.901   4.831   5.973
 9095SOL    HW128184   4.944   4.830   6.063
 9095SOL    HW228185   4.835   4.907   5.969
 9096SOL     OW28186   0.054   5.071   3.649
 9096SOL    HW128187   7.000   5.116   3.694
 9096SOL    HW228188   0.050   5.088   3.551
 9097SOL     OW28189   2.026   2.030   6.712
 9097SOL    HW128190   1.999   2.035   6.808
 9097SOL    HW228191   2.056   1.937   6.690
 9098SOL     OW28192   2.563   2.249   5.133
 9098SOL    HW128193   2.524   2.293   5.052
 9098SOL    HW228194   2.643   2.301   5.163
 9099SOL     OW28195   2.534   3.045   6.560
 9099SOL    HW128196   2.577   2.961   6.525
 9099SOL    HW228197   2.471   3.080   6.491
 9100SOL     OW28198   1.140   3.796   2.105
 9100SOL    HW128199   1.123   3.767   2.199
 9100SOL    HW228200   1.054   3.822   2.062
 9101SOL     OW28201   2.944   1.526   2.598
 9101SOL    HW128202   2.855   1.550   2.636
 9101SOL    HW228203   2.958   1.574   2.512
 9102SOL     OW28204   4.114   6.751   2.079
 9102SOL    HW128205   4.021   6.768   2.047
 9102SOL    HW228206   4.112   6.719   2.173
 9103SOL     OW28207   5.809   1.478   6.775
 9103SOL    HW128208   5.794   1.518   6.685
 9103SOL    HW228209   5.905   1.492   6.802
 9104SOL     OW28210   6.779   0.169   1.938
 9104SOL    HW128211   6.809   0.265   1.936
 9104SOL    HW228212   6.810   0.126   2.023
 9105SOL     OW28213   1.070   6.726   5.061
 9105SOL    HW128214   1.008   6.802   5.040
 9105SOL    HW228215   1.131   6.710   4.983
 9106SOL     OW28216   0.687   3.747   0.096
 9106SOL    HW128217   0.630   3.668   0.074
 9106SOL    HW228218   0.632   3.831   0.087
 9107SOL     OW28219   2.185   0.722   6.157
 9107SOL    HW128220   2.114   0.774   6.205
 9107SOL    HW228221   2.170   0.624   6.174
 9108SOL     OW28222   5.051   4.566   5.258
 9108SOL    HW128223   4.979   4.569   5.327
 9108SOL    HW228224   5.083   4.659   5.240
 9109SOL     OW28225   4.870   3.006   2.510
 9109SOL    HW128226   4.834   2.992   2.417
 9109SOL    HW228227   4.905   3.099   2.518
 9110SOL     OW28228   0.910   5.650   4.268
 9110SOL    HW128229   0.867   5.560   4.274
 9110SOL    HW228230   0.841   5.718   4.243
 9111SOL     OW28231   4.778   3.115   6.058
 9111SOL    HW128232   4.680   3.125   6.039
 9111SOL    HW228233   4.801   3.018   6.063
 9112SOL     OW28234   1.581   4.988   2.917
 9112SOL    HW128235   1.642   5.030   2.985
 9112SOL    HW228236   1.598   4.890   2.914
 9113SOL     OW28237   5.792   2.524   3.655
 9113SOL    HW128238   5.768   2.621   3.660
 9113SOL    HW228239   5.870   2.513   3.594
 9114SOL     OW28240   1.365   6.371   3.819
 9114SOL    HW128241   1.284   6.343   3.870
 9114SOL    HW228242   1.446   6.358   3.875
 9115SOL     OW28243   6.382   4.936   3.126
 9115SOL    HW128244   6.430   4.954   3.212
 9115SOL    HW228245   6.348   4.842   3.125
 9116SOL     OW28246   0.399   6.949   2.975
 9116SOL    HW128247   0.428   7.010   3.049
 9116SOL    HW228248   0.421   6.855   2.998
 9117SOL     OW28249   4.085   1.057   6.662
 9117SOL    HW128250   4.095   1.156   6.647
 9117SOL    HW228251   3.989   1.031   6.652
 9118SOL     OW28252   6.236   3.982   0.522
 9118SOL    HW128253   6.150   3.935   0.539
 9118SOL    HW228254   6.279   4.008   0.609
 9119SOL     OW28255   3.868   6.783   1.518
 9119SOL    HW128256   3.862   6.851   1.445
 9119SOL    HW228257   3.932   6.816   1.589
 9120SOL     OW28258   6.980   2.725   6.049
 9120SOL    HW128259   6.923   2.699   6.127
 9120SOL    HW228260   0.053   2.724   6.077
 9121SOL     OW28261   3.675   0.314   5.450
 9121SOL    HW128262   3.748   0.331   5.384
 9121SOL    HW228263   3.673   0.217   5.473
 9122SOL     OW28264   2.219   3.920   2.102
 9122SOL    HW128265   2.174   4.007   2.121
 9122SOL    HW228266   2.316   3.928   2.122
 9123SOL     OW28267   1.555   0.140   3.394
 9123SOL    HW128268   1.632   0.202   3.377
 9123SOL    HW228269   1.562   0.103   3.487
 9124SOL     OW28270   3.547   5.012   1.814
 9124SOL    HW128271   3.460   5.010   1.766
 9124SOL    HW228272   3.567   4.921   1.851
 9125SOL     OW28273   3.671   5.951   0.393
 9125SOL    HW128274   3.734   5.891   0.343
 9125SOL    HW228275   3.722   6.020   0.443
 9126SOL     OW28276   4.239   4.502   1.118
 9126SOL    HW128277   4.332   4.519   1.152
 9126SOL    HW228278   4.232   4.408   1.086
 9127SOL     OW28279   7.010   3.060   5.027
 9127SOL    HW128280   0.074   3.096   5.061
 9127SOL    HW228281   6.996   3.090   4.933
 9128SOL     OW28282   6.252   2.980   4.674
 9128SOL    HW128283   6.234   2.884   4.651
 9128SOL    HW228284   6.303   2.985   4.760
 9129SOL     OW28285   2.021   1.917   0.945
 9129SOL    HW128286   2.070   1.831   0.955
 9129SOL    HW228287   1.960   1.930   1.024
 9130SOL     OW28288   2.431   3.930   5.767
 9130SOL    HW128289   2.529   3.934   5.751
 9130SOL    HW228290   2.389   3.868   5.702
 9131SOL     OW28291   5.346   2.574   0.124
 9131SOL    HW128292   5.400   2.656   0.104
 9131SOL    HW228293   5.267   2.599   0.181
 9132SOL     OW28294   1.041   4.629   3.951
 9132SOL    HW128295   1.038   4.628   3.852
 9132SOL    HW228296   1.037   4.724   3.983
 9133SOL     OW28297   3.563   0.864   1.068
 9133SOL    HW128298   3.498   0.874   0.993
 9133SOL    HW228299   3.523   0.899   1.152
 9134SOL     OW28300   4.545   5.361   0.944
 9134SOL    HW128301   4.500   5.401   1.023
 9134SOL    HW228302   4.531   5.419   0.864
 9135SOL     OW28303   1.173   5.930   2.011
 9135SOL    HW128304   1.220   5.914   1.924
 9135SOL    HW228305   1.094   5.869   2.017
 9136SOL     OW28306   5.420   4.839   6.210
 9136SOL    HW128307   5.390   4.780   6.136
 9136SOL    HW228308   5.517   4.860   6.200
 9137SOL     OW28309   5.065   6.055   6.157
 9137SOL    HW128310   5.123   5.974   6.157
 9137SOL    HW228311   4.970   6.027   6.168
 9138SOL     OW28312   2.098   3.032   0.348
 9138SOL    HW128313   2.111   3.113   0.405
 9138SOL    HW228314   2.062   2.958   0.405
 9139SOL     OW28315   0.250   0.426   1.422
 9139SOL    HW128316   0.238   0.471   1.333
 9139SOL    HW228317   0.234   0.491   1.495
 9140SOL     OW28318   0.167   4.573   1.872
 9140SOL    HW128319   0.185   4.657   1.821
 9140SOL    HW228320   0.081   4.534   1.841
 9141SOL     OW28321   6.863   5.377   6.187
 9141SOL    HW128322   6.867   5.477   6.196
 9141SOL    HW228323   6.784   5.341   6.236
 9142SOL     OW28324   0.346   3.340   3.109
 9142SOL    HW128325   0.370   3.382   3.021
 9142SOL    HW228326   0.338   3.241   3.097
 9143SOL     OW28327   0.126   3.948   2.290
 9143SOL    HW128328   0.222   3.918   2.290
 9143SOL    HW228329   0.066   3.870   2.304
 9144SOL     OW28330   2.949   5.305   4.655
 9144SOL    HW128331   3.047   5.322   4.662
 9144SOL    HW228332   2.912   5.286   4.746
 9145SOL     OW28333   1.256   6.633   6.230
 9145SOL    HW128334   1.240   6.729   6.249
 9145SOL    HW228335   1.169   6.584   6.224
 9146SOL     OW28336   5.803   3.362   3.626
 9146SOL    HW128337   5.902   3.349   3.619
 9146SOL    HW228338   5.773   3.431   3.560
 9147SOL     OW28339   5.561   6.999   4.222
 9147SOL    HW128340   5.648   0.004   4.182
 9147SOL    HW228341   5.571   6.910   4.265
 9148SOL     OW28342   6.344   0.346   1.942
 9148SOL    HW128343   6.443   0.354   1.942
 9148SOL    HW228344   6.303   0.435   1.921
 9149SOL     OW28345   5.969   2.747   1.119
 9149SOL    HW128346   6.010   2.656   1.113
 9149SOL    HW228347   5.987   2.796   1.034
 9150SOL     OW28348   2.527   4.030   6.779
 9150SOL    HW128349   2.461   4.103   6.762
 9150SOL    HW228350   2.529   3.967   6.701
 9151SOL     OW28351   2.179   3.728   3.851
 9151SOL    HW128352   2.149   3.775   3.934
 9151SOL    HW228353   2.214   3.637   3.875
 9152SOL     OW28354   2.129   3.917   4.077
 9152SOL    HW128355   2.060   3.849   4.099
 9152SOL    HW228356   2.150   3.972   4.158
 9153SOL     OW28357   0.032   2.165   6.666
 9153SOL    HW128358   0.015   2.068   6.681
 9153SOL    HW228359   6.977   2.219   6.695
 9154SOL     OW28360   6.329   5.634   3.438
 9154SOL    HW128361   6.304   5.721   3.479
 9154SOL    HW228362   6.398   5.650   3.367
 9155SOL     OW28363   1.644   5.748   2.755
 9155SOL    HW128364   1.628   5.677   2.687
 9155SOL    HW228365   1.643   5.838   2.711
 9156SOL     OW28366   6.771   3.679   0.779
 9156SOL    HW128367   6.769   3.581   0.758
 9156SOL    HW228368   6.754   3.732   0.696
 9157SOL     OW28369   3.520   4.033   6.339
 9157SOL    HW128370   3.557   4.102   6.277
 9157SOL    HW228371   3.481   3.957   6.287
 9158SOL     OW28372   6.670   3.620   4.115
 9158SOL    HW128373   6.646   3.533   4.071
 9158SOL    HW228374   6.591   3.655   4.165
 9159SOL     OW28375   3.077   6.950   3.172
 9159SOL    HW128376   3.061   6.976   3.077
 9159SOL    HW228377   3.176   6.947   3.190
 9160SOL     OW28378   0.851   4.779   6.563
 9160SOL    HW128379   0.793   4.808   6.488
 9160SOL    HW228380   0.898   4.858   6.602
 9161SOL     OW28381   5.972   3.705   1.676
 9161SOL    HW128382   6.050   3.741   1.727
 9161SOL    HW228383   5.989   3.609   1.654
 9162SOL     OW28384   4.264   1.734   2.741
 9162SOL    HW128385   4.338   1.783   2.788
 9162SOL    HW228386   4.250   1.645   2.785
 9163SOL     OW28387   1.002   2.501   3.051
 9163SOL    HW128388   1.067   2.547   3.112
 9163SOL    HW228389   1.047   2.424   3.006
 9164SOL     OW28390   2.239   0.113   6.536
 9164SOL    HW128391   2.192   0.025   6.528
 9164SOL    HW228392   2.271   0.143   6.446
 9165SOL     OW28393   4.987   2.682   5.211
 9165SOL    HW128394   4.980   2.633   5.124
 9165SOL    HW228395   4.905   2.738   5.224
 9166SOL     OW28396   4.810   5.817   1.916
 9166SOL    HW128397   4.759   5.831   1.831
 9166SOL    HW228398   4.781   5.886   1.983
 9167SOL     OW28399   1.063   0.887   5.595
 9167SOL    HW128400   1.031   0.893   5.690
 9167SOL    HW228401   1.132   0.815   5.588
 9168SOL     OW28402   6.653   5.152   4.791
 9168SOL    HW128403   6.670   5.232   4.734
 9168SOL    HW228404   6.739   5.118   4.829
 9169SOL     OW28405   5.966   5.794   6.712
 9169SOL    HW128406   5.958   5.800   6.613
 9169SOL    HW228407   6.062   5.804   6.738
 9170SOL     OW28408   1.375   1.439   6.238
 9170SOL    HW128409   1.394   1.362   6.300
 9170SOL    HW228410   1.280   1.434   6.208
 9171SOL     OW28411   2.943   5.128   0.712
 9171SOL    HW128412   3.020   5.148   0.772
 9171SOL    HW228413   2.864   5.100   0.767
 9172SOL     OW28414   5.406   1.313   4.709
 9172SOL    HW128415   5.494   1.322   4.755
 9172SOL    HW228416   5.382   1.217   4.701
 9173SOL     OW28417   6.039   2.495   3.818
 9173SOL    HW128418   6.067   2.499   3.914
 9173SOL    HW228419   5.954   2.443   3.810
 9174SOL     OW28420   1.040   5.810   7.012
 9174SOL    HW128421   0.982   5.848   6.940
 9174SOL    HW228422   1.102   5.743   6.972
 9175SOL     OW28423   1.791   6.939   0.219
 9175SOL    HW128424   1.783   7.014   0.153
 9175SOL    HW228425   1.876   6.889   0.201
 9176SOL     OW28426   1.999   1.279   2.933
 9176SOL    HW128427   2.017   1.268   3.030
 9176SOL    HW228428   1.902   1.260   2.915
 9177SOL     OW28429   0.583   4.778   4.046
 9177SOL    HW128430   0.493   4.770   4.002
 9177SOL    HW228431   0.574   4.764   4.144
 9178SOL     OW28432   2.291   6.578   0.036
 9178SOL    HW128433   2.245   6.627   0.109
 9178SOL    HW228434   2.235   6.582   6.976
 9179SOL     OW28435   4.287   6.454   5.300
 9179SOL    HW128436   4.365   6.460   5.361
 9179SOL    HW228437   4.285   6.363   5.257
 9180SOL     OW28438   6.850   1.781   4.196
 9180SOL    HW128439   6.816   1.867   4.233
 9180SOL    HW228440   6.870   1.793   4.098
 9181SOL     OW28441   4.379   1.814   3.560
 9181SOL    HW128442   4.465   1.807   3.510
 9181SOL    HW228443   4.393   1.784   3.654
 9182SOL     OW28444   2.258   1.235   2.892
 9182SOL    HW128445   2.160   1.258   2.894
 9182SOL    HW228446   2.273   1.161   2.826
 9183SOL     OW28447   5.438   2.616   5.987
 9183SOL    HW128448   5.471   2.678   6.059
 9183SOL    HW228449   5.457   2.657   5.898
 9184SOL     OW28450   3.334   3.050   0.632
 9184SOL    HW128451   3.363   2.959   0.605
 9184SOL    HW228452   3.384   3.078   0.715
 9185SOL     OW28453   0.818   0.454   7.018
 9185SOL    HW128454   0.852   0.378   6.962
 9185SOL    HW228455   0.720   0.466   7.002
 9186SOL     OW28456   5.104   0.449   6.632
 9186SOL    HW128457   5.127   0.354   6.651
 9186SOL    HW228458   5.011   0.454   6.596
 9187SOL     OW28459   5.010   1.868   0.119
 9187SOL    HW128460   4.940   1.798   0.103
 9187SOL    HW228461   5.048   1.856   0.211
 9188SOL     OW28462   1.300   0.252   1.950
 9188SOL    HW128463   1.207   0.242   1.987
 9188SOL    HW228464   1.336   0.163   1.923
 9189SOL     OW28465   2.630   1.477   3.466
 9189SOL    HW128466   2.650   1.575   3.465
 9189SOL    HW228467   2.695   1.431   3.526
 9190SOL     OW28468   5.826   3.921   5.520
 9190SOL    HW128469   5.827   3.827   5.486
 9190SOL    HW228470   5.746   3.969   5.483
 9191SOL     OW28471   5.292   6.407   6.362
 9191SOL    HW128472   5.218   6.344   6.341
 9191SOL    HW228473   5.353   6.416   6.283
 9192SOL     OW28474   0.240   4.236   5.983
 9192SOL    HW128475   0.304   4.313   5.993
 9192SOL    HW228476   0.291   4.151   5.973
 9193SOL     OW28477   4.096   3.299   3.126
 9193SOL    HW128478   4.101   3.339   3.217
 9193SOL    HW228479   4.082   3.200   3.133
 9194SOL     OW28480   2.929   5.800   2.873
 9194SOL    HW128481   2.848   5.750   2.905
 9194SOL    HW228482   3.009   5.740   2.876
 9195SOL     OW28483   0.285   3.051   3.491
 9195SOL    HW128484   0.291   2.957   3.457
 9195SOL    HW228485   0.215   3.100   3.439
 9196SOL     OW28486   3.902   0.779   3.363
 9196SOL    HW128487   3.884   0.863   3.413
 9196SOL    HW228488   3.994   0.746   3.385
 9197SOL     OW28489   2.942   3.120   6.802
 9197SOL    HW128490   2.990   3.061   6.737
 9197SOL    HW228491   2.877   3.178   6.753
 9198SOL     OW28492   5.650   3.644   5.704
 9198SOL    HW128493   5.629   3.676   5.611
 9198SOL    HW228494   5.566   3.640   5.757
 9199SOL     OW28495   1.720   3.871   6.406
 9199SOL    HW128496   1.724   3.777   6.441
 9199SOL    HW228497   1.627   3.907   6.418
 9200SOL     OW28498   6.585   0.125   0.925
 9200SOL    HW128499   6.645   0.206   0.926
 9200SOL    HW228500   6.603   0.072   0.842
 9201SOL     OW28501   6.942   4.407   1.784
 9201SOL    HW128502   6.896   4.478   1.730
 9201SOL    HW228503   6.972   4.333   1.723
 9202SOL     OW28504   2.507   4.936   4.254
 9202SOL    HW128505   2.514   4.977   4.345
 9202SOL    HW228506   2.594   4.893   4.230
 9203SOL     OW28507   5.535   1.205   5.905
 9203SOL    HW128508   5.567   1.185   5.812
 9203SOL    HW228509   5.439   1.234   5.901
 9204SOL     OW28510   5.375   3.957   3.360
 9204SOL    HW128511   5.437   3.884   3.333
 9204SOL    HW228512   5.281   3.930   3.339
 9205SOL     OW28513   6.127   3.104   2.700
 9205SOL    HW128514   6.051   3.169   2.692
 9205SOL    HW228515   6.095   3.012   2.680
 9206SOL     OW28516   1.933   6.216   3.597
 9206SOL    HW128517   2.023   6.187   3.629
 9206SOL    HW228518   1.892   6.143   3.543
 9207SOL     OW28519   4.404   5.903   6.254
 9207SOL    HW128520   4.382   5.998   6.232
 9207SOL    HW228521   4.323   5.858   6.290
 9208SOL     OW28522   4.993   3.326   2.078
 9208SOL    HW128523   4.965   3.420   2.056
 9208SOL    HW228524   5.052   3.327   2.158
 9209SOL     OW28525   4.039   1.695   3.066
 9209SOL    HW128526   4.044   1.661   2.972
 9209SOL    HW228527   4.020   1.619   3.129
 9210SOL     OW28528   2.282   0.407   1.296
 9210SOL    HW128529   2.327   0.403   1.385
 9210SOL    HW228530   2.328   0.347   1.231
 9211SOL     OW28531   4.918   1.577   6.451
 9211SOL    HW128532   4.911   1.621   6.362
 9211SOL    HW228533   4.942   1.645   6.520
 9212SOL     OW28534   5.255   4.423   4.245
 9212SOL    HW128535   5.247   4.365   4.326
 9212SOL    HW228536   5.346   4.464   4.242
 9213SOL     OW28537   5.998   0.387   4.014
 9213SOL    HW128538   6.040   0.380   4.105
 9213SOL    HW228539   5.899   0.374   4.022
 9214SOL     OW28540   2.114   2.629   4.659
 9214SOL    HW128541   2.194   2.636   4.599
 9214SOL    HW228542   2.076   2.537   4.654
 9215SOL     OW28543   0.395   3.906   2.742
 9215SOL    HW128544   0.400   3.948   2.651
 9215SOL    HW228545   0.485   3.873   2.768
 9216SOL     OW28546   2.883   5.621   5.016
 9216SOL    HW128547   2.867   5.611   4.918
 9216SOL    HW228548   2.812   5.573   5.067
 9217SOL     OW28549   5.073   1.421   6.045
 9217SOL    HW128550   5.114   1.512   6.043
 9217SOL    HW228551   5.075   1.386   6.139
 9218SOL     OW28552   5.941   6.801   6.382
 9218SOL    HW128553   5.933   6.740   6.461
 9218SOL    HW228554   5.998   6.879   6.406
 9219SOL     OW28555   3.726   2.823   5.687
 9219SOL    HW128556   3.718   2.724   5.671
 9219SOL    HW228557   3.767   2.866   5.606
 9220SOL     OW28558   1.456   6.055   2.853
 9220SOL    HW128559   1.426   6.081   2.945
 9220SOL    HW228560   1.426   6.126   2.788
 9221SOL     OW28561   2.281   0.451   6.496
 9221SOL    HW128562   2.260   0.423   6.589
 9221SOL    HW228563   2.370   0.415   6.469
 9222SOL     OW28564   1.567   5.060   3.580
 9222SOL    HW128565   1.626   5.012   3.515
 9222SOL    HW228566   1.480   5.010   3.589
 9223SOL     OW28567   1.542   4.227   4.510
 9223SOL    HW128568   1.585   4.196   4.595
 9223SOL    HW228569   1.593   4.193   4.432
 9224SOL     OW28570   1.515   4.748   3.632
 9224SOL    HW128571   1.580   4.687   3.678
 9224SOL    HW228572   1.561   4.796   3.558
 9225SOL     OW28573   4.485   0.071   6.389
 9225SOL    HW128574   4.498   0.049   6.293
 9225SOL    HW228575   4.567   0.048   6.441
 9226SOL     OW28576   1.004   7.010   1.168
 9226SOL    HW128577   0.949   0.015   1.089
 9226SOL    HW228578   0.948   7.012   1.250
 9227SOL     OW28579   2.607   5.412   0.970
 9227SOL    HW128580   2.623   5.380   0.877
 9227SOL    HW228581   2.664   5.491   0.989
 9228SOL     OW28582   2.223   2.586   5.759
 9228SOL    HW128583   2.254   2.491   5.759
 9228SOL    HW228584   2.283   2.641   5.702
 9229SOL     OW28585   0.150   4.375   6.644
 9229SOL    HW128586   0.107   4.410   6.561
 9229SOL    HW228587   0.153   4.275   6.642
 9230SOL     OW28588   4.829   2.432   4.134
 9230SOL    HW128589   4.834   2.378   4.051
 9230SOL    HW228590   4.921   2.459   4.162
 9231SOL     OW28591   0.750   5.527   5.190
 9231SOL    HW128592   0.752   5.618   5.147
 9231SOL    HW228593   0.819   5.469   5.148
 9232SOL     OW28594   2.318   5.700   1.746
 9232SOL    HW128595   2.240   5.670   1.801
 9232SOL    HW228596   2.387   5.740   1.806
 9233SOL     OW28597   0.423   0.424   0.669
 9233SOL    HW128598   0.438   0.338   0.717
 9233SOL    HW228599   0.383   0.491   0.732
 9234SOL     OW28600   2.382   4.732   0.688
 9234SOL    HW128601   2.416   4.648   0.645
 9234SOL    HW228602   2.408   4.810   0.632
 9235SOL     OW28603   2.524   2.560   3.461
 9235SOL    HW128604   2.503   2.503   3.381
 9235SOL    HW228605   2.491   2.653   3.445
 9236SOL     OW28606   1.875   2.872   6.534
 9236SOL    HW128607   1.935   2.946   6.504
 9236SOL    HW228608   1.829   2.898   6.618
 9237SOL     OW28609   5.697   5.587   3.368
 9237SOL    HW128610   5.716   5.676   3.326
 9237SOL    HW228611   5.670   5.522   3.297
 9238SOL     OW28612   1.581   3.466   5.148
 9238SOL    HW128613   1.543   3.472   5.240
 9238SOL    HW228614   1.594   3.370   5.124
 9239SOL     OW28615   0.519   4.603   0.640
 9239SOL    HW128616   0.602   4.658   0.648
 9239SOL    HW228617   0.509   4.545   0.721
 9240SOL     OW28618   4.839   2.814   2.716
 9240SOL    HW128619   4.860   2.725   2.676
 9240SOL    HW228620   4.834   2.883   2.644
 9241SOL     OW28621   6.519   6.565   0.331
 9241SOL    HW128622   6.592   6.570   0.399
 9241SOL    HW228623   6.445   6.627   0.357
 9242SOL     OW28624   1.476   2.204   2.033
 9242SOL    HW128625   1.508   2.109   2.024
 9242SOL    HW228626   1.502   2.240   2.122
 9243SOL     OW28627   0.756   0.359   1.549
 9243SOL    HW128628   0.853   0.362   1.525
 9243SOL    HW228629   0.738   0.427   1.620
 9244SOL     OW28630   3.636   6.571   5.206
 9244SOL    HW128631   3.606   6.611   5.292
 9244SOL    HW228632   3.631   6.639   5.133
 9245SOL     OW28633   0.776   4.039   3.339
 9245SOL    HW128634   0.829   3.970   3.388
 9245SOL    HW228635   0.830   4.076   3.264
 9246SOL     OW28636   5.885   0.193   4.570
 9246SOL    HW128637   5.967   0.143   4.541
 9246SOL    HW228638   5.877   0.277   4.517
 9247SOL     OW28639   3.695   5.548   2.918
 9247SOL    HW128640   3.755   5.593   2.851
 9247SOL    HW228641   3.737   5.551   3.008
 9248SOL     OW28642   2.771   1.632   5.245
 9248SOL    HW128643   2.741   1.541   5.217
 9248SOL    HW228644   2.732   1.701   5.183
 9249SOL     OW28645   3.860   4.554   1.684
 9249SOL    HW128646   3.772   4.573   1.727
 9249SOL    HW228647   3.886   4.632   1.627
 9250SOL     OW28648   6.900   3.855   4.453
 9250SOL    HW128649   6.977   3.915   4.475
 9250SOL    HW228650   6.901   3.834   4.356
 9251SOL     OW28651   4.063   2.781   0.846
 9251SOL    HW128652   4.140   2.820   0.896
 9251SOL    HW228653   3.982   2.781   0.904
 9252SOL     OW28654   4.108   0.842   5.169
 9252SOL    HW128655   4.122   0.793   5.255
 9252SOL    HW228656   4.140   0.936   5.180
 9253SOL     OW28657   0.721   4.752   5.766
 9253SOL    HW128658   0.692   4.846   5.749
 9253SOL    HW228659   0.793   4.727   5.701
 9254SOL     OW28660   6.131   4.285   2.709
 9254SOL    HW128661   6.212   4.265   2.764
 9254SOL    HW228662   6.072   4.349   2.758
 9255SOL     OW28663   6.375   4.274   0.528
 9255SOL    HW128664   6.436   4.202   0.560
 9255SOL    HW228665   6.280   4.244   0.538
 9256SOL     OW28666   2.202   6.794   1.900
 9256SOL    HW128667   2.290   6.832   1.926
 9256SOL    HW228668   2.137   6.868   1.882
 9257SOL     OW28669   0.243   5.883   3.525
 9257SOL    HW128670   0.175   5.957   3.524
 9257SOL    HW228671   0.277   5.868   3.432
 9258SOL     OW28672   3.824   3.577   0.429
 9258SOL    HW128673   3.919   3.558   0.452
 9258SOL    HW228674   3.814   3.675   0.410
 9259SOL     OW28675   1.847   1.179   6.269
 9259SOL    HW128676   1.818   1.269   6.300
 9259SOL    HW228677   1.883   1.186   6.176
 9260SOL     OW28678   5.802   3.053   5.786
 9260SOL    HW128679   5.822   2.956   5.769
 9260SOL    HW228680   5.703   3.067   5.783
 9261SOL     OW28681   4.321   1.718   0.889
 9261SOL    HW128682   4.242   1.660   0.907
 9261SOL    HW228683   4.364   1.744   0.976
 9262SOL     OW28684   6.650   6.758   4.171
 9262SOL    HW128685   6.554   6.755   4.201
 9262SOL    HW228686   6.662   6.834   4.107
 9263SOL     OW28687   2.644   4.731   2.945
 9263SOL    HW128688   2.709   4.736   2.870
 9263SOL    HW228689   2.587   4.649   2.934
 9264SOL     OW28690   5.649   3.992   6.841
 9264SOL    HW128691   5.575   3.961   6.900
 9264SOL    HW228692   5.641   3.950   6.751
 9265SOL     OW28693   4.258   2.314   6.745
 9265SOL    HW128694   4.269   2.334   6.842
 9265SOL    HW228695   4.339   2.268   6.710
 9266SOL     OW28696   0.785   4.503   1.523
 9266SOL    HW128697   0.861   4.463   1.574
 9266SOL    HW228698   0.700   4.486   1.572
 9267SOL     OW28699   0.724   1.234   3.814
 9267SOL    HW128700   0.738   1.309   3.879
 9267SOL    HW228701   0.752   1.262   3.723
 9268SOL     OW28702   1.080   0.125   1.814
 9268SOL    HW128703   1.111   0.064   1.886
 9268SOL    HW228704   1.151   0.134   1.744
 9269SOL     OW28705   4.296   6.882   0.450
 9269SOL    HW128706   4.358   6.856   0.524
 9269SOL    HW228707   4.339   6.861   0.362
 9270SOL     OW28708   3.622   1.017   6.355
 9270SOL    HW128709   3.619   1.086   6.283
 9270SOL    HW228710   3.715   0.983   6.365
 9271SOL     OW28711   1.115   0.468   6.966
 9271SOL    HW128712   1.153   0.384   7.004
 9271SOL    HW228713   1.022   0.481   7.001
 9272SOL     OW28714   6.522   6.654   6.201
 9272SOL    HW128715   6.452   6.721   6.177
 9272SOL    HW228716   6.512   6.572   6.145
 9273SOL     OW28717   5.340   5.711   3.894
 9273SOL    HW128718   5.369   5.664   3.977
 9273SOL    HW228719   5.241   5.701   3.883
 9274SOL     OW28720   0.676   2.955   0.314
 9274SOL    HW128721   0.643   2.879   0.258
 9274SOL    HW228722   0.743   2.922   0.380
 9275SOL     OW28723   0.708   6.674   1.069
 9275SOL    HW128724   0.706   6.723   0.982
 9275SOL    HW228725   0.647   6.719   1.134
 9276SOL     OW28726   3.450   4.234   0.346
 9276SOL    HW128727   3.451   4.146   0.393
 9276SOL    HW228728   3.357   4.256   0.318
 9277SOL     OW28729   4.310   4.795   2.360
 9277SOL    HW128730   4.264   4.771   2.275
 9277SOL    HW228731   4.406   4.816   2.341
 9278SOL     OW28732   0.063   0.719   4.234
 9278SOL    HW128733   0.009   0.782   4.178
 9278SOL    HW228734   0.083   0.637   4.180
 9279SOL     OW28735   3.557   5.098   1.480
 9279SOL    HW128736   3.461   5.093   1.453
 9279SOL    HW228737   3.569   5.058   1.571
 9280SOL     OW28738   1.324   1.248   2.864
 9280SOL    HW128739   1.229   1.222   2.880
 9280SOL    HW228740   1.347   1.232   2.768
 9281SOL     OW28741   3.448   3.681   6.553
 9281SOL    HW128742   3.381   3.690   6.627
 9281SOL    HW228743   3.538   3.664   6.592
 9282SOL     OW28744   3.332   0.485   4.620
 9282SOL    HW128745   3.337   0.567   4.676
 9282SOL    HW228746   3.238   0.468   4.591
 9283SOL     OW28747   4.980   6.285   6.035
 9283SOL    HW128748   4.945   6.334   6.115
 9283SOL    HW228749   5.037   6.209   6.065
 9284SOL     OW28750   3.238   4.085   5.259
 9284SOL    HW128751   3.165   4.135   5.306
 9284SOL    HW228752   3.316   4.147   5.246
 9285SOL     OW28753   6.212   3.398   2.459
 9285SOL    HW128754   6.263   3.405   2.545
 9285SOL    HW228755   6.218   3.305   2.423
 9286SOL     OW28756   4.669   6.448   0.907
 9286SOL    HW128757   4.627   6.369   0.953
 9286SOL    HW228758   4.600   6.520   0.896
 9287SOL     OW28759   2.552   4.730   5.864
 9287SOL    HW128760   2.565   4.752   5.767
 9287SOL    HW228761   2.490   4.796   5.905
 9288SOL     OW28762   4.376   2.366   3.973
 9288SOL    HW128763   4.361   2.404   4.064
 9288SOL    HW228764   4.432   2.429   3.919
 9289SOL     OW28765   4.365   6.179   6.282
 9289SOL    HW128766   4.408   6.229   6.358
 9289SOL    HW228767   4.267   6.171   6.300
 9290SOL     OW28768   5.407   0.466   4.873
 9290SOL    HW128769   5.426   0.393   4.938
 9290SOL    HW228770   5.485   0.476   4.810
 9291SOL     OW28771   1.192   5.770   5.505
 9291SOL    HW128772   1.177   5.724   5.593
 9291SOL    HW228773   1.211   5.701   5.435
 9292SOL     OW28774   1.152   1.159   5.915
 9292SOL    HW128775   1.236   1.169   5.967
 9292SOL    HW228776   1.168   1.187   5.820
 9293SOL     OW28777   4.526   3.078   5.727
 9293SOL    HW128778   4.465   3.049   5.654
 9293SOL    HW228779   4.560   2.997   5.775
 9294SOL     OW28780   4.802   0.765   0.127
 9294SOL    HW128781   4.834   0.670   0.121
 9294SOL    HW228782   4.872   0.826   0.090
 9295SOL     OW28783   0.262   0.705   5.065
 9295SOL    HW128784   0.247   0.637   4.993
 9295SOL    HW228785   0.350   0.750   5.051
 9296SOL     OW28786   2.874   4.387   0.543
 9296SOL    HW128787   2.921   4.301   0.522
 9296SOL    HW228788   2.822   4.417   0.463
 9297SOL     OW28789   6.619   6.577   3.031
 9297SOL    HW128790   6.657   6.501   2.978
 9297SOL    HW228791   6.520   6.563   3.041
 9298SOL     OW28792   1.450   6.428   5.792
 9298SOL    HW128793   1.540   6.461   5.765
 9298SOL    HW228794   1.434   6.451   5.888
 9299SOL     OW28795   1.986   2.379   4.722
 9299SOL    HW128796   2.043   2.377   4.804
 9299SOL    HW228797   1.957   2.287   4.698
 9300SOL     OW28798   1.456   6.000   5.433
 9300SOL    HW128799   1.461   6.099   5.450
 9300SOL    HW228800   1.417   5.954   5.512
 9301SOL     OW28801   0.501   3.981   4.616
 9301SOL    HW128802   0.499   3.915   4.540
 9301SOL    HW228803   0.595   3.997   4.644
 9302SOL     OW28804   2.155   3.036   4.881
 9302SOL    HW128805   2.246   3.025   4.920
 9302SOL    HW228806   2.162   3.061   4.784
 9303SOL     OW28807   2.822   3.949   0.297
 9303SOL    HW128808   2.722   3.944   0.299
 9303SOL    HW228809   2.857   3.959   0.390
 9304SOL     OW28810   5.483   4.721   0.981
 9304SOL    HW128811   5.512   4.651   1.046
 9304SOL    HW228812   5.385   4.711   0.963
 9305SOL     OW28813   2.621   1.336   0.423
 9305SOL    HW128814   2.598   1.328   0.326
 9305SOL    HW228815   2.619   1.246   0.466
 9306SOL     OW28816   0.349   4.352   5.009
 9306SOL    HW128817   0.259   4.372   5.047
 9306SOL    HW228818   0.350   4.261   4.969
 9307SOL     OW28819   2.406   3.003   1.091
 9307SOL    HW128820   2.365   3.091   1.069
 9307SOL    HW228821   2.386   2.937   1.019
 9308SOL     OW28822   1.674   3.830   1.429
 9308SOL    HW128823   1.715   3.838   1.338
 9308SOL    HW228824   1.728   3.883   1.495
 9309SOL     OW28825   4.850   5.837   5.692
 9309SOL    HW128826   4.904   5.810   5.772
 9309SOL    HW228827   4.787   5.911   5.718
 9310SOL     OW28828   4.287   5.549   5.751
 9310SOL    HW128829   4.372   5.500   5.764
 9310SOL    HW228830   4.306   5.644   5.726
 9311SOL     OW28831   4.452   3.524   1.684
 9311SOL    HW128832   4.498   3.436   1.674
 9311SOL    HW228833   4.360   3.509   1.720
 9312SOL     OW28834   1.129   1.969   1.112
 9312SOL    HW128835   1.170   1.962   1.203
 9312SOL    HW228836   1.047   2.026   1.117
 9313SOL     OW28837   1.390   7.016   1.888
 9313SOL    HW128838   1.388   6.992   1.791
 9313SOL    HW228839   1.432   6.941   1.939
 9314SOL     OW28840   4.931   2.745   0.640
 9314SOL    HW128841   4.887   2.777   0.724
 9314SOL    HW228842   4.918   2.647   0.631
 9315SOL     OW28843   5.628   1.287   6.833
 9315SOL    HW128844   5.694   1.358   6.812
 9315SOL    HW228845   5.539   1.311   6.794
 9316SOL     OW28846   5.221   0.836   5.535
 9316SOL    HW128847   5.320   0.850   5.521
 9316SOL    HW228848   5.207   0.765   5.603
 9317SOL     OW28849   2.692   5.627   4.087
 9317SOL    HW128850   2.777   5.644   4.137
 9317SOL    HW228851   2.678   5.528   4.078
 9318SOL     OW28852   4.590   6.104   0.448
 9318SOL    HW128853   4.513   6.167   0.455
 9318SOL    HW228854   4.572   6.038   0.376
 9319SOL     OW28855   2.771   4.195   0.848
 9319SOL    HW128856   2.758   4.152   0.758
 9319SOL    HW228857   2.694   4.173   0.907
 9320SOL     OW28858   5.539   0.219   5.987
 9320SOL    HW128859   5.600   0.297   6.006
 9320SOL    HW228860   5.553   0.149   6.057
 9321SOL     OW28861   0.236   3.026   5.677
 9321SOL    HW128862   0.292   3.000   5.599
 9321SOL    HW228863   0.293   3.031   5.759
 9322SOL     OW28864   6.349   3.859   5.647
 9322SOL    HW128865   6.250   3.844   5.647
 9322SOL    HW228866   6.395   3.775   5.674
 9323SOL     OW28867   1.275   3.656   3.549
 9323SOL    HW128868   1.352   3.720   3.547
 9323SOL    HW228869   1.242   3.640   3.456
 9324SOL     OW28870   1.328   4.354   1.128
 9324SOL    HW128871   1.428   4.362   1.132
 9324SOL    HW228872   1.292   4.344   1.220
 9325SOL     OW28873   1.826   5.225   2.637
 9325SOL    HW128874   1.880   5.290   2.582
 9325SOL    HW228875   1.789   5.154   2.577
 9326SOL     OW28876   3.924   4.169   0.328
 9326SOL    HW128877   3.999   4.103   0.330
 9326SOL    HW228878   3.953   4.251   0.279
 9327SOL     OW28879   4.534   0.807   3.178
 9327SOL    HW128880   4.567   0.713   3.189
 9327SOL    HW228881   4.607   0.871   3.204
 9328SOL     OW28882   3.021   6.524   4.205
 9328SOL    HW128883   3.085   6.459   4.245
 9328SOL    HW228884   2.965   6.565   4.278
 9329SOL     OW28885   0.160   5.848   6.196
 9329SOL    HW128886   0.099   5.893   6.262
 9329SOL    HW228887   0.242   5.904   6.184
 9330SOL     OW28888   6.824   0.197   0.217
 9330SOL    HW128889   6.768   0.189   0.135
 9330SOL    HW228890   6.889   0.272   0.205
 9331SOL     OW28891   1.748   3.367   4.864
 9331SOL    HW128892   1.789   3.348   4.774
 9331SOL    HW228893   1.745   3.283   4.917
 9332SOL     OW28894   4.156   5.829   0.842
 9332SOL    HW128895   4.085   5.900   0.839
 9332SOL    HW228896   4.240   5.868   0.879
 9333SOL     OW28897   3.484   4.865   0.391
 9333SOL    HW128898   3.467   4.802   0.314
 9333SOL    HW228899   3.463   4.958   0.362
 9334SOL     OW28900   5.021   6.721   5.357
 9334SOL    HW128901   4.933   6.732   5.402
 9334SOL    HW228902   5.009   6.721   5.258
 9335SOL     OW28903   2.462   1.790   1.349
 9335SOL    HW128904   2.427   1.868   1.401
 9335SOL    HW228905   2.527   1.822   1.280
 9336SOL     OW28906   6.454   0.866   4.933
 9336SOL    HW128907   6.362   0.890   4.900
 9336SOL    HW228908   6.469   0.907   5.023
 9337SOL     OW28909   4.416   0.734   5.888
 9337SOL    HW128910   4.398   0.800   5.960
 9337SOL    HW228911   4.514   0.713   5.886
 9338SOL     OW28912   6.879   6.429   0.529
 9338SOL    HW128913   6.837   6.519   0.539
 9338SOL    HW228914   6.881   6.404   0.432
 9339SOL     OW28915   5.717   4.868   6.481
 9339SOL    HW128916   5.718   4.962   6.445
 9339SOL    HW228917   5.793   4.817   6.441
 9340SOL     OW28918   3.715   6.096   2.352
 9340SOL    HW128919   3.712   6.120   2.255
 9340SOL    HW228920   3.654   6.019   2.370
 9341SOL     OW28921   6.228   4.187   6.429
 9341SOL    HW128922   6.203   4.194   6.526
 9341SOL    HW228923   6.167   4.246   6.375
 9342SOL     OW28924   2.687   0.071   4.369
 9342SOL    HW128925   2.714   0.063   4.465
 9342SOL    HW228926   2.765   0.103   4.316
 9343SOL     OW28927   4.679   4.484   2.026
 9343SOL    HW128928   4.641   4.394   2.003
 9343SOL    HW228929   4.777   4.475   2.043
 9344SOL     OW28930   5.404   5.170   6.088
 9344SOL    HW128931   5.472   5.120   6.141
 9344SOL    HW228932   5.361   5.240   6.146
 9345SOL     OW28933   6.914   6.085   6.954
 9345SOL    HW128934   6.877   6.036   6.875
 9345SOL    HW228935   6.996   6.038   6.988
 9346SOL     OW28936   5.367   6.925   1.895
 9346SOL    HW128937   5.419   6.845   1.923
 9346SOL    HW228938   5.331   6.911   1.803
 9347SOL     OW28939   3.667   5.677   1.232
 9347SOL    HW128940   3.638   5.602   1.173
 9347SOL    HW228941   3.634   5.763   1.195
 9348SOL     OW28942   2.438   6.332   2.893
 9348SOL    HW128943   2.350   6.364   2.925
 9348SOL    HW228944   2.425   6.254   2.831
 9349SOL     OW28945   6.785   5.760   2.393
 9349SOL    HW128946   6.769   5.851   2.432
 9349SOL    HW228947   6.703   5.730   2.344
 9350SOL     OW28948   7.020   1.534   4.959
 9350SOL    HW128949   0.074   1.473   4.946
 9350SOL    HW228950   6.950   1.514   4.890
 9351SOL     OW28951   1.997   0.965   5.097
 9351SOL    HW128952   1.975   0.937   5.003
 9351SOL    HW228953   2.086   0.926   5.123
 9352SOL     OW28954   1.948   2.657   5.455
 9352SOL    HW128955   2.032   2.698   5.492
 9352SOL    HW228956   1.959   2.642   5.357
 9353SOL     OW28957   1.416   4.149   1.595
 9353SOL    HW128958   1.407   4.065   1.647
 9353SOL    HW228959   1.472   4.132   1.514
 9354SOL     OW28960   6.578   2.082   1.072
 9354SOL    HW128961   6.566   1.996   1.022
 9354SOL    HW228962   6.675   2.093   1.095
 9355SOL     OW28963   6.605   0.502   4.205
 9355SOL    HW128964   6.633   0.451   4.124
 9355SOL    HW228965   6.609   0.600   4.186
 9356SOL     OW28966   4.297   5.241   1.866
 9356SOL    HW128967   4.224   5.199   1.811
 9356SOL    HW228968   4.295   5.340   1.853
 9357SOL     OW28969   2.976   3.395   0.379
 9357SOL    HW128970   2.911   3.375   0.452
 9357SOL    HW228971   3.066   3.360   0.404
 9358SOL     OW28972   5.967   4.371   1.681
 9358SOL    HW128973   5.899   4.444   1.679
 9358SOL    HW228974   6.013   4.371   1.770
 9359SOL     OW28975   6.962   4.010   6.660
 9359SOL    HW128976   6.967   4.094   6.714
 9359SOL    HW228977   6.965   3.930   6.721
 9360SOL     OW28978   1.966   0.127   5.239
 9360SOL    HW128979   2.032   0.115   5.312
 9360SOL    HW228980   1.977   0.217   5.197
 9361SOL     OW28981   3.218   6.209   2.661
 9361SOL    HW128982   3.263   6.222   2.750
 9361SOL    HW228983   3.174   6.119   2.660
 9362SOL     OW28984   2.489   0.986   2.514
 9362SOL    HW128985   2.525   0.942   2.596
 9362SOL    HW228986   2.403   1.032   2.536
 9363SOL     OW28987   3.317   5.522   2.348
 9363SOL    HW128988   3.291   5.425   2.344
 9363SOL    HW228989   3.399   5.532   2.406
 9364SOL     OW28990   4.641   2.807   6.181
 9364SOL    HW128991   4.581   2.738   6.221
 9364SOL    HW228992   4.736   2.783   6.199
 9365SOL     OW28993   2.779   2.450   5.164
 9365SOL    HW128994   2.728   2.515   5.220
 9365SOL    HW228995   2.853   2.410   5.219
 9366SOL     OW28996   3.259   1.882   0.441
 9366SOL    HW128997   3.298   1.790   0.443
 9366SOL    HW228998   3.234   1.910   0.533
 9367SOL     OW28999   0.388   5.174   4.126
 9367SOL    HW129000   0.450   5.145   4.053
 9367SOL    HW229001   0.366   5.271   4.116
 9368SOL     OW29002   3.755   1.976   2.560
 9368SOL    HW129003   3.724   1.982   2.654
 9368SOL    HW229004   3.776   1.880   2.538
 9369SOL     OW29005   6.574   1.457   6.166
 9369SOL    HW129006   6.532   1.515   6.097
 9369SOL    HW229007   6.660   1.419   6.130
 9370SOL     OW29008   5.684   1.121   2.989
 9370SOL    HW129009   5.610   1.113   2.922
 9370SOL    HW229010   5.740   1.038   2.987
 9371SOL     OW29011   1.763   5.196   0.803
 9371SOL    HW129012   1.722   5.286   0.785
 9371SOL    HW229013   1.706   5.125   0.761
 9372SOL     OW29014   5.608   6.259   3.313
 9372SOL    HW129015   5.559   6.309   3.242
 9372SOL    HW229016   5.698   6.300   3.327
 9373SOL     OW29017   4.395   1.911   2.967
 9373SOL    HW129018   4.405   2.009   2.950
 9373SOL    HW229019   4.310   1.895   3.018
 9374SOL     OW29020   5.533   2.402   0.406
 9374SOL    HW129021   5.481   2.362   0.329
 9374SOL    HW229022   5.604   2.338   0.434
 9375SOL     OW29023   6.914   1.246   3.383
 9375SOL    HW129024   6.927   1.317   3.314
 9375SOL    HW229025   6.904   1.157   3.338
 9376SOL     OW29026   3.692   3.603   0.997
 9376SOL    HW129027   3.687   3.618   0.899
 9376SOL    HW229028   3.634   3.525   1.022
 9377SOL     OW29029   6.600   5.942   3.359
 9377SOL    HW129030   6.510   5.962   3.397
 9377SOL    HW229031   6.603   5.848   3.326
 9378SOL     OW29032   2.553   0.007   5.498
 9378SOL    HW129033   2.476   0.061   5.461
 9378SOL    HW229034   2.527   6.993   5.587
 9379SOL     OW29035   4.931   4.680   5.002
 9379SOL    HW129036   4.847   4.704   4.953
 9379SOL    HW229037   4.914   4.601   5.061
 9380SOL     OW29038   6.355   6.449   5.668
 9380SOL    HW129039   6.417   6.409   5.600
 9380SOL    HW229040   6.321   6.378   5.729
 9381SOL     OW29041   2.885   3.168   5.523
 9381SOL    HW129042   2.964   3.227   5.531
 9381SOL    HW229043   2.866   3.149   5.427
 9382SOL     OW29044   3.790   1.297   3.343
 9382SOL    HW129045   3.861   1.231   3.369
 9382SOL    HW229046   3.710   1.285   3.402
 9383SOL     OW29047   3.552   6.011   4.643
 9383SOL    HW129048   3.479   6.018   4.710
 9383SOL    HW229049   3.574   5.914   4.627
 9384SOL     OW29050   4.314   5.824   2.298
 9384SOL    HW129051   4.287   5.906   2.248
 9384SOL    HW229052   4.325   5.846   2.395
 9385SOL     OW29053   4.021   2.127   2.935
 9385SOL    HW129054   4.089   2.053   2.934
 9385SOL    HW229055   4.015   2.168   2.844
 9386SOL     OW29056   3.420   6.022   4.115
 9386SOL    HW129057   3.398   5.937   4.066
 9386SOL    HW229058   3.471   6.082   4.054
 9387SOL     OW29059   4.244   7.008   1.082
 9387SOL    HW129060   4.274   6.941   1.014
 9387SOL    HW229061   4.221   6.960   1.167
 9388SOL     OW29062   1.852   6.296   2.553
 9388SOL    HW129063   1.864   6.217   2.613
 9388SOL    HW229064   1.876   6.270   2.459
 9389SOL     OW29065   2.473   0.265   5.061
 9389SOL    HW129066   2.530   0.339   5.097
 9389SOL    HW229067   2.512   0.231   4.975
 9390SOL     OW29068   3.912   5.705   3.135
 9390SOL    HW129069   3.882   5.771   3.066
 9390SOL    HW229070   3.976   5.640   3.093
 9391SOL     OW29071   2.121   0.726   5.377
 9391SOL    HW129072   2.175   0.768   5.450
 9391SOL    HW229073   2.031   0.770   5.372
 9392SOL     OW29074   0.526   6.828   4.327
 9392SOL    HW129075   0.582   6.831   4.244
 9392SOL    HW229076   0.436   6.791   4.305
 9393SOL     OW29077   3.727   1.867   4.276
 9393SOL    HW129078   3.810   1.827   4.235
 9393SOL    HW229079   3.647   1.839   4.223
 9394SOL     OW29080   5.872   2.383   3.335
 9394SOL    HW129081   5.843   2.454   3.271
 9394SOL    HW229082   5.972   2.375   3.335
 9395SOL     OW29083   2.824   2.049   0.517
 9395SOL    HW129084   2.914   2.091   0.520
 9395SOL    HW229085   2.785   2.048   0.609
 9396SOL     OW29086   0.171   6.608   4.549
 9396SOL    HW129087   0.233   6.616   4.628
 9396SOL    HW229088   0.160   6.697   4.506
 9397SOL     OW29089   2.582   0.353   0.126
 9397SOL    HW129090   2.603   0.404   0.043
 9397SOL    HW229091   2.630   0.394   0.203
 9398SOL     OW29092   2.049   0.527   6.948
 9398SOL    HW129093   2.092   0.478   0.001
 9398SOL    HW229094   2.117   0.583   6.902
 9399SOL     OW29095   6.994   1.872   0.115
 9399SOL    HW129096   6.947   1.851   0.201
 9399SOL    HW229097   0.040   1.942   0.131
 9400SOL     OW29098   5.097   3.773   1.887
 9400SOL    HW129099   5.155   3.759   1.807
 9400SOL    HW229100   5.088   3.870   1.905
 9401SOL     OW29101   2.695   6.508   3.683
 9401SOL    HW129102   2.749   6.489   3.601
 9401SOL    HW229103   2.673   6.421   3.729
 9402SOL     OW29104   1.721   4.614   5.474
 9402SOL    HW129105   1.730   4.638   5.377
 9402SOL    HW229106   1.741   4.694   5.530
 9403SOL     OW29107   4.990   1.646   2.676
 9403SOL    HW129108   5.028   1.717   2.734
 9403SOL    HW229109   5.005   1.669   2.580
 9404SOL     OW29110   1.531   4.517   6.655
 9404SOL    HW129111   1.581   4.581   6.714
 9404SOL    HW229112   1.582   4.431   6.647
 9405SOL     OW29113   6.737   6.894   2.319
 9405SOL    HW129114   6.730   6.916   2.417
 9405SOL    HW229115   6.769   6.800   2.308
 9406SOL     OW29116   0.118   1.386   5.894
 9406SOL    HW129117   0.032   1.386   5.843
 9406SOL    HW229118   0.195   1.375   5.830
 9407SOL     OW29119   2.735   6.968   2.719
 9407SOL    HW129120   2.744   6.955   2.817
 9407SOL    HW229121   2.694   6.886   2.678
 9408SOL     OW29122   3.501   1.621   5.903
 9408SOL    HW129123   3.429   1.690   5.894
 9408SOL    HW229124   3.462   1.537   5.940
 9409SOL     OW29125   4.751   4.210   4.735
 9409SOL    HW129126   4.701   4.276   4.790
 9409SOL    HW229127   4.775   4.131   4.792
 9410SOL     OW29128   3.429   5.605   1.789
 9410SOL    HW129129   3.478   5.606   1.701
 9410SOL    HW229130   3.358   5.535   1.786
 9411SOL     OW29131   3.294   4.510   0.998
 9411SOL    HW129132   3.384   4.500   1.041
 9411SOL    HW229133   3.249   4.592   1.034
 9412SOL     OW29134   0.741   3.636   1.405
 9412SOL    HW129135   0.703   3.698   1.474
 9412SOL    HW229136   0.669   3.576   1.371
 9413SOL     OW29137   4.314   5.676   4.986
 9413SOL    HW129138   4.367   5.736   4.925
 9413SOL    HW229139   4.248   5.731   5.038
 9414SOL     OW29140   3.453   1.779   3.358
 9414SOL    HW129141   3.512   1.851   3.395
 9414SOL    HW229142   3.510   1.703   3.326
 9415SOL     OW29143   2.381   6.129   2.658
 9415SOL    HW129144   2.347   6.161   2.569
 9415SOL    HW229145   2.305   6.088   2.709
 9416SOL     OW29146   0.645   1.638   1.652
 9416SOL    HW129147   0.591   1.720   1.637
 9416SOL    HW229148   0.647   1.618   1.750
 9417SOL     OW29149   2.666   0.391   5.681
 9417SOL    HW129150   2.618   0.352   5.759
 9417SOL    HW229151   2.747   0.439   5.713
 9418SOL     OW29152   2.400   6.589   0.516
 9418SOL    HW129153   2.337   6.539   0.575
 9418SOL    HW229154   2.442   6.525   0.451
 9419SOL     OW29155   3.128   6.398   5.183
 9419SOL    HW129156   3.195   6.367   5.251
 9419SOL    HW229157   3.166   6.477   5.134
 9420SOL     OW29158   0.663   1.972   5.157
 9420SOL    HW129159   0.646   2.010   5.248
 9420SOL    HW229160   0.715   1.887   5.165
 9421SOL     OW29161   2.523   5.764   5.375
 9421SOL    HW129162   2.613   5.807   5.369
 9421SOL    HW229163   2.453   5.835   5.384
 9422SOL     OW29164   5.220   0.329   2.184
 9422SOL    HW129165   5.269   0.364   2.264
 9422SOL    HW229166   5.226   0.229   2.183
 9423SOL     OW29167   4.074   0.698   2.949
 9423SOL    HW129168   4.105   0.645   2.870
 9423SOL    HW229169   3.975   0.689   2.959
 9424SOL     OW29170   4.753   0.340   5.375
 9424SOL    HW129171   4.744   0.427   5.326
 9424SOL    HW229172   4.827   0.287   5.334
 9425SOL     OW29173   0.007   3.449   6.008
 9425SOL    HW129174   0.081   3.452   6.076
 9425SOL    HW229175   0.026   3.516   5.937
 9426SOL     OW29176   2.843   1.641   0.274
 9426SOL    HW129177   2.820   1.655   0.370
 9426SOL    HW229178   2.929   1.687   0.253
 9427SOL     OW29179   2.308   4.658   5.231
 9427SOL    HW129180   2.383   4.690   5.173
 9427SOL    HW229181   2.273   4.735   5.285
 9428SOL     OW29182   5.214   0.085   1.513
 9428SOL    HW129183   5.252   0.146   1.443
 9428SOL    HW229184   5.201   0.136   1.598
 9429SOL     OW29185   1.497   4.563   1.741
 9429SOL    HW129186   1.415   4.510   1.760
 9429SOL    HW229187   1.550   4.517   1.669
 9430SOL     OW29188   7.004   6.775   1.891
 9430SOL    HW129189   6.939   6.748   1.961
 9430SOL    HW229190   6.956   6.824   1.818
 9431SOL     OW29191   5.636   4.355   0.647
 9431SOL    HW129192   5.681   4.410   0.577
 9431SOL    HW229193   5.703   4.293   0.689
 9432SOL     OW29194   6.868   0.207   3.258
 9432SOL    HW129195   6.839   0.131   3.317
 9432SOL    HW229196   6.815   0.289   3.281
 9433SOL     OW29197   3.130   4.904   4.201
 9433SOL    HW129198   3.153   4.855   4.285
 9433SOL    HW229199   3.074   4.846   4.143
 9434SOL     OW29200   5.562   4.919   3.484
 9434SOL    HW129201   5.643   4.896   3.430
 9434SOL    HW229202   5.589   4.970   3.566
 9435SOL     OW29203   1.230   1.551   4.267
 9435SOL    HW129204   1.222   1.640   4.222
 9435SOL    HW229205   1.317   1.545   4.316
 9436SOL     OW29206   0.834   4.235   1.982
 9436SOL    HW129207   0.746   4.187   1.985
 9436SOL    HW229208   0.907   4.170   1.959
 9437SOL     OW29209   1.418   6.022   3.428
 9437SOL    HW129210   1.422   5.945   3.365
 9437SOL    HW229211   1.502   6.076   3.420
 9438SOL     OW29212   0.929   6.070   1.140
 9438SOL    HW129213   0.998   6.096   1.074
 9438SOL    HW229214   0.893   6.152   1.186
 9439SOL     OW29215   0.400   3.416   1.890
 9439SOL    HW129216   0.436   3.333   1.934
 9439SOL    HW229217   0.354   3.473   1.957
 9440SOL     OW29218   4.972   5.725   4.451
 9440SOL    HW129219   4.898   5.719   4.384
 9440SOL    HW229220   5.035   5.798   4.424
 9441SOL     OW29221   1.314   5.307   4.888
 9441SOL    HW129222   1.393   5.247   4.888
 9441SOL    HW229223   1.232   5.255   4.913
 9442SOL     OW29224   6.104   2.275   0.208
 9442SOL    HW129225   6.104   2.373   0.191
 9442SOL    HW229226   6.189   2.249   0.253
 9443SOL     OW29227   2.415   4.737   1.218
 9443SOL    HW129228   2.483   4.744   1.292
 9443SOL    HW229229   2.459   4.760   1.131
 9444SOL     OW29230   0.760   3.453   6.778
 9444SOL    HW129231   0.680   3.485   6.727
 9444SOL    HW229232   0.836   3.439   6.715
 9445SOL     OW29233   5.286   3.176   1.916
 9445SOL    HW129234   5.351   3.147   1.846
 9445SOL    HW229235   5.228   3.249   1.880
 9446SOL     OW29236   6.267   6.971   3.584
 9446SOL    HW129237   6.201   6.925   3.525
 9446SOL    HW229238   6.358   6.966   3.542
 9447SOL     OW29239   5.612   3.559   3.137
 9447SOL    HW129240   5.658   3.583   3.051
 9447SOL    HW229241   5.514   3.544   3.119
 9448SOL     OW29242   5.577   6.210   6.422
 9448SOL    HW129243   5.578   6.168   6.332
 9448SOL    HW229244   5.565   6.309   6.413
 9449SOL     OW29245   6.724   5.509   6.451
 9449SOL    HW129246   6.744   5.593   6.401
 9449SOL    HW229247   6.633   5.476   6.427
 9450SOL     OW29248   3.143   4.897   4.921
 9450SOL    HW129249   3.143   4.990   4.957
 9450SOL    HW229250   3.223   4.848   4.955
 9451SOL     OW29251   4.041   5.465   5.895
 9451SOL    HW129252   3.971   5.480   5.825
 9451SOL    HW229253   4.131   5.467   5.853
 9452SOL     OW29254   1.784   3.310   1.516
 9452SOL    HW129255   1.708   3.369   1.489
 9452SOL    HW229256   1.798   3.239   1.447
 9453SOL     OW29257   2.039   4.417   3.189
 9453SOL    HW129258   2.025   4.318   3.182
 9453SOL    HW229259   2.130   4.434   3.229
 9454SOL     OW29260   1.955   3.321   5.931
 9454SOL    HW129261   2.012   3.252   5.885
 9454SOL    HW229262   1.957   3.406   5.878
 9455SOL     OW29263   3.524   1.511   2.775
 9455SOL    HW129264   3.454   1.453   2.733
 9455SOL    HW229265   3.527   1.599   2.728
 9456SOL     OW29266   0.492   4.706   0.190
 9456SOL    HW129267   0.434   4.651   0.251
 9456SOL    HW229268   0.486   4.670   0.097
 9457SOL     OW29269   1.534   3.442   6.278
 9457SOL    HW129270   1.530   3.508   6.353
 9457SOL    HW229271   1.608   3.467   6.215
 9458SOL     OW29272   1.293   4.191   6.660
 9458SOL    HW129273   1.314   4.172   6.756
 9458SOL    HW229274   1.201   4.230   6.653
 9459SOL     OW29275   6.290   4.964   2.331
 9459SOL    HW129276   6.321   4.968   2.236
 9459SOL    HW229277   6.271   5.057   2.364
 9460SOL     OW29278   0.087   1.789   4.899
 9460SOL    HW129279   0.007   1.840   4.868
 9460SOL    HW229280   0.057   1.700   4.936
 9461SOL     OW29281   6.498   1.780   3.258
 9461SOL    HW129282   6.517   1.717   3.333
 9461SOL    HW229283   6.414   1.752   3.211
 9462SOL     OW29284   2.149   3.890   3.004
 9462SOL    HW129285   2.187   3.870   2.914
 9462SOL    HW229286   2.184   3.977   3.037
 9463SOL     OW29287   0.333   1.249   1.398
 9463SOL    HW129288   0.408   1.183   1.409
 9463SOL    HW229289   0.329   1.279   1.303
 9464SOL     OW29290   5.232   6.453   6.946
 9464SOL    HW129291   5.179   6.531   6.978
 9464SOL    HW229292   5.325   6.483   6.925
 9465SOL     OW29293   0.021   0.244   3.044
 9465SOL    HW129294   7.009   0.235   2.951
 9465SOL    HW229295   6.971   0.225   3.109
 9466SOL     OW29296   3.970   3.878   5.277
 9466SOL    HW129297   4.018   3.959   5.307
 9466SOL    HW229298   3.934   3.892   5.185
 9467SOL     OW29299   1.384   2.968   1.553
 9467SOL    HW129300   1.408   3.064   1.535
 9467SOL    HW229301   1.461   2.921   1.595
 9468SOL     OW29302   5.839   2.703   6.004
 9468SOL    HW129303   5.939   2.700   6.005
 9468SOL    HW229304   5.804   2.626   5.951
 9469SOL     OW29305   6.103   5.382   1.603
 9469SOL    HW129306   6.040   5.344   1.536
 9469SOL    HW229307   6.193   5.393   1.561
 9470SOL     OW29308   5.827   3.152   6.606
 9470SOL    HW129309   5.756   3.085   6.586
 9470SOL    HW229310   5.828   3.172   6.704
 9471SOL     OW29311   6.464   2.327   5.252
 9471SOL    HW129312   6.486   2.422   5.270
 9471SOL    HW229313   6.376   2.304   5.294
 9472SOL     OW29314   6.656   3.752   4.525
 9472SOL    HW129315   6.611   3.686   4.464
 9472SOL    HW229316   6.734   3.792   4.478
 9473SOL     OW29317   3.598   6.377   5.505
 9473SOL    HW129318   3.634   6.469   5.485
 9473SOL    HW229319   3.597   6.323   5.421
 9474SOL     OW29320   6.363   3.642   1.317
 9474SOL    HW129321   6.412   3.573   1.371
 9474SOL    HW229322   6.297   3.597   1.257
 9475SOL     OW29323   3.173   3.217   0.472
 9475SOL    HW129324   3.243   3.155   0.507
 9475SOL    HW229325   3.102   3.164   0.425
 9476SOL     OW29326   2.892   3.630   4.694
 9476SOL    HW129327   2.801   3.669   4.679
 9476SOL    HW229328   2.942   3.685   4.761
 9477SOL     OW29329   0.199   3.549   2.048
 9477SOL    HW129330   0.104   3.550   2.015
 9477SOL    HW229331   0.223   3.638   2.084
 9478SOL     OW29332   6.038   3.741   6.173
 9478SOL    HW129333   6.106   3.812   6.191
 9478SOL    HW229334   5.999   3.754   6.081
 9479SOL     OW29335   5.829   6.659   6.172
 9479SOL    HW129336   5.793   6.720   6.102
 9479SOL    HW229337   5.857   6.713   6.252
 9480SOL     OW29338   4.554   4.295   6.794
 9480SOL    HW129339   4.533   4.284   6.697
 9480SOL    HW229340   4.646   4.258   6.812
 9481SOL     OW29341   5.771   3.813   1.484
 9481SOL    HW129342   5.709   3.870   1.538
 9481SOL    HW229343   5.855   3.796   1.536
 9482SOL     OW29344   6.463   1.204   3.261
 9482SOL    HW129345   6.493   1.274   3.196
 9482SOL    HW229346   6.372   1.227   3.295
 9483SOL     OW29347   1.855   1.502   0.824
 9483SOL    HW129348   1.863   1.525   0.921
 9483SOL    HW229349   1.759   1.508   0.796
 9484SOL     OW29350   4.908   1.777   3.263
 9484SOL    HW129351   4.853   1.695   3.254
 9484SOL    HW229352   4.872   1.834   3.337
 9485SOL     OW29353   0.909   0.324   1.885
 9485SOL    HW129354   0.844   0.315   1.961
 9485SOL    HW229355   0.966   0.242   1.880
 9486SOL     OW29356   2.133   5.097   1.294
 9486SOL    HW129357   2.122   5.000   1.314
 9486SOL    HW229358   2.217   5.131   1.336
 9487SOL     OW29359   3.247   3.462   3.882
 9487SOL    HW129360   3.242   3.521   3.963
 9487SOL    HW229361   3.330   3.406   3.887
 9488SOL     OW29362   3.003   6.526   1.704
 9488SOL    HW129363   2.947   6.532   1.786
 9488SOL    HW229364   2.986   6.438   1.659
 9489SOL     OW29365   3.445   4.118   1.442
 9489SOL    HW129366   3.518   4.184   1.423
 9489SOL    HW229367   3.432   4.111   1.541
 9490SOL     OW29368   5.687   6.919   0.477
 9490SOL    HW129369   5.745   6.974   0.537
 9490SOL    HW229370   5.593   6.954   0.481
 9491SOL     OW29371   6.685   4.722   4.555
 9491SOL    HW129372   6.721   4.631   4.575
 9491SOL    HW229373   6.745   4.791   4.596
 9492SOL     OW29374   3.364   3.605   2.656
 9492SOL    HW129375   3.337   3.680   2.597
 9492SOL    HW229376   3.375   3.638   2.750
 9493SOL     OW29377   4.434   5.171   3.650
 9493SOL    HW129378   4.452   5.073   3.638
 9493SOL    HW229379   4.335   5.185   3.656
 9494SOL     OW29380   4.147   3.733   0.835
 9494SOL    HW129381   4.196   3.734   0.922
 9494SOL    HW229382   4.113   3.825   0.814
 9495SOL     OW29383   6.567   2.592   4.114
 9495SOL    HW129384   6.661   2.601   4.147
 9495SOL    HW229385   6.504   2.617   4.188
 9496SOL     OW29386   5.068   4.762   0.682
 9496SOL    HW129387   5.080   4.860   0.669
 9496SOL    HW229388   4.971   4.742   0.697
 9497SOL     OW29389   4.828   4.042   0.536
 9497SOL    HW129390   4.919   4.024   0.574
 9497SOL    HW229391   4.791   3.959   0.496
 9498SOL     OW29392   5.374   0.642   6.480
 9498SOL    HW129393   5.285   0.651   6.434
 9498SOL    HW229394   5.368   0.684   6.570
 9499SOL     OW29395   2.667   3.389   5.714
 9499SOL    HW129396   2.583   3.359   5.669
 9499SOL    HW229397   2.652   3.479   5.756
 9500SOL     OW29398   3.556   6.903   1.813
 9500SOL    HW129399   3.564   6.887   1.715
 9500SOL    HW229400   3.481   6.849   1.850
 9501SOL     OW29401   3.177   1.495   4.517
 9501SOL    HW129402   3.157   1.590   4.495
 9501SOL    HW229403   3.145   1.437   4.442
 9502SOL     OW29404   0.284   1.912   5.049
 9502SOL    HW129405   0.320   1.864   5.129
 9502SOL    HW229406   0.218   1.854   5.002
 9503SOL     OW29407   0.506   1.220   1.810
 9503SOL    HW129408   0.509   1.126   1.776
 9503SOL    HW229409   0.473   1.281   1.738
 9504SOL     OW29410   0.100   2.339   1.251
 9504SOL    HW129411   0.141   2.407   1.311
 9504SOL    HW229412   0.169   2.273   1.223
 9505SOL     OW29413   5.148   3.832   3.319
 9505SOL    HW129414   5.143   3.777   3.403
 9505SOL    HW229415   5.055   3.848   3.285
 9506SOL     OW29416   0.680   3.007   6.187
 9506SOL    HW129417   0.706   3.064   6.265
 9506SOL    HW229418   0.733   3.034   6.107
 9507SOL     OW29419   1.797   1.292   3.894
 9507SOL    HW129420   1.890   1.276   3.860
 9507SOL    HW229421   1.774   1.389   3.884
 9508SOL     OW29422   6.411   2.804   0.771
 9508SOL    HW129423   6.447   2.743   0.700
 9508SOL    HW229424   6.345   2.867   0.729
 9509SOL     OW29425   1.178   6.549   5.354
 9509SOL    HW129426   1.235   6.469   5.369
 9509SOL    HW229427   1.082   6.525   5.370
 9510SOL     OW29428   0.654   3.901   1.880
 9510SOL    HW129429   0.606   3.825   1.923
 9510SOL    HW229430   0.650   3.891   1.780
 9511SOL     OW29431   1.004   1.723   6.925
 9511SOL    HW129432   1.090   1.680   6.898
 9511SOL    HW229433   0.949   1.741   6.844
 9512SOL     OW29434   5.900   1.824   3.341
 9512SOL    HW129435   5.860   1.765   3.412
 9512SOL    HW229436   5.870   1.918   3.356
 9513SOL     OW29437   1.301   3.148   4.725
 9513SOL    HW129438   1.371   3.218   4.716
 9513SOL    HW229439   1.314   3.078   4.655
 9514SOL     OW29440   1.470   3.758   6.860
 9514SOL    HW129441   1.379   3.769   6.901
 9514SOL    HW229442   1.536   3.733   6.930
 9515SOL     OW29443   1.374   6.058   0.078
 9515SOL    HW129444   1.462   6.091   0.113
 9515SOL    HW229445   1.321   6.018   0.153
 9516SOL     OW29446   4.896   3.524   4.495
 9516SOL    HW129447   4.874   3.531   4.592
 9516SOL    HW229448   4.862   3.437   4.460
 9517SOL     OW29449   1.640   4.837   0.942
 9517SOL    HW129450   1.719   4.790   0.981
 9517SOL    HW229451   1.654   4.852   0.844
 9518SOL     OW29452   1.192   2.031   6.787
 9518SOL    HW129453   1.199   1.934   6.811
 9518SOL    HW229454   1.258   2.083   6.840
 9519SOL     OW29455   3.711   3.235   3.077
 9519SOL    HW129456   3.762   3.284   3.148
 9519SOL    HW229457   3.733   3.273   2.987
 9520SOL     OW29458   6.612   1.521   3.345
 9520SOL    HW129459   6.563   1.471   3.415
 9520SOL    HW229460   6.701   1.478   3.330
 9521SOL     OW29461   3.689   3.915   1.612
 9521SOL    HW129462   3.697   3.843   1.682
 9521SOL    HW229463   3.627   3.986   1.645
 9522SOL     OW29464   4.151   5.367   2.870
 9522SOL    HW129465   4.083   5.325   2.810
 9522SOL    HW229466   4.116   5.455   2.904
 9523SOL     OW29467   2.485   5.206   5.320
 9523SOL    HW129468   2.441   5.284   5.364
 9523SOL    HW229469   2.449   5.195   5.228
 9524SOL     OW29470   1.843   2.573   1.064
 9524SOL    HW129471   1.766   2.629   1.097
 9524SOL    HW229472   1.929   2.620   1.085
 9525SOL     OW29473   1.783   1.958   5.187
 9525SOL    HW129474   1.773   2.011   5.103
 9525SOL    HW229475   1.863   1.990   5.238
 9526SOL     OW29476   6.039   4.866   1.055
 9526SOL    HW129477   6.026   4.863   1.154
 9526SOL    HW229478   5.958   4.828   1.010
 9527SOL     OW29479   2.221   0.334   4.757
 9527SOL    HW129480   2.270   0.406   4.807
 9527SOL    HW229481   2.146   0.374   4.705
 9528SOL     OW29482   6.234   1.700   1.093
 9528SOL    HW129483   6.279   1.651   1.167
 9528SOL    HW229484   6.143   1.662   1.077
 9529SOL     OW29485   5.376   4.270   0.676
 9529SOL    HW129486   5.469   4.302   0.656
 9529SOL    HW229487   5.381   4.176   0.710
 9530SOL     OW29488   1.031   4.500   4.290
 9530SOL    HW129489   1.030   4.493   4.389
 9530SOL    HW229490   1.052   4.594   4.264
 9531SOL     OW29491   4.132   4.704   3.200
 9531SOL    HW129492   4.215   4.689   3.147
 9531SOL    HW229493   4.106   4.619   3.246
 9532SOL     OW29494   6.961   5.102   0.836
 9532SOL    HW129495   6.893   5.097   0.763
 9532SOL    HW229496   0.016   5.044   0.814
 9533SOL     OW29497   0.707   5.131   3.654
 9533SOL    HW129498   0.709   5.110   3.556
 9533SOL    HW229499   0.800   5.144   3.687
 9534SOL     OW29500   5.797   4.359   4.503
 9534SOL    HW129501   5.741   4.386   4.581
 9534SOL    HW229502   5.893   4.366   4.527
 9535SOL     OW29503   1.959   0.833   6.288
 9535SOL    HW129504   1.937   0.762   6.355
 9535SOL    HW229505   1.935   0.923   6.325
 9536SOL     OW29506   3.518   3.050   5.508
 9536SOL    HW129507   3.497   2.953   5.517
 9536SOL    HW229508   3.618   3.062   5.505
 9537SOL     OW29509   3.161   1.659   4.844
 9537SOL    HW129510   3.130   1.736   4.789
 9537SOL    HW229511   3.169   1.687   4.939
 9538SOL     OW29512   4.662   0.375   4.389
 9538SOL    HW129513   4.648   0.435   4.468
 9538SOL    HW229514   4.655   0.280   4.418
 9539SOL     OW29515   2.949   3.357   4.250
 9539SOL    HW129516   2.928   3.414   4.170
 9539SOL    HW229517   2.932   3.409   4.333
 9540SOL     OW29518   5.477   5.651   4.470
 9540SOL    HW129519   5.520   5.611   4.552
 9540SOL    HW229520   5.448   5.578   4.409
 9541SOL     OW29521   2.184   0.741   5.894
 9541SOL    HW129522   2.183   0.833   5.853
 9541SOL    HW229523   2.170   0.748   5.992
 9542SOL     OW29524   5.760   5.207   4.591
 9542SOL    HW129525   5.826   5.150   4.640
 9542SOL    HW229526   5.667   5.185   4.622
 9543SOL     OW29527   3.665   0.707   6.193
 9543SOL    HW129528   3.721   0.632   6.228
 9543SOL    HW229529   3.655   0.778   6.263
 9544SOL     OW29530   5.328   3.317   4.313
 9544SOL    HW129531   5.254   3.321   4.380
 9544SOL    HW229532   5.363   3.224   4.307
 9545SOL     OW29533   5.788   5.258   2.446
 9545SOL    HW129534   5.777   5.287   2.540
 9545SOL    HW229535   5.855   5.183   2.441
 9546SOL     OW29536   3.737   1.177   5.954
 9546SOL    HW129537   3.679   1.219   5.884
 9546SOL    HW229538   3.800   1.113   5.911
 9547SOL     OW29539   2.436   5.542   3.749
 9547SOL    HW129540   2.452   5.523   3.652
 9547SOL    HW229541   2.454   5.459   3.803
 9548SOL     OW29542   0.235   5.643   4.813
 9548SOL    HW129543   0.161   5.690   4.860
 9548SOL    HW229544   0.305   5.709   4.787
 9549SOL     OW29545   2.774   1.058   2.048
 9549SOL    HW129546   2.712   1.136   2.037
 9549SOL    HW229547   2.833   1.074   2.127
 9550SOL     OW29548   6.518   1.789   0.821
 9550SOL    HW129549   6.536   1.863   0.755
 9550SOL    HW229550   6.427   1.752   0.806
 9551SOL     OW29551   5.998   3.014   6.240
 9551SOL    HW129552   5.942   3.065   6.306
 9551SOL    HW229553   6.018   3.073   6.161
 9552SOL     OW29554   2.379   6.198   5.929
 9552SOL    HW129555   2.407   6.294   5.939
 9552SOL    HW229556   2.310   6.190   5.858
 9553SOL     OW29557   5.372   2.307   0.196
 9553SOL    HW129558   5.279   2.273   0.205
 9553SOL    HW229559   5.370   2.406   0.180
 9554SOL     OW29560   1.337   6.171   3.123
 9554SOL    HW129561   1.347   6.211   3.214
 9554SOL    HW229562   1.264   6.102   3.125
 9555SOL     OW29563   0.219   0.952   3.347
 9555SOL    HW129564   0.225   0.895   3.266
 9555SOL    HW229565   0.273   1.036   3.334
 9556SOL     OW29566   1.499   3.660   0.933
 9556SOL    HW129567   1.467   3.570   0.902
 9556SOL    HW229568   1.548   3.705   0.858
 9557SOL     OW29569   5.584   6.982   1.060
 9557SOL    HW129570   5.492   7.017   1.078
 9557SOL    HW229571   5.648   7.023   1.125
 9558SOL     OW29572   6.091   5.943   5.313
 9558SOL    HW129573   6.025   6.018   5.307
 9558SOL    HW229574   6.147   5.942   5.230
 9559SOL     OW29575   1.111   4.428   0.370
 9559SOL    HW129576   1.176   4.464   0.437
 9559SOL    HW229577   1.018   4.442   0.403
 9560SOL     OW29578   2.415   0.726   2.944
 9560SOL    HW129579   2.466   0.720   3.030
 9560SOL    HW229580   2.351   0.803   2.950
 9561SOL     OW29581   0.512   0.616   1.377
 9561SOL    HW129582   0.430   0.623   1.434
 9561SOL    HW229583   0.569   0.697   1.390
 9562SOL     OW29584   2.845   0.091   4.602
 9562SOL    HW129585   2.942   0.092   4.625
 9562SOL    HW229586   2.790   0.085   4.686
 9563SOL     OW29587   0.170   6.946   0.017
 9563SOL    HW129588   0.206   6.857   0.047
 9563SOL    HW229589   0.216   6.974   6.957
 9564SOL     OW29590   2.483   0.890   0.668
 9564SOL    HW129591   2.454   0.950   0.743
 9564SOL    HW229592   2.436   0.802   0.676
 9565SOL     OW29593   3.525   1.300   5.767
 9565SOL    HW129594   3.480   1.350   5.841
 9565SOL    HW229595   3.458   1.242   5.721
 9566SOL     OW29596   2.660   5.991   0.412
 9566SOL    HW129597   2.721   6.069   0.423
 9566SOL    HW229598   2.638   5.978   0.316
 9567SOL     OW29599   5.073   4.620   0.055
 9567SOL    HW129600   5.016   4.546   0.092
 9567SOL    HW229601   5.145   4.580   7.021
 9568SOL     OW29602   4.244   1.959   0.244
 9568SOL    HW129603   4.187   1.900   0.188
 9568SOL    HW229604   4.301   2.017   0.185
 9569SOL     OW29605   7.004   1.685   2.170
 9569SOL    HW129606   6.944   1.616   2.209
 9569SOL    HW229607   0.038   1.643   2.099
 9570SOL     OW29608   0.900   3.075   1.555
 9570SOL    HW129609   0.813   3.085   1.507
 9570SOL    HW229610   0.959   3.153   1.534
 9571SOL     OW29611   3.348   3.008   5.778
 9571SOL    HW129612   3.321   3.081   5.715
 9571SOL    HW229613   3.446   3.013   5.795
 9572SOL     OW29614   2.060   5.120   2.202
 9572SOL    HW129615   2.079   5.031   2.243
 9572SOL    HW229616   1.963   5.142   2.213
 9573SOL     OW29617   0.716   1.942   6.473
 9573SOL    HW129618   0.638   1.879   6.476
 9573SOL    HW229619   0.783   1.908   6.407
 9574SOL     OW29620   3.475   2.845   2.665
 9574SOL    HW129621   3.474   2.747   2.683
 9574SOL    HW229622   3.397   2.888   2.711
 9575SOL     OW29623   0.317   1.642   1.967
 9575SOL    HW129624   0.262   1.725   1.976
 9575SOL    HW229625   0.410   1.666   1.940
 9576SOL     OW29626   2.232   1.875   0.670
 9576SOL    HW129627   2.310   1.915   0.622
 9576SOL    HW229628   2.207   1.933   0.747
 9577SOL     OW29629   0.700   0.070   6.023
 9577SOL    HW129630   0.644   0.152   6.014
 9577SOL    HW229631   0.696   0.017   5.939
 9578SOL     OW29632   1.263   3.465   3.151
 9578SOL    HW129633   1.359   3.494   3.147
 9578SOL    HW229634   1.218   3.487   3.065
 9579SOL     OW29635   0.209   5.599   3.148
 9579SOL    HW129636   0.290   5.648   3.118
 9579SOL    HW229637   0.236   5.521   3.205
 9580SOL     OW29638   4.452   3.078   0.622
 9580SOL    HW129639   4.547   3.072   0.652
 9580SOL    HW229640   4.398   3.124   0.693
 9581SOL     OW29641   0.412   0.375   6.742
 9581SOL    HW129642   0.452   0.284   6.754
 9581SOL    HW229643   0.412   0.424   6.829
 9582SOL     OW29644   4.587   6.026   5.034
 9582SOL    HW129645   4.535   5.972   4.968
 9582SOL    HW229646   4.524   6.074   5.095
 9583SOL     OW29647   3.023   3.719   1.165
 9583SOL    HW129648   2.992   3.648   1.228
 9583SOL    HW229649   3.061   3.677   1.082
 9584SOL     OW29650   6.894   5.033   5.831
 9584SOL    HW129651   6.887   5.053   5.929
 9584SOL    HW229652   6.960   4.959   5.816
 9585SOL     OW29653   5.248   6.396   3.420
 9585SOL    HW129654   5.346   6.387   3.435
 9585SOL    HW229655   5.213   6.313   3.377
 9586SOL     OW29656   4.841   5.246   2.318
 9586SOL    HW129657   4.750   5.252   2.358
 9586SOL    HW229658   4.891   5.331   2.334
 9587SOL     OW29659   1.108   0.351   1.517
 9587SOL    HW129660   1.188   0.292   1.529
 9587SOL    HW229661   1.084   0.393   1.604
 9588SOL     OW29662   6.500   6.748   0.899
 9588SOL    HW129663   6.471   6.771   0.992
 9588SOL    HW229664   6.547   6.827   0.858
 9589SOL     OW29665   1.992   5.049   0.228
 9589SOL    HW129666   1.993   5.148   0.240
 9589SOL    HW229667   2.005   5.005   0.317
 9590SOL     OW29668   5.654   3.263   1.760
 9590SOL    HW129669   5.741   3.232   1.799
 9590SOL    HW229670   5.599   3.184   1.734
 9591SOL     OW29671   2.944   5.561   5.910
 9591SOL    HW129672   3.007   5.610   5.851
 9591SOL    HW229673   2.987   5.476   5.941
 9592SOL     OW29674   2.675   4.757   0.239
 9592SOL    HW129675   2.630   4.686   0.294
 9592SOL    HW229676   2.774   4.741   0.239
 9593SOL     OW29677   0.790   1.159   6.571
 9593SOL    HW129678   0.837   1.247   6.580
 9593SOL    HW229679   0.730   1.145   6.650
 9594SOL     OW29680   2.180   5.176   3.956
 9594SOL    HW129681   2.081   5.170   3.944
 9594SOL    HW229682   2.225   5.156   3.869
 9595SOL     OW29683   0.242   3.009   4.075
 9595SOL    HW129684   0.168   3.066   4.039
 9595SOL    HW229685   0.329   3.044   4.043
 9596SOL     OW29686   1.280   4.615   6.582
 9596SOL    HW129687   1.197   4.561   6.577
 9596SOL    HW229688   1.356   4.556   6.610
 9597SOL     OW29689   6.987   4.166   1.626
 9597SOL    HW129690   0.017   4.145   1.544
 9597SOL    HW229691   6.891   4.182   1.601
 9598SOL     OW29692   1.674   4.867   3.416
 9598SOL    HW129693   1.773   4.873   3.428
 9598SOL    HW229694   1.653   4.850   3.320
 9599SOL     OW29695   2.331   0.717   4.186
 9599SOL    HW129696   2.253   0.672   4.231
 9599SOL    HW229697   2.352   0.802   4.234
 9600SOL     OW29698   2.957   6.854   0.139
 9600SOL    HW129699   2.955   6.954   0.145
 9600SOL    HW229700   2.931   6.825   0.047
 9601SOL     OW29701   4.833   4.182   0.957
 9601SOL    HW129702   4.931   4.179   0.978
 9601SOL    HW229703   4.819   4.234   0.873
 9602SOL     OW29704   6.101   3.883   6.737
 9602SOL    HW129705   6.118   3.803   6.678
 9602SOL    HW229706   6.008   3.877   6.775
 9603SOL     OW29707   4.711   0.946   5.616
 9603SOL    HW129708   4.731   1.035   5.657
 9603SOL    HW229709   4.791   0.887   5.625
 9604SOL     OW29710   5.014   0.113   0.936
 9604SOL    HW129711   4.982   0.134   1.028
 9604SOL    HW229712   5.095   0.055   0.940
 9605SOL     OW29713   0.751   6.054   3.241
 9605SOL    HW129714   0.845   6.047   3.277
 9605SOL    HW229715   0.688   6.070   3.316
 9606SOL     OW29716   1.657   6.232   0.432
 9606SOL    HW129717   1.650   6.326   0.399
 9606SOL    HW229718   1.652   6.169   0.354
 9607SOL     OW29719   2.225   0.851   6.489
 9607SOL    HW129720   2.269   0.858   6.579
 9607SOL    HW229721   2.153   0.782   6.493
 9608SOL     OW29722   0.150   4.947   1.776
 9608SOL    HW129723   0.210   4.897   1.713
 9608SOL    HW229724   0.103   4.882   1.836
 9609SOL     OW29725   2.288   3.340   0.232
 9609SOL    HW129726   2.243   3.278   0.168
 9609SOL    HW229727   2.342   3.287   0.298
 9610SOL     OW29728   1.531   4.992   3.904
 9610SOL    HW129729   1.441   4.948   3.912
 9610SOL    HW229730   1.541   5.059   3.977
 9611SOL     OW29731   1.175   6.212   6.620
 9611SOL    HW129732   1.088   6.219   6.669
 9611SOL    HW229733   1.243   6.269   6.666
 9612SOL     OW29734   0.488   3.987   1.425
 9612SOL    HW129735   0.480   3.979   1.326
 9612SOL    HW229736   0.405   3.951   1.469
 9613SOL     OW29737   5.317   0.576   3.553
 9613SOL    HW129738   5.369   0.629   3.620
 9613SOL    HW229739   5.221   0.604   3.556
 9614SOL     OW29740   4.098   2.325   1.763
 9614SOL    HW129741   4.164   2.323   1.838
 9614SOL    HW229742   4.017   2.273   1.789
 9615SOL     OW29743   2.603   0.257   0.487
 9615SOL    HW129744   2.594   0.275   0.585
 9615SOL    HW229745   2.681   0.198   0.470
 9616SOL     OW29746   3.523   3.331   1.319
 9616SOL    HW129747   3.524   3.398   1.244
 9616SOL    HW229748   3.542   3.240   1.283
 9617SOL     OW29749   1.147   3.676   3.292
 9617SOL    HW129750   1.216   3.613   3.258
 9617SOL    HW229751   1.076   3.689   3.223
 9618SOL     OW29752   4.081   6.538   7.006
 9618SOL    HW129753   4.077   6.608   0.054
 9618SOL    HW229754   4.167   6.488   7.014
 9619SOL     OW29755   1.469   6.506   6.354
 9619SOL    HW129756   1.526   6.440   6.307
 9619SOL    HW229757   1.408   6.550   6.288
 9620SOL     OW29758   4.296   0.674   6.209
 9620SOL    HW129759   4.273   0.591   6.158
 9620SOL    HW229760   4.367   0.654   6.276
 9621SOL     OW29761   0.788   2.260   1.984
 9621SOL    HW129762   0.811   2.214   1.898
 9621SOL    HW229763   0.860   2.243   2.051
 9622SOL     OW29764   6.883   1.217   0.810
 9622SOL    HW129765   6.872   1.306   0.768
 9622SOL    HW229766   6.947   1.224   0.887
 9623SOL     OW29767   2.962   3.746   5.689
 9623SOL    HW129768   3.018   3.811   5.638
 9623SOL    HW229769   2.923   3.679   5.626
 9624SOL     OW29770   6.775   3.939   2.279
 9624SOL    HW129771   6.680   3.925   2.307
 9624SOL    HW229772   6.791   4.036   2.264
 9625SOL     OW29773   4.902   5.447   6.788
 9625SOL    HW129774   4.858   5.476   6.703
 9625SOL    HW229775   4.990   5.494   6.797
 9626SOL     OW29776   4.206   5.158   6.899
 9626SOL    HW129777   4.277   5.118   6.957
 9626SOL    HW229778   4.174   5.244   6.941
 9627SOL     OW29779   6.994   6.348   4.781
 9627SOL    HW129780   6.896   6.351   4.762
 9627SOL    HW229781   7.013   6.397   4.867
 9628SOL     OW29782   4.927   4.745   6.880
 9628SOL    HW129783   4.985   4.802   6.822
 9628SOL    HW229784   4.984   4.697   6.947
 9629SOL     OW29785   0.230   0.255   2.091
 9629SOL    HW129786   0.229   0.287   1.997
 9629SOL    HW229787   0.323   0.266   2.129
 9630SOL     OW29788   6.785   6.878   5.103
 9630SOL    HW129789   6.712   6.882   5.035
 9630SOL    HW229790   6.752   6.918   5.189
 9631SOL     OW29791   6.976   6.584   6.826
 9631SOL    HW129792   6.924   6.567   6.910
 9631SOL    HW229793   6.913   6.592   6.749
 9632SOL     OW29794   0.894   0.243   2.785
 9632SOL    HW129795   0.972   0.304   2.798
 9632SOL    HW229796   0.925   0.157   2.745
 9633SOL     OW29797   5.183   5.003   5.871
 9633SOL    HW129798   5.223   4.949   5.798
 9633SOL    HW229799   5.255   5.032   5.934
 9634SOL     OW29800   1.306   5.849   4.064
 9634SOL    HW129801   1.297   5.750   4.073
 9634SOL    HW229802   1.303   5.873   3.967
 9635SOL     OW29803   1.469   4.771   4.955
 9635SOL    HW129804   1.467   4.828   5.037
 9635SOL    HW229805   1.387   4.714   4.951
 9636SOL     OW29806   3.971   1.997   5.502
 9636SOL    HW129807   3.918   1.921   5.465
 9636SOL    HW229808   3.983   1.985   5.601
 9637SOL     OW29809   2.276   1.551   6.118
 9637SOL    HW129810   2.187   1.513   6.139
 9637SOL    HW229811   2.341   1.477   6.101
 9638SOL     OW29812   6.738   3.845   6.966
 9638SOL    HW129813   6.728   3.941   6.939
 9638SOL    HW229814   6.830   3.813   6.939
 9639SOL     OW29815   3.739   1.495   2.313
 9639SOL    HW129816   3.728   1.467   2.217
 9639SOL    HW229817   3.650   1.492   2.359
 9640SOL     OW29818   2.167   2.872   3.479
 9640SOL    HW129819   2.216   2.842   3.397
 9640SOL    HW229820   2.219   2.846   3.560
 9641SOL     OW29821   3.616   6.509   0.781
 9641SOL    HW129822   3.597   6.546   0.691
 9641SOL    HW229823   3.575   6.568   0.851
 9642SOL     OW29824   3.411   6.655   4.583
 9642SOL    HW129825   3.402   6.702   4.496
 9642SOL    HW229826   3.403   6.556   4.569
 9643SOL     OW29827   5.454   5.280   4.283
 9643SOL    HW129828   5.361   5.315   4.290
 9643SOL    HW229829   5.452   5.184   4.253
 9644SOL     OW29830   1.146   4.376   6.324
 9644SOL    HW129831   1.183   4.466   6.302
 9644SOL    HW229832   1.113   4.332   6.240
 9645SOL     OW29833   2.983   5.186   3.254
 9645SOL    HW129834   2.884   5.179   3.244
 9645SOL    HW229835   3.017   5.266   3.203
 9646SOL     OW29836   2.888   4.752   1.749
 9646SOL    HW129837   2.856   4.746   1.654
 9646SOL    HW229838   2.862   4.669   1.798
 9647SOL     OW29839   6.360   5.359   2.162
 9647SOL    HW129840   6.301   5.279   2.172
 9647SOL    HW229841   6.407   5.376   2.249
 9648SOL     OW29842   4.346   1.332   0.317
 9648SOL    HW129843   4.319   1.426   0.296
 9648SOL    HW229844   4.383   1.328   0.410
 9649SOL     OW29845   2.896   6.648   6.980
 9649SOL    HW129846   2.923   6.569   0.012
 9649SOL    HW229847   2.917   6.631   6.884
 9650SOL     OW29848   6.002   5.287   2.080
 9650SOL    HW129849   6.069   5.236   2.135
 9650SOL    HW229850   5.931   5.323   2.140
 9651SOL     OW29851   0.241   1.089   6.303
 9651SOL    HW129852   0.320   1.104   6.362
 9651SOL    HW229853   0.217   1.173   6.256
 9652SOL     OW29854   2.144   4.199   0.772
 9652SOL    HW129855   2.182   4.161   0.687
 9652SOL    HW229856   2.071   4.263   0.750
 9653SOL     OW29857   4.095   5.551   4.596
 9653SOL    HW129858   4.182   5.532   4.641
 9653SOL    HW229859   4.039   5.467   4.594
 9654SOL     OW29860   3.240   2.846   1.375
 9654SOL    HW129861   3.212   2.940   1.359
 9654SOL    HW229862   3.180   2.804   1.444
 9655SOL     OW29863   0.131   1.123   0.263
 9655SOL    HW129864   0.119   1.141   0.165
 9655SOL    HW229865   0.171   1.204   0.306
 9656SOL     OW29866   2.861   1.430   0.828
 9656SOL    HW129867   2.832   1.343   0.868
 9656SOL    HW229868   2.874   1.498   0.901
 9657SOL     OW29869   5.339   0.303   3.629
 9657SOL    HW129870   5.305   0.388   3.589
 9657SOL    HW229871   5.429   0.281   3.590
 9658SOL     OW29872   6.085   2.107   3.586
 9658SOL    HW129873   6.181   2.081   3.580
 9658SOL    HW229874   6.071   2.196   3.544
 9659SOL     OW29875   6.811   4.531   0.513
 9659SOL    HW129876   6.799   4.481   0.427
 9659SOL    HW229877   6.724   4.535   0.562
 9660SOL     OW29878   0.622   5.574   0.124
 9660SOL    HW129879   0.544   5.529   0.166
 9660SOL    HW229880   0.605   5.587   0.027
 9661SOL     OW29881   4.324   5.734   1.668
 9661SOL    HW129882   4.312   5.733   1.569
 9661SOL    HW229883   4.257   5.795   1.709
 9662SOL     OW29884   6.012   2.676   4.896
 9662SOL    HW129885   5.980   2.649   4.805
 9662SOL    HW229886   5.958   2.754   4.929
 9663SOL     OW29887   1.100   5.586   3.872
 9663SOL    HW129888   1.028   5.651   3.847
 9663SOL    HW229889   1.067   5.493   3.860
 9664SOL     OW29890   5.564   6.826   2.795
 9664SOL    HW129891   5.547   6.836   2.893
 9664SOL    HW229892   5.522   6.903   2.746
 9665SOL     OW29893   5.061   5.482   5.502
 9665SOL    HW129894   5.072   5.450   5.408
 9665SOL    HW229895   5.038   5.579   5.501
 9666SOL     OW29896   5.549   4.317   2.103
 9666SOL    HW129897   5.624   4.365   2.059
 9666SOL    HW229898   5.508   4.252   2.038
 9667SOL     OW29899   3.975   3.047   3.821
 9667SOL    HW129900   3.881   3.049   3.787
 9667SOL    HW229901   3.992   2.960   3.867
 9668SOL     OW29902   6.493   1.340   6.410
 9668SOL    HW129903   6.498   1.357   6.312
 9668SOL    HW229904   6.417   1.278   6.429
 9669SOL     OW29905   0.873   1.364   1.088
 9669SOL    HW129906   0.879   1.294   1.016
 9669SOL    HW229907   0.965   1.397   1.110
 9670SOL     OW29908   5.160   5.164   6.471
 9670SOL    HW129909   5.159   5.183   6.569
 9670SOL    HW229910   5.116   5.240   6.422
 9671SOL     OW29911   0.831   4.866   6.280
 9671SOL    HW129912   0.734   4.847   6.296
 9671SOL    HW229913   0.861   4.939   6.342
 9672SOL     OW29914   1.748   6.615   4.376
 9672SOL    HW129915   1.649   6.604   4.370
 9672SOL    HW229916   1.771   6.670   4.457
 9673SOL     OW29917   5.206   4.508   6.656
 9673SOL    HW129918   5.141   4.553   6.593
 9673SOL    HW229919   5.293   4.495   6.609
 9674SOL     OW29920   2.832   6.284   2.938
 9674SOL    HW129921   2.836   6.342   3.019
 9674SOL    HW229922   2.818   6.340   2.857
 9675SOL     OW29923   5.900   1.308   1.449
 9675SOL    HW129924   5.832   1.355   1.506
 9675SOL    HW229925   5.854   1.239   1.392
 9676SOL     OW29926   1.482   3.345   5.682
 9676SOL    HW129927   1.553   3.412   5.659
 9676SOL    HW229928   1.488   3.323   5.779
 9677SOL     OW29929   2.651   4.495   6.183
 9677SOL    HW129930   2.686   4.507   6.276
 9677SOL    HW229931   2.556   4.524   6.178
 9678SOL     OW29932   3.031   3.981   3.082
 9678SOL    HW129933   3.064   4.062   3.131
 9678SOL    HW229934   2.969   3.929   3.141
 9679SOL     OW29935   1.453   1.622   1.752
 9679SOL    HW129936   1.545   1.588   1.731
 9679SOL    HW229937   1.395   1.616   1.671
 9680SOL     OW29938   5.906   0.080   3.706
 9680SOL    HW129939   5.919   7.005   3.690
 9680SOL    HW229940   5.873   0.095   3.799
 9681SOL     OW29941   2.811   0.947   1.541
 9681SOL    HW129942   2.818   0.868   1.480
 9681SOL    HW229943   2.781   1.027   1.488
 9682SOL     OW29944   5.452   5.276   3.673
 9682SOL    HW129945   5.415   5.369   3.670
 9682SOL    HW229946   5.539   5.277   3.723
 9683SOL     OW29947   3.129   5.399   0.678
 9683SOL    HW129948   3.161   5.305   0.663
 9683SOL    HW229949   3.153   5.455   0.599
 9684SOL     OW29950   0.357   2.776   5.005
 9684SOL    HW129951   0.372   2.730   5.092
 9684SOL    HW229952   0.421   2.741   4.937
 9685SOL     OW29953   2.309   2.810   0.922
 9685SOL    HW129954   2.272   2.718   0.909
 9685SOL    HW229955   2.275   2.870   0.850
 9686SOL     OW29956   6.036   1.872   0.888
 9686SOL    HW129957   6.042   1.915   0.979
 9686SOL    HW229958   6.127   1.844   0.858
 9687SOL     OW29959   2.173   0.458   3.565
 9687SOL    HW129960   2.162   0.535   3.627
 9687SOL    HW229961   2.267   0.455   3.531
 9688SOL     OW29962   6.357   2.470   3.812
 9688SOL    HW129963   6.342   2.569   3.816
 9688SOL    HW229964   6.303   2.432   3.736
 9689SOL     OW29965   1.712   6.519   0.975
 9689SOL    HW129966   1.644   6.482   1.039
 9689SOL    HW229967   1.784   6.565   1.026
 9690SOL     OW29968   5.871   5.321   6.512
 9690SOL    HW129969   5.816   5.326   6.596
 9690SOL    HW229970   5.942   5.391   6.515
 9691SOL     OW29971   2.591   4.447   1.480
 9691SOL    HW129972   2.550   4.379   1.418
 9691SOL    HW229973   2.649   4.400   1.547
 9692SOL     OW29974   2.087   5.060   2.657
 9692SOL    HW129975   2.101   4.991   2.586
 9692SOL    HW229976   1.989   5.074   2.670
 9693SOL     OW29977   6.411   4.987   1.720
 9693SOL    HW129978   6.425   5.080   1.752
 9693SOL    HW229979   6.342   4.942   1.777
 9694SOL     OW29980   2.221   1.215   6.112
 9694SOL    HW129981   2.257   1.167   6.193
 9694SOL    HW229982   2.122   1.228   6.122
 9695SOL     OW29983   6.481   4.089   1.286
 9695SOL    HW129984   6.577   4.065   1.300
 9695SOL    HW229985   6.450   4.054   1.198
 9696SOL     OW29986   4.731   1.916   0.865
 9696SOL    HW129987   4.733   1.904   0.964
 9696SOL    HW229988   4.803   1.859   0.823
 9697SOL     OW29989   0.083   5.163   6.768
 9697SOL    HW129990   0.082   5.064   6.750
 9697SOL    HW229991   0.028   5.182   6.849
 9698SOL     OW29992   5.748   1.114   5.716
 9698SOL    HW129993   5.790   1.156   5.797
 9698SOL    HW229994   5.815   1.057   5.669
 9699SOL     OW29995   0.337   4.644   6.531
 9699SOL    HW129996   0.254   4.627   6.479
 9699SOL    HW229997   0.390   4.560   6.539
 9700SOL     OW29998   4.235   5.436   5.485
 9700SOL    HW129999   4.269   5.460   5.576
 9700SOL    HW230000   4.301   5.375   5.440
 9701SOL     OW30001   3.631   5.399   4.688
 9701SOL    HW130002   3.715   5.393   4.741
 9701SOL    HW230003   3.585   5.310   4.689
 9702SOL     OW30004   5.701   0.644   6.774
 9702SOL    HW130005   5.779   0.704   6.758
 9702SOL    HW230006   5.705   0.566   6.712
 9703SOL     OW30007   3.689   5.694   3.948
 9703SOL    HW130008   3.770   5.701   4.005
 9703SOL    HW230009   3.636   5.778   3.954
 9704SOL     OW30010   2.870   0.966   2.437
 9704SOL    HW130011   2.949   1.010   2.480
 9704SOL    HW230012   2.840   1.021   2.359
 9705SOL     OW30013   5.384   5.344   0.996
 9705SOL    HW130014   5.378   5.247   1.021
 9705SOL    HW230015   5.322   5.362   0.919
 9706SOL     OW30016   0.519   2.339   1.198
 9706SOL    HW130017   0.528   2.331   1.297
 9706SOL    HW230018   0.555   2.257   1.154
 9707SOL     OW30019   6.470   4.286   1.486
 9707SOL    HW130020   6.458   4.214   1.418
 9707SOL    HW230021   6.410   4.268   1.564
 9708SOL     OW30022   1.526   2.689   3.163
 9708SOL    HW130023   1.538   2.648   3.254
 9708SOL    HW230024   1.479   2.624   3.104
 9709SOL     OW30025   6.948   5.847   3.368
 9709SOL    HW130026   6.967   5.777   3.300
 9709SOL    HW230027   6.875   5.907   3.336
 9710SOL     OW30028   0.443   1.861   2.620
 9710SOL    HW130029   0.380   1.932   2.650
 9710SOL    HW230030   0.392   1.786   2.577
 9711SOL     OW30031   1.538   3.268   5.939
 9711SOL    HW130032   1.465   3.248   6.003
 9711SOL    HW230033   1.591   3.185   5.920
 9712SOL     OW30034   5.125   3.816   4.659
 9712SOL    HW130035   5.214   3.805   4.704
 9712SOL    HW230036   5.102   3.733   4.608
 9713SOL     OW30037   0.559   5.012   3.005
 9713SOL    HW130038   0.615   5.064   3.069
 9713SOL    HW230039   0.481   5.068   2.976
 9714SOL     OW30040   2.017   0.939   2.068
 9714SOL    HW130041   1.960   1.012   2.029
 9714SOL    HW230042   2.113   0.962   2.057
 9715SOL     OW30043   6.714   5.476   5.199
 9715SOL    HW130044   6.732   5.559   5.147
 9715SOL    HW230045   6.689   5.401   5.137
 9716SOL     OW30046   4.132   2.825   6.843
 9716SOL    HW130047   4.177   2.739   6.865
 9716SOL    HW230048   4.158   2.854   6.751
 9717SOL     OW30049   6.005   5.875   5.564
 9717SOL    HW130050   5.982   5.956   5.617
 9717SOL    HW230051   6.005   5.898   5.466
 9718SOL     OW30052   4.558   3.281   1.678
 9718SOL    HW130053   4.486   3.235   1.730
 9718SOL    HW230054   4.625   3.213   1.648
 9719SOL     OW30055   1.034   2.495   0.001
 9719SOL    HW130056   0.994   2.549   6.949
 9719SOL    HW230057   1.067   2.557   0.072
 9720SOL     OW30058   0.819   5.522   1.699
 9720SOL    HW130059   0.846   5.438   1.746
 9720SOL    HW230060   0.726   5.547   1.728
 9721SOL     OW30061   0.798   2.685   1.221
 9721SOL    HW130062   0.763   2.760   1.165
 9721SOL    HW230063   0.731   2.662   1.291
 9722SOL     OW30064   0.475   6.601   3.625
 9722SOL    HW130065   0.560   6.632   3.668
 9722SOL    HW230066   0.488   6.596   3.526
 9723SOL     OW30067   1.782   6.136   2.969
 9723SOL    HW130068   1.719   6.205   3.005
 9723SOL    HW230069   1.831   6.174   2.890
 9724SOL     OW30070   2.845   2.995   0.885
 9724SOL    HW130071   2.805   2.970   0.797
 9724SOL    HW230072   2.903   2.920   0.917
 9725SOL     OW30073   4.170   3.906   6.168
 9725SOL    HW130074   4.225   3.860   6.238
 9725SOL    HW230075   4.077   3.920   6.203
 9726SOL     OW30076   4.142   0.002   4.506
 9726SOL    HW130077   4.132   6.928   4.527
 9726SOL    HW230078   4.233   0.018   4.469
 9727SOL     OW30079   1.342   3.591   5.390
 9727SOL    HW130080   1.374   3.523   5.456
 9727SOL    HW230081   1.263   3.555   5.341
 9728SOL     OW30082   0.658   6.581   6.350
 9728SOL    HW130083   0.697   6.586   6.442
 9728SOL    HW230084   0.709   6.515   6.295
 9729SOL     OW30085   0.803   4.351   2.797
 9729SOL    HW130086   0.722   4.340   2.740
 9729SOL    HW230087   0.869   4.409   2.749
 9730SOL     OW30088   0.817   3.684   2.258
 9730SOL    HW130089   0.894   3.621   2.242
 9730SOL    HW230090   0.792   3.683   2.355
 9731SOL     OW30091   4.382   4.607   0.765
 9731SOL    HW130092   4.286   4.607   0.738
 9731SOL    HW230093   4.420   4.515   0.757
 9732SOL     OW30094   5.379   5.935   2.842
 9732SOL    HW130095   5.374   5.970   2.936
 9732SOL    HW230096   5.449   5.864   2.836
 9733SOL     OW30097   5.952   5.178   4.937
 9733SOL    HW130098   5.853   5.193   4.936
 9733SOL    HW230099   5.992   5.208   4.850
 9734SOL     OW30100   5.372   1.999   4.011
 9734SOL    HW130101   5.461   1.981   4.051
 9734SOL    HW230102   5.357   1.938   3.933
 9735SOL     OW30103   1.537   4.453   2.683
 9735SOL    HW130104   1.582   4.470   2.771
 9735SOL    HW230105   1.594   4.391   2.628
 9736SOL     OW30106   5.460   1.692   5.961
 9736SOL    HW130107   5.428   1.616   5.904
 9736SOL    HW230108   5.473   1.773   5.904
 9737SOL     OW30109   4.974   2.880   4.914
 9737SOL    HW130110   4.901   2.910   4.854
 9737SOL    HW230111   4.961   2.919   5.005
 9738SOL     OW30112   1.407   6.851   3.083
 9738SOL    HW130113   1.397   6.887   3.175
 9738SOL    HW230114   1.345   6.899   3.021
 9739SOL     OW30115   0.362   5.057   2.045
 9739SOL    HW130116   0.287   5.116   2.073
 9739SOL    HW230117   0.327   4.981   1.991
 9740SOL     OW30118   5.701   3.175   3.051
 9740SOL    HW130119   5.737   3.083   3.069
 9740SOL    HW230120   5.731   3.237   3.123
 9741SOL     OW30121   4.799   1.257   2.307
 9741SOL    HW130122   4.868   1.188   2.288
 9741SOL    HW230123   4.843   1.341   2.338
 9742SOL     OW30124   4.326   0.150   3.323
 9742SOL    HW130125   4.358   0.061   3.355
 9742SOL    HW230126   4.271   0.138   3.240
 9743SOL     OW30127   2.073   2.197   4.934
 9743SOL    HW130128   2.088   2.193   5.032
 9743SOL    HW230129   2.152   2.161   4.886
 9744SOL     OW30130   0.672   0.395   2.835
 9744SOL    HW130131   0.598   0.334   2.863
 9744SOL    HW230132   0.756   0.341   2.823
 9745SOL     OW30133   0.138   2.480   6.184
 9745SOL    HW130134   0.128   2.541   6.106
 9745SOL    HW230135   0.079   2.400   6.172
 9746SOL     OW30136   5.967   1.603   5.620
 9746SOL    HW130137   5.886   1.621   5.676
 9746SOL    HW230138   6.043   1.658   5.655
 9747SOL     OW30139   1.632   1.271   1.717
 9747SOL    HW130140   1.543   1.310   1.697
 9747SOL    HW230141   1.634   1.237   1.811
 9748SOL     OW30142   1.375   0.387   4.815
 9748SOL    HW130143   1.280   0.420   4.811
 9748SOL    HW230144   1.425   0.421   4.736
 9749SOL     OW30145   2.118   2.205   5.216
 9749SOL    HW130146   2.201   2.208   5.272
 9749SOL    HW230147   2.081   2.297   5.205
 9750SOL     OW30148   5.498   5.031   4.019
 9750SOL    HW130149   5.435   5.092   3.971
 9750SOL    HW230150   5.589   5.071   4.021
 9751SOL     OW30151   2.662   2.192   1.156
 9751SOL    HW130152   2.660   2.259   1.082
 9751SOL    HW230153   2.645   2.237   1.244
 9752SOL     OW30154   4.492   0.780   6.605
 9752SOL    HW130155   4.517   0.745   6.695
 9752SOL    HW230156   4.407   0.832   6.612
 9753SOL     OW30157   6.447   6.252   4.781
 9753SOL    HW130158   6.425   6.215   4.691
 9753SOL    HW230159   6.414   6.346   4.789
 9754SOL     OW30160   0.982   1.433   0.292
 9754SOL    HW130161   1.027   1.426   0.203
 9754SOL    HW230162   1.018   1.364   0.354
 9755SOL     OW30163   4.333   3.333   5.466
 9755SOL    HW130164   4.384   3.410   5.504
 9755SOL    HW230165   4.395   3.271   5.419
 9756SOL     OW30166   6.119   3.118   0.307
 9756SOL    HW130167   6.212   3.141   0.336
 9756SOL    HW230168   6.098   3.163   0.221
 9757SOL     OW30169   4.923   3.276   3.500
 9757SOL    HW130170   4.921   3.322   3.589
 9757SOL    HW230171   5.017   3.276   3.464
 9758SOL     OW30172   1.520   6.425   6.057
 9758SOL    HW130173   1.513   6.334   6.098
 9758SOL    HW230174   1.614   6.457   6.062
 9759SOL     OW30175   1.952   6.679   1.176
 9759SOL    HW130176   2.004   6.615   1.119
 9759SOL    HW230177   2.003   6.765   1.184
 9760SOL     OW30178   4.875   3.732   5.343
 9760SOL    HW130179   4.840   3.674   5.269
 9760SOL    HW230180   4.835   3.703   5.430
 9761SOL     OW30181   6.051   6.045   2.053
 9761SOL    HW130182   6.019   6.064   2.146
 9761SOL    HW230183   6.085   6.129   2.012
 9762SOL     OW30184   2.787   2.120   4.513
 9762SOL    HW130185   2.701   2.072   4.527
 9762SOL    HW230186   2.806   2.178   4.592
 9763SOL     OW30187   4.562   2.144   2.194
 9763SOL    HW130188   4.618   2.087   2.134
 9763SOL    HW230189   4.468   2.147   2.159
 9764SOL     OW30190   0.481   2.181   3.283
 9764SOL    HW130191   0.581   2.176   3.286
 9764SOL    HW230192   0.453   2.215   3.193
 9765SOL     OW30193   6.791   1.988   4.620
 9765SOL    HW130194   6.746   2.070   4.654
 9765SOL    HW230195   6.729   1.937   4.560
 9766SOL     OW30196   2.431   0.288   3.211
 9766SOL    HW130197   2.510   0.313   3.266
 9766SOL    HW230198   2.460   0.263   3.119
 9767SOL     OW30199   5.695   2.378   5.028
 9767SOL    HW130200   5.793   2.391   5.020
 9767SOL    HW230201   5.672   2.282   5.011
 9768SOL     OW30202   5.018   2.024   2.218
 9768SOL    HW130203   5.006   1.998   2.314
 9768SOL    HW230204   4.999   2.121   2.207
 9769SOL     OW30205   1.905   1.156   1.933
 9769SOL    HW130206   1.813   1.132   1.903
 9769SOL    HW230207   1.914   1.256   1.939
 9770SOL     OW30208   5.877   6.595   6.537
 9770SOL    HW130209   5.936   6.515   6.535
 9770SOL    HW230210   5.829   6.598   6.625
 9771SOL     OW30211   4.590   4.644   1.664
 9771SOL    HW130212   4.534   4.571   1.701
 9771SOL    HW230213   4.650   4.608   1.593
 9772SOL     OW30214   0.796   6.708   1.948
 9772SOL    HW130215   0.723   6.746   2.004
 9772SOL    HW230216   0.759   6.640   1.885
 9773SOL     OW30217   5.263   6.070   3.980
 9773SOL    HW130218   5.300   6.010   4.050
 9773SOL    HW230219   5.287   6.035   3.890
 9774SOL     OW30220   6.082   5.437   2.728
 9774SOL    HW130221   6.090   5.470   2.634
 9774SOL    HW230222   6.055   5.341   2.728
 9775SOL     OW30223   2.264   2.027   3.982
 9775SOL    HW130224   2.335   2.084   4.025
 9775SOL    HW230225   2.308   1.955   3.928
 9776SOL     OW30226   0.069   5.863   4.828
 9776SOL    HW130227   0.029   5.893   4.914
 9776SOL    HW230228   0.100   5.942   4.776
 9777SOL     OW30229   5.529   5.223   6.478
 9777SOL    HW130230   5.493   5.167   6.552
 9777SOL    HW230231   5.616   5.184   6.447
 9778SOL     OW30232   5.803   0.704   3.521
 9778SOL    HW130233   5.736   0.733   3.453
 9778SOL    HW230234   5.773   0.618   3.563
 9779SOL     OW30235   2.573   2.006   4.628
 9779SOL    HW130236   2.595   2.050   4.715
 9779SOL    HW230237   2.500   1.940   4.642
 9780SOL     OW30238   2.347   1.905   0.997
 9780SOL    HW130239   2.318   1.980   1.056
 9780SOL    HW230240   2.268   1.848   0.975
 9781SOL     OW30241   1.955   4.402   3.818
 9781SOL    HW130242   1.904   4.463   3.878
 9781SOL    HW230243   2.052   4.406   3.841
 9782SOL     OW30244   6.830   0.262   1.021
 9782SOL    HW130245   6.855   0.352   1.056
 9782SOL    HW230246   6.855   0.192   1.088
 9783SOL     OW30247   6.225   1.242   2.157
 9783SOL    HW130248   6.315   1.208   2.184
 9783SOL    HW230249   6.213   1.334   2.195
 9784SOL     OW30250   5.150   1.422   3.747
 9784SOL    HW130251   5.053   1.442   3.739
 9784SOL    HW230252   5.203   1.496   3.706
 9785SOL     OW30253   0.009   3.747   3.994
 9785SOL    HW130254   0.010   3.653   3.959
 9785SOL    HW230255   0.091   3.763   4.049
 9786SOL     OW30256   1.296   5.114   5.773
 9786SOL    HW130257   1.223   5.132   5.839
 9786SOL    HW230258   1.289   5.178   5.697
 9787SOL     OW30259   5.213   4.197   1.929
 9787SOL    HW130260   5.300   4.147   1.938
 9787SOL    HW230261   5.146   4.139   1.883
 9788SOL     OW30262   0.296   0.398   3.780
 9788SOL    HW130263   0.246   0.450   3.849
 9788SOL    HW230264   0.312   0.456   3.700
 9789SOL     OW30265   2.206   5.641   6.685
 9789SOL    HW130266   2.299   5.649   6.719
 9789SOL    HW230267   2.161   5.731   6.687
 9790SOL     OW30268   5.895   2.923   4.927
 9790SOL    HW130269   5.881   2.893   5.022
 9790SOL    HW230270   5.835   3.001   4.908
 9791SOL     OW30271   0.811   0.880   2.301
 9791SOL    HW130272   0.753   0.938   2.244
 9791SOL    HW230273   0.903   0.921   2.306
 9792SOL     OW30274   4.655   5.264   2.061
 9792SOL    HW130275   4.664   5.359   2.092
 9792SOL    HW230276   4.732   5.210   2.095
 9793SOL     OW30277   5.444   5.494   2.521
 9793SOL    HW130278   5.447   5.394   2.528
 9793SOL    HW230279   5.492   5.523   2.438
 9794SOL     OW30280   5.705   3.600   6.851
 9794SOL    HW130281   5.613   3.633   6.872
 9794SOL    HW230282   5.699   3.514   6.800
 9795SOL     OW30283   1.092   2.590   4.014
 9795SOL    HW130284   1.018   2.630   3.960
 9795SOL    HW230285   1.141   2.522   3.959
 9796SOL     OW30286   3.184   3.900   0.899
 9796SOL    HW130287   3.168   3.997   0.915
 9796SOL    HW230288   3.265   3.870   0.950
 9797SOL     OW30289   4.351   3.748   0.302
 9797SOL    HW130290   4.295   3.720   0.225
 9797SOL    HW230291   4.302   3.732   0.387
 9798SOL     OW30292   2.738   0.841   0.828
 9798SOL    HW130293   2.672   0.863   0.757
 9798SOL    HW230294   2.697   0.777   0.893
 9799SOL     OW30295   3.643   3.517   2.691
 9799SOL    HW130296   3.722   3.482   2.641
 9799SOL    HW230297   3.560   3.497   2.639
 9800SOL     OW30298   3.861   5.922   6.144
 9800SOL    HW130299   3.887   5.844   6.088
 9800SOL    HW230300   3.879   5.901   6.241
 9801SOL     OW30301   4.009   5.048   0.081
 9801SOL    HW130302   4.025   5.046   7.006
 9801SOL    HW230303   4.093   5.073   0.128
 9802SOL     OW30304   6.884   3.143   2.042
 9802SOL    HW130305   6.973   3.103   2.061
 9802SOL    HW230306   6.812   3.089   2.086
 9803SOL     OW30307   6.530   0.480   6.639
 9803SOL    HW130308   6.529   0.387   6.675
 9803SOL    HW230309   6.436   0.513   6.630
 9804SOL     OW30310   0.435   5.224   3.621
 9804SOL    HW130311   0.534   5.222   3.635
 9804SOL    HW230312   0.388   5.222   3.709
 9805SOL     OW30313   1.372   5.592   0.031
 9805SOL    HW130314   1.442   5.532   7.015
 9805SOL    HW230315   1.409   5.684   0.040
 9806SOL     OW30316   0.909   2.134   1.771
 9806SOL    HW130317   0.900   2.108   1.675
 9806SOL    HW230318   1.006   2.143   1.793
 9807SOL     OW30319   3.063   1.679   6.587
 9807SOL    HW130320   3.130   1.732   6.534
 9807SOL    HW230321   3.070   1.582   6.561
 9808SOL     OW30322   5.915   0.928   5.613
 9808SOL    HW130323   5.984   0.986   5.570
 9808SOL    HW230324   5.883   0.860   5.547
 9809SOL     OW30325   1.016   1.613   5.975
 9809SOL    HW130326   0.969   1.564   5.903
 9809SOL    HW230327   1.073   1.550   6.028
 9810SOL     OW30328   2.503   2.102   3.337
 9810SOL    HW130329   2.590   2.103   3.387
 9810SOL    HW230330   2.521   2.092   3.239
 9811SOL     OW30331   6.439   6.174   3.557
 9811SOL    HW130332   6.365   6.210   3.500
 9811SOL    HW230333   6.402   6.152   3.648
 9812SOL     OW30334   3.898   1.960   6.677
 9812SOL    HW130335   3.986   1.978   6.722
 9812SOL    HW230336   3.875   2.037   6.618
 9813SOL     OW30337   6.612   5.488   0.058
 9813SOL    HW130338   6.556   5.510   0.138
 9813SOL    HW230339   6.649   5.396   0.067
 9814SOL     OW30340   6.771   0.552   6.191
 9814SOL    HW130341   6.823   0.489   6.247
 9814SOL    HW230342   6.785   0.646   6.224
 9815SOL     OW30343   6.996   2.183   0.982
 9815SOL    HW130344   6.977   2.281   0.994
 9815SOL    HW230345   0.062   2.171   0.939
 9816SOL     OW30346   6.259   0.784   6.377
 9816SOL    HW130347   6.175   0.766   6.327
 9816SOL    HW230348   6.338   0.760   6.321
 9817SOL     OW30349   2.987   5.367   1.723
 9817SOL    HW130350   2.967   5.289   1.782
 9817SOL    HW230351   2.948   5.450   1.763
 9818SOL     OW30352   1.818   1.681   3.250
 9818SOL    HW130353   1.804   1.772   3.212
 9818SOL    HW230354   1.912   1.652   3.234
 9819SOL     OW30355   5.617   4.489   4.664
 9819SOL    HW130356   5.617   4.488   4.764
 9819SOL    HW230357   5.542   4.546   4.631
 9820SOL     OW30358   2.835   2.010   6.431
 9820SOL    HW130359   2.927   1.995   6.469
 9820SOL    HW230360   2.775   2.046   6.503
 9821SOL     OW30361   4.852   2.065   1.547
 9821SOL    HW130362   4.941   2.091   1.511
 9821SOL    HW230363   4.850   2.081   1.646
 9822SOL     OW30364   4.427   5.729   4.084
 9822SOL    HW130365   4.465   5.658   4.143
 9822SOL    HW230366   4.474   5.726   3.996
 9823SOL     OW30367   1.309   0.914   2.267
 9823SOL    HW130368   1.345   0.824   2.291
 9823SOL    HW230369   1.375   0.984   2.296
 9824SOL     OW30370   2.814   5.760   5.764
 9824SOL    HW130371   2.859   5.697   5.828
 9824SOL    HW230372   2.799   5.714   5.677
 9825SOL     OW30373   5.113   6.117   5.079
 9825SOL    HW130374   5.111   6.017   5.084
 9825SOL    HW230375   5.099   6.155   5.171
 9826SOL     OW30376   3.690   6.942   5.732
 9826SOL    HW130377   3.690   7.018   5.797
 9826SOL    HW230378   3.766   6.880   5.753
 9827SOL     OW30379   2.156   5.525   2.788
 9827SOL    HW130380   2.072   5.511   2.839
 9827SOL    HW230381   2.143   5.600   2.723
 9828SOL     OW30382   3.565   2.090   4.715
 9828SOL    HW130383   3.491   2.046   4.766
 9828SOL    HW230384   3.633   2.127   4.778
 9829SOL     OW30385   5.114   6.244   5.683
 9829SOL    HW130386   5.183   6.257   5.755
 9829SOL    HW230387   5.042   6.313   5.694
 9830SOL     OW30388   5.964   1.436   2.342
 9830SOL    HW130389   5.989   1.468   2.434
 9830SOL    HW230390   5.886   1.374   2.348
 9831SOL     OW30391   0.252   4.340   2.020
 9831SOL    HW130392   0.244   4.432   1.981
 9831SOL    HW230393   0.264   4.347   2.119
 9832SOL     OW30394   5.207   4.711   4.249
 9832SOL    HW130395   5.212   4.611   4.258
 9832SOL    HW230396   5.247   4.739   4.162
 9833SOL     OW30397   3.543   4.033   3.380
 9833SOL    HW130398   3.578   4.009   3.471
 9833SOL    HW230399   3.562   3.959   3.316
 9834SOL     OW30400   2.240   5.642   5.925
 9834SOL    HW130401   2.283   5.706   5.989
 9834SOL    HW230402   2.304   5.568   5.903
 9835SOL     OW30403   3.685   4.190   4.716
 9835SOL    HW130404   3.748   4.116   4.736
 9835SOL    HW230405   3.735   4.267   4.677
 9836SOL     OW30406   1.265   3.671   6.411
 9836SOL    HW130407   1.303   3.748   6.360
 9836SOL    HW230408   1.165   3.679   6.412
 9837SOL     OW30409   5.430   1.960   1.575
 9837SOL    HW130410   5.428   1.985   1.672
 9837SOL    HW230411   5.430   2.043   1.520
 9838SOL     OW30412   1.145   6.085   1.344
 9838SOL    HW130413   1.166   5.991   1.367
 9838SOL    HW230414   1.069   6.087   1.279
 9839SOL     OW30415   4.850   1.171   3.701
 9839SOL    HW130416   4.907   1.152   3.781
 9839SOL    HW230417   4.899   1.145   3.618
 9840SOL     OW30418   5.235   1.340   6.851
 9840SOL    HW130419   5.189   1.427   6.867
 9840SOL    HW230420   5.181   1.265   6.889
 9841SOL     OW30421   0.287   5.569   3.566
 9841SOL    HW130422   0.221   5.524   3.627
 9841SOL    HW230423   0.253   5.660   3.543
 9842SOL     OW30424   3.826   3.078   0.422
 9842SOL    HW130425   3.764   3.133   0.366
 9842SOL    HW230426   3.781   2.992   0.448
 9843SOL     OW30427   6.590   0.195   1.555
 9843SOL    HW130428   6.593   0.096   1.537
 9843SOL    HW230429   6.563   0.210   1.650
 9844SOL     OW30430   5.468   0.381   4.520
 9844SOL    HW130431   5.377   0.419   4.534
 9844SOL    HW230432   5.493   0.391   4.423
 9845SOL     OW30433   1.270   2.310   2.652
 9845SOL    HW130434   1.215   2.373   2.707
 9845SOL    HW230435   1.231   2.304   2.560
 9846SOL     OW30436   5.165   1.087   1.142
 9846SOL    HW130437   5.232   1.158   1.166
 9846SOL    HW230438   5.191   1.000   1.183
 9847SOL     OW30439   3.898   2.852   1.825
 9847SOL    HW130440   3.915   2.754   1.822
 9847SOL    HW230441   3.816   2.874   1.773
 9848SOL     OW30442   3.130   3.895   5.516
 9848SOL    HW130443   3.183   3.977   5.534
 9848SOL    HW230444   3.191   3.816   5.509
 9849SOL     OW30445   1.330   0.695   6.381
 9849SOL    HW130446   1.251   0.634   6.370
 9849SOL    HW230447   1.345   0.745   6.295
 9850SOL     OW30448   0.070   0.425   4.180
 9850SOL    HW130449   7.010   0.404   4.231
 9850SOL    HW230450   0.145   0.441   4.244
 9851SOL     OW30451   3.507   5.155   4.629
 9851SOL    HW130452   3.492   5.116   4.538
 9851SOL    HW230453   3.508   5.081   4.697
 9852SOL     OW30454   1.004   1.580   6.525
 9852SOL    HW130455   1.075   1.630   6.476
 9852SOL    HW230456   0.943   1.645   6.570
 9853SOL     OW30457   0.108   4.034   4.482
 9853SOL    HW130458   0.182   4.021   4.548
 9853SOL    HW230459   0.145   4.056   4.393
 9854SOL     OW30460   0.806   5.973   6.198
 9854SOL    HW130461   0.890   5.929   6.169
 9854SOL    HW230462   0.804   6.067   6.164
 9855SOL     OW30463   0.991   3.445   0.560
 9855SOL    HW130464   0.926   3.424   0.633
 9855SOL    HW230465   0.962   3.399   0.476
 9856SOL     OW30466   6.051   5.131   3.824
 9856SOL    HW130467   6.133   5.187   3.811
 9856SOL    HW230468   6.026   5.131   3.920
 9857SOL     OW30469   5.143   2.790   3.336
 9857SOL    HW130470   5.181   2.860   3.397
 9857SOL    HW230471   5.049   2.769   3.363
 9858SOL     OW30472   1.167   6.832   2.352
 9858SOL    HW130473   1.251   6.779   2.337
 9858SOL    HW230474   1.103   6.778   2.406
 9859SOL     OW30475   6.651   4.780   5.157
 9859SOL    HW130476   6.678   4.745   5.067
 9859SOL    HW230477   6.618   4.704   5.214
 9860SOL     OW30478   2.061   2.477   5.149
 9860SOL    HW130479   1.990   2.471   5.079
 9860SOL    HW230480   2.083   2.574   5.165
 9861SOL     OW30481   2.727   1.219   4.055
 9861SOL    HW130482   2.800   1.169   4.008
 9861SOL    HW230483   2.745   1.318   4.049
 9862SOL     OW30484   2.370   4.492   1.091
 9862SOL    HW130485   2.445   4.478   1.026
 9862SOL    HW230486   2.384   4.578   1.140
 9863SOL     OW30487   3.081   5.933   0.609
 9863SOL    HW130488   3.151   5.972   0.669
 9863SOL    HW230489   3.054   5.844   0.644
 9864SOL     OW30490   2.556   6.448   5.028
 9864SOL    HW130491   2.638   6.501   5.050
 9864SOL    HW230492   2.530   6.392   5.107
 9865SOL     OW30493   0.657   0.078   5.276
 9865SOL    HW130494   0.589   0.150   5.261
 9865SOL    HW230495   0.692   0.047   5.188
 9866SOL     OW30496   6.069   4.346   4.501
 9866SOL    HW130497   6.142   4.293   4.459
 9866SOL    HW230498   6.083   4.443   4.483
 9867SOL     OW30499   4.965   1.942   2.477
 9867SOL    HW130500   5.017   1.861   2.450
 9867SOL    HW230501   4.992   1.970   2.569
 9868SOL     OW30502   1.283   4.664   3.544
 9868SOL    HW130503   1.370   4.704   3.574
 9868SOL    HW230504   1.299   4.601   3.469
 9869SOL     OW30505   0.406   2.565   0.738
 9869SOL    HW130506   0.469   2.499   0.697
 9869SOL    HW230507   0.362   2.524   0.818
 9870SOL     OW30508   3.755   1.729   1.748
 9870SOL    HW130509   3.759   1.715   1.847
 9870SOL    HW230510   3.661   1.712   1.716
 9871SOL     OW30511   0.073   3.273   5.292
 9871SOL    HW130512   0.042   3.230   5.376
 9871SOL    HW230513   0.009   3.251   5.218
 9872SOL     OW30514   2.493   5.557   5.075
 9872SOL    HW130515   2.546   5.639   5.055
 9872SOL    HW230516   2.429   5.539   5.000
 9873SOL     OW30517   1.863   2.168   5.810
 9873SOL    HW130518   1.807   2.091   5.839
 9873SOL    HW230519   1.932   2.187   5.880
 9874SOL     OW30520   0.504   2.998   4.374
 9874SOL    HW130521   0.415   2.952   4.378
 9874SOL    HW230522   0.509   3.069   4.444
 9875SOL     OW30523   0.199   6.165   0.745
 9875SOL    HW130524   0.155   6.252   0.720
 9875SOL    HW230525   0.266   6.182   0.817
 9876SOL     OW30526   2.999   0.209   3.313
 9876SOL    HW130527   3.038   0.133   3.261
 9876SOL    HW230528   2.938   0.174   3.384
 9877SOL     OW30529   0.061   4.465   4.691
 9877SOL    HW130530   0.155   4.463   4.655
 9877SOL    HW230531   0.014   4.380   4.666
 9878SOL     OW30532   1.780   3.106   6.999
 9878SOL    HW130533   1.828   3.190   6.974
 9878SOL    HW230534   1.835   3.054   0.041
 9879SOL     OW30535   1.500   4.316   6.103
 9879SOL    HW130536   1.505   4.362   6.192
 9879SOL    HW230537   1.467   4.381   6.034
 9880SOL     OW30538   2.438   1.023   0.425
 9880SOL    HW130539   2.506   0.993   0.358
 9880SOL    HW230540   2.447   0.969   0.509
 9881SOL     OW30541   5.292   0.644   4.419
 9881SOL    HW130542   5.197   0.638   4.452
 9881SOL    HW230543   5.312   0.564   4.363
 9882SOL     OW30544   3.901   3.057   4.920
 9882SOL    HW130545   3.975   2.990   4.917
 9882SOL    HW230546   3.839   3.041   4.843
 9883SOL     OW30547   1.624   6.416   1.759
 9883SOL    HW130548   1.549   6.443   1.698
 9883SOL    HW230549   1.616   6.466   1.845
 9884SOL     OW30550   1.727   2.945   6.760
 9884SOL    HW130551   1.633   2.910   6.766
 9884SOL    HW230552   1.741   3.015   6.829
 9885SOL     OW30553   6.990   2.906   3.491
 9885SOL    HW130554   6.970   2.829   3.429
 9885SOL    HW230555   6.991   2.991   3.439
 9886SOL     OW30556   5.562   6.156   1.491
 9886SOL    HW130557   5.606   6.121   1.408
 9886SOL    HW230558   5.473   6.112   1.502
 9887SOL     OW30559   3.871   6.547   0.543
 9887SOL    HW130560   3.908   6.628   0.496
 9887SOL    HW230561   3.772   6.548   0.537
 9888SOL     OW30562   5.603   5.755   2.401
 9888SOL    HW130563   5.585   5.679   2.338
 9888SOL    HW230564   5.665   5.820   2.357
 9889SOL     OW30565   6.982   4.839   3.173
 9889SOL    HW130566   0.009   4.827   3.088
 9889SOL    HW230567   0.024   4.849   3.249
 9890SOL     OW30568   6.557   3.115   0.656
 9890SOL    HW130569   6.590   3.204   0.625
 9890SOL    HW230570   6.504   3.127   0.740
 9891SOL     OW30571   4.843   5.337   0.922
 9891SOL    HW130572   4.745   5.331   0.902
 9891SOL    HW230573   4.857   5.396   1.001
 9892SOL     OW30574   2.167   5.637   3.587
 9892SOL    HW130575   2.251   5.592   3.616
 9892SOL    HW230576   2.088   5.590   3.627
 9893SOL     OW30577   5.763   5.356   2.706
 9893SOL    HW130578   5.760   5.294   2.784
 9893SOL    HW230579   5.705   5.435   2.724
 9894SOL     OW30580   4.107   2.227   5.764
 9894SOL    HW130581   4.139   2.211   5.858
 9894SOL    HW230582   4.038   2.159   5.741
 9895SOL     OW30583   5.128   2.488   6.404
 9895SOL    HW130584   5.135   2.396   6.442
 9895SOL    HW230585   5.145   2.485   6.305
 9896SOL     OW30586   3.519   3.087   0.850
 9896SOL    HW130587   3.605   3.037   0.843
 9896SOL    HW230588   3.460   3.042   0.918
 9897SOL     OW30589   4.790   1.293   2.753
 9897SOL    HW130590   4.869   1.335   2.799
 9897SOL    HW230591   4.820   1.218   2.695
 9898SOL     OW30592   0.928   5.326   5.642
 9898SOL    HW130593   0.873   5.366   5.569
 9898SOL    HW230594   1.022   5.312   5.610
 9899SOL     OW30595   5.250   4.679   2.371
 9899SOL    HW130596   5.347   4.690   2.392
 9899SOL    HW230597   5.197   4.751   2.416
 9900SOL     OW30598   1.184   2.068   3.812
 9900SOL    HW130599   1.096   2.077   3.765
 9900SOL    HW230600   1.178   2.109   3.903
 9901SOL     OW30601   2.241   2.082   6.334
 9901SOL    HW130602   2.229   1.983   6.342
 9901SOL    HW230603   2.231   2.124   6.424
 9902SOL     OW30604   3.508   3.392   1.024
 9902SOL    HW130605   3.448   3.439   0.959
 9902SOL    HW230606   3.490   3.294   1.021
 9903SOL     OW30607   4.374   1.701   2.471
 9903SOL    HW130608   4.320   1.743   2.545
 9903SOL    HW230609   4.373   1.602   2.481
 9904SOL     OW30610   6.663   2.882   0.580
 9904SOL    HW130611   6.607   2.799   0.591
 9904SOL    HW230612   6.629   2.953   0.641
 9905SOL     OW30613   1.180   6.271   6.341
 9905SOL    HW130614   1.165   6.369   6.325
 9905SOL    HW230615   1.173   6.252   6.439
 9906SOL     OW30616   1.664   2.602   6.411
 9906SOL    HW130617   1.655   2.701   6.419
 9906SOL    HW230618   1.745   2.580   6.356
 9907SOL     OW30619   2.613   6.059   3.122
 9907SOL    HW130620   2.628   6.150   3.159
 9907SOL    HW230621   2.677   6.042   3.048
 9908SOL     OW30622   0.510   3.162   6.511
 9908SOL    HW130623   0.568   3.176   6.431
 9908SOL    HW230624   0.482   3.250   6.549
 9909SOL     OW30625   3.130   1.705   2.684
 9909SOL    HW130626   3.072   1.625   2.667
 9909SOL    HW230627   3.086   1.787   2.646
 9910SOL     OW30628   6.964   4.633   0.864
 9910SOL    HW130629   6.930   4.713   0.815
 9910SOL    HW230630   6.992   4.563   0.799
 9911SOL     OW30631   4.398   4.718   3.088
 9911SOL    HW130632   4.468   4.713   3.017
 9911SOL    HW230633   4.415   4.797   3.146
 9912SOL     OW30634   4.653   1.001   2.176
 9912SOL    HW130635   4.575   1.053   2.142
 9912SOL    HW230636   4.722   1.064   2.211
 9913SOL     OW30637   5.202   2.984   2.664
 9913SOL    HW130638   5.160   2.902   2.702
 9913SOL    HW230639   5.194   2.983   2.565
 9914SOL     OW30640   1.712   0.449   5.449
 9914SOL    HW130641   1.637   0.499   5.492
 9914SOL    HW230642   1.675   0.368   5.404
 9915SOL     OW30643   5.131   3.319   4.114
 9915SOL    HW130644   5.221   3.321   4.157
 9915SOL    HW230645   5.079   3.240   4.149
 9916SOL     OW30646   2.069   3.166   2.718
 9916SOL    HW130647   2.099   3.141   2.810
 9916SOL    HW230648   2.120   3.113   2.651
 9917SOL     OW30649   3.383   3.862   5.207
 9917SOL    HW130650   3.335   3.799   5.267
 9917SOL    HW230651   3.340   3.952   5.212
 9918SOL     OW30652   2.108   1.294   5.756
 9918SOL    HW130653   2.160   1.254   5.831
 9918SOL    HW230654   2.045   1.362   5.792
 9919SOL     OW30655   1.415   6.275   2.381
 9919SOL    HW130656   1.331   6.322   2.351
 9919SOL    HW230657   1.412   6.180   2.349
 9920SOL     OW30658   3.937   0.071   1.803
 9920SOL    HW130659   3.933   0.132   1.724
 9920SOL    HW230660   3.845   0.059   1.840
 9921SOL     OW30661   6.001   0.272   3.323
 9921SOL    HW130662   6.045   0.345   3.375
 9921SOL    HW230663   5.976   0.198   3.385
 9922SOL     OW30664   4.119   4.747   0.917
 9922SOL    HW130665   4.079   4.704   0.836
 9922SOL    HW230666   4.073   4.713   0.999
 9923SOL     OW30667   6.459   2.288   6.215
 9923SOL    HW130668   6.420   2.351   6.282
 9923SOL    HW230669   6.417   2.198   6.227
 9924SOL     OW30670   6.120   1.248   2.640
 9924SOL    HW130671   6.106   1.347   2.642
 9924SOL    HW230672   6.180   1.221   2.715
 9925SOL     OW30673   2.593   3.637   5.815
 9925SOL    HW130674   2.557   3.676   5.900
 9925SOL    HW230675   2.592   3.706   5.743
 9926SOL     OW30676   1.563   1.318   1.055
 9926SOL    HW130677   1.661   1.338   1.059
 9926SOL    HW230678   1.544   1.235   1.108
 9927SOL     OW30679   0.887   1.873   2.439
 9927SOL    HW130680   0.899   1.891   2.342
 9927SOL    HW230681   0.906   1.957   2.491
 9928SOL     OW30682   0.327   4.927   1.488
 9928SOL    HW130683   0.340   5.022   1.460
 9928SOL    HW230684   0.412   4.876   1.473
 9929SOL     OW30685   3.567   4.383   5.802
 9929SOL    HW130686   3.573   4.284   5.793
 9929SOL    HW230687   3.486   4.407   5.855
 9930SOL     OW30688   0.640   0.442   6.502
 9930SOL    HW130689   0.661   0.437   6.404
 9930SOL    HW230690   0.543   0.424   6.516
 9931SOL     OW30691   1.318   6.328   4.782
 9931SOL    HW130692   1.416   6.309   4.786
 9931SOL    HW230693   1.267   6.242   4.794
 9932SOL     OW30694   1.439   2.103   0.338
 9932SOL    HW130695   1.348   2.122   0.299
 9932SOL    HW230696   1.434   2.108   0.438
 9933SOL     OW30697   2.580   0.610   3.158
 9933SOL    HW130698   2.654   0.676   3.171
 9933SOL    HW230699   2.619   0.519   3.145
 9934SOL     OW30700   5.746   1.369   6.479
 9934SOL    HW130701   5.647   1.372   6.476
 9934SOL    HW230702   5.776   1.273   6.487
 9935SOL     OW30703   2.980   2.182   0.163
 9935SOL    HW130704   3.069   2.139   0.145
 9935SOL    HW230705   2.937   2.207   0.076
 9936SOL     OW30706   5.070   5.238   5.790
 9936SOL    HW130707   5.099   5.144   5.809
 9936SOL    HW230708   5.146   5.289   5.749
 9937SOL     OW30709   0.272   0.263   2.646
 9937SOL    HW130710   0.270   0.166   2.622
 9937SOL    HW230711   0.295   0.272   2.743
 9938SOL     OW30712   6.566   1.299   4.865
 9938SOL    HW130713   6.516   1.308   4.951
 9938SOL    HW230714   6.524   1.226   4.810
 9939SOL     OW30715   2.130   3.802   1.132
 9939SOL    HW130716   2.040   3.812   1.091
 9939SOL    HW230717   2.200   3.815   1.062
 9940SOL     OW30718   0.578   0.206   3.035
 9940SOL    HW130719   0.660   0.249   3.072
 9940SOL    HW230720   0.510   0.197   3.108
 9941SOL     OW30721   3.982   5.252   5.643
 9941SOL    HW130722   4.009   5.343   5.614
 9941SOL    HW230723   3.889   5.255   5.680
 9942SOL     OW30724   4.633   4.745   3.333
 9942SOL    HW130725   4.581   4.684   3.394
 9942SOL    HW230726   4.571   4.810   3.289
 9943SOL     OW30727   1.662   3.943   0.224
 9943SOL    HW130728   1.629   4.037   0.210
 9943SOL    HW230729   1.674   3.899   0.135
 9944SOL     OW30730   1.562   5.017   0.049
 9944SOL    HW130731   1.624   5.016   6.995
 9944SOL    HW230732   1.500   4.939   0.044
 9945SOL     OW30733   6.281   4.051   0.240
 9945SOL    HW130734   6.282   3.981   0.169
 9945SOL    HW230735   6.222   4.022   0.315
 9946SOL     OW30736   5.801   0.558   2.913
 9946SOL    HW130737   5.844   0.544   3.003
 9946SOL    HW230738   5.869   0.594   2.849
 9947SOL     OW30739   1.301   2.493   4.416
 9947SOL    HW130740   1.382   2.436   4.404
 9947SOL    HW230741   1.225   2.454   4.364
 9948SOL     OW30742   6.129   0.214   3.622
 9948SOL    HW130743   6.197   0.141   3.610
 9948SOL    HW230744   6.050   0.179   3.670
 9949SOL     OW30745   6.330   4.299   5.210
 9949SOL    HW130746   6.364   4.316   5.302
 9949SOL    HW230747   6.324   4.385   5.160
 9950SOL     OW30748   6.505   4.992   6.091
 9950SOL    HW130749   6.549   4.966   6.005
 9950SOL    HW230750   6.523   4.922   6.161
 9951SOL     OW30751   0.928   3.288   2.483
 9951SOL    HW130752   0.986   3.207   2.471
 9951SOL    HW230753   0.904   3.297   2.580
 9952SOL     OW30754   0.946   3.938   1.466
 9952SOL    HW130755   0.855   3.980   1.461
 9952SOL    HW230756   0.955   3.886   1.551
 9953SOL     OW30757   6.051   2.583   3.542
 9953SOL    HW130758   6.139   2.586   3.495
 9953SOL    HW230759   6.062   2.537   3.630
 9954SOL     OW30760   2.810   1.611   5.534
 9954SOL    HW130761   2.772   1.522   5.509
 9954SOL    HW230762   2.853   1.652   5.454
 9955SOL     OW30763   4.226   3.443   0.862
 9955SOL    HW130764   4.267   3.532   0.842
 9955SOL    HW230765   4.290   3.370   0.838
 9956SOL     OW30766   1.357   4.432   3.024
 9956SOL    HW130767   1.306   4.500   3.076
 9956SOL    HW230768   1.293   4.365   2.986
 9957SOL     OW30769   5.494   6.725   1.700
 9957SOL    HW130770   5.542   6.768   1.624
 9957SOL    HW230771   5.539   6.747   1.786
 9958SOL     OW30772   4.033   4.770   5.872
 9958SOL    HW130773   3.950   4.722   5.843
 9958SOL    HW230774   4.051   4.847   5.811
 9959SOL     OW30775   4.419   4.034   1.282
 9959SOL    HW130776   4.425   3.940   1.316
 9959SOL    HW230777   4.382   4.093   1.354
 9960SOL     OW30778   6.631   6.563   1.203
 9960SOL    HW130779   6.546   6.530   1.244
 9960SOL    HW230780   6.619   6.573   1.104
 9961SOL     OW30781   1.702   3.961   1.869
 9961SOL    HW130782   1.791   3.989   1.903
 9961SOL    HW230783   1.633   4.029   1.894
 9962SOL     OW30784   3.275   5.784   2.340
 9962SOL    HW130785   3.193   5.803   2.287
 9962SOL    HW230786   3.287   5.685   2.349
 9963SOL     OW30787   2.318   1.589   0.332
 9963SOL    HW130788   2.247   1.523   0.357
 9963SOL    HW230789   2.346   1.640   0.414
 9964SOL     OW30790   4.689   4.566   5.259
 9964SOL    HW130791   4.735   4.509   5.191
 9964SOL    HW230792   4.740   4.564   5.345
 9965SOL     OW30793   2.785   6.238   4.853
 9965SOL    HW130794   2.715   6.169   4.834
 9965SOL    HW230795   2.792   6.253   4.951
 9966SOL     OW30796   2.875   4.792   2.075
 9966SOL    HW130797   2.957   4.792   2.017
 9966SOL    HW230798   2.814   4.719   2.045
 9967SOL     OW30799   6.086   6.857   2.718
 9967SOL    HW130800   6.179   6.820   2.717
 9967SOL    HW230801   6.021   6.787   2.689
 9968SOL     OW30802   4.370   6.044   0.274
 9968SOL    HW130803   4.378   5.952   0.234
 9968SOL    HW230804   4.285   6.051   0.325
 9969SOL     OW30805   0.588   4.471   4.658
 9969SOL    HW130806   0.676   4.424   4.664
 9969SOL    HW230807   0.557   4.497   4.750
 9970SOL     OW30808   5.439   5.430   1.889
 9970SOL    HW130809   5.448   5.394   1.982
 9970SOL    HW230810   5.474   5.363   1.824
 9971SOL     OW30811   1.208   3.180   1.954
 9971SOL    HW130812   1.126   3.222   1.915
 9971SOL    HW230813   1.267   3.252   1.990
 9972SOL     OW30814   3.431   3.494   0.803
 9972SOL    HW130815   3.344   3.465   0.762
 9972SOL    HW230816   3.434   3.594   0.807
 9973SOL     OW30817   4.287   1.692   4.491
 9973SOL    HW130818   4.193   1.718   4.514
 9973SOL    HW230819   4.320   1.749   4.416
 9974SOL     OW30820   6.691   2.400   3.304
 9974SOL    HW130821   6.663   2.353   3.388
 9974SOL    HW230822   6.618   2.393   3.236
 9975SOL     OW30823   1.126   5.387   7.000
 9975SOL    HW130824   1.177   5.308   6.966
 9975SOL    HW230825   1.148   5.467   6.945
 9976SOL     OW30826   1.343   5.434   5.727
 9976SOL    HW130827   1.363   5.397   5.817
 9976SOL    HW230828   1.411   5.504   5.703
 9977SOL     OW30829   5.541   4.946   5.054
 9977SOL    HW130830   5.535   4.876   4.983
 9977SOL    HW230831   5.603   4.915   5.126
 9978SOL     OW30832   0.210   2.196   6.021
 9978SOL    HW130833   0.265   2.262   5.969
 9978SOL    HW230834   0.239   2.198   6.117
 9979SOL     OW30835   5.070   3.412   6.025
 9979SOL    HW130836   5.017   3.460   6.094
 9979SOL    HW230837   5.012   3.392   5.946
 9980SOL     OW30838   1.494   0.814   0.025
 9980SOL    HW130839   1.478   0.721   7.016
 9980SOL    HW230840   1.423   0.839   0.090
 9981SOL     OW30841   1.564   2.485   1.280
 9981SOL    HW130842   1.560   2.431   1.196
 9981SOL    HW230843   1.604   2.574   1.260
 9982SOL     OW30844   2.309   0.938   4.815
 9982SOL    HW130845   2.288   0.898   4.904
 9982SOL    HW230846   2.253   1.020   4.801
 9983SOL     OW30847   6.036   2.829   2.568
 9983SOL    HW130848   6.110   2.812   2.633
 9983SOL    HW230849   5.992   2.743   2.544
 9984SOL     OW30850   0.400   6.212   1.305
 9984SOL    HW130851   0.328   6.165   1.256
 9984SOL    HW230852   0.388   6.311   1.295
 9985SOL     OW30853   3.283   5.089   0.336
 9985SOL    HW130854   3.210   5.050   0.392
 9985SOL    HW230855   3.299   5.184   0.362
 9986SOL     OW30856   5.010   4.476   1.054
 9986SOL    HW130857   4.984   4.447   0.962
 9986SOL    HW230858   5.020   4.575   1.056
 9987SOL     OW30859   5.399   3.182   1.617
 9987SOL    HW130860   5.395   3.099   1.562
 9987SOL    HW230861   5.307   3.222   1.624
 9988SOL     OW30862   6.632   5.577   4.006
 9988SOL    HW130863   6.658   5.519   4.084
 9988SOL    HW230864   6.558   5.638   4.034
 9989SOL     OW30865   5.903   3.249   1.844
 9989SOL    HW130866   5.965   3.170   1.850
 9989SOL    HW230867   5.947   3.328   1.886
 9990SOL     OW30868   0.172   6.405   3.135
 9990SOL    HW130869   0.102   6.454   3.186
 9990SOL    HW230870   0.155   6.307   3.141
 9991SOL     OW30871   1.494   3.820   3.545
 9991SOL    HW130872   1.566   3.855   3.485
 9991SOL    HW230873   1.536   3.787   3.630
 9992SOL     OW30874   3.375   3.795   1.069
 9992SOL    HW130875   3.352   3.715   1.125
 9992SOL    HW230876   3.420   3.765   0.985
 9993SOL     OW30877   3.458   6.216   3.714
 9993SOL    HW130878   3.517   6.137   3.730
 9993SOL    HW230879   3.495   6.271   3.639
 9994SOL     OW30880   0.255   3.853   3.435
 9994SOL    HW130881   0.335   3.820   3.485
 9994SOL    HW230882   0.227   3.942   3.472
 9995SOL     OW30883   2.912   1.094   3.907
 9995SOL    HW130884   2.975   1.074   3.982
 9995SOL    HW230885   2.963   1.132   3.830
 9996SOL     OW30886   2.624   4.227   0.334
 9996SOL    HW130887   2.533   4.220   0.292
 9996SOL    HW230888   2.629   4.167   0.413
 9997SOL     OW30889   5.285   1.645   3.618
 9997SOL    HW130890   5.268   1.632   3.521
 9997SOL    HW230891   5.348   1.723   3.631
 9998SOL     OW30892   5.213   3.872   2.365
 9998SOL    HW130893   5.238   3.775   2.367
 9998SOL    HW230894   5.187   3.901   2.458
 9999SOL     OW30895   0.730   0.268   4.245
 9999SOL    HW130896   0.818   0.222   4.260
 9999SOL    HW230897   0.658   0.216   4.291
10000SOL     OW30898   5.512   1.490   1.534
10000SOL    HW130899   5.597   1.528   1.570
10000SOL    HW230900   5.522   1.391   1.523
10001SOL     OW30901   3.566   6.226   2.536
10001SOL    HW130902   3.632   6.187   2.472
10001SOL    HW230903   3.483   6.252   2.487
10002SOL     OW30904   2.186   1.025   0.668
10002SOL    HW130905   2.196   1.038   0.766
10002SOL    HW230906   2.208   1.110   0.620
10003SOL     OW30907   2.984   1.652   2.316
10003SOL    HW130908   2.960   1.739   2.272
10003SOL    HW230909   3.083   1.646   2.327
10004SOL     OW30910   5.688   4.865   4.675
10004SOL    HW130911   5.727   4.774   4.688
10004SOL    HW230912   5.600   4.871   4.723
10005SOL     OW30913   3.159   5.543   3.586
10005SOL    HW130914   3.084   5.477   3.576
10005SOL    HW230915   3.234   5.517   3.525
10006SOL     OW30916   5.453   0.162   5.380
10006SOL    HW130917   5.473   0.227   5.453
10006SOL    HW230918   5.529   0.097   5.371
10007SOL     OW30919   0.507   3.456   4.858
10007SOL    HW130920   0.503   3.487   4.763
10007SOL    HW230921   0.414   3.446   4.893
10008SOL     OW30922   4.276   1.835   4.266
10008SOL    HW130923   4.235   1.925   4.278
10008SOL    HW230924   4.221   1.783   4.200
10009SOL     OW30925   1.847   3.924   1.619
10009SOL    HW130926   1.787   3.921   1.699
10009SOL    HW230927   1.910   3.847   1.622
10010SOL     OW30928   3.175   5.244   6.573
10010SOL    HW130929   3.252   5.308   6.574
10010SOL    HW230930   3.166   5.201   6.663
10011SOL     OW30931   0.431   4.601   6.980
10011SOL    HW130932   0.496   4.587   6.904
10011SOL    HW230933   0.338   4.593   6.945
10012SOL     OW30934   4.782   0.377   2.071
10012SOL    HW130935   4.746   0.293   2.110
10012SOL    HW230936   4.706   0.439   2.051
10013SOL     OW30937   0.857   4.752   4.465
10013SOL    HW130938   0.892   4.800   4.385
10013SOL    HW230939   0.922   4.682   4.493
10014SOL     OW30940   1.596   0.023   2.445
10014SOL    HW130941   1.515   0.010   2.388
10014SOL    HW230942   1.624   0.119   2.443
10015SOL     OW30943   3.735   5.005   0.192
10015SOL    HW130944   3.701   4.981   0.101
10015SOL    HW230945   3.835   4.998   0.193
10016SOL     OW30946   2.241   1.523   4.886
10016SOL    HW130947   2.316   1.502   4.823
10016SOL    HW230948   2.187   1.599   4.849
10017SOL     OW30949   2.169   1.734   2.529
10017SOL    HW130950   2.089   1.696   2.576
10017SOL    HW230951   2.246   1.671   2.540
10018SOL     OW30952   6.811   3.757   5.506
10018SOL    HW130953   6.793   3.792   5.415
10018SOL    HW230954   6.812   3.832   5.572
10019SOL     OW30955   0.294   1.268   3.370
10019SOL    HW130956   0.247   1.330   3.433
10019SOL    HW230957   0.290   1.306   3.278
10020SOL     OW30958   0.159   1.293   2.212
10020SOL    HW130959   0.132   1.199   2.191
10020SOL    HW230960   0.143   1.351   2.132
10021SOL     OW30961   0.675   3.144   1.775
10021SOL    HW130962   0.696   3.113   1.682
10021SOL    HW230963   0.717   3.081   1.841
10022SOL     OW30964   2.240   5.831   6.999
10022SOL    HW130965   2.210   5.891   0.050
10022SOL    HW230966   2.194   5.857   6.914
10023SOL     OW30967   2.880   6.041   5.549
10023SOL    HW130968   2.894   6.111   5.619
10023SOL    HW230969   2.964   5.987   5.540
10024SOL     OW30970   1.076   4.980   2.627
10024SOL    HW130971   1.101   4.910   2.695
10024SOL    HW230972   1.012   5.045   2.667
10025SOL     OW30973   1.350   3.033   2.285
10025SOL    HW130974   1.381   2.999   2.373
10025SOL    HW230975   1.421   3.091   2.245
10026SOL     OW30976   5.196   0.710   3.124
10026SOL    HW130977   5.250   0.704   3.040
10026SOL    HW230978   5.254   0.691   3.202
10027SOL     OW30979   1.027   2.873   4.988
10027SOL    HW130980   1.044   2.905   5.082
10027SOL    HW230981   1.063   2.780   4.978
10028SOL     OW30982   3.002   1.010   0.805
10028SOL    HW130983   2.905   0.988   0.791
10028SOL    HW230984   3.032   1.073   0.734
10029SOL     OW30985   0.682   3.514   3.708
10029SOL    HW130986   0.582   3.508   3.705
10029SOL    HW230987   0.719   3.487   3.619
10030SOL     OW30988   3.334   6.990   4.856
10030SOL    HW130989   3.405   6.993   4.926
10030SOL    HW230990   3.361   0.025   4.779
10031SOL     OW30991   4.453   4.959   4.707
10031SOL    HW130992   4.547   4.991   4.724
10031SOL    HW230993   4.446   4.863   4.733
10032SOL     OW30994   3.867   0.501   6.320
10032SOL    HW130995   3.953   0.456   6.300
10032SOL    HW230996   3.815   0.446   6.386
10033SOL     OW30997   4.062   1.562   4.788
10033SOL    HW130998   4.035   1.624   4.862
10033SOL    HW230999   4.070   1.613   4.703
10034SOL     OW31000   2.422   1.171   3.746
10034SOL    HW131001   2.434   1.100   3.815
10034SOL    HW231002   2.354   1.237   3.777
10035SOL     OW31003   5.487   3.846   1.219
10035SOL    HW131004   5.551   3.916   1.187
10035SOL    HW231005   5.532   3.787   1.285
10036SOL     OW31006   6.583   0.943   0.733
10036SOL    HW131007   6.620   0.858   0.769
10036SOL    HW231008   6.497   0.965   0.780
10037SOL     OW31009   6.265   6.601   6.448
10037SOL    HW131010   6.336   6.671   6.441
10037SOL    HW231011   6.202   6.624   6.522
10038SOL     OW31012   4.055   6.830   6.062
10038SOL    HW131013   4.142   6.783   6.074
10038SOL    HW231014   4.023   6.819   5.968
10039SOL     OW31015   5.536   6.685   5.272
10039SOL    HW131016   5.455   6.743   5.270
10039SOL    HW231017   5.562   6.667   5.366
10040SOL     OW31018   4.461   5.959   6.548
10040SOL    HW131019   4.478   5.973   6.451
10040SOL    HW231020   4.537   5.998   6.601
10041SOL     OW31021   5.739   5.343   5.744
10041SOL    HW131022   5.804   5.320   5.817
10041SOL    HW231023   5.646   5.337   5.780
10042SOL     OW31024   0.438   1.017   5.229
10042SOL    HW131025   0.346   1.004   5.264
10042SOL    HW231026   0.500   1.039   5.305
10043SOL     OW31027   0.826   0.083   3.463
10043SOL    HW131028   0.743   0.036   3.494
10043SOL    HW231029   0.816   0.110   3.368
10044SOL     OW31030   2.695   1.774   3.849
10044SOL    HW131031   2.746   1.783   3.934
10044SOL    HW231032   2.639   1.691   3.852
10045SOL     OW31033   5.106   0.220   3.963
10045SOL    HW131034   5.043   0.252   4.033
10045SOL    HW231035   5.200   0.239   3.992
10046SOL     OW31036   1.148   1.497   1.837
10046SOL    HW131037   1.070   1.523   1.894
10046SOL    HW231038   1.229   1.546   1.868
10047SOL     OW31039   6.137   3.075   4.961
10047SOL    HW131040   6.217   3.015   4.959
10047SOL    HW231041   6.055   3.022   4.943
10048SOL     OW31042   3.474   2.096   2.509
10048SOL    HW131043   3.400   2.155   2.477
10048SOL    HW231044   3.533   2.071   2.432
10049SOL     OW31045   0.641   0.808   6.363
10049SOL    HW131046   0.701   0.794   6.442
10049SOL    HW231047   0.580   0.729   6.353
10050SOL     OW31048   6.438   2.599   4.890
10050SOL    HW131049   6.431   2.500   4.895
10050SOL    HW231050   6.378   2.641   4.958
10051SOL     OW31051   6.538   2.469   4.604
10051SOL    HW131052   6.524   2.532   4.681
10051SOL    HW231053   6.623   2.418   4.619
10052SOL     OW31054   1.647   2.184   2.574
10052SOL    HW131055   1.637   2.175   2.475
10052SOL    HW231056   1.598   2.110   2.620
10053SOL     OW31057   3.525   5.189   2.026
10053SOL    HW131058   3.535   5.128   1.947
10053SOL    HW231059   3.516   5.283   1.995
10054SOL     OW31060   4.076   6.158   5.832
10054SOL    HW131061   4.172   6.181   5.816
10054SOL    HW231062   4.062   6.143   5.930
10055SOL     OW31063   5.963   2.450   5.324
10055SOL    HW131064   5.977   2.461   5.225
10055SOL    HW231065   5.907   2.369   5.341
10056SOL     OW31066   6.472   5.411   0.516
10056SOL    HW131067   6.500   5.500   0.553
10056SOL    HW231068   6.472   5.343   0.590
10057SOL     OW31069   3.613   0.956   4.209
10057SOL    HW131070   3.643   0.865   4.237
10057SOL    HW231071   3.658   1.025   4.265
10058SOL     OW31072   0.571   3.798   4.397
10058SOL    HW131073   0.658   3.752   4.385
10058SOL    HW231074   0.536   3.827   4.308
10059SOL     OW31075   5.459   6.614   0.601
10059SOL    HW131076   5.368   6.606   0.642
10059SOL    HW231077   5.484   6.710   0.594
10060SOL     OW31078   2.611   1.233   1.853
10060SOL    HW131079   2.690   1.266   1.801
10060SOL    HW231080   2.558   1.169   1.797
10061SOL     OW31081   4.898   1.234   4.337
10061SOL    HW131082   4.821   1.297   4.328
10061SOL    HW231083   4.866   1.148   4.377
10062SOL     OW31084   6.189   6.762   4.651
10062SOL    HW131085   6.196   6.789   4.555
10062SOL    HW231086   6.261   6.808   4.703
10063SOL     OW31087   1.504   1.970   3.278
10063SOL    HW131088   1.585   1.943   3.329
10063SOL    HW231089   1.500   1.920   3.192
10064SOL     OW31090   5.881   5.693   5.954
10064SOL    HW131091   5.927   5.605   5.936
10064SOL    HW231092   5.832   5.722   5.872
10065SOL     OW31093   2.293   0.856   1.813
10065SOL    HW131094   2.326   0.795   1.885
10065SOL    HW231095   2.290   0.949   1.848
10066SOL     OW31096   1.918   1.551   4.549
10066SOL    HW131097   1.885   1.541   4.456
10066SOL    HW231098   1.923   1.461   4.593
10067SOL     OW31099   5.429   3.955   5.528
10067SOL    HW131100   5.378   3.912   5.603
10067SOL    HW231101   5.470   4.040   5.560
10068SOL     OW31102   5.404   3.045   4.295
10068SOL    HW131103   5.392   2.955   4.253
10068SOL    HW231104   5.474   3.040   4.366
10069SOL     OW31105   1.965   5.458   3.683
10069SOL    HW131106   1.890   5.437   3.621
10069SOL    HW231107   1.935   5.527   3.749
10070SOL     OW31108   0.271   0.276   4.959
10070SOL    HW131109   0.355   0.328   4.940
10070SOL    HW231110   0.282   0.226   5.045
10071SOL     OW31111   5.171   5.380   3.817
10071SOL    HW131112   5.117   5.428   3.887
10071SOL    HW231113   5.212   5.448   3.755
10072SOL     OW31114   0.780   5.913   4.183
10072SOL    HW131115   0.859   5.974   4.186
10072SOL    HW231116   0.710   5.945   4.246
10073SOL     OW31117   6.198   4.061   4.351
10073SOL    HW131118   6.247   3.986   4.306
10073SOL    HW231119   6.203   4.049   4.450
10074SOL     OW31120   0.657   0.500   5.364
10074SOL    HW131121   0.729   0.447   5.408
10074SOL    HW231122   0.697   0.567   5.301
10075SOL     OW31123   1.458   2.555   2.615
10075SOL    HW131124   1.448   2.461   2.647
10075SOL    HW231125   1.532   2.600   2.665
10076SOL     OW31126   5.557   0.286   3.476
10076SOL    HW131127   5.555   0.187   3.482
10076SOL    HW231128   5.583   0.314   3.384
10077SOL     OW31129   3.277   2.279   6.542
10077SOL    HW131130   3.325   2.361   6.573
10077SOL    HW231131   3.337   2.200   6.551
10078SOL     OW31132   6.752   6.356   4.109
10078SOL    HW131133   6.799   6.269   4.099
10078SOL    HW231134   6.690   6.352   4.187
10079SOL     OW31135   1.202   3.612   1.841
10079SOL    HW131136   1.162   3.642   1.927
10079SOL    HW231137   1.131   3.570   1.784
10080SOL     OW31138   2.918   1.407   5.830
10080SOL    HW131139   3.018   1.400   5.840
10080SOL    HW231140   2.879   1.316   5.820
10081SOL     OW31141   0.388   0.474   0.008
10081SOL    HW131142   0.300   0.520   0.019
10081SOL    HW231143   0.462   0.537   0.031
10082SOL     OW31144   0.106   4.093   2.011
10082SOL    HW131145   0.170   4.166   1.988
10082SOL    HW231146   0.156   4.016   2.049
10083SOL     OW31147   5.429   0.804   2.446
10083SOL    HW131148   5.332   0.827   2.440
10083SOL    HW231149   5.471   0.810   2.356
10084SOL     OW31150   3.359   0.947   5.889
10084SOL    HW131151   3.353   0.866   5.830
10084SOL    HW231152   3.276   1.002   5.880
10085SOL     OW31153   0.575   6.011   2.064
10085SOL    HW131154   0.476   5.998   2.059
10085SOL    HW231155   0.597   6.108   2.066
10086SOL     OW31156   6.018   5.028   1.628
10086SOL    HW131157   5.968   5.062   1.708
10086SOL    HW231158   6.030   4.929   1.636
10087SOL     OW31159   0.299   6.881   3.995
10087SOL    HW131160   0.230   6.945   4.030
10087SOL    HW231161   0.311   6.806   4.059
10088SOL     OW31162   6.931   6.976   0.092
10088SOL    HW131163   6.920   0.030   0.154
10088SOL    HW231164   0.005   6.953   0.084
10089SOL     OW31165   2.392   2.579   3.012
10089SOL    HW131166   2.320   2.647   2.993
10089SOL    HW231167   2.349   2.494   3.043
10090SOL     OW31168   1.420   4.695   0.895
10090SOL    HW131169   1.341   4.729   0.946
10090SOL    HW231170   1.502   4.744   0.923
10091SOL     OW31171   1.456   3.329   5.377
10091SOL    HW131172   1.404   3.269   5.438
10091SOL    HW231173   1.531   3.277   5.336
10092SOL     OW31174   1.971   3.468   5.029
10092SOL    HW131175   2.032   3.545   5.012
10092SOL    HW231176   1.876   3.495   5.015
10093SOL     OW31177   0.805   4.416   4.898
10093SOL    HW131178   0.715   4.447   4.927
10093SOL    HW231179   0.859   4.494   4.866
10094SOL     OW31180   2.388   6.347   1.729
10094SOL    HW131181   2.331   6.289   1.673
10094SOL    HW231182   2.339   6.431   1.752
10095SOL     OW31183   6.404   2.062   5.853
10095SOL    HW131184   6.400   2.160   5.831
10095SOL    HW231185   6.463   2.015   5.787
10096SOL     OW31186   5.820   4.875   1.919
10096SOL    HW131187   5.777   4.795   1.961
10096SOL    HW231188   5.901   4.901   1.971
10097SOL     OW31189   0.946   1.154   0.076
10097SOL    HW131190   0.860   1.143   0.124
10097SOL    HW231191   1.022   1.133   0.137
10098SOL     OW31192   2.333   0.660   5.187
10098SOL    HW131193   2.363   0.566   5.199
10098SOL    HW231194   2.270   0.685   5.261
10099SOL     OW31195   0.204   4.947   0.218
10099SOL    HW131196   0.277   5.004   0.180
10099SOL    HW231197   0.131   5.005   0.255
10100SOL     OW31198   5.032   7.022   4.286
10100SOL    HW131199   5.118   7.009   4.237
10100SOL    HW231200   5.052   0.025   4.381
10101SOL     OW31201   5.811   4.161   1.868
10101SOL    HW131202   5.799   4.247   1.917
10101SOL    HW231203   5.906   4.154   1.837
10102SOL     OW31204   1.500   1.060   3.012
10102SOL    HW131205   1.454   1.147   2.997
10102SOL    HW231206   1.485   1.030   3.106
10103SOL     OW31207   2.378   1.683   5.534
10103SOL    HW131208   2.282   1.694   5.561
10103SOL    HW231209   2.417   1.772   5.513
10104SOL     OW31210   1.662   2.673   4.332
10104SOL    HW131211   1.720   2.652   4.253
10104SOL    HW231212   1.703   2.634   4.415
10105SOL     OW31213   0.974   0.828   0.357
10105SOL    HW131214   0.934   0.913   0.393
10105SOL    HW231215   1.001   0.841   0.262
10106SOL     OW31216   4.548   5.575   1.117
10106SOL    HW131217   4.640   5.550   1.088
10106SOL    HW231218   4.532   5.542   1.210
10107SOL     OW31219   0.351   1.901   6.988
10107SOL    HW131220   0.335   1.936   6.896
10107SOL    HW231221   0.336   1.802   6.988
10108SOL     OW31222   6.499   6.031   6.815
10108SOL    HW131223   6.461   6.099   6.878
10108SOL    HW231224   6.425   5.983   6.769
10109SOL     OW31225   3.576   6.419   1.619
10109SOL    HW131226   3.631   6.339   1.643
10109SOL    HW231227   3.635   6.499   1.612
10110SOL     OW31228   4.375   6.556   4.738
10110SOL    HW131229   4.352   6.626   4.671
10110SOL    HW231230   4.465   6.517   4.716
10111SOL     OW31231   5.763   2.846   4.241
10111SOL    HW131232   5.754   2.944   4.223
10111SOL    HW231233   5.766   2.797   4.154
10112SOL     OW31234   5.424   3.986   4.390
10112SOL    HW131235   5.492   4.054   4.362
10112SOL    HW231236   5.460   3.929   4.463
10113SOL     OW31237   4.223   0.711   5.504
10113SOL    HW131238   4.202   0.673   5.594
10113SOL    HW231239   4.319   0.693   5.481
10114SOL     OW31240   5.012   0.535   0.811
10114SOL    HW131241   5.073   0.459   0.832
10114SOL    HW231242   5.043   0.618   0.858
10115SOL     OW31243   3.150   2.223   3.537
10115SOL    HW131244   3.216   2.294   3.515
10115SOL    HW231245   3.124   2.175   3.453
10116SOL     OW31246   0.557   6.543   0.195
10116SOL    HW131247   0.614   6.599   0.134
10116SOL    HW231248   0.550   6.450   0.157
10117SOL     OW31249   6.901   6.473   5.104
10117SOL    HW131250   6.934   6.545   5.044
10117SOL    HW231251   6.978   6.426   5.147
10118SOL     OW31252   1.149   5.409   3.212
10118SOL    HW131253   1.200   5.346   3.153
10118SOL    HW231254   1.159   5.502   3.178
10119SOL     OW31255   0.656   6.613   4.678
10119SOL    HW131256   0.743   6.592   4.723
10119SOL    HW231257   0.627   6.534   4.624
10120SOL     OW31258   1.309   4.001   4.324
10120SOL    HW131259   1.295   4.099   4.314
10120SOL    HW231260   1.223   3.957   4.351
10121SOL     OW31261   6.184   4.541   6.159
10121SOL    HW131262   6.168   4.504   6.251
10121SOL    HW231263   6.273   4.588   6.157
10122SOL     OW31264   5.837   3.369   0.725
10122SOL    HW131265   5.867   3.277   0.751
10122SOL    HW231266   5.796   3.415   0.804
10123SOL     OW31267   6.828   6.498   0.011
10123SOL    HW131268   6.774   6.414   0.020
10123SOL    HW231269   6.840   6.539   0.101
10124SOL     OW31270   1.732   3.471   6.909
10124SOL    HW131271   1.830   3.462   6.891
10124SOL    HW231272   1.682   3.458   6.824
10125SOL     OW31273   1.327   0.695   2.820
10125SOL    HW131274   1.263   0.762   2.858
10125SOL    HW231275   1.312   0.606   2.863
10126SOL     OW31276   0.053   0.130   6.637
10126SOL    HW131277   0.012   0.212   6.597
10126SOL    HW231278   0.077   0.148   6.733
10127SOL     OW31279   2.317   4.921   5.808
10127SOL    HW131280   2.245   4.919   5.738
10127SOL    HW231281   2.393   4.977   5.776
10128SOL     OW31282   1.685   1.438   1.309
10128SOL    HW131283   1.753   1.433   1.383
10128SOL    HW231284   1.616   1.506   1.333
10129SOL     OW31285   5.217   2.903   4.115
10129SOL    HW131286   5.262   2.816   4.095
10129SOL    HW231287   5.164   2.932   4.036
10130SOL     OW31288   2.061   4.164   2.171
10130SOL    HW131289   2.011   4.207   2.247
10130SOL    HW231290   2.129   4.228   2.135
10131SOL     OW31291   0.328   0.379   3.311
10131SOL    HW131292   0.257   0.407   3.247
10131SOL    HW231293   0.417   0.414   3.279
10132SOL     OW31294   2.859   7.022   3.825
10132SOL    HW131295   2.841   6.924   3.823
10132SOL    HW231296   2.813   0.040   3.905
10133SOL     OW31297   4.951   6.186   1.509
10133SOL    HW131298   5.013   6.259   1.479
10133SOL    HW231299   4.871   6.183   1.450
10134SOL     OW31300   6.408   6.626   3.849
10134SOL    HW131301   6.402   6.548   3.911
10134SOL    HW231302   6.498   6.627   3.805
10135SOL     OW31303   4.857   3.216   3.212
10135SOL    HW131304   4.895   3.232   3.303
10135SOL    HW231305   4.909   3.268   3.145
10136SOL     OW31306   5.810   0.822   3.112
10136SOL    HW131307   5.850   0.787   3.027
10136SOL    HW231308   5.883   0.833   3.180
10137SOL     OW31309   5.761   4.299   3.796
10137SOL    HW131310   5.738   4.296   3.699
10137SOL    HW231311   5.711   4.227   3.844
10138SOL     OW31312   5.147   1.833   0.627
10138SOL    HW131313   5.168   1.930   0.619
10138SOL    HW231314   5.096   1.803   0.546
10139SOL     OW31315   3.785   4.056   3.272
10139SOL    HW131316   3.789   4.034   3.175
10139SOL    HW231317   3.690   4.069   3.300
10140SOL     OW31318   6.466   6.409   6.022
10140SOL    HW131319   6.400   6.371   5.957
10140SOL    HW231320   6.455   6.362   6.110
10141SOL     OW31321   3.416   1.590   4.383
10141SOL    HW131322   3.381   1.672   4.338
10141SOL    HW231323   3.361   1.571   4.465
10142SOL     OW31324   6.384   6.522   4.734
10142SOL    HW131325   6.316   6.592   4.711
10142SOL    HW231326   6.454   6.519   4.663
10143SOL     OW31327   4.324   0.657   0.368
10143SOL    HW131328   4.422   0.657   0.386
10143SOL    HW231329   4.279   0.726   0.425
10144SOL     OW31330   3.651   6.703   5.980
10144SOL    HW131331   3.577   6.635   5.974
10144SOL    HW231332   3.650   6.760   5.898
10145SOL     OW31333   3.076   5.489   5.639
10145SOL    HW131334   2.994   5.540   5.612
10145SOL    HW231335   3.050   5.405   5.686
10146SOL     OW31336   4.206   5.253   4.463
10146SOL    HW131337   4.203   5.199   4.379
10146SOL    HW231338   4.121   5.306   4.471
10147SOL     OW31339   5.724   4.383   4.907
10147SOL    HW131340   5.818   4.376   4.873
10147SOL    HW231341   5.701   4.300   4.959
10148SOL     OW31342   5.109   5.105   6.946
10148SOL    HW131343   5.070   5.181   6.998
10148SOL    HW231344   5.104   5.021   7.000
10149SOL     OW31345   5.663   1.812   1.006
10149SOL    HW131346   5.724   1.846   1.078
10149SOL    HW231347   5.715   1.801   0.922
10150SOL     OW31348   4.106   3.512   0.492
10150SOL    HW131349   4.162   3.440   0.450
10150SOL    HW231350   4.163   3.566   0.554
10151SOL     OW31351   0.999   6.772   0.078
10151SOL    HW131352   0.969   6.700   0.016
10151SOL    HW231353   1.096   6.760   0.100
10152SOL     OW31354   0.847   6.396   4.802
10152SOL    HW131355   0.879   6.358   4.716
10152SOL    HW231356   0.862   6.330   4.876
10153SOL     OW31357   4.874   6.163   3.867
10153SOL    HW131358   4.943   6.138   3.800
10153SOL    HW231359   4.823   6.243   3.834
10154SOL     OW31360   5.468   0.046   4.943
10154SOL    HW131361   5.553   7.016   4.934
10154SOL    HW231362   5.432   0.067   4.852
10155SOL     OW31363   3.727   2.282   5.591
10155SOL    HW131364   3.718   2.300   5.493
10155SOL    HW231365   3.800   2.340   5.629
10156SOL     OW31366   6.464   1.430   2.348
10156SOL    HW131367   6.383   1.463   2.299
10156SOL    HW231368   6.458   1.331   2.359
10157SOL     OW31369   5.921   2.243   6.429
10157SOL    HW131370   5.963   2.310   6.367
10157SOL    HW231371   5.827   2.271   6.449
10158SOL     OW31372   5.585   3.579   1.128
10158SOL    HW131373   5.667   3.567   1.184
10158SOL    HW231374   5.549   3.671   1.142
10159SOL     OW31375   2.679   3.189   6.149
10159SOL    HW131376   2.717   3.107   6.190
10159SOL    HW231377   2.685   3.183   6.049
10160SOL     OW31378   2.326   2.773   2.226
10160SOL    HW131379   2.392   2.772   2.151
10160SOL    HW231380   2.269   2.855   2.221
10161SOL     OW31381   3.213   2.756   6.491
10161SOL    HW131382   3.295   2.798   6.451
10161SOL    HW231383   3.190   2.673   6.441
10162SOL     OW31384   3.452   4.550   0.745
10162SOL    HW131385   3.395   4.548   0.828
10162SOL    HW231386   3.465   4.644   0.716
10163SOL     OW31387   5.509   4.913   5.828
10163SOL    HW131388   5.489   4.818   5.850
10163SOL    HW231389   5.587   4.944   5.882
10164SOL     OW31390   5.781   3.157   4.869
10164SOL    HW131391   5.695   3.196   4.837
10164SOL    HW231392   5.858   3.205   4.826
10165SOL     OW31393   0.422   1.995   3.476
10165SOL    HW131394   0.472   2.047   3.408
10165SOL    HW231395   0.346   1.947   3.433
10166SOL     OW31396   3.333   1.746   1.767
10166SOL    HW131397   3.369   1.797   1.690
10166SOL    HW231398   3.397   1.673   1.792
10167SOL     OW31399   2.716   2.874   6.953
10167SOL    HW131400   2.707   2.960   6.903
10167SOL    HW231401   2.728   2.799   6.888
10168SOL     OW31402   6.080   3.913   5.587
10168SOL    HW131403   6.123   3.987   5.535
10168SOL    HW231404   5.981   3.922   5.582
10169SOL     OW31405   6.416   4.099   3.665
10169SOL    HW131406   6.377   4.091   3.574
10169SOL    HW231407   6.443   4.194   3.681
10170SOL     OW31408   1.108   5.158   5.945
10170SOL    HW131409   1.051   5.100   6.004
10170SOL    HW231410   1.085   5.254   5.961
10171SOL     OW31411   6.683   3.102   5.707
10171SOL    HW131412   6.756   3.132   5.769
10171SOL    HW231413   6.699   3.141   5.616
10172SOL     OW31414   6.571   6.524   4.532
10172SOL    HW131415   6.559   6.610   4.482
10172SOL    HW231416   6.663   6.488   4.515
10173SOL     OW31417   0.890   2.417   1.112
10173SOL    HW131418   0.985   2.430   1.084
10173SOL    HW231419   0.854   2.503   1.150
10174SOL     OW31420   5.541   5.290   2.126
10174SOL    HW131421   5.543   5.215   2.193
10174SOL    HW231422   5.632   5.300   2.085
10175SOL     OW31423   5.459   2.230   4.417
10175SOL    HW131424   5.429   2.178   4.496
10175SOL    HW231425   5.543   2.189   4.380
10176SOL     OW31426   0.961   3.390   5.893
10176SOL    HW131427   1.046   3.421   5.937
10176SOL    HW231428   0.963   3.415   5.797
10177SOL     OW31429   2.533   0.636   0.226
10177SOL    HW131430   2.465   0.638   0.299
10177SOL    HW231431   2.609   0.576   0.253
10178SOL     OW31432   6.870   0.876   5.600
10178SOL    HW131433   6.887   0.950   5.535
10178SOL    HW231434   6.927   0.888   5.681
10179SOL     OW31435   0.941   1.824   6.314
10179SOL    HW131436   0.955   1.870   6.226
10179SOL    HW231437   0.918   1.728   6.299
10180SOL     OW31438   4.034   0.256   6.311
10180SOL    HW131439   4.106   0.244   6.379
10180SOL    HW231440   4.061   0.212   6.226
10181SOL     OW31441   5.244   2.497   1.735
10181SOL    HW131442   5.294   2.469   1.817
10181SOL    HW231443   5.190   2.579   1.755
10182SOL     OW31444   4.075   0.907   1.406
10182SOL    HW131445   3.985   0.899   1.362
10182SOL    HW231446   4.116   0.816   1.416
10183SOL     OW31447   6.834   2.305   6.571
10183SOL    HW131448   6.795   2.227   6.522
10183SOL    HW231449   6.768   2.379   6.573
10184SOL     OW31450   3.867   0.762   6.584
10184SOL    HW131451   3.808   0.721   6.653
10184SOL    HW231452   3.940   0.698   6.560
10185SOL     OW31453   5.945   5.926   1.837
10185SOL    HW131454   5.976   5.986   1.911
10185SOL    HW231455   6.023   5.873   1.802
10186SOL     OW31456   6.142   4.211   3.687
10186SOL    HW131457   6.128   4.307   3.714
10186SOL    HW231458   6.239   4.195   3.672
10187SOL     OW31459   0.443   3.280   0.674
10187SOL    HW131460   0.484   3.371   0.664
10187SOL    HW231461   0.454   3.228   0.589
10188SOL     OW31462   3.559   5.336   0.877
10188SOL    HW131463   3.466   5.373   0.884
10188SOL    HW231464   3.604   5.374   0.796
10189SOL     OW31465   0.921   0.819   6.255
10189SOL    HW131466   0.985   0.882   6.301
10189SOL    HW231467   0.973   0.755   6.198
10190SOL     OW31468   4.903   3.205   1.782
10190SOL    HW131469   4.833   3.162   1.725
10190SOL    HW231470   4.930   3.142   1.855
10191SOL     OW31471   5.415   5.342   5.215
10191SOL    HW131472   5.420   5.326   5.116
10191SOL    HW231473   5.495   5.301   5.259
10192SOL     OW31474   4.457   1.400   5.852
10192SOL    HW131475   4.496   1.357   5.934
10192SOL    HW231476   4.531   1.438   5.796
10193SOL     OW31477   4.195   3.249   2.041
10193SOL    HW131478   4.265   3.271   2.109
10193SOL    HW231479   4.106   3.241   2.087
10194SOL     OW31480   5.519   5.733   4.931
10194SOL    HW131481   5.500   5.811   4.991
10194SOL    HW231482   5.575   5.667   4.981
10195SOL     OW31483   6.393   5.370   0.875
10195SOL    HW131484   6.294   5.374   0.861
10195SOL    HW231485   6.427   5.459   0.903
10196SOL     OW31486   4.691   1.803   4.247
10196SOL    HW131487   4.663   1.887   4.202
10196SOL    HW231488   4.651   1.800   4.339
10197SOL     OW31489   6.087   1.871   5.604
10197SOL    HW131490   6.008   1.918   5.642
10197SOL    HW231491   6.168   1.929   5.610
10198SOL     OW31492   2.956   0.208   2.235
10198SOL    HW131493   3.005   0.273   2.293
10198SOL    HW231494   2.988   0.115   2.255
10199SOL     OW31495   2.451   2.450   0.102
10199SOL    HW131496   2.523   2.390   0.136
10199SOL    HW231497   2.485   2.544   0.099
10200SOL     OW31498   5.005   1.995   0.377
10200SOL    HW131499   5.018   2.029   0.470
10200SOL    HW231500   5.090   1.955   0.344
10201SOL     OW31501   1.711   4.286   0.854
10201SOL    HW131502   1.728   4.199   0.808
10201SOL    HW231503   1.746   4.361   0.798
10202SOL     OW31504   3.836   3.289   0.681
10202SOL    HW131505   3.763   3.292   0.613
10202SOL    HW231506   3.846   3.379   0.723
10203SOL     OW31507   6.090   3.334   3.642
10203SOL    HW131508   6.176   3.381   3.621
10203SOL    HW231509   6.103   3.235   3.634
10204SOL     OW31510   4.800   6.317   0.097
10204SOL    HW131511   4.721   6.267   0.063
10204SOL    HW231512   4.871   6.253   0.125
10205SOL     OW31513   1.944   0.998   1.404
10205SOL    HW131514   1.924   0.989   1.502
10205SOL    HW231515   2.031   0.952   1.384
10206SOL     OW31516   0.413   0.782   0.264
10206SOL    HW131517   0.454   0.691   0.262
10206SOL    HW231518   0.482   0.850   0.286
10207SOL     OW31519   1.185   1.513   6.835
10207SOL    HW131520   1.153   1.447   6.767
10207SOL    HW231521   1.279   1.491   6.861
10208SOL     OW31522   5.698   4.206   3.537
10208SOL    HW131523   5.679   4.109   3.549
10208SOL    HW231524   5.796   4.219   3.525
10209SOL     OW31525   0.310   0.042   6.847
10209SOL    HW131526   0.290   0.002   6.757
10209SOL    HW231527   0.405   0.073   6.849
10210SOL     OW31528   4.542   6.298   2.050
10210SOL    HW131529   4.502   6.213   2.016
10210SOL    HW231530   4.512   6.314   2.144
10211SOL     OW31531   3.944   6.489   4.579
10211SOL    HW131532   3.944   6.400   4.535
10211SOL    HW231533   3.855   6.507   4.620
10212SOL     OW31534   0.838   0.277   5.402
10212SOL    HW131535   0.792   0.205   5.350
10212SOL    HW231536   0.908   0.237   5.460
10213SOL     OW31537   5.451   3.155   0.719
10213SOL    HW131538   5.362   3.185   0.755
10213SOL    HW231539   5.449   3.056   0.704
10214SOL     OW31540   1.566   1.661   2.223
10214SOL    HW131541   1.515   1.675   2.307
10214SOL    HW231542   1.575   1.563   2.205
10215SOL     OW31543   4.071   3.678   3.453
10215SOL    HW131544   4.066   3.778   3.448
10215SOL    HW231545   4.099   3.642   3.364
10216SOL     OW31546   0.285   1.020   0.928
10216SOL    HW131547   0.192   0.984   0.918
10216SOL    HW231548   0.298   1.096   0.864
10217SOL     OW31549   3.215   1.863   3.224
10217SOL    HW131550   3.303   1.835   3.262
10217SOL    HW231551   3.205   1.825   3.131
10218SOL     OW31552   1.713   1.587   1.699
10218SOL    HW131553   1.736   1.533   1.618
10218SOL    HW231554   1.748   1.680   1.688
10219SOL     OW31555   0.059   2.601   2.948
10219SOL    HW131556   7.002   2.644   2.989
10219SOL    HW231557   0.050   2.600   2.848
10220SOL     OW31558   4.528   2.060   1.039
10220SOL    HW131559   4.627   2.060   1.053
10220SOL    HW231560   4.482   2.083   1.125
10221SOL     OW31561   0.786   5.059   2.836
10221SOL    HW131562   0.840   5.124   2.890
10221SOL    HW231563   0.711   5.024   2.892
10222SOL     OW31564   3.075   3.472   6.081
10222SOL    HW131565   2.986   3.462   6.037
10222SOL    HW231566   3.147   3.464   6.013
10223SOL     OW31567   0.604   4.811   1.455
10223SOL    HW131568   0.694   4.801   1.411
10223SOL    HW231569   0.614   4.863   1.540
10224SOL     OW31570   6.938   3.496   4.001
10224SOL    HW131571   6.896   3.585   4.019
10224SOL    HW231572   6.867   3.431   3.973
10225SOL     OW31573   1.685   4.864   5.586
10225SOL    HW131574   1.745   4.844   5.663
10225SOL    HW231575   1.594   4.887   5.619
10226SOL     OW31576   2.768   0.385   6.660
10226SOL    HW131577   2.851   0.420   6.616
10226SOL    HW231578   2.728   0.314   6.602
10227SOL     OW31579   5.222   4.711   0.893
10227SOL    HW131580   5.161   4.761   0.831
10227SOL    HW231581   5.203   4.613   0.886
10228SOL     OW31582   0.292   7.013   1.745
10228SOL    HW131583   0.375   0.015   1.794
10228SOL    HW231584   0.221   0.058   1.762
10229SOL     OW31585   0.913   2.672   4.629
10229SOL    HW131586   0.883   2.588   4.673
10229SOL    HW231587   0.834   2.719   4.588
10230SOL     OW31588   5.692   5.812   2.948
10230SOL    HW131589   5.646   5.847   2.866
10230SOL    HW231590   5.756   5.740   2.922
10231SOL     OW31591   0.287   5.611   5.306
10231SOL    HW131592   0.206   5.611   5.248
10231SOL    HW231593   0.355   5.548   5.268
10232SOL     OW31594   2.821   1.363   3.625
10232SOL    HW131595   2.903   1.376   3.569
10232SOL    HW231596   2.807   1.265   3.640
10233SOL     OW31597   3.894   3.961   5.019
10233SOL    HW131598   3.818   3.900   4.998
10233SOL    HW231599   3.861   4.055   5.026
10234SOL     OW31600   6.246   1.456   1.284
10234SOL    HW131601   6.168   1.506   1.321
10234SOL    HW231602   6.328   1.477   1.337
10235SOL     OW31603   1.831   2.824   2.378
10235SOL    HW131604   1.788   2.915   2.369
10235SOL    HW231605   1.851   2.806   2.475
10236SOL     OW31606   2.843   0.123   0.472
10236SOL    HW131607   2.878   0.084   0.386
10236SOL    HW231608   2.828   0.049   0.538
10237SOL     OW31609   0.054   2.997   6.926
10237SOL    HW131610   0.002   3.051   6.992
10237SOL    HW231611   0.064   2.903   6.961
10238SOL     OW31612   4.311   4.243   1.425
10238SOL    HW131613   4.314   4.219   1.522
10238SOL    HW231614   4.218   4.229   1.390
10239SOL     OW31615   1.121   2.710   4.448
10239SOL    HW131616   1.184   2.632   4.452
10239SOL    HW231617   1.041   2.691   4.504
10240SOL     OW31618   2.038   5.692   2.220
10240SOL    HW131619   2.019   5.604   2.177
10240SOL    HW231620   1.991   5.764   2.170
10241SOL     OW31621   5.655   0.685   2.346
10241SOL    HW131622   5.699   0.605   2.385
10241SOL    HW231623   5.724   0.748   2.311
10242SOL     OW31624   6.640   1.570   0.929
10242SOL    HW131625   6.729   1.543   0.893
10242SOL    HW231626   6.595   1.632   0.865
10243SOL     OW31627   2.439   4.235   1.865
10243SOL    HW131628   2.516   4.293   1.837
10243SOL    HW231629   2.425   4.165   1.795
10244SOL     OW31630   2.565   4.025   0.545
10244SOL    HW131631   2.604   3.994   0.632
10244SOL    HW231632   2.549   3.945   0.486
10245SOL     OW31633   3.780   3.691   1.260
10245SOL    HW131634   3.749   3.672   1.168
10245SOL    HW231635   3.750   3.618   1.322
10246SOL     OW31636   3.148   3.955   4.262
10246SOL    HW131637   3.147   4.026   4.332
10246SOL    HW231638   3.186   3.993   4.177
10247SOL     OW31639   0.041   3.879   6.258
10247SOL    HW131640   7.021   3.937   6.189
10247SOL    HW231641   7.006   3.875   6.339
10248SOL     OW31642   1.187   6.731   2.966
10248SOL    HW131643   1.155   6.693   3.053
10248SOL    HW231644   1.133   6.811   2.942
10249SOL     OW31645   3.034   5.920   6.790
10249SOL    HW131646   2.987   5.850   6.844
10249SOL    HW231647   2.972   5.996   6.772
10250SOL     OW31648   6.595   3.448   1.277
10250SOL    HW131649   6.616   3.462   1.374
10250SOL    HW231650   6.587   3.537   1.232
10251SOL     OW31651   2.250   1.581   4.332
10251SOL    HW131652   2.310   1.544   4.262
10251SOL    HW231653   2.169   1.622   4.289
10252SOL     OW31654   3.949   3.662   6.124
10252SOL    HW131655   4.039   3.700   6.146
10252SOL    HW231656   3.916   3.606   6.200
10253SOL     OW31657   2.718   6.369   0.543
10253SOL    HW131658   2.677   6.397   0.456
10253SOL    HW231659   2.817   6.373   0.536
10254SOL     OW31660   4.793   1.789   5.221
10254SOL    HW131661   4.821   1.755   5.131
10254SOL    HW231662   4.694   1.801   5.223
10255SOL     OW31663   2.615   6.877   0.821
10255SOL    HW131664   2.527   6.918   0.845
10255SOL    HW231665   2.604   6.778   0.813
10256SOL     OW31666   3.897   1.274   2.683
10256SOL    HW131667   3.967   1.221   2.731
10256SOL    HW231668   3.920   1.281   2.586
10257SOL     OW31669   1.600   5.567   3.915
10257SOL    HW131670   1.520   5.602   3.867
10257SOL    HW231671   1.617   5.473   3.887
10258SOL     OW31672   3.750   2.119   2.990
10258SOL    HW131673   3.703   2.125   2.902
10258SOL    HW231674   3.848   2.137   2.977
10259SOL     OW31675   0.697   4.228   3.526
10259SOL    HW131676   0.710   4.217   3.625
10259SOL    HW231677   0.719   4.142   3.480
10260SOL     OW31678   0.344   1.539   3.229
10260SOL    HW131679   0.438   1.572   3.240
10260SOL    HW231680   0.304   1.581   3.148
10261SOL     OW31681   6.828   4.971   0.633
10261SOL    HW131682   6.748   4.948   0.687
10261SOL    HW231683   6.881   4.888   0.614
10262SOL     OW31684   3.252   6.342   6.531
10262SOL    HW131685   3.309   6.386   6.461
10262SOL    HW231686   3.244   6.244   6.511
10263SOL     OW31687   5.644   0.141   0.702
10263SOL    HW131688   5.563   0.179   0.746
10263SOL    HW231689   5.705   0.104   0.772
10264SOL     OW31690   6.695   5.808   6.559
10264SOL    HW131691   6.668   5.742   6.629
10264SOL    HW231692   6.732   5.890   6.604
10265SOL     OW31693   3.845   2.563   0.115
10265SOL    HW131694   3.868   2.624   0.040
10265SOL    HW231695   3.778   2.607   0.174
10266SOL     OW31696   3.903   3.123   3.433
10266SOL    HW131697   3.977   3.057   3.424
10266SOL    HW231698   3.940   3.212   3.462
10267SOL     OW31699   5.113   1.207   0.775
10267SOL    HW131700   5.173   1.278   0.812
10267SOL    HW231701   5.066   1.160   0.850
10268SOL     OW31702   6.187   6.367   2.271
10268SOL    HW131703   6.222   6.441   2.330
10268SOL    HW231704   6.103   6.397   2.226
10269SOL     OW31705   0.779   3.264   5.515
10269SOL    HW131706   0.711   3.272   5.588
10269SOL    HW231707   0.857   3.323   5.537
10270SOL     OW31708   3.178   5.299   2.609
10270SOL    HW131709   3.129   5.385   2.600
10270SOL    HW231710   3.123   5.225   2.569
10271SOL     OW31711   3.591   2.471   0.591
10271SOL    HW131712   3.690   2.469   0.587
10271SOL    HW231713   3.562   2.481   0.686
10272SOL     OW31714   0.854   1.103   4.817
10272SOL    HW131715   0.879   1.171   4.886
10272SOL    HW231716   0.908   1.117   4.735
10273SOL     OW31717   3.358   5.577   3.393
10273SOL    HW131718   3.452   5.565   3.425
10273SOL    HW231719   3.356   5.649   3.324
10274SOL     OW31720   1.162   4.872   5.843
10274SOL    HW131721   1.212   4.956   5.820
10274SOL    HW231722   1.083   4.895   5.900
10275SOL     OW31723   0.173   0.684   2.460
10275SOL    HW131724   0.145   0.605   2.405
10275SOL    HW231725   0.273   0.693   2.454
10276SOL     OW31726   5.004   6.002   5.556
10276SOL    HW131727   5.042   6.080   5.605
10276SOL    HW231728   4.932   5.960   5.611
10277SOL     OW31729   1.742   6.242   4.958
10277SOL    HW131730   1.742   6.150   4.919
10277SOL    HW231731   1.832   6.261   4.997
10278SOL     OW31732   1.278   1.639   3.548
10278SOL    HW131733   1.328   1.555   3.570
10278SOL    HW231734   1.242   1.633   3.455
10279SOL     OW31735   1.565   5.064   4.504
10279SOL    HW131736   1.472   5.030   4.492
10279SOL    HW231737   1.619   4.997   4.555
10280SOL     OW31738   6.423   2.839   6.179
10280SOL    HW131739   6.487   2.913   6.200
10280SOL    HW231740   6.389   2.850   6.085
10281SOL     OW31741   6.065   1.863   4.030
10281SOL    HW131742   6.061   1.939   3.965
10281SOL    HW231743   6.134   1.883   4.100
10282SOL     OW31744   5.330   3.131   3.723
10282SOL    HW131745   5.409   3.102   3.669
10282SOL    HW231746   5.332   3.230   3.734
10283SOL     OW31747   1.361   3.212   1.311
10283SOL    HW131748   1.375   3.236   1.407
10283SOL    HW231749   1.444   3.231   1.259
10284SOL     OW31750   5.807   1.665   5.143
10284SOL    HW131751   5.738   1.593   5.141
10284SOL    HW231752   5.816   1.700   5.237
10285SOL     OW31753   4.736   6.386   2.967
10285SOL    HW131754   4.734   6.294   3.004
10285SOL    HW231755   4.714   6.452   3.039
10286SOL     OW31756   4.063   0.660   3.916
10286SOL    HW131757   4.014   0.747   3.920
10286SOL    HW231758   4.045   0.615   3.829
10287SOL     OW31759   2.885   5.596   1.890
10287SOL    HW131760   2.979   5.622   1.912
10287SOL    HW231761   2.845   5.665   1.828
10288SOL     OW31762   4.485   6.376   3.257
10288SOL    HW131763   4.494   6.281   3.227
10288SOL    HW231764   4.407   6.383   3.321
10289SOL     OW31765   2.976   6.460   0.463
10289SOL    HW131766   3.058   6.410   0.489
10289SOL    HW231767   3.002   6.544   0.416
10290SOL     OW31768   3.103   3.259   2.721
10290SOL    HW131769   3.075   3.237   2.814
10290SOL    HW231770   3.061   3.346   2.694
10291SOL     OW31771   3.779   1.826   2.993
10291SOL    HW131772   3.781   1.924   3.009
10291SOL    HW231773   3.863   1.784   3.028
10292SOL     OW31774   0.861   2.177   5.138
10292SOL    HW131775   0.951   2.135   5.150
10292SOL    HW231776   0.800   2.112   5.092
10293SOL     OW31777   1.054   3.162   2.958
10293SOL    HW131778   1.012   3.072   2.963
10293SOL    HW231779   0.984   3.232   2.968
10294SOL     OW31780   4.556   1.277   3.388
10294SOL    HW131781   4.492   1.212   3.347
10294SOL    HW231782   4.506   1.346   3.440
10295SOL     OW31783   0.889   2.966   5.712
10295SOL    HW131784   0.845   2.877   5.709
10295SOL    HW231785   0.967   2.964   5.776
10296SOL     OW31786   5.252   1.351   6.285
10296SOL    HW131787   5.314   1.286   6.242
10296SOL    HW231788   5.299   1.400   6.358
10297SOL     OW31789   1.806   1.026   6.522
10297SOL    HW131790   1.714   0.988   6.534
10297SOL    HW231791   1.808   1.083   6.441
10298SOL     OW31792   2.583   4.432   0.903
10298SOL    HW131793   2.585   4.340   0.940
10298SOL    HW231794   2.671   4.454   0.862
10299SOL     OW31795   3.710   5.163   3.013
10299SOL    HW131796   3.810   5.151   3.011
10299SOL    HW231797   3.666   5.078   2.988
10300SOL     OW31798   1.054   4.074   1.899
10300SOL    HW131799   1.067   4.100   1.803
10300SOL    HW231800   1.133   4.104   1.953
10301SOL     OW31801   4.529   1.862   5.212
10301SOL    HW131802   4.442   1.815   5.200
10301SOL    HW231803   4.556   1.905   5.125
10302SOL     OW31804   2.658   6.281   4.543
10302SOL    HW131805   2.601   6.207   4.506
10302SOL    HW231806   2.693   6.337   4.468
10303SOL     OW31807   1.300   5.923   3.808
10303SOL    HW131808   1.295   5.829   3.774
10303SOL    HW231809   1.381   5.967   3.770
10304SOL     OW31810   6.012   0.235   1.513
10304SOL    HW131811   5.976   0.328   1.502
10304SOL    HW231812   6.088   0.237   1.577
10305SOL     OW31813   1.827   3.961   5.882
10305SOL    HW131814   1.802   4.051   5.848
10305SOL    HW231815   1.766   3.936   5.958
10306SOL     OW31816   5.074   5.787   0.258
10306SOL    HW131817   5.051   5.810   0.163
10306SOL    HW231818   5.150   5.845   0.289
10307SOL     OW31819   3.172   1.872   5.296
10307SOL    HW131820   3.180   1.803   5.225
10307SOL    HW231821   3.078   1.908   5.298
10308SOL     OW31822   2.172   3.895   2.576
10308SOL    HW131823   2.210   3.968   2.632
10308SOL    HW231824   2.246   3.850   2.526
10309SOL     OW31825   0.181   2.032   0.135
10309SOL    HW131826   0.196   2.125   0.169
10309SOL    HW231827   0.245   2.014   0.061
10310SOL     OW31828   3.215   3.777   0.374
10310SOL    HW131829   3.201   3.836   0.295
10310SOL    HW231830   3.311   3.781   0.402
10311SOL     OW31831   6.839   5.610   0.432
10311SOL    HW131832   6.874   5.606   0.338
10311SOL    HW231833   6.892   5.548   0.490
10312SOL     OW31834   4.203   6.532   2.593
10312SOL    HW131835   4.264   6.611   2.584
10312SOL    HW231836   4.215   6.490   2.683
10313SOL     OW31837   3.866   5.813   2.226
10313SOL    HW131838   3.944   5.839   2.282
10313SOL    HW231839   3.807   5.750   2.277
10314SOL     OW31840   6.688   0.674   0.786
10314SOL    HW131841   6.606   0.651   0.839
10314SOL    HW231842   6.678   0.639   0.693
10315SOL     OW31843   5.815   6.239   4.553
10315SOL    HW131844   5.755   6.308   4.593
10315SOL    HW231845   5.787   6.148   4.582
10316SOL     OW31846   6.317   2.469   5.779
10316SOL    HW131847   6.382   2.399   5.747
10316SOL    HW231848   6.334   2.555   5.732
10317SOL     OW31849   4.027   5.959   6.667
10317SOL    HW131850   4.016   5.974   6.765
10317SOL    HW231851   4.084   5.878   6.651
10318SOL     OW31852   4.720   0.401   6.707
10318SOL    HW131853   4.778   0.419   6.628
10318SOL    HW231854   4.718   0.483   6.765
10319SOL     OW31855   0.550   3.503   5.500
10319SOL    HW131856   0.534   3.441   5.577
10319SOL    HW231857   0.576   3.450   5.419
10320SOL     OW31858   0.980   6.673   2.483
10320SOL    HW131859   0.915   6.598   2.490
10320SOL    HW231860   0.931   6.760   2.476
10321SOL     OW31861   5.124   2.045   1.984
10321SOL    HW131862   5.095   2.041   2.080
10321SOL    HW231863   5.052   2.010   1.926
10322SOL     OW31864   4.882   5.259   4.812
10322SOL    HW131865   4.896   5.358   4.815
10322SOL    HW231866   4.889   5.222   4.905
10323SOL     OW31867   6.081   4.567   5.478
10323SOL    HW131868   6.000   4.572   5.536
10323SOL    HW231869   6.063   4.506   5.401
10324SOL     OW31870   3.595   2.837   2.156
10324SOL    HW131871   3.531   2.909   2.183
10324SOL    HW231872   3.614   2.779   2.235
10325SOL     OW31873   6.230   4.370   1.934
10325SOL    HW131874   6.288   4.316   1.995
10325SOL    HW231875   6.267   4.368   1.841
10326SOL     OW31876   4.775   4.742   6.437
10326SOL    HW131877   4.752   4.711   6.345
10326SOL    HW231878   4.691   4.770   6.484
10327SOL     OW31879   2.649   2.351   0.705
10327SOL    HW131880   2.617   2.276   0.762
10327SOL    HW231881   2.612   2.341   0.612
10328SOL     OW31882   6.510   2.626   0.588
10328SOL    HW131883   6.538   2.540   0.630
10328SOL    HW231884   6.568   2.645   0.509
10329SOL     OW31885   2.673   1.124   3.633
10329SOL    HW131886   2.647   1.038   3.587
10329SOL    HW231887   2.595   1.159   3.684
10330SOL     OW31888   4.051   1.155   2.215
10330SOL    HW131889   4.034   1.118   2.124
10330SOL    HW231890   4.148   1.148   2.236
10331SOL     OW31891   6.707   6.828   6.223
10331SOL    HW131892   6.627   6.767   6.225
10331SOL    HW231893   6.700   6.895   6.297
10332SOL     OW31894   6.982   0.423   0.772
10332SOL    HW131895   6.978   0.513   0.814
10332SOL    HW231896   0.008   0.360   0.831
10333SOL     OW31897   0.590   4.619   5.354
10333SOL    HW131898   0.621   4.524   5.362
10333SOL    HW231899   0.526   4.628   5.278
10334SOL     OW31900   3.340   0.651   5.020
10334SOL    HW131901   3.337   0.665   4.921
10334SOL    HW231902   3.434   0.657   5.052
10335SOL     OW31903   2.689   4.373   6.840
10335SOL    HW131904   2.594   4.378   6.809
10335SOL    HW231905   2.692   4.331   6.931
10336SOL     OW31906   6.530   0.142   1.817
10336SOL    HW131907   6.488   0.064   1.864
10336SOL    HW231908   6.603   0.181   1.874
10337SOL     OW31909   0.033   6.050   6.373
10337SOL    HW131910   0.116   6.085   6.416
10337SOL    HW231911   6.979   6.109   6.397
10338SOL     OW31912   2.097   6.657   2.096
10338SOL    HW131913   2.117   6.725   2.167
10338SOL    HW231914   2.128   6.692   2.007
10339SOL     OW31915   4.608   4.029   6.467
10339SOL    HW131916   4.598   4.044   6.369
10339SOL    HW231917   4.647   4.111   6.509
10340SOL     OW31918   1.393   3.550   0.589
10340SOL    HW131919   1.478   3.593   0.621
10340SOL    HW231920   1.316   3.586   0.642
10341SOL     OW31921   2.041   3.473   2.335
10341SOL    HW131922   2.079   3.563   2.314
10341SOL    HW231923   2.023   3.423   2.249
10342SOL     OW31924   1.609   6.942   4.372
10342SOL    HW131925   1.562   6.858   4.397
10342SOL    HW231926   1.561   6.986   4.296
10343SOL     OW31927   3.409   5.412   6.599
10343SOL    HW131928   3.411   5.391   6.501
10343SOL    HW231929   3.449   5.336   6.650
10344SOL     OW31930   4.231   3.309   0.313
10344SOL    HW131931   4.330   3.304   0.331
10344SOL    HW231932   4.190   3.219   0.330
10345SOL     OW31933   1.870   1.459   5.915
10345SOL    HW131934   1.832   1.472   5.823
10345SOL    HW231935   1.825   1.521   5.979
10346SOL     OW31936   0.541   5.304   1.419
10346SOL    HW131937   0.516   5.270   1.510
10346SOL    HW231938   0.640   5.295   1.406
10347SOL     OW31939   3.948   1.509   3.280
10347SOL    HW131940   4.043   1.477   3.281
10347SOL    HW231941   3.888   1.438   3.316
10348SOL     OW31942   6.547   2.361   0.075
10348SOL    HW131943   6.496   2.446   0.081
10348SOL    HW231944   6.642   2.376   0.104
10349SOL     OW31945   1.260   0.810   0.197
10349SOL    HW131946   1.258   0.770   0.289
10349SOL    HW231947   1.185   0.772   0.143
10350SOL     OW31948   2.852   5.883   4.826
10350SOL    HW131949   2.929   5.946   4.828
10350SOL    HW231950   2.877   5.801   4.774
10351SOL     OW31951   4.108   4.903   6.424
10351SOL    HW131952   4.157   4.819   6.444
10351SOL    HW231953   4.013   4.895   6.454
10352SOL     OW31954   3.540   1.334   6.531
10352SOL    HW131955   3.627   1.345   6.484
10352SOL    HW231956   3.467   1.320   6.463
10353SOL     OW31957   6.794   3.254   5.496
10353SOL    HW131958   6.860   3.190   5.459
10353SOL    HW231959   6.736   3.289   5.421
10354SOL     OW31960   5.382   2.748   2.728
10354SOL    HW131961   5.419   2.793   2.647
10354SOL    HW231962   5.283   2.738   2.718
10355SOL     OW31963   2.503   6.620   1.834
10355SOL    HW131964   2.498   6.674   1.918
10355SOL    HW231965   2.563   6.542   1.848
10356SOL     OW31966   0.533   4.934   4.704
10356SOL    HW131967   0.467   4.995   4.659
10356SOL    HW231968   0.549   4.854   4.645
10357SOL     OW31969   1.234   2.833   6.442
10357SOL    HW131970   1.270   2.741   6.423
10357SOL    HW231971   1.310   2.897   6.451
10358SOL     OW31972   6.693   3.304   2.879
10358SOL    HW131973   6.745   3.267   2.957
10358SOL    HW231974   6.636   3.231   2.840
10359SOL     OW31975   0.622   2.108   1.042
10359SOL    HW131976   0.643   2.011   1.050
10359SOL    HW231977   0.576   2.125   0.955
10360SOL     OW31978   4.591   4.371   3.249
10360SOL    HW131979   4.689   4.359   3.266
10360SOL    HW231980   4.577   4.401   3.155
10361SOL     OW31981   2.846   6.057   3.419
10361SOL    HW131982   2.777   6.120   3.382
10361SOL    HW231983   2.935   6.102   3.417
10362SOL     OW31984   0.734   5.086   4.945
10362SOL    HW131985   0.705   5.013   4.883
10362SOL    HW231986   0.774   5.161   4.892
10363SOL     OW31987   4.593   1.325   1.861
10363SOL    HW131988   4.516   1.374   1.820
10363SOL    HW231989   4.651   1.390   1.910
10364SOL     OW31990   3.422   2.675   1.240
10364SOL    HW131991   3.359   2.729   1.296
10364SOL    HW231992   3.514   2.713   1.248
10365SOL     OW31993   3.836   4.924   6.475
10365SOL    HW131994   3.825   4.955   6.380
10365SOL    HW231995   3.815   4.826   6.480
10366SOL     OW31996   2.546   0.379   4.328
10366SOL    HW131997   2.515   0.471   4.350
10366SOL    HW231998   2.577   0.333   4.412
10367SOL     OW31999   6.396   2.337   2.451
10367SOL    HW132000   6.423   2.316   2.357
10367SOL    HW232001   6.396   2.437   2.464
10368SOL     OW32002   2.057   2.052   1.644
10368SOL    HW132003   2.004   2.088   1.721
10368SOL    HW232004   2.098   1.965   1.670
10369SOL     OW32005   4.248   0.539   5.758
10369SOL    HW132006   4.152   0.560   5.777
10369SOL    HW232007   4.307   0.602   5.808
10370SOL     OW32008   5.172   1.640   5.294
10370SOL    HW132009   5.162   1.738   5.275
10370SOL    HW232010   5.263   1.623   5.330
10371SOL     OW32011   3.431   5.488   5.062
10371SOL    HW132012   3.344   5.494   5.112
10371SOL    HW232013   3.412   5.487   4.964
10372SOL     OW32014   1.471   1.314   5.781
10372SOL    HW132015   1.558   1.349   5.747
10372SOL    HW232016   1.405   1.313   5.706
10373SOL     OW32017   2.002   6.405   4.932
10373SOL    HW132018   2.007   6.360   4.843
10373SOL    HW232019   2.030   6.500   4.923
10374SOL     OW32020   3.681   1.149   2.816
10374SOL    HW132021   3.758   1.194   2.771
10374SOL    HW232022   3.670   1.186   2.908
10375SOL     OW32023   4.115   2.046   6.818
10375SOL    HW132024   4.163   2.112   6.759
10375SOL    HW232025   4.178   1.974   6.847
10376SOL     OW32026   1.119   6.276   3.927
10376SOL    HW132027   1.041   6.337   3.942
10376SOL    HW232028   1.098   6.213   3.852
10377SOL     OW32029   6.290   0.883   3.916
10377SOL    HW132030   6.371   0.897   3.859
10377SOL    HW232031   6.284   0.787   3.943
10378SOL     OW32032   6.610   0.946   5.910
10378SOL    HW132033   6.561   0.860   5.923
10378SOL    HW232034   6.680   0.956   5.980
10379SOL     OW32035   4.022   0.361   4.878
10379SOL    HW132036   4.047   0.328   4.786
10379SOL    HW232037   4.075   0.444   4.898
10380SOL     OW32038   6.505   1.441   3.113
10380SOL    HW132039   6.559   1.485   3.186
10380SOL    HW232040   6.448   1.510   3.069
10381SOL     OW32041   4.665   5.445   6.139
10381SOL    HW132042   4.745   5.486   6.095
10381SOL    HW232043   4.695   5.385   6.213
10382SOL     OW32044   2.583   4.889   6.128
10382SOL    HW132045   2.638   4.932   6.057
10382SOL    HW232046   2.634   4.814   6.169
10383SOL     OW32047   1.202   3.318   0.689
10383SOL    HW132048   1.123   3.375   0.666
10383SOL    HW232049   1.172   3.224   0.707
10384SOL     OW32050   0.768   0.221   0.763
10384SOL    HW132051   0.715   0.303   0.787
10384SOL    HW232052   0.775   0.162   0.843
10385SOL     OW32053   4.882   0.060   6.448
10385SOL    HW132054   4.930   6.996   6.459
10385SOL    HW232055   4.853   0.070   6.353
10386SOL     OW32056   0.216   3.668   5.083
10386SOL    HW132057   0.280   3.743   5.098
10386SOL    HW232058   0.143   3.698   5.022
10387SOL     OW32059   3.619   1.803   2.777
10387SOL    HW132060   3.655   1.752   2.700
10387SOL    HW232061   3.684   1.799   2.853
10388SOL     OW32062   0.799   5.740   3.534
10388SOL    HW132063   0.701   5.750   3.518
10388SOL    HW232064   0.819   5.645   3.558
10389SOL     OW32065   0.597   5.839   2.298
10389SOL    HW132066   0.696   5.825   2.289
10389SOL    HW232067   0.566   5.904   2.229
10390SOL     OW32068   1.488   3.787   2.255
10390SOL    HW132069   1.515   3.691   2.262
10390SOL    HW232070   1.442   3.803   2.167
10391SOL     OW32071   1.153   5.773   5.886
10391SOL    HW132072   1.124   5.702   5.822
10391SOL    HW232073   1.252   5.784   5.883
10392SOL     OW32074   6.606   4.054   0.598
10392SOL    HW132075   6.549   3.992   0.545
10392SOL    HW232076   6.702   4.030   0.585
10393SOL     OW32077   0.825   1.795   3.141
10393SOL    HW132078   0.757   1.755   3.080
10393SOL    HW232079   0.853   1.726   3.208
10394SOL     OW32080   2.788   6.762   5.924
10394SOL    HW132081   2.855   6.816   5.874
10394SOL    HW232082   2.749   6.818   5.997
10395SOL     OW32083   6.417   0.657   4.642
10395SOL    HW132084   6.413   0.752   4.610
10395SOL    HW232085   6.413   0.595   4.563
10396SOL     OW32086   0.959   0.928   3.574
10396SOL    HW132087   0.986   0.858   3.641
10396SOL    HW232088   0.881   0.895   3.522
10397SOL     OW32089   3.748   1.438   3.922
10397SOL    HW132090   3.699   1.488   3.851
10397SOL    HW232091   3.763   1.343   3.892
10398SOL     OW32092   6.131   2.544   0.182
10398SOL    HW132093   6.165   2.602   0.256
10398SOL    HW232094   6.207   2.519   0.122
10399SOL     OW32095   4.564   1.494   5.414
10399SOL    HW132096   4.657   1.456   5.417
10399SOL    HW232097   4.558   1.569   5.480
10400SOL     OW32098   3.310   5.819   2.624
10400SOL    HW132099   3.330   5.725   2.648
10400SOL    HW232100   3.308   5.828   2.524
10401SOL     OW32101   6.619   6.761   1.933
10401SOL    HW132102   6.561   6.679   1.923
10401SOL    HW232103   6.658   6.784   1.844
10402SOL     OW32104   0.400   2.641   5.727
10402SOL    HW132105   0.350   2.674   5.807
10402SOL    HW232106   0.451   2.716   5.685
10403SOL     OW32107   5.179   1.411   2.398
10403SOL    HW132108   5.139   1.324   2.368
10403SOL    HW232109   5.105   1.477   2.415
10404SOL     OW32110   0.975   6.592   3.803
10404SOL    HW132111   0.947   6.529   3.875
10404SOL    HW232112   0.991   6.542   3.718
10405SOL     OW32113   1.750   5.460   5.270
10405SOL    HW132114   1.756   5.552   5.231
10405SOL    HW232115   1.667   5.416   5.236
10406SOL     OW32116   1.554   4.474   5.082
10406SOL    HW132117   1.512   4.383   5.093
10406SOL    HW232118   1.578   4.489   4.987
10407SOL     OW32119   1.522   0.900   5.991
10407SOL    HW132120   1.567   0.841   5.925
10407SOL    HW232121   1.484   0.980   5.944
10408SOL     OW32122   4.575   5.995   2.827
10408SOL    HW132123   4.613   5.925   2.767
10408SOL    HW232124   4.571   6.082   2.777
10409SOL     OW32125   0.126   4.676   1.296
10409SOL    HW132126   0.129   4.772   1.325
10409SOL    HW232127   0.142   4.672   1.197
10410SOL     OW32128   4.931   0.637   1.452
10410SOL    HW132129   4.891   0.598   1.369
10410SOL    HW232130   4.877   0.609   1.531
10411SOL     OW32131   2.325   4.757   4.196
10411SOL    HW132132   2.380   4.673   4.204
10411SOL    HW232133   2.386   4.836   4.195
10412SOL     OW32134   0.850   1.410   6.959
10412SOL    HW132135   0.779   1.479   6.972
10412SOL    HW232136   0.939   1.451   6.977
10413SOL     OW32137   1.206   2.063   0.864
10413SOL    HW132138   1.166   2.048   0.955
10413SOL    HW232139   1.155   2.135   0.817
10414SOL     OW32140   5.342   6.109   6.572
10414SOL    HW132141   5.432   6.109   6.528
10414SOL    HW232142   5.317   6.202   6.599
10415SOL     OW32143   1.083   5.312   3.833
10415SOL    HW132144   1.039   5.230   3.798
10415SOL    HW232145   1.170   5.327   3.786
10416SOL     OW32146   6.296   1.608   5.671
10416SOL    HW132147   6.334   1.552   5.744
10416SOL    HW232148   6.290   1.703   5.701
10417SOL     OW32149   4.119   4.867   3.445
10417SOL    HW132150   4.116   4.858   3.346
10417SOL    HW232151   4.199   4.819   3.481
10418SOL     OW32152   6.951   4.036   6.043
10418SOL    HW132153   6.987   4.125   6.015
10418SOL    HW232154   6.852   4.034   6.026
10419SOL     OW32155   3.376   1.246   5.284
10419SOL    HW132156   3.462   1.195   5.284
10419SOL    HW232157   3.387   1.330   5.336
10420SOL     OW32158   6.398   3.021   2.499
10420SOL    HW132159   6.483   2.974   2.477
10420SOL    HW232160   6.415   3.089   2.570
10421SOL     OW32161   1.292   4.531   4.017
10421SOL    HW132162   1.205   4.567   3.983
10421SOL    HW232163   1.306   4.439   3.982
10422SOL     OW32164   6.397   4.328   5.472
10422SOL    HW132165   6.325   4.358   5.535
10422SOL    HW232166   6.485   4.327   5.520
10423SOL     OW32167   3.726   4.978   4.536
10423SOL    HW132168   3.735   4.992   4.634
10423SOL    HW232169   3.641   4.930   4.516
10424SOL     OW32170   4.064   0.955   0.083
10424SOL    HW132171   4.075   1.022   0.009
10424SOL    HW232172   4.119   0.982   0.161
10425SOL     OW32173   1.450   6.889   1.363
10425SOL    HW132174   1.376   6.925   1.307
10425SOL    HW232175   1.523   6.855   1.305
10426SOL     OW32176   4.937   3.223   5.548
10426SOL    HW132177   4.995   3.144   5.532
10426SOL    HW232178   4.971   3.302   5.496
10427SOL     OW32179   4.877   5.710   5.281
10427SOL    HW132180   4.871   5.664   5.192
10427SOL    HW232181   4.822   5.793   5.280
10428SOL     OW32182   1.257   2.040   3.488
10428SOL    HW132183   1.292   2.072   3.576
10428SOL    HW232184   1.331   1.995   3.437
10429SOL     OW32185   1.198   3.526   2.585
10429SOL    HW132186   1.205   3.589   2.663
10429SOL    HW232187   1.199   3.432   2.618
10430SOL     OW32188   3.682   5.984   4.199
10430SOL    HW132189   3.585   6.005   4.214
10430SOL    HW232190   3.711   6.024   4.112
10431SOL     OW32191   2.499   1.826   4.216
10431SOL    HW132192   2.443   1.871   4.285
10431SOL    HW232193   2.556   1.757   4.260
10432SOL     OW32194   0.250   0.125   5.175
10432SOL    HW132195   0.269   0.028   5.164
10432SOL    HW232196   0.258   0.150   5.271
10433SOL     OW32197   2.011   0.358   1.510
10433SOL    HW132198   2.032   0.394   1.419
10433SOL    HW232199   2.038   0.425   1.579
10434SOL     OW32200   5.084   0.497   5.541
10434SOL    HW132201   5.172   0.451   5.554
10434SOL    HW232202   5.081   0.537   5.449
10435SOL     OW32203   0.889   2.172   6.347
10435SOL    HW132204   0.933   2.156   6.436
10435SOL    HW232205   0.831   2.254   6.353
10436SOL     OW32206   0.411   3.983   5.535
10436SOL    HW132207   0.413   4.036   5.450
10436SOL    HW232208   0.435   3.888   5.515
10437SOL     OW32209   4.851   5.503   5.099
10437SOL    HW132210   4.764   5.464   5.128
10437SOL    HW232211   4.910   5.431   5.062
10438SOL     OW32212   6.863   6.280   6.429
10438SOL    HW132213   6.785   6.341   6.413
10438SOL    HW232214   6.942   6.335   6.456
10439SOL     OW32215   6.430   0.495   4.409
10439SOL    HW132216   6.345   0.466   4.364
10439SOL    HW232217   6.503   0.501   4.341
10440SOL     OW32218   0.059   1.181   6.999
10440SOL    HW132219   0.044   1.279   7.013
10440SOL    HW232220   7.008   1.144   6.943
10441SOL     OW32221   3.528   1.508   1.553
10441SOL    HW132222   3.430   1.498   1.535
10441SOL    HW232223   3.579   1.493   1.469
10442SOL     OW32224   2.961   0.895   5.201
10442SOL    HW132225   2.883   0.957   5.195
10442SOL    HW232226   3.044   0.947   5.216
10443SOL     OW32227   0.375   1.853   3.067
10443SOL    HW132228   0.331   1.809   3.146
10443SOL    HW232229   0.320   1.930   3.037
10444SOL     OW32230   3.606   5.015   3.916
10444SOL    HW132231   3.527   5.023   3.856
10444SOL    HW232232   3.684   5.063   3.876
10445SOL     OW32233   0.562   4.139   1.997
10445SOL    HW132234   0.514   4.117   2.082
10445SOL    HW232235   0.580   4.054   1.946
10446SOL     OW32236   1.733   3.948   5.381
10446SOL    HW132237   1.794   4.025   5.362
10446SOL    HW232238   1.787   3.873   5.420
10447SOL     OW32239   6.132   2.324   3.361
10447SOL    HW132240   6.172   2.274   3.284
10447SOL    HW232241   6.186   2.407   3.378
10448SOL     OW32242   2.858   0.410   3.612
10448SOL    HW132243   2.881   0.502   3.579
10448SOL    HW232244   2.895   0.342   3.550
10449SOL     OW32245   3.530   5.716   0.063
10449SOL    HW132246   3.584   5.723   0.147
10449SOL    HW232247   3.515   5.619   0.042
10450SOL     OW32248   6.013   0.286   6.310
10450SOL    HW132249   6.103   0.268   6.272
10450SOL    HW232250   6.021   0.348   6.388
10451SOL     OW32251   1.728   0.683   4.231
10451SOL    HW132252   1.795   0.742   4.187
10451SOL    HW232253   1.761   0.657   4.322
10452SOL     OW32254   6.157   2.809   3.037
10452SOL    HW132255   6.219   2.731   3.045
10452SOL    HW232256   6.181   2.879   3.104
10453SOL     OW32257   4.603   6.273   2.754
10453SOL    HW132258   4.650   6.308   2.835
10453SOL    HW232259   4.646   6.309   2.672
10454SOL     OW32260   6.790   1.546   6.985
10454SOL    HW132261   6.758   1.635   7.016
10454SOL    HW232262   6.755   1.528   6.893
10455SOL     OW32263   6.012   6.624   4.114
10455SOL    HW132264   6.082   6.553   4.112
10455SOL    HW232265   6.048   6.707   4.070
10456SOL     OW32266   6.889   5.560   0.167
10456SOL    HW132267   6.793   5.558   0.139
10456SOL    HW232268   6.935   5.637   0.123
10457SOL     OW32269   4.219   3.385   6.821
10457SOL    HW132270   4.186   3.337   6.903
10457SOL    HW232271   4.207   3.484   6.833
10458SOL     OW32272   6.962   0.300   6.015
10458SOL    HW132273   6.875   0.316   5.968
10458SOL    HW232274   6.949   0.306   6.113
10459SOL     OW32275   6.962   5.309   0.996
10459SOL    HW132276   0.020   5.308   1.054
10459SOL    HW232277   6.956   5.224   0.945
10460SOL     OW32278   6.861   4.491   1.498
10460SOL    HW132279   6.872   4.547   1.415
10460SOL    HW232280   6.781   4.431   1.486
10461SOL     OW32281   6.214   5.016   5.348
10461SOL    HW132282   6.313   5.010   5.360
10461SOL    HW232283   6.191   4.997   5.253
10462SOL     OW32284   5.103   1.832   1.611
10462SOL    HW132285   5.187   1.788   1.577
10462SOL    HW232286   5.100   1.926   1.578
10463SOL     OW32287   4.656   2.178   6.099
10463SOL    HW132288   4.561   2.165   6.127
10463SOL    HW232289   4.660   2.245   6.024
10464SOL     OW32290   5.451   5.220   2.551
10464SOL    HW132291   5.474   5.187   2.643
10464SOL    HW232292   5.514   5.179   2.485
10465SOL     OW32293   5.580   4.265   2.584
10465SOL    HW132294   5.559   4.176   2.544
10465SOL    HW232295   5.494   4.315   2.599
10466SOL     OW32296   5.434   4.296   5.841
10466SOL    HW132297   5.358   4.346   5.882
10466SOL    HW232298   5.494   4.262   5.913
10467SOL     OW32299   2.070   2.465   6.800
10467SOL    HW132300   2.082   2.468   6.701
10467SOL    HW232301   2.158   2.485   6.845
10468SOL     OW32302   2.927   4.839   3.981
10468SOL    HW132303   2.863   4.915   3.974
10468SOL    HW232304   2.983   4.835   3.899
10469SOL     OW32305   5.260   2.784   5.714
10469SOL    HW132306   5.214   2.865   5.678
10469SOL    HW232307   5.198   2.736   5.776
10470SOL     OW32308   2.152   1.602   3.718
10470SOL    HW132309   2.242   1.644   3.712
10470SOL    HW232310   2.097   1.630   3.639
10471SOL     OW32311   2.755   1.096   6.880
10471SOL    HW132312   2.706   1.180   6.854
10471SOL    HW232313   2.851   1.104   6.855
10472SOL     OW32314   3.129   5.153   0.917
10472SOL    HW132315   3.164   5.198   0.999
10472SOL    HW232316   3.114   5.056   0.936
10473SOL     OW32317   5.437   5.743   6.611
10473SOL    HW132318   5.341   5.735   6.638
10473SOL    HW232319   5.445   5.814   6.541
10474SOL     OW32320   5.055   0.908   4.043
10474SOL    HW132321   5.026   1.001   4.020
10474SOL    HW232322   5.036   0.890   4.140
10475SOL     OW32323   2.600   6.175   1.831
10475SOL    HW132324   2.544   6.233   1.772
10475SOL    HW232325   2.695   6.208   1.829
10476SOL     OW32326   4.581   6.175   6.081
10476SOL    HW132327   4.548   6.164   5.988
10476SOL    HW232328   4.503   6.180   6.144
10477SOL     OW32329   0.339   6.096   3.942
10477SOL    HW132330   0.401   6.139   3.876
10477SOL    HW232331   0.392   6.057   4.017
10478SOL     OW32332   6.444   6.918   0.261
10478SOL    HW132333   6.392   6.977   0.199
10478SOL    HW232334   6.384   6.848   0.299
10479SOL     OW32335   6.699   3.046   2.245
10479SOL    HW132336   6.610   3.028   2.204
10479SOL    HW232337   6.694   3.033   2.344
10480SOL     OW32338   1.863   0.697   2.578
10480SOL    HW132339   1.915   0.703   2.493
10480SOL    HW232340   1.879   0.779   2.633
10481SOL     OW32341   0.756   6.548   3.034
10481SOL    HW132342   0.811   6.627   3.008
10481SOL    HW232343   0.668   6.551   2.987
10482SOL     OW32344   6.383   4.510   4.592
10482SOL    HW132345   6.422   4.573   4.659
10482SOL    HW232346   6.344   4.431   4.639
10483SOL     OW32347   5.581   5.205   0.546
10483SOL    HW132348   5.640   5.160   0.479
10483SOL    HW232349   5.485   5.193   0.520
10484SOL     OW32350   4.955   1.133   0.985
10484SOL    HW132351   4.886   1.063   1.003
10484SOL    HW232352   5.038   1.113   1.036
10485SOL     OW32353   3.895   4.533   6.536
10485SOL    HW132354   3.931   4.440   6.521
10485SOL    HW232355   3.862   4.541   6.630
10486SOL     OW32356   6.642   2.400   0.687
10486SOL    HW132357   6.619   2.383   0.783
10486SOL    HW232358   6.625   2.317   0.634
10487SOL     OW32359   5.321   6.624   1.982
10487SOL    HW132360   5.261   6.695   1.945
10487SOL    HW232361   5.268   6.541   2.000
10488SOL     OW32362   2.671   3.465   6.788
10488SOL    HW132363   2.606   3.541   6.801
10488SOL    HW232364   2.700   3.430   6.877
10489SOL     OW32365   0.415   6.781   5.833
10489SOL    HW132366   0.374   6.727   5.760
10489SOL    HW232367   0.343   6.829   5.884
10490SOL     OW32368   6.044   1.513   2.638
10490SOL    HW132369   5.986   1.501   2.718
10490SOL    HW232370   6.103   1.593   2.650
10491SOL     OW32371   1.487   3.287   6.517
10491SOL    HW132372   1.545   3.332   6.585
10491SOL    HW232373   1.513   3.317   6.425
10492SOL     OW32374   5.056   3.735   5.614
10492SOL    HW132375   5.029   3.724   5.518
10492SOL    HW232376   4.977   3.717   5.673
10493SOL     OW32377   3.403   0.532   1.587
10493SOL    HW132378   3.383   0.516   1.684
10493SOL    HW232379   3.348   0.469   1.531
10494SOL     OW32380   5.559   2.694   5.287
10494SOL    HW132381   5.561   2.748   5.371
10494SOL    HW232382   5.545   2.598   5.309
10495SOL     OW32383   1.788   6.819   0.813
10495SOL    HW132384   1.830   6.890   0.756
10495SOL    HW232385   1.689   6.828   0.810
10496SOL     OW32386   0.363   6.821   0.897
10496SOL    HW132387   0.401   6.832   0.805
10496SOL    HW232388   0.301   6.743   0.898
10497SOL     OW32389   1.713   6.961   1.509
10497SOL    HW132390   1.664   0.014   1.465
10497SOL    HW232391   1.675   6.875   1.476
10498SOL     OW32392   2.556   6.895   1.261
10498SOL    HW132393   2.487   6.846   1.315
10498SOL    HW232394   2.514   6.928   1.177
10499SOL     OW32395   2.643   6.714   2.599
10499SOL    HW132396   2.673   6.643   2.535
10499SOL    HW232397   2.563   6.680   2.650
10500SOL     OW32398   0.558   1.130   5.485
10500SOL    HW132399   0.525   1.168   5.571
10500SOL    HW232400   0.631   1.188   5.448
10501SOL     OW32401   1.857   5.607   3.355
10501SOL    HW132402   1.795   5.658   3.415
10501SOL    HW232403   1.843   5.637   3.260
10502SOL     OW32404   3.310   6.821   1.180
10502SOL    HW132405   3.341   6.915   1.194
10502SOL    HW232406   3.277   6.810   1.086
10503SOL     OW32407   4.413   2.723   0.398
10503SOL    HW132408   4.508   2.697   0.412
10503SOL    HW232409   4.373   2.751   0.485
10504SOL     OW32410   2.020   2.891   0.591
10504SOL    HW132411   2.039   2.801   0.551
10504SOL    HW232412   1.921   2.900   0.604
10505SOL     OW32413   6.225   5.997   0.373
10505SOL    HW132414   6.162   5.929   0.408
10505SOL    HW232415   6.319   5.968   0.390
10506SOL     OW32416   0.955   5.040   6.450
10506SOL    HW132417   0.900   5.102   6.507
10506SOL    HW232418   1.048   5.075   6.443
10507SOL     OW32419   1.900   6.425   0.029
10507SOL    HW132420   1.904   6.447   6.954
10507SOL    HW232421   1.941   6.336   0.045
10508SOL     OW32422   5.926   5.847   4.296
10508SOL    HW132423   5.847   5.907   4.282
10508SOL    HW232424   5.909   5.786   4.373
10509SOL     OW32425   0.757   6.790   6.214
10509SOL    HW132426   0.726   6.718   6.276
10509SOL    HW232427   0.745   6.761   6.119
10510SOL     OW32428   5.745   5.107   5.583
10510SOL    HW132429   5.786   5.141   5.498
10510SOL    HW232430   5.723   5.185   5.643
10511SOL     OW32431   4.832   2.725   0.892
10511SOL    HW132432   4.874   2.806   0.934
10511SOL    HW232433   4.740   2.712   0.930
10512SOL     OW32434   3.881   0.922   6.348
10512SOL    HW132435   3.875   0.887   6.441
10512SOL    HW232436   3.969   0.895   6.308
10513SOL     OW32437   0.046   2.475   5.905
10513SOL    HW132438   0.048   2.519   5.815
10513SOL    HW232439   0.054   2.376   5.894
10514SOL     OW32440   6.859   3.731   0.273
10514SOL    HW132441   6.883   3.819   0.232
10514SOL    HW232442   6.783   3.690   0.223
10515SOL     OW32443   5.476   3.151   3.257
10515SOL    HW132444   5.572   3.147   3.229
10515SOL    HW232445   5.419   3.105   3.189
10516SOL     OW32446   5.063   1.106   6.623
10516SOL    HW132447   5.117   1.028   6.591
10516SOL    HW232448   5.096   1.135   6.712
10517SOL     OW32449   0.990   2.345   2.435
10517SOL    HW132450   0.925   2.365   2.362
10517SOL    HW232451   1.080   2.325   2.396
10518SOL     OW32452   1.359   4.809   0.280
10518SOL    HW132453   1.415   4.774   0.356
10518SOL    HW232454   1.263   4.791   0.299
10519SOL     OW32455   3.110   2.585   6.002
10519SOL    HW132456   3.205   2.614   6.011
10519SOL    HW232457   3.052   2.664   5.984
10520SOL     OW32458   2.433   2.760   6.748
10520SOL    HW132459   2.369   2.821   6.795
10520SOL    HW232460   2.401   2.743   6.654
10521SOL     OW32461   6.617   5.799   1.084
10521SOL    HW132462   6.625   5.816   1.182
10521SOL    HW232463   6.598   5.886   1.037
10522SOL     OW32464   6.191   0.285   0.638
10522SOL    HW132465   6.202   0.198   0.686
10522SOL    HW232466   6.095   0.299   0.614
10523SOL     OW32467   0.083   6.326   4.507
10523SOL    HW132468   0.105   6.423   4.506
10523SOL    HW232469   0.039   6.302   4.593
10524SOL     OW32470   1.892   1.375   4.830
10524SOL    HW132471   1.982   1.369   4.788
10524SOL    HW232472   1.889   1.452   4.894
10525SOL     OW32473   3.017   6.770   5.450
10525SOL    HW132474   3.058   6.680   5.457
10525SOL    HW232475   2.961   6.776   5.368
10526SOL     OW32476   0.511   0.655   2.980
10526SOL    HW132477   0.435   0.604   2.939
10526SOL    HW232478   0.577   0.679   2.909
10527SOL     OW32479   1.254   2.397   3.856
10527SOL    HW132480   1.346   2.429   3.879
10527SOL    HW232481   1.253   2.366   3.761
10528SOL     OW32482   1.110   3.950   5.372
10528SOL    HW132483   1.139   4.042   5.399
10528SOL    HW232484   1.170   3.916   5.300
10529SOL     OW32485   1.128   5.988   3.156
10529SOL    HW132486   1.089   5.932   3.230
10529SOL    HW232487   1.075   5.973   3.073
10530SOL     OW32488   1.830   1.025   5.882
10530SOL    HW132489   1.739   1.044   5.847
10530SOL    HW232490   1.828   0.941   5.938
10531SOL     OW32491   1.299   3.485   4.584
10531SOL    HW132492   1.243   3.506   4.664
10531SOL    HW232493   1.376   3.427   4.611
10532SOL     OW32494   2.245   2.970   0.693
10532SOL    HW132495   2.162   2.927   0.659
10532SOL    HW232496   2.261   3.055   0.644
10533SOL     OW32497   3.186   1.668   4.145
10533SOL    HW132498   3.112   1.643   4.208
10533SOL    HW232499   3.156   1.743   4.087
10534SOL     OW32500   0.071   5.754   0.778
10534SOL    HW132501   0.055   5.655   0.787
10534SOL    HW232502   0.147   5.770   0.716
10535SOL     OW32503   0.470   2.767   2.371
10535SOL    HW132504   0.506   2.859   2.389
10535SOL    HW232505   0.420   2.767   2.285
10536SOL     OW32506   3.714   0.536   2.968
10536SOL    HW132507   3.768   0.602   3.021
10536SOL    HW232508   3.619   0.540   2.998
10537SOL     OW32509   3.384   5.321   3.027
10537SOL    HW132510   3.285   5.306   3.024
10537SOL    HW232511   3.419   5.294   3.117
10538SOL     OW32512   4.757   2.914   6.523
10538SOL    HW132513   4.736   2.817   6.518
10538SOL    HW232514   4.746   2.955   6.433
10539SOL     OW32515   0.963   4.036   6.618
10539SOL    HW132516   1.003   4.126   6.598
10539SOL    HW232517   0.875   4.029   6.571
10540SOL     OW32518   1.657   0.958   5.462
10540SOL    HW132519   1.712   0.934   5.382
10540SOL    HW232520   1.561   0.932   5.446
10541SOL     OW32521   3.416   3.717   1.788
10541SOL    HW132522   3.507   3.721   1.830
10541SOL    HW232523   3.360   3.792   1.824
10542SOL     OW32524   0.085   1.596   0.236
10542SOL    HW132525   0.131   1.685   0.241
10542SOL    HW232526   7.019   1.603   0.279
10543SOL     OW32527   0.618   1.257   5.182
10543SOL    HW132528   0.530   1.210   5.170
10543SOL    HW232529   0.642   1.305   5.098
10544SOL     OW32530   2.128   0.783   2.924
10544SOL    HW132531   2.130   0.684   2.930
10544SOL    HW232532   2.075   0.811   2.844
10545SOL     OW32533   6.411   0.576   2.901
10545SOL    HW132534   6.466   0.659   2.891
10545SOL    HW232535   6.451   0.503   2.845
10546SOL     OW32536   0.827   0.415   5.964
10546SOL    HW132537   0.887   0.494   5.950
10546SOL    HW232538   0.752   0.418   5.898
10547SOL     OW32539   4.568   1.337   2.181
10547SOL    HW132540   4.591   1.428   2.146
10547SOL    HW232541   4.651   1.292   2.216
10548SOL     OW32542   5.115   3.900   5.081
10548SOL    HW132543   5.196   3.943   5.119
10548SOL    HW232544   5.095   3.939   4.991
10549SOL     OW32545   6.546   0.508   2.676
10549SOL    HW132546   6.532   0.532   2.580
10549SOL    HW232547   6.622   0.443   2.684
10550SOL     OW32548   4.317   6.380   4.210
10550SOL    HW132549   4.245   6.434   4.166
10550SOL    HW232550   4.315   6.397   4.309
10551SOL     OW32551   1.382   2.638   4.938
10551SOL    HW132552   1.384   2.613   4.841
10551SOL    HW232553   1.402   2.735   4.948
10552SOL     OW32554   3.680   1.997   5.284
10552SOL    HW132555   3.582   1.974   5.280
10552SOL    HW232556   3.699   2.068   5.217
10553SOL     OW32557   1.155   4.654   1.658
10553SOL    HW132558   1.196   4.631   1.569
10553SOL    HW232559   1.093   4.732   1.647
10554SOL     OW32560   5.431   5.040   6.648
10554SOL    HW132561   5.471   5.036   6.740
10554SOL    HW232562   5.380   4.956   6.631
10555SOL     OW32563   3.106   1.838   1.226
10555SOL    HW132564   3.093   1.906   1.153
10555SOL    HW232565   3.203   1.832   1.248
10556SOL     OW32566   1.591   3.099   5.255
10556SOL    HW132567   1.501   3.066   5.226
10556SOL    HW232568   1.629   3.037   5.323
10557SOL     OW32569   1.197   2.596   3.206
10557SOL    HW132570   1.205   2.695   3.218
10557SOL    HW232571   1.263   2.566   3.136
10558SOL     OW32572   3.935   0.076   5.108
10558SOL    HW132573   3.937   0.039   5.015
10558SOL    HW232574   3.879   0.159   5.110
10559SOL     OW32575   3.864   1.116   0.790
10559SOL    HW132576   3.847   1.214   0.776
10559SOL    HW232577   3.962   1.101   0.805
10560SOL     OW32578   2.397   5.681   4.708
10560SOL    HW132579   2.380   5.749   4.780
10560SOL    HW232580   2.340   5.702   4.629
10561SOL     OW32581   2.611   5.018   0.122
10561SOL    HW132582   2.612   4.922   0.151
10561SOL    HW232583   2.531   5.035   0.064
10562SOL     OW32584   4.898   6.523   0.235
10562SOL    HW132585   4.844   6.450   0.193
10562SOL    HW232586   4.994   6.514   0.208
10563SOL     OW32587   1.640   1.033   4.252
10563SOL    HW132588   1.675   0.999   4.339
10563SOL    HW232589   1.559   0.980   4.226
10564SOL     OW32590   6.037   0.175   2.226
10564SOL    HW132591   6.098   0.165   2.147
10564SOL    HW232592   6.012   0.085   2.261
10565SOL     OW32593   0.392   0.495   6.017
10565SOL    HW132594   0.474   0.548   5.995
10565SOL    HW232595   0.416   0.422   6.082
10566SOL     OW32596   4.359   3.312   6.600
10566SOL    HW132597   4.306   3.245   6.548
10566SOL    HW232598   4.317   3.324   6.691
10567SOL     OW32599   2.246   2.908   4.149
10567SOL    HW132600   2.244   2.968   4.068
10567SOL    HW232601   2.309   2.832   4.133
10568SOL     OW32602   5.497   1.222   1.472
10568SOL    HW132603   5.418   1.161   1.473
10568SOL    HW232604   5.570   1.183   1.416
10569SOL     OW32605   6.469   3.157   1.938
10569SOL    HW132606   6.446   3.107   2.022
10569SOL    HW232607   6.486   3.253   1.959
10570SOL     OW32608   1.764   5.024   2.487
10570SOL    HW132609   1.722   4.948   2.536
10570SOL    HW232610   1.821   4.988   2.413
10571SOL     OW32611   6.516   5.153   4.208
10571SOL    HW132612   6.586   5.207   4.161
10571SOL    HW232613   6.428   5.165   4.162
10572SOL     OW32614   5.819   3.331   3.247
10572SOL    HW132615   5.788   3.420   3.212
10572SOL    HW232616   5.914   3.316   3.217
10573SOL     OW32617   5.464   6.143   3.505
10573SOL    HW132618   5.424   6.219   3.556
10573SOL    HW232619   5.508   6.178   3.422
10574SOL     OW32620   1.787   2.108   3.808
10574SOL    HW132621   1.882   2.089   3.781
10574SOL    HW232622   1.725   2.061   3.746
10575SOL     OW32623   0.505   1.136   3.679
10575SOL    HW132624   0.575   1.197   3.714
10575SOL    HW232625   0.524   1.042   3.709
10576SOL     OW32626   0.886   6.784   5.405
10576SOL    HW132627   0.876   6.685   5.391
10576SOL    HW232628   0.802   6.820   5.446
10577SOL     OW32629   1.316   2.655   6.802
10577SOL    HW132630   1.390   2.597   6.837
10577SOL    HW232631   1.353   2.743   6.772
10578SOL     OW32632   6.476   0.176   3.880
10578SOL    HW132633   6.396   0.198   3.937
10578SOL    HW232634   6.553   0.152   3.939
10579SOL     OW32635   4.068   1.859   0.082
10579SOL    HW132636   4.080   1.769   0.041
10579SOL    HW232637   3.970   1.876   0.098
10580SOL     OW32638   6.861   0.033   0.428
10580SOL    HW132639   6.865   0.096   0.351
10580SOL    HW232640   6.951   7.015   0.443
10581SOL     OW32641   5.861   6.911   2.884
10581SOL    HW132642   5.809   6.829   2.862
10581SOL    HW232643   5.959   6.891   2.876
10582SOL     OW32644   3.602   4.778   6.483
10582SOL    HW132645   3.554   4.845   6.426
10582SOL    HW232646   3.601   4.689   6.438
10583SOL     OW32647   4.000   1.088   5.854
10583SOL    HW132648   3.994   1.006   5.911
10583SOL    HW232649   4.074   1.146   5.888
10584SOL     OW32650   5.821   6.680   1.141
10584SOL    HW132651   5.842   6.743   1.066
10584SOL    HW232652   5.788   6.733   1.220
10585SOL     OW32653   1.314   2.976   5.819
10585SOL    HW132654   1.230   3.022   5.848
10585SOL    HW232655   1.297   2.924   5.735
10586SOL     OW32656   1.430   5.814   5.872
10586SOL    HW132657   1.456   5.909   5.890
10586SOL    HW232658   1.440   5.795   5.774
10587SOL     OW32659   6.217   3.450   0.210
10587SOL    HW132660   6.230   3.523   0.143
10587SOL    HW232661   6.303   3.434   0.259
10588SOL     OW32662   0.834   4.124   2.387
10588SOL    HW132663   0.904   4.074   2.337
10588SOL    HW232664   0.845   4.222   2.370
10589SOL     OW32665   5.275   1.352   4.466
10589SOL    HW132666   5.335   1.322   4.540
10589SOL    HW232667   5.330   1.371   4.385
10590SOL     OW32668   1.454   0.419   2.151
10590SOL    HW132669   1.364   0.376   2.145
10590SOL    HW232670   1.505   0.404   2.066
10591SOL     OW32671   1.400   1.779   5.600
10591SOL    HW132672   1.376   1.748   5.692
10591SOL    HW232673   1.498   1.764   5.584
10592SOL     OW32674   5.053   2.412   0.451
10592SOL    HW132675   5.046   2.380   0.546
10592SOL    HW232676   4.973   2.383   0.400
10593SOL     OW32677   3.327   5.487   0.887
10593SOL    HW132678   3.337   5.586   0.892
10593SOL    HW232679   3.234   5.464   0.858
10594SOL     OW32680   5.728   1.678   3.523
10594SOL    HW132681   5.807   1.619   3.535
10594SOL    HW232682   5.665   1.636   3.458
10595SOL     OW32683   3.386   0.216   5.773
10595SOL    HW132684   3.469   0.190   5.822
10595SOL    HW232685   3.353   0.138   5.719
10596SOL     OW32686   4.545   6.948   1.745
10596SOL    HW132687   4.452   6.950   1.783
10596SOL    HW232688   4.589   6.862   1.769
10597SOL     OW32689   2.778   0.893   4.300
10597SOL    HW132690   2.842   0.951   4.351
10597SOL    HW232691   2.819   0.865   4.214
10598SOL     OW32692   2.846   2.260   6.958
10598SOL    HW132693   2.756   2.215   6.958
10598SOL    HW232694   2.912   2.202   6.910
10599SOL     OW32695   5.646   1.949   0.264
10599SOL    HW132696   5.627   1.954   0.362
10599SOL    HW232697   5.562   1.967   0.213
10600SOL     OW32698   2.169   2.965   0.096
10600SOL    HW132699   2.162   3.004   0.188
10600SOL    HW232700   2.151   2.867   0.100
10601SOL     OW32701   2.328   5.263   6.193
10601SOL    HW132702   2.372   5.275   6.104
10601SOL    HW232703   2.397   5.264   6.265
10602SOL     OW32704   5.154   1.732   2.391
10602SOL    HW132705   5.166   1.726   2.292
10602SOL    HW232706   5.229   1.683   2.437
10603SOL     OW32707   2.027   6.019   3.093
10603SOL    HW132708   2.058   6.063   3.177
10603SOL    HW232709   1.944   6.065   3.060
10604SOL     OW32710   5.537   4.590   4.209
10604SOL    HW132711   5.537   4.641   4.123
10604SOL    HW232712   5.631   4.569   4.235
10605SOL     OW32713   0.888   5.231   0.083
10605SOL    HW132714   0.975   5.276   0.063
10605SOL    HW232715   0.833   5.290   0.142
10606SOL     OW32716   6.063   0.593   1.649
10606SOL    HW132717   6.005   0.552   1.579
10606SOL    HW232718   6.070   0.691   1.632
10607SOL     OW32719   4.108   3.678   5.669
10607SOL    HW132720   4.083   3.660   5.573
10607SOL    HW232721   4.124   3.776   5.681
10608SOL     OW32722   5.823   1.891   4.966
10608SOL    HW132723   5.824   1.809   5.022
10608SOL    HW232724   5.783   1.966   5.018
10609SOL     OW32725   3.326   5.596   1.361
10609SOL    HW132726   3.270   5.652   1.300
10609SOL    HW232727   3.364   5.520   1.309
10610SOL     OW32728   0.833   4.311   0.157
10610SOL    HW132729   0.740   4.333   0.129
10610SOL    HW232730   0.881   4.394   0.184
10611SOL     OW32731   5.672   3.304   6.782
10611SOL    HW132732   5.655   3.287   6.685
10611SOL    HW232733   5.587   3.328   6.828
10612SOL     OW32734   2.421   6.482   5.903
10612SOL    HW132735   2.344   6.519   5.852
10612SOL    HW232736   2.506   6.509   5.858
10613SOL     OW32737   0.206   6.870   5.998
10613SOL    HW132738   0.215   6.905   6.092
10613SOL    HW232739   0.169   6.778   6.001
10614SOL     OW32740   0.022   1.319   4.057
10614SOL    HW132741   0.004   1.282   4.148
10614SOL    HW232742   7.003   1.410   4.049
10615SOL     OW32743   4.190   5.718   5.404
10615SOL    HW132744   4.277   5.759   5.377
10615SOL    HW232745   4.207   5.638   5.461
10616SOL     OW32746   3.310   6.542   0.139
10616SOL    HW132747   3.350   6.591   0.062
10616SOL    HW232748   3.265   6.459   0.106
10617SOL     OW32749   2.239   2.273   0.716
10617SOL    HW132750   2.262   2.255   0.620
10617SOL    HW232751   2.248   2.371   0.734
10618SOL     OW32752   5.739   2.932   0.089
10618SOL    HW132753   5.761   2.941   0.186
10618SOL    HW232754   5.823   2.943   0.035
10619SOL     OW32755   0.393   3.842   2.283
10619SOL    HW132756   0.488   3.847   2.254
10619SOL    HW232757   0.384   3.775   2.357
10620SOL     OW32758   0.737   5.452   5.477
10620SOL    HW132759   0.764   5.463   5.381
10620SOL    HW232760   0.718   5.542   5.516
10621SOL     OW32761   1.112   6.161   0.255
10621SOL    HW132762   1.173   6.226   0.301
10621SOL    HW232763   1.153   6.069   0.258
10622SOL     OW32764   4.491   0.963   1.719
10622SOL    HW132765   4.464   0.992   1.627
10622SOL    HW232766   4.410   0.935   1.770
10623SOL     OW32767   5.582   2.920   4.476
10623SOL    HW132768   5.624   2.935   4.566
10623SOL    HW232769   5.654   2.901   4.409
10624SOL     OW32770   1.057   0.952   5.071
10624SOL    HW132771   1.047   1.046   5.038
10624SOL    HW232772   1.024   0.889   5.001
10625SOL     OW32773   0.597   4.203   6.830
10625SOL    HW132774   0.669   4.267   6.803
10625SOL    HW232775   0.573   4.146   6.751
10626SOL     OW32776   0.999   2.656   1.433
10626SOL    HW132777   1.033   2.727   1.494
10626SOL    HW232778   0.926   2.692   1.375
10627SOL     OW32779   5.793   6.064   3.027
10627SOL    HW132780   5.761   5.971   3.007
10627SOL    HW232781   5.749   6.097   3.110
10628SOL     OW32782   5.255   5.176   5.416
10628SOL    HW132783   5.344   5.200   5.453
10628SOL    HW232784   5.254   5.192   5.318
10629SOL     OW32785   2.529   4.534   5.347
10629SOL    HW132786   2.446   4.572   5.306
10629SOL    HW232787   2.592   4.505   5.276
10630SOL     OW32788   6.533   0.584   3.397
10630SOL    HW132789   6.447   0.633   3.412
10630SOL    HW232790   6.607   0.650   3.386
10631SOL     OW32791   0.981   5.818   4.483
10631SOL    HW132792   0.952   5.746   4.420
10631SOL    HW232793   1.059   5.867   4.444
10632SOL     OW32794   6.109   2.239   4.420
10632SOL    HW132795   6.034   2.189   4.465
10632SOL    HW232796   6.120   2.328   4.463
10633SOL     OW32797   2.537   4.189   1.012
10633SOL    HW132798   2.554   4.119   1.081
10633SOL    HW232799   2.439   4.194   0.993
10634SOL     OW32800   3.202   5.574   0.238
10634SOL    HW132801   3.257   5.654   0.218
10634SOL    HW232802   3.111   5.585   0.198
10635SOL     OW32803   2.754   1.071   1.126
10635SOL    HW132804   2.686   1.029   1.186
10635SOL    HW232805   2.840   1.020   1.132
10636SOL     OW32806   1.217   1.799   2.190
10636SOL    HW132807   1.149   1.741   2.236
10636SOL    HW232808   1.249   1.753   2.107
10637SOL     OW32809   3.630   4.144   5.338
10637SOL    HW132810   3.619   4.066   5.401
10637SOL    HW232811   3.679   4.217   5.385
10638SOL     OW32812   0.353   6.251   2.828
10638SOL    HW132813   0.318   6.169   2.873
10638SOL    HW232814   0.282   6.290   2.769
10639SOL     OW32815   0.793   1.999   3.942
10639SOL    HW132816   0.857   1.925   3.961
10639SOL    HW232817   0.781   2.008   3.843
10640SOL     OW32818   4.482   0.313   6.844
10640SOL    HW132819   4.545   0.367   6.788
10640SOL    HW232820   4.455   0.230   6.794
10641SOL     OW32821   4.399   1.624   6.975
10641SOL    HW132822   4.432   1.713   6.944
10641SOL    HW232823   4.471   1.578   0.004
10642SOL     OW32824   0.644   2.875   1.643
10642SOL    HW132825   0.741   2.871   1.620
10642SOL    HW232826   0.590   2.869   1.559
10643SOL     OW32827   2.366   4.030   6.025
10643SOL    HW132828   2.387   4.128   6.032
10643SOL    HW232829   2.362   4.004   5.929
10644SOL     OW32830   4.745   1.760   3.968
10644SOL    HW132831   4.790   1.787   4.053
10644SOL    HW232832   4.685   1.834   3.936
10645SOL     OW32833   1.020   1.110   3.984
10645SOL    HW132834   1.024   1.188   4.046
10645SOL    HW232835   0.958   1.040   4.022
10646SOL     OW32836   0.589   2.164   5.819
10646SOL    HW132837   0.638   2.165   5.906
10646SOL    HW232838   0.645   2.208   5.749
10647SOL     OW32839   5.497   5.463   6.331
10647SOL    HW132840   5.585   5.497   6.298
10647SOL    HW232841   5.512   5.386   6.393
10648SOL     OW32842   5.553   3.607   6.572
10648SOL    HW132843   5.575   3.518   6.532
10648SOL    HW232844   5.460   3.606   6.607
10649SOL     OW32845   0.101   4.041   4.036
10649SOL    HW132846   0.101   3.947   4.071
10649SOL    HW232847   0.023   4.091   4.075
10650SOL     OW32848   1.262   6.611   3.702
10650SOL    HW132849   1.324   6.535   3.723
10650SOL    HW232850   1.221   6.644   3.787
10651SOL     OW32851   4.142   6.682   5.717
10651SOL    HW132852   4.241   6.677   5.734
10651SOL    HW232853   4.122   6.643   5.627
10652SOL     OW32854   3.545   0.182   6.392
10652SOL    HW132855   3.623   0.239   6.420
10652SOL    HW232856   3.474   0.186   6.463
10653SOL     OW32857   5.158   4.491   4.568
10653SOL    HW132858   5.200   4.400   4.560
10653SOL    HW232859   5.064   4.482   4.600
10654SOL     OW32860   3.211   6.900   1.754
10654SOL    HW132861   3.246   6.832   1.690
10654SOL    HW232862   3.130   6.944   1.715
10655SOL     OW32863   2.830   5.402   2.056
10655SOL    HW132864   2.857   5.436   2.145
10655SOL    HW232865   2.852   5.469   1.985
10656SOL     OW32866   6.411   2.119   0.110
10656SOL    HW132867   6.446   2.212   0.102
10656SOL    HW232868   6.319   2.114   0.070
10657SOL     OW32869   6.287   6.664   0.754
10657SOL    HW132870   6.226   6.593   0.787
10657SOL    HW232871   6.359   6.680   0.821
10658SOL     OW32872   0.572   4.515   4.933
10658SOL    HW132873   0.502   4.450   4.963
10658SOL    HW232874   0.555   4.604   4.975
10659SOL     OW32875   6.272   6.956   1.031
10659SOL    HW132876   6.277   6.862   1.067
10659SOL    HW232877   6.312   7.019   1.098
10660SOL     OW32878   5.020   4.039   6.134
10660SOL    HW132879   4.929   4.042   6.093
10660SOL    HW232880   5.089   4.052   6.063
10661SOL     OW32881   6.735   6.768   2.852
10661SOL    HW132882   6.704   6.692   2.910
10661SOL    HW232883   6.826   6.798   2.882
10662SOL     OW32884   6.178   0.839   1.617
10662SOL    HW132885   6.260   0.819   1.564
10662SOL    HW232886   6.141   0.928   1.589
10663SOL     OW32887   1.310   0.691   1.187
10663SOL    HW132888   1.251   0.618   1.220
10663SOL    HW232889   1.401   0.683   1.228
10664SOL     OW32890   1.971   3.916   6.299
10664SOL    HW132891   1.974   3.832   6.246
10664SOL    HW232892   1.885   3.922   6.350
10665SOL     OW32893   1.356   1.170   6.925
10665SOL    HW132894   1.259   1.152   6.909
10665SOL    HW232895   1.409   1.086   6.910
10666SOL     OW32896   4.195   4.569   0.266
10666SOL    HW132897   4.119   4.520   0.222
10666SOL    HW232898   4.161   4.653   0.307
10667SOL     OW32899   3.977   1.952   5.786
10667SOL    HW132900   4.017   1.881   5.843
10667SOL    HW232901   3.881   1.964   5.809
10668SOL     OW32902   1.294   2.160   6.229
10668SOL    HW132903   1.330   2.155   6.136
10668SOL    HW232904   1.293   2.069   6.270
10669SOL     OW32905   0.536   0.184   0.968
10669SOL    HW132906   0.525   0.284   0.961
10669SOL    HW232907   0.491   0.151   1.050
10670SOL     OW32908   5.171   4.401   5.890
10670SOL    HW132909   5.155   4.476   5.954
10670SOL    HW232910   5.102   4.402   5.818
10671SOL     OW32911   2.134   3.593   2.835
10671SOL    HW132912   2.113   3.543   2.751
10671SOL    HW232913   2.095   3.685   2.830
10672SOL     OW32914   0.149   3.091   0.551
10672SOL    HW132915   0.224   3.026   0.536
10672SOL    HW232916   0.062   3.041   0.555
10673SOL     OW32917   2.988   2.712   5.625
10673SOL    HW132918   2.965   2.614   5.620
10673SOL    HW232919   3.082   2.722   5.657
10674SOL     OW32920   3.779   3.726   0.734
10674SOL    HW132921   3.827   3.780   0.665
10674SOL    HW232922   3.844   3.663   0.777
10675SOL     OW32923   0.337   0.530   5.376
10675SOL    HW132924   0.311   0.627   5.369
10675SOL    HW232925   0.437   0.523   5.373
10676SOL     OW32926   5.795   0.321   6.052
10676SOL    HW132927   5.780   0.420   6.042
10676SOL    HW232928   5.856   0.304   6.128
10677SOL     OW32929   0.518   0.806   2.186
10677SOL    HW132930   0.459   0.805   2.105
10677SOL    HW232931   0.513   0.896   2.229
10678SOL     OW32932   3.115   5.965   2.750
10678SOL    HW132933   3.197   5.916   2.721
10678SOL    HW232934   3.046   5.900   2.784
10679SOL     OW32935   5.595   5.553   4.706
10679SOL    HW132936   5.508   5.504   4.710
10679SOL    HW232937   5.590   5.634   4.764
10680SOL     OW32938   1.766   3.243   2.730
10680SOL    HW132939   1.856   3.203   2.751
10680SOL    HW232940   1.756   3.329   2.779
10681SOL     OW32941   6.407   4.436   6.781
10681SOL    HW132942   6.317   4.400   6.755
10681SOL    HW232943   6.409   4.451   6.880
10682SOL     OW32944   1.560   1.642   3.255
10682SOL    HW132945   1.549   1.696   3.339
10682SOL    HW232946   1.654   1.650   3.223
10683SOL     OW32947   2.280   2.445   4.121
10683SOL    HW132948   2.300   2.386   4.042
10683SOL    HW232949   2.327   2.532   4.110
10684SOL     OW32950   5.241   4.034   0.833
10684SOL    HW132951   5.218   4.102   0.902
10684SOL    HW232952   5.249   3.944   0.876
10685SOL     OW32953   0.546   3.804   3.600
10685SOL    HW132954   0.623   3.858   3.633
10685SOL    HW232955   0.507   3.752   3.676
10686SOL     OW32956   4.011   5.858   0.019
10686SOL    HW132957   3.918   5.875   7.010
10686SOL    HW232958   4.025   5.759   0.030
10687SOL     OW32959   6.769   5.211   1.874
10687SOL    HW132960   6.782   5.228   1.972
10687SOL    HW232961   6.772   5.113   1.857
10688SOL     OW32962   6.334   4.202   2.404
10688SOL    HW132963   6.260   4.139   2.379
10688SOL    HW232964   6.309   4.250   2.488
10689SOL     OW32965   6.948   6.861   2.994
10689SOL    HW132966   6.886   6.827   3.066
10689SOL    HW232967   6.931   6.958   2.979
10690SOL     OW32968   4.388   5.545   2.963
10690SOL    HW132969   4.366   5.448   2.954
10690SOL    HW232970   4.308   5.595   2.999
10691SOL     OW32971   6.702   1.255   1.799
10691SOL    HW132972   6.696   1.351   1.773
10691SOL    HW232973   6.625   1.231   1.857
10692SOL     OW32974   3.213   5.879   3.683
10692SOL    HW132975   3.302   5.840   3.661
10692SOL    HW232976   3.224   5.951   3.751
10693SOL     OW32977   1.272   1.400   0.896
10693SOL    HW132978   1.315   1.335   0.833
10693SOL    HW232979   1.264   1.489   0.851
10694SOL     OW32980   3.458   6.410   1.069
10694SOL    HW132981   3.471   6.505   1.039
10694SOL    HW232982   3.468   6.405   1.168
10695SOL     OW32983   0.351   2.628   3.954
10695SOL    HW132984   0.263   2.668   3.930
10695SOL    HW232985   0.353   2.532   3.925
10696SOL     OW32986   6.765   6.176   1.781
10696SOL    HW132987   6.828   6.251   1.801
10696SOL    HW232988   6.811   6.107   1.725
10697SOL     OW32989   0.432   6.325   3.206
10697SOL    HW132990   0.344   6.349   3.166
10697SOL    HW232991   0.468   6.244   3.160
10698SOL     OW32992   2.576   6.995   3.326
10698SOL    HW132993   2.659   6.965   3.279
10698SOL    HW232994   2.588   6.986   3.425
10699SOL     OW32995   4.629   1.744   3.068
10699SOL    HW132996   4.560   1.809   3.035
10699SOL    HW232997   4.632   1.665   3.008
10700SOL     OW32998   0.747   6.827   0.768
10700SOL    HW132999   0.808   6.748   0.770
10700SOL    HW233000   0.663   6.802   0.718
10701SOL     OW33001   4.191   5.753   6.554
10701SOL    HW133002   4.190   5.724   6.458
10701SOL    HW233003   4.278   5.798   6.574
10702SOL     OW33004   5.517   2.455   0.803
10702SOL    HW133005   5.448   2.469   0.732
10702SOL    HW233006   5.608   2.462   0.762
10703SOL     OW33007   3.993   3.935   3.423
10703SOL    HW133008   3.989   4.035   3.423
10703SOL    HW233009   3.902   3.897   3.441
10704SOL     OW33010   5.114   6.701   1.723
10704SOL    HW133011   5.163   6.780   1.685
10704SOL    HW233012   5.017   6.723   1.731
10705SOL     OW33013   1.232   3.907   6.624
10705SOL    HW133014   1.279   3.988   6.659
10705SOL    HW233015   1.136   3.929   6.605
10706SOL     OW33016   4.337   0.574   2.121
10706SOL    HW133017   4.322   0.478   2.099
10706SOL    HW233018   4.395   0.582   2.202
10707SOL     OW33019   0.033   7.002   5.852
10707SOL    HW133020   6.972   6.999   5.905
10707SOL    HW233021   0.108   6.966   5.907
10708SOL     OW33022   4.787   0.916   1.489
10708SOL    HW133023   4.850   0.986   1.456
10708SOL    HW233024   4.840   0.841   1.530
10709SOL     OW33025   6.718   0.455   4.977
10709SOL    HW133026   6.815   0.456   4.953
10709SOL    HW233027   6.665   0.498   4.903
10710SOL     OW33028   6.338   5.674   3.999
10710SOL    HW133029   6.303   5.585   4.029
10710SOL    HW233030   6.318   5.686   3.901
10711SOL     OW33031   1.685   0.129   4.004
10711SOL    HW133032   1.743   0.156   3.927
10711SOL    HW233033   1.682   0.203   4.071
10712SOL     OW33034   3.870   1.384   5.037
10712SOL    HW133035   3.952   1.346   4.993
10712SOL    HW233036   3.807   1.416   4.966
10713SOL     OW33037   2.287   5.867   2.012
10713SOL    HW133038   2.322   5.799   2.076
10713SOL    HW233039   2.347   5.947   2.011
10714SOL     OW33040   0.455   4.677   5.117
10714SOL    HW133041   0.448   4.765   5.070
10714SOL    HW233042   0.367   4.631   5.115
10715SOL     OW33043   4.662   2.075   4.229
10715SOL    HW133044   4.756   2.081   4.196
10715SOL    HW233045   4.599   2.103   4.157
10716SOL     OW33046   6.347   1.121   4.700
10716SOL    HW133047   6.273   1.169   4.747
10716SOL    HW233048   6.347   1.146   4.604
10717SOL     OW33049   6.639   0.916   2.313
10717SOL    HW133050   6.736   0.914   2.291
10717SOL    HW233051   6.585   0.912   2.228
10718SOL     OW33052   6.703   5.221   0.097
10718SOL    HW133053   6.621   5.170   0.072
10718SOL    HW233054   6.715   5.219   0.196
10719SOL     OW33055   5.343   0.905   1.682
10719SOL    HW133056   5.371   0.811   1.702
10719SOL    HW233057   5.244   0.913   1.692
10720SOL     OW33058   6.731   3.714   6.041
10720SOL    HW133059   6.821   3.752   6.021
10720SOL    HW233060   6.661   3.782   6.020
10721SOL     OW33061   5.987   2.586   4.654
10721SOL    HW133062   6.024   2.493   4.658
10721SOL    HW233063   5.904   2.586   4.599
10722SOL     OW33064   6.470   3.878   0.450
10722SOL    HW133065   6.392   3.931   0.481
10722SOL    HW233066   6.443   3.817   0.376
10723SOL     OW33067   5.539   4.298   6.684
10723SOL    HW133068   5.492   4.381   6.655
10723SOL    HW233069   5.533   4.289   6.784
10724SOL     OW33070   4.320   6.438   6.154
10724SOL    HW133071   4.373   6.358   6.183
10724SOL    HW233072   4.266   6.472   6.231
10725SOL     OW33073   0.642   6.229   4.276
10725SOL    HW133074   0.738   6.222   4.250
10725SOL    HW233075   0.607   6.139   4.300
10726SOL     OW33076   5.969   0.503   4.665
10726SOL    HW133077   5.910   0.499   4.746
10726SOL    HW233078   6.047   0.563   4.684
10727SOL     OW33079   2.060   5.160   5.391
10727SOL    HW133080   2.066   5.101   5.311
10727SOL    HW233081   2.138   5.142   5.452
10728SOL     OW33082   4.718   6.820   3.275
10728SOL    HW133083   4.798   6.832   3.333
10728SOL    HW233084   4.645   6.881   3.308
10729SOL     OW33085   5.699   2.538   2.750
10729SOL    HW133086   5.660   2.552   2.841
10729SOL    HW233087   5.641   2.473   2.699
10730SOL     OW33088   2.378   6.368   2.112
10730SOL    HW133089   2.289   6.384   2.156
10730SOL    HW233090   2.376   6.279   2.066
10731SOL     OW33091   3.423   6.026   0.296
10731SOL    HW133092   3.505   5.985   0.336
10731SOL    HW233093   3.449   6.084   0.219
10732SOL     OW33094   5.259   6.077   2.530
10732SOL    HW133095   5.298   5.997   2.485
10732SOL    HW233096   5.202   6.048   2.607
10733SOL     OW33097   6.051   1.417   6.454
10733SOL    HW133098   6.107   1.335   6.454
10733SOL    HW233099   5.954   1.392   6.451
10734SOL     OW33100   1.508   0.235   6.598
10734SOL    HW133101   1.454   0.286   6.531
10734SOL    HW233102   1.578   0.294   6.637
10735SOL     OW33103   1.089   5.238   2.045
10735SOL    HW133104   1.041   5.227   2.132
10735SOL    HW233105   1.156   5.165   2.034
10736SOL     OW33106   6.931   1.174   3.865
10736SOL    HW133107   7.000   1.151   3.797
10736SOL    HW233108   6.967   1.244   3.927
10737SOL     OW33109   0.192   1.993   1.418
10737SOL    HW133110   0.140   2.026   1.339
10737SOL    HW233111   0.290   1.995   1.397
10738SOL     OW33112   2.744   0.608   2.891
10738SOL    HW133113   2.650   0.586   2.917
10738SOL    HW233114   2.797   0.633   2.972
10739SOL     OW33115   5.715   1.777   2.285
10739SOL    HW133116   5.756   1.707   2.227
10739SOL    HW233117   5.771   1.860   2.282
10740SOL     OW33118   1.567   6.707   5.942
10740SOL    HW133119   1.666   6.721   5.953
10740SOL    HW233120   1.538   6.631   6.000
10741SOL     OW33121   1.542   2.976   3.200
10741SOL    HW133122   1.495   3.017   3.278
10741SOL    HW233123   1.527   2.878   3.199
10742SOL     OW33124   6.398   5.276   2.528
10742SOL    HW133125   6.444   5.341   2.467
10742SOL    HW233126   6.467   5.217   2.571
10743SOL     OW33127   3.469   1.465   5.422
10743SOL    HW133128   3.473   1.560   5.390
10743SOL    HW233129   3.549   1.446   5.478
10744SOL     OW33130   3.208   0.290   1.469
10744SOL    HW133131   3.119   0.245   1.459
10744SOL    HW233132   3.215   0.366   1.404
10745SOL     OW33133   2.042   4.286   1.124
10745SOL    HW133134   2.097   4.256   1.046
10745SOL    HW233135   2.102   4.311   1.200
10746SOL     OW33136   2.335   6.221   0.304
10746SOL    HW133137   2.391   6.241   0.223
10746SOL    HW233138   2.386   6.247   0.386
10747SOL     OW33139   6.204   2.838   4.155
10747SOL    HW133140   6.139   2.872   4.223
10747SOL    HW233141   6.278   2.789   4.201
10748SOL     OW33142   4.139   5.118   0.991
10748SOL    HW133143   4.177   5.169   1.068
10748SOL    HW233144   4.055   5.162   0.961
10749SOL     OW33145   6.367   4.506   2.956
10749SOL    HW133146   6.361   4.571   2.880
10749SOL    HW233147   6.449   4.526   3.010
10750SOL     OW33148   5.030   3.299   3.850
10750SOL    HW133149   5.048   3.331   3.943
10750SOL    HW233150   5.012   3.201   3.851
10751SOL     OW33151   1.367   3.562   4.950
10751SOL    HW133152   1.442   3.519   5.000
10751SOL    HW233153   1.401   3.640   4.899
10752SOL     OW33154   6.050   5.363   6.975
10752SOL    HW133155   6.045   5.315   0.039
10752SOL    HW233156   5.958   5.383   6.942
10753SOL     OW33157   5.061   6.483   4.513
10753SOL    HW133158   5.123   6.441   4.446
10753SOL    HW233159   5.112   6.510   4.594
10754SOL     OW33160   0.587   3.382   1.667
10754SOL    HW133161   0.645   3.306   1.696
10754SOL    HW233162   0.513   3.395   1.734
10755SOL     OW33163   6.863   2.673   1.286
10755SOL    HW133164   6.836   2.608   1.216
10755SOL    HW233165   6.956   2.705   1.268
10756SOL     OW33166   6.418   2.004   0.584
10756SOL    HW133167   6.344   2.000   0.517
10756SOL    HW233168   6.387   2.053   0.665
10757SOL     OW33169   6.732   3.771   0.524
10757SOL    HW133170   6.634   3.773   0.507
10757SOL    HW233171   6.780   3.736   0.444
10758SOL     OW33172   0.793   6.084   6.445
10758SOL    HW133173   0.799   6.038   6.357
10758SOL    HW233174   0.875   6.064   6.499
10759SOL     OW33175   1.905   2.251   6.226
10759SOL    HW133176   1.807   2.232   6.226
10759SOL    HW233177   1.944   2.224   6.314
10760SOL     OW33178   0.955   6.238   0.043
10760SOL    HW133179   1.022   6.223   0.116
10760SOL    HW233180   0.880   6.172   0.053
10761SOL     OW33181   0.755   1.996   6.162
10761SOL    HW133182   0.822   2.026   6.229
10761SOL    HW233183   0.802   1.957   6.083
10762SOL     OW33184   3.973   0.629   5.770
10762SOL    HW133185   3.957   0.540   5.729
10762SOL    HW233186   3.924   0.699   5.719
10763SOL     OW33187   6.018   0.714   3.287
10763SOL    HW133188   5.980   0.646   3.225
10763SOL    HW233189   5.993   0.691   3.381
10764SOL     OW33190   4.341   0.871   4.959
10764SOL    HW133191   4.386   0.944   5.009
10764SOL    HW233192   4.258   0.906   4.914
10765SOL     OW33193   6.052   2.574   2.508
10765SOL    HW133194   5.988   2.534   2.443
10765SOL    HW233195   6.021   2.554   2.602
10766SOL     OW33196   1.192   4.968   0.575
10766SOL    HW133197   1.233   4.991   0.663
10766SOL    HW233198   1.233   4.883   0.541
10767SOL     OW33199   1.457   6.182   0.806
10767SOL    HW133200   1.405   6.117   0.862
10767SOL    HW233201   1.539   6.137   0.771
10768SOL     OW33202   5.752   4.978   0.453
10768SOL    HW133203   5.688   4.907   0.481
10768SOL    HW233204   5.772   4.970   0.355
10769SOL     OW33205   2.773   4.247   5.428
10769SOL    HW133206   2.814   4.161   5.397
10769SOL    HW233207   2.676   4.248   5.403
10770SOL     OW33208   5.524   6.640   4.814
10770SOL    HW133209   5.546   6.618   4.719
10770SOL    HW233210   5.436   6.686   4.819
10771SOL     OW33211   4.862   0.178   5.563
10771SOL    HW133212   4.802   0.249   5.527
10771SOL    HW233213   4.941   0.167   5.502
10772SOL     OW33214   5.352   5.954   3.755
10772SOL    HW133215   5.382   5.874   3.807
10772SOL    HW233216   5.379   5.943   3.659
10773SOL     OW33217   0.187   4.039   0.640
10773SOL    HW133218   0.116   4.108   0.635
10773SOL    HW233219   0.173   3.971   0.568
10774SOL     OW33220   1.597   2.371   0.938
10774SOL    HW133221   1.619   2.359   0.841
10774SOL    HW233222   1.613   2.466   0.965
10775SOL     OW33223   1.997   4.387   0.621
10775SOL    HW133224   1.916   4.358   0.568
10775SOL    HW233225   2.035   4.470   0.579
10776SOL     OW33226   0.303   0.511   2.825
10776SOL    HW133227   0.330   0.421   2.860
10776SOL    HW233228   0.205   0.512   2.807
10777SOL     OW33229   2.891   0.662   3.492
10777SOL    HW133230   2.933   0.752   3.490
10777SOL    HW233231   2.812   0.661   3.430
10778SOL     OW33232   6.563   6.237   4.294
10778SOL    HW133233   6.544   6.151   4.247
10778SOL    HW233234   6.478   6.291   4.299
10779SOL     OW33235   5.658   5.162   3.169
10779SOL    HW133236   5.572   5.190   3.212
10779SOL    HW233237   5.735   5.192   3.226
10780SOL     OW33238   0.630   5.837   4.582
10780SOL    HW133239   0.692   5.881   4.648
10780SOL    HW233240   0.654   5.740   4.574
10781SOL     OW33241   5.985   2.422   5.042
10781SOL    HW133242   6.055   2.357   5.013
10781SOL    HW233243   5.983   2.499   4.979
10782SOL     OW33244   0.569   3.359   5.262
10782SOL    HW133245   0.650   3.300   5.260
10782SOL    HW233246   0.488   3.304   5.285
10783SOL     OW33247   1.497   2.313   2.782
10783SOL    HW133248   1.572   2.277   2.726
10783SOL    HW233249   1.411   2.306   2.732
10784SOL     OW33250   2.826   6.061   2.641
10784SOL    HW133251   2.735   6.030   2.669
10784SOL    HW233252   2.883   6.077   2.722
10785SOL     OW33253   1.650   5.153   1.524
10785SOL    HW133254   1.698   5.081   1.474
10785SOL    HW233255   1.713   5.201   1.585
10786SOL     OW33256   4.446   1.916   2.018
10786SOL    HW133257   4.385   1.947   2.090
10786SOL    HW233258   4.417   1.825   1.987
10787SOL     OW33259   3.043   1.376   3.970
10787SOL    HW133260   3.094   1.305   4.018
10787SOL    HW233261   3.075   1.382   3.876
10788SOL     OW33262   0.272   4.235   0.110
10788SOL    HW133263   0.314   4.152   0.148
10788SOL    HW233264   0.285   4.235   0.011
10789SOL     OW33265   6.680   1.280   6.971
10789SOL    HW133266   6.721   1.370   6.988
10789SOL    HW233267   6.602   1.267   0.008
10790SOL     OW33268   0.542   2.702   4.834
10790SOL    HW133269   0.591   2.710   4.747
10790SOL    HW233270   0.607   2.681   4.907
10791SOL     OW33271   2.046   1.405   2.600
10791SOL    HW133272   1.997   1.490   2.622
10791SOL    HW233273   2.126   1.396   2.661
10792SOL     OW33274   3.696   2.335   1.354
10792SOL    HW133275   3.647   2.383   1.281
10792SOL    HW233276   3.788   2.371   1.363
10793SOL     OW33277   5.170   1.509   4.803
10793SOL    HW133278   5.259   1.471   4.778
10793SOL    HW233279   5.166   1.522   4.902
10794SOL     OW33280   4.451   2.957   1.654
10794SOL    HW133281   4.504   2.955   1.739
10794SOL    HW233282   4.367   3.010   1.669
10795SOL     OW33283   0.019   3.848   2.642
10795SOL    HW133284   6.983   3.836   2.562
10795SOL    HW233285   0.024   3.945   2.665
10796SOL     OW33286   6.587   6.670   6.917
10796SOL    HW133287   6.650   6.711   6.983
10796SOL    HW233288   6.631   6.665   6.828
10797SOL     OW33289   4.177   3.020   0.288
10797SOL    HW133290   4.255   2.962   0.267
10797SOL    HW233291   4.104   2.965   0.329
10798SOL     OW33292   2.885   6.590   6.322
10798SOL    HW133293   2.913   6.560   6.230
10798SOL    HW233294   2.965   6.600   6.380
10799SOL     OW33295   3.263   1.456   2.649
10799SOL    HW133296   3.192   1.386   2.640
10799SOL    HW233297   3.222   1.540   2.684
10800SOL     OW33298   1.121   0.045   6.744
10800SOL    HW133299   1.088   0.139   6.732
10800SOL    HW233300   1.104   7.016   6.660
10801SOL     OW33301   1.800   5.901   6.141
10801SOL    HW133302   1.796   5.844   6.060
10801SOL    HW233303   1.830   5.993   6.116
10802SOL     OW33304   1.664   4.033   4.092
10802SOL    HW133305   1.581   3.980   4.073
10802SOL    HW233306   1.694   4.078   4.009
10803SOL     OW33307   6.044   4.835   5.509
10803SOL    HW133308   6.115   4.871   5.449
10803SOL    HW233309   6.064   4.740   5.531
10804SOL     OW33310   6.093   4.098   1.823
10804SOL    HW133311   6.157   4.030   1.787
10804SOL    HW233312   6.143   4.167   1.875
10805SOL     OW33313   3.863   6.412   0.840
10805SOL    HW133314   3.773   6.444   0.810
10805SOL    HW233315   3.866   6.408   0.939
10806SOL     OW33316   5.548   3.995   0.766
10806SOL    HW133317   5.525   3.966   0.673
10806SOL    HW233318   5.536   3.918   0.829
10807SOL     OW33319   3.605   5.653   3.247
10807SOL    HW133320   3.697   5.689   3.237
10807SOL    HW233321   3.600   5.561   3.207
10808SOL     OW33322   0.284   2.733   5.975
10808SOL    HW133323   0.348   2.660   5.999
10808SOL    HW233324   0.302   2.813   6.032
10809SOL     OW33325   2.843   0.853   4.027
10809SOL    HW133326   2.845   0.947   3.991
10809SOL    HW233327   2.756   0.810   4.002
10810SOL     OW33328   6.925   1.625   5.221
10810SOL    HW133329   6.865   1.705   5.227
10810SOL    HW233330   6.944   1.604   5.125
10811SOL     OW33331   4.064   5.368   5.221
10811SOL    HW133332   4.104   5.437   5.282
10811SOL    HW233333   4.113   5.368   5.134
10812SOL     OW33334   6.455   2.881   2.984
10812SOL    HW133335   6.550   2.909   2.993
10812SOL    HW233336   6.397   2.961   2.970
10813SOL     OW33337   2.829   6.130   2.048
10813SOL    HW133338   2.856   6.047   2.000
10813SOL    HW233339   2.897   6.201   2.032
10814SOL     OW33340   1.624   0.155   5.037
10814SOL    HW133341   1.642   0.064   5.076
10814SOL    HW233342   1.703   0.183   4.982
10815SOL     OW33343   5.394   4.049   2.918
10815SOL    HW133344   5.448   4.133   2.911
10815SOL    HW233345   5.455   3.970   2.915
10816SOL     OW33346   1.624   1.123   2.220
10816SOL    HW133347   1.723   1.120   2.205
10816SOL    HW233348   1.603   1.089   2.312
10817SOL     OW33349   4.937   0.531   2.563
10817SOL    HW133350   4.989   0.448   2.580
10817SOL    HW233351   4.958   0.566   2.472
10818SOL     OW33352   5.445   2.931   6.754
10818SOL    HW133353   5.420   2.851   6.808
10818SOL    HW233354   5.523   2.977   6.797
10819SOL     OW33355   0.536   4.813   6.401
10819SOL    HW133356   0.488   4.727   6.420
10819SOL    HW233357   0.490   4.888   6.448
10820SOL     OW33358   0.179   6.610   3.476
10820SOL    HW133359   0.262   6.637   3.526
10820SOL    HW233360   0.128   6.542   3.529
10821SOL     OW33361   6.757   0.573   1.831
10821SOL    HW133362   6.694   0.648   1.852
10821SOL    HW233363   6.752   0.552   1.733
10822SOL     OW33364   0.959   3.815   2.548
10822SOL    HW133365   0.862   3.789   2.547
10822SOL    HW233366   1.008   3.766   2.476
10823SOL     OW33367   2.273   6.195   1.175
10823SOL    HW133368   2.330   6.276   1.163
10823SOL    HW233369   2.284   6.134   1.097
10824SOL     OW33370   4.689   0.921   2.484
10824SOL    HW133371   4.694   0.893   2.388
10824SOL    HW233372   4.594   0.942   2.508
10825SOL     OW33373   3.141   1.052   1.241
10825SOL    HW133374   3.192   0.966   1.236
10825SOL    HW233375   3.195   1.125   1.201
10826SOL     OW33376   0.257   3.861   2.029
10826SOL    HW133377   0.267   3.855   1.929
10826SOL    HW233378   0.345   3.843   2.072
10827SOL     OW33379   6.783   3.428   4.338
10827SOL    HW133380   6.783   3.524   4.309
10827SOL    HW233381   6.696   3.385   4.313
10828SOL     OW33382   1.203   5.895   0.211
10828SOL    HW133383   1.212   5.833   0.288
10828SOL    HW233384   1.145   5.853   0.141
10829SOL     OW33385   3.093   4.044   1.984
10829SOL    HW133386   3.030   4.085   1.919
10829SOL    HW233387   3.054   3.958   2.019
10830SOL     OW33388   5.329   3.088   4.990
10830SOL    HW133389   5.298   3.165   4.935
10830SOL    HW233390   5.359   3.122   5.080
10831SOL     OW33391   5.498   1.098   2.747
10831SOL    HW133392   5.544   1.166   2.690
10831SOL    HW233393   5.524   1.006   2.718
10832SOL     OW33394   0.783   2.067   0.247
10832SOL    HW133395   0.868   2.044   0.200
10832SOL    HW233396   0.784   2.164   0.271
10833SOL     OW33397   2.444   0.945   4.284
10833SOL    HW133398   2.540   0.920   4.274
10833SOL    HW233399   2.427   0.976   4.378
10834SOL     OW33400   0.710   1.702   5.587
10834SOL    HW133401   0.742   1.792   5.559
10834SOL    HW233402   0.786   1.650   5.627
10835SOL     OW33403   5.876   2.019   2.348
10835SOL    HW133404   5.813   2.028   2.426
10835SOL    HW233405   5.853   2.088   2.279
10836SOL     OW33406   0.862   1.811   5.820
10836SOL    HW133407   0.900   1.718   5.820
10836SOL    HW233408   0.763   1.807   5.830
10837SOL     OW33409   0.086   4.667   0.260
10837SOL    HW133410   0.150   4.591   0.266
10837SOL    HW233411   0.138   4.753   0.256
10838SOL     OW33412   5.526   6.750   6.703
10838SOL    HW133413   5.430   6.732   6.726
10838SOL    HW233414   5.578   6.665   6.708
10839SOL     OW33415   2.287   1.734   6.940
10839SOL    HW133416   2.347   1.768   6.868
10839SOL    HW233417   2.341   1.683   7.008
10840SOL     OW33418   3.524   5.614   1.539
10840SOL    HW133419   3.463   5.626   1.460
10840SOL    HW233420   3.596   5.549   1.515
10841SOL     OW33421   4.094   5.833   5.950
10841SOL    HW133422   4.036   5.831   5.868
10841SOL    HW233423   4.080   5.749   6.003
10842SOL     OW33424   6.415   3.171   0.891
10842SOL    HW133425   6.423   3.271   0.899
10842SOL    HW233426   6.488   3.127   0.943
10843SOL     OW33427   0.913   1.538   1.962
10843SOL    HW133428   0.826   1.491   1.978
10843SOL    HW233429   0.899   1.637   1.963
10844SOL     OW33430   5.452   6.815   3.076
10844SOL    HW133431   5.493   6.905   3.067
10844SOL    HW233432   5.407   6.808   3.165
10845SOL     OW33433   1.345   1.292   1.410
10845SOL    HW133434   1.331   1.205   1.361
10845SOL    HW233435   1.423   1.340   1.371
10846SOL     OW33436   4.019   2.230   1.086
10846SOL    HW133437   4.024   2.172   1.005
10846SOL    HW233438   3.952   2.193   1.150
10847SOL     OW33439   3.673   2.302   5.970
10847SOL    HW133440   3.660   2.377   6.036
10847SOL    HW233441   3.585   2.280   5.927
10848SOL     OW33442   2.043   0.855   0.041
10848SOL    HW133443   2.090   0.800   6.995
10848SOL    HW233444   1.959   0.809   0.069
10849SOL     OW33445   2.822   5.027   4.503
10849SOL    HW133446   2.883   5.084   4.448
10849SOL    HW233447   2.877   4.971   4.566
10850SOL     OW33448   5.403   6.733   7.002
10850SOL    HW133449   5.364   6.817   6.964
10850SOL    HW233450   5.382   6.727   0.076
10851SOL     OW33451   2.613   2.585   6.390
10851SOL    HW133452   2.670   2.533   6.326
10851SOL    HW233453   2.622   2.683   6.371
10852SOL     OW33454   0.328   0.866   6.599
10852SOL    HW133455   0.293   0.815   6.521
10852SOL    HW233456   0.254   0.888   6.661
10853SOL     OW33457   2.716   1.483   4.502
10853SOL    HW133458   2.707   1.389   4.469
10853SOL    HW233459   2.761   1.483   4.591
10854SOL     OW33460   6.720   6.769   0.122
10854SOL    HW133461   6.647   6.829   0.154
10854SOL    HW233462   6.794   6.824   0.084
10855SOL     OW33463   1.608   6.443   2.292
10855SOL    HW133464   1.521   6.394   2.278
10855SOL    HW233465   1.683   6.376   2.297
10856SOL     OW33466   5.959   6.314   6.912
10856SOL    HW133467   5.927   6.310   7.007
10856SOL    HW233468   5.967   6.221   6.876
10857SOL     OW33469   6.191   1.795   3.384
10857SOL    HW133470   6.230   1.705   3.361
10857SOL    HW233471   6.095   1.797   3.358
10858SOL     OW33472   1.427   3.148   0.238
10858SOL    HW133473   1.440   3.195   0.326
10858SOL    HW233474   1.386   3.058   0.254
10859SOL     OW33475   0.804   4.702   3.241
10859SOL    HW133476   0.832   4.770   3.173
10859SOL    HW233477   0.750   4.746   3.313
10860SOL     OW33478   6.287   1.383   0.031
10860SOL    HW133479   6.350   1.323   0.080
10860SOL    HW233480   6.338   1.440   6.989
10861SOL     OW33481   2.912   2.685   1.730
10861SOL    HW133482   3.005   2.703   1.698
10861SOL    HW233483   2.907   2.594   1.770
10862SOL     OW33484   3.407   2.271   5.853
10862SOL    HW133485   3.346   2.315   5.917
10862SOL    HW233486   3.355   2.236   5.775
10863SOL     OW33487   2.411   0.684   3.370
10863SOL    HW133488   2.459   0.652   3.288
10863SOL    HW233489   2.411   0.612   3.439
10864SOL     OW33490   2.242   4.336   2.057
10864SOL    HW133491   2.321   4.293   2.013
10864SOL    HW233492   2.274   4.401   2.126
10865SOL     OW33493   4.755   2.945   3.219
10865SOL    HW133494   4.788   3.038   3.235
10865SOL    HW233495   4.743   2.931   3.121
10866SOL     OW33496   6.883   3.796   1.962
10866SOL    HW133497   6.845   3.845   2.041
10866SOL    HW233498   6.948   3.855   1.915
10867SOL     OW33499   3.314   2.318   0.407
10867SOL    HW133500   3.407   2.283   0.400
10867SOL    HW233501   3.299   2.387   0.336
10868SOL     OW33502   0.890   2.442   3.820
10868SOL    HW133503   0.829   2.362   3.815
10868SOL    HW233504   0.909   2.475   3.728
10869NA      NA33505   0.185   1.975   5.914
10870NA      NA33506   4.464   4.594   5.179
10871NA      NA33507   1.591   5.359   2.674
10872NA      NA33508   5.212   4.376   3.339
10873NA      NA33509   4.362   2.415   5.215
10874NA      NA33510   2.526   5.227   1.092
10875NA      NA33511   1.242   5.398   0.459
10876NA      NA33512   3.369   3.973   1.260
10877NA      NA33513   4.359   4.769   0.964
10878NA      NA33514   3.410   0.932   6.474
10879NA      NA33515   5.748   5.810   1.822
10880NA      NA33516   1.215   6.747   5.254
10881NA      NA33517   4.501   5.131   1.913
10882NA      NA33518   3.048   3.218   6.974
   7.02326   7.02326   7.02326
