Generated by trjconv : CNT in water t=   0.00000
33518
    1C        C    1   2.844   2.770   4.753
    1C        C    2   2.901   2.721   4.873
    1C        C    3   2.845   2.776   4.989
    1C        C    4   2.852   2.775   4.264
    1C        C    5   2.903   2.729   4.388
    1C        C    6   2.848   2.773   4.511
    1C        C    7   3.014   2.640   4.630
    1C        C    8   2.897   2.720   4.632
    1C        C    9   3.079   2.604   4.750
    1C        C   10   3.011   2.634   4.871
    1C        C   11   3.184   2.492   4.981
    1C        C   12   3.063   2.563   4.980
    1C        C   13   2.850   2.772   3.776
    1C        C   14   2.901   2.722   3.898
    1C        C   15   2.851   2.775   4.019
    1C        C   16   3.020   2.646   4.143
    1C        C   17   2.904   2.728   4.141
    1C        C   18   3.084   2.615   4.266
    1C        C   19   3.020   2.650   4.387
    1C        C   20   3.210   2.556   4.509
    1C        C   21   3.078   2.607   4.509
    1C        C   22   3.280   2.537   4.631
    1C        C   23   3.210   2.548   4.753
    1C        C   24   3.417   2.482   4.869
    1C        C   25   3.275   2.501   4.870
    1C        C   26   3.492   2.479   4.988
    1C        C   27   2.852   2.770   3.282
    1C        C   28   2.906   2.727   3.405
    1C        C   29   2.857   2.774   3.530
    1C        C   30   3.020   2.642   3.652
    1C        C   31   2.906   2.726   3.654
    1C        C   32   3.079   2.605   3.776
    1C        C   33   3.017   2.639   3.898
    1C        C   34   3.209   2.552   4.021
    1C        C   35   3.079   2.606   4.021
    1C        C   36   3.279   2.534   4.143
    1C        C   37   3.213   2.559   4.266
    1C        C   38   3.419   2.508   4.386
    1C        C   39   3.281   2.536   4.388
    1C        C   40   3.489   2.503   4.509
    1C        C   41   3.418   2.504   4.631
    1C        C   42   3.634   2.481   4.750
    1C        C   43   3.492   2.482   4.749
    1C        C   44   3.710   2.484   4.870
    1C        C   45   3.631   2.481   4.985
    1C        C   46   2.840   2.754   2.795
    1C        C   47   2.896   2.712   2.918
    1C        C   48   2.845   2.765   3.039
    1C        C   49   3.019   2.639   3.165
    1C        C   50   2.903   2.720   3.160
    1C        C   51   3.083   2.605   3.287
    1C        C   52   3.019   2.641   3.408
    1C        C   53   3.211   2.547   3.532
    1C        C   54   3.081   2.605   3.530
    1C        C   55   3.279   2.527   3.654
    1C        C   56   3.210   2.549   3.775
    1C        C   57   3.417   2.507   3.900
    1C        C   58   3.277   2.531   3.898
    1C        C   59   3.490   2.502   4.021
    1C        C   60   3.418   2.506   4.143
    1C        C   61   3.632   2.499   4.265
    1C        C   62   3.490   2.498   4.264
    1C        C   63   3.704   2.506   4.386
    1C        C   64   3.631   2.502   4.507
    1C        C   65   3.838   2.544   4.627
    1C        C   66   3.703   2.503   4.629
    1C        C   67   3.909   2.564   4.748
    1C        C   68   3.845   2.527   4.868
    1C        C   69   4.055   2.586   4.984
    1C        C   70   3.926   2.533   4.982
    1C        C   71   2.825   2.736   2.308
    1C        C   72   2.884   2.693   2.429
    1C        C   73   2.833   2.747   2.550
    1C        C   74   3.008   2.626   2.673
    1C        C   75   2.890   2.704   2.672
    1C        C   76   3.074   2.596   2.795
    1C        C   77   3.014   2.633   2.918
    1C        C   78   3.207   2.547   3.037
    1C        C   79   3.077   2.603   3.041
    1C        C   80   3.276   2.529   3.160
    1C        C   81   3.213   2.548   3.285
    1C        C   82   3.417   2.498   3.403
    1C        C   83   3.278   2.524   3.409
    1C        C   84   3.485   2.495   3.527
    1C        C   85   3.419   2.503   3.652
    1C        C   86   3.627   2.500   3.771
    1C        C   87   3.486   2.498   3.777
    1C        C   88   3.697   2.510   3.893
    1C        C   89   3.632   2.505   4.019
    1C        C   90   3.838   2.549   4.140
    1C        C   91   3.701   2.512   4.142
    1C        C   92   3.906   2.574   4.262
    1C        C   93   3.840   2.545   4.384
    1C        C   94   4.032   2.636   4.504
    1C        C   95   3.907   2.569   4.507
    1C        C   96   4.096   2.672   4.625
    1C        C   97   4.036   2.628   4.745
    1C        C   98   4.195   2.765   4.868
    1C        C   99   4.102   2.656   4.868
    1C        C  100   4.216   2.844   4.981
    1C        C  101   2.823   2.731   2.068
    1C        C  102   2.990   2.593   2.193
    1C        C  103   2.877   2.681   2.187
    1C        C  104   3.065   2.573   2.312
    1C        C  105   3.003   2.616   2.432
    1C        C  106   3.203   2.535   2.551
    1C        C  107   3.072   2.589   2.552
    1C        C  108   3.273   2.520   2.673
    1C        C  109   3.204   2.539   2.795
    1C        C  110   3.414   2.496   2.916
    1C        C  111   3.274   2.520   2.916
    1C        C  112   3.486   2.492   3.038
    1C        C  113   3.415   2.502   3.160
    1C        C  114   3.630   2.499   3.281
    1C        C  115   3.488   2.493   3.281
    1C        C  116   3.696   2.510   3.406
    1C        C  117   3.627   2.500   3.529
    1C        C  118   3.837   2.544   3.650
    1C        C  119   3.700   2.510   3.649
    1C        C  120   3.900   2.572   3.774
    1C        C  121   3.834   2.547   3.896
    1C        C  122   4.028   2.640   4.016
    1C        C  123   3.903   2.574   4.017
    1C        C  124   4.090   2.676   4.138
    1C        C  125   4.032   2.638   4.261
    1C        C  126   4.202   2.768   4.382
    1C        C  127   4.093   2.677   4.383
    1C        C  128   4.248   2.823   4.504
    1C        C  129   4.200   2.768   4.625
    1C        C  130   4.329   2.937   4.746
    1C        C  131   4.246   2.821   4.747
    1C        C  132   4.360   3.005   4.866
    1C        C  133   4.286   2.964   4.977
    1C        C  134   3.173   2.469   2.081
    1C        C  135   3.040   2.511   2.087
    1C        C  136   3.262   2.480   2.189
    1C        C  137   3.196   2.518   2.308
    1C        C  138   3.407   2.481   2.428
    1C        C  139   3.268   2.502   2.429
    1C        C  140   3.483   2.482   2.547
    1C        C  141   3.412   2.494   2.669
    1C        C  142   3.623   2.494   2.791
    1C        C  143   3.482   2.490   2.792
    1C        C  144   3.697   2.505   2.912
    1C        C  145   3.627   2.495   3.035
    1C        C  146   3.835   2.538   3.158
    1C        C  147   3.698   2.502   3.157
    1C        C  148   3.902   2.565   3.279
    1C        C  149   3.834   2.543   3.402
    1C        C  150   4.028   2.628   3.526
    1C        C  151   3.900   2.566   3.525
    1C        C  152   4.086   2.670   3.648
    1C        C  153   4.026   2.638   3.772
    1C        C  154   4.197   2.767   3.891
    1C        C  155   4.085   2.681   3.893
    1C        C  156   4.249   2.815   4.014
    1C        C  157   4.201   2.764   4.137
    1C        C  158   4.344   2.923   4.257
    1C        C  159   4.254   2.814   4.259
    1C        C  160   4.380   2.986   4.378
    1C        C  161   4.335   2.934   4.502
    1C        C  162   4.443   3.117   4.620
    1C        C  163   4.373   2.995   4.624
    1C        C  164   4.473   3.185   4.740
    1C        C  165   4.437   3.123   4.862
    1C        C  166   4.517   3.324   4.979
    1C        C  167   4.482   3.189   4.977
    1C        C  168   3.479   2.438   2.072
    1C        C  169   3.402   2.457   2.187
    1C        C  170   3.620   2.463   2.307
    1C        C  171   3.477   2.462   2.307
    1C        C  172   3.695   2.487   2.424
    1C        C  173   3.625   2.486   2.547
    1C        C  174   3.830   2.541   2.666
    1C        C  175   3.694   2.503   2.669
    1C        C  176   3.898   2.562   2.789
    1C        C  177   3.834   2.539   2.913
    1C        C  178   4.029   2.625   3.033
    1C        C  179   3.902   2.563   3.035
    1C        C  180   4.090   2.665   3.155
    1C        C  181   4.029   2.629   3.278
    1C        C  182   4.198   2.751   3.403
    1C        C  183   4.087   2.663   3.402
    1C        C  184   4.250   2.807   3.522
    1C        C  185   4.198   2.757   3.644
    1C        C  186   4.341   2.916   3.768
    1C        C  187   4.249   2.809   3.765
    1C        C  188   4.382   2.979   3.888
    1C        C  189   4.340   2.923   4.012
    1C        C  190   4.451   3.105   4.132
    1C        C  191   4.382   2.981   4.133
    1C        C  192   4.475   3.173   4.254
    1C        C  193   4.446   3.111   4.378
    1C        C  194   4.512   3.318   4.497
    1C        C  195   4.471   3.183   4.497
    1C        C  196   4.529   3.389   4.618
    1C        C  197   4.515   3.321   4.741
    1C        C  198   4.562   3.536   4.856
    1C        C  199   4.536   3.395   4.860
    1C        C  200   4.586   3.622   4.968
    1C        C  201   3.618   2.418   2.074
    1C        C  202   3.829   2.513   2.181
    1C        C  203   3.695   2.461   2.187
    1C        C  204   3.902   2.538   2.301
    1C        C  205   3.834   2.517   2.422
    1C        C  206   4.023   2.619   2.542
    1C        C  207   3.898   2.554   2.543
    1C        C  208   4.084   2.658   2.664
    1C        C  209   4.024   2.626   2.789
    1C        C  210   4.200   2.749   2.907
    1C        C  211   4.087   2.664   2.910
    1C        C  212   4.252   2.798   3.029
    1C        C  213   4.203   2.751   3.153
    1C        C  214   4.336   2.909   3.273
    1C        C  215   4.248   2.798   3.279
    1C        C  216   4.374   2.972   3.394
    1C        C  217   4.338   2.918   3.520
    1C        C  218   4.439   3.101   3.641
    1C        C  219   4.378   2.973   3.644
    1C        C  220   4.467   3.171   3.761
    1C        C  221   4.446   3.105   3.885
    1C        C  222   4.507   3.307   4.009
    1C        C  223   4.475   3.169   4.008
    1C        C  224   4.520   3.382   4.128
    1C        C  225   4.511   3.310   4.250
    1C        C  226   4.524   3.524   4.372
    1C        C  227   4.520   3.383   4.371
    1C        C  228   4.524   3.600   4.492
    1C        C  229   4.535   3.530   4.615
    1C        C  230   4.508   3.744   4.732
    1C        C  231   4.544   3.607   4.733
    1C        C  232   4.501   3.823   4.850
    1C        C  233   4.549   3.757   4.963
    1C        C  234   4.021   2.613   2.062
    1C        C  235   3.900   2.545   2.065
    1C        C  236   4.089   2.649   2.179
    1C        C  237   4.027   2.607   2.299
    1C        C  238   4.203   2.733   2.421
    1C        C  239   4.087   2.650   2.420
    1C        C  240   4.256   2.783   2.542
    1C        C  241   4.198   2.742   2.665
    1C        C  242   4.340   2.906   2.784
    1C        C  243   4.252   2.795   2.784
    1C        C  244   4.381   2.962   2.907
    1C        C  245   4.342   2.908   3.032
    1C        C  246   4.444   3.097   3.150
    1C        C  247   4.382   2.969   3.153
    1C        C  248   4.462   3.162   3.275
    1C        C  249   4.436   3.099   3.399
    1C        C  250   4.501   3.305   3.515
    1C        C  251   4.463   3.169   3.519
    1C        C  252   4.513   3.374   3.639
    1C        C  253   4.504   3.307   3.764
    1C        C  254   4.528   3.518   3.880
    1C        C  255   4.520   3.377   3.886
    1C        C  256   4.522   3.590   4.001
    1C        C  257   4.524   3.523   4.126
    1C        C  258   4.496   3.733   4.245
    1C        C  259   4.520   3.594   4.249
    1C        C  260   4.475   3.805   4.366
    1C        C  261   4.492   3.738   4.489
    1C        C  262   4.430   3.942   4.608
    1C        C  263   4.479   3.809   4.610
    1C        C  264   4.404   4.013   4.727
    1C        C  265   4.438   3.949   4.849
    1C        C  266   4.322   4.134   4.963
    1C        C  267   4.396   4.017   4.964
    1C        C  268   4.266   2.777   2.062
    1C        C  269   4.202   2.734   2.179
    1C        C  270   4.349   2.889   2.300
    1C        C  271   4.258   2.780   2.300
    1C        C  272   4.387   2.954   2.419
    1C        C  273   4.346   2.892   2.540
    1C        C  274   4.450   3.083   2.661
    1C        C  275   4.381   2.959   2.659
    1C        C  276   4.477   3.153   2.781
    1C        C  277   4.449   3.086   2.902
    1C        C  278   4.508   3.292   3.027
    1C        C  279   4.473   3.155   3.024
    1C        C  280   4.516   3.366   3.147
    1C        C  281   4.501   3.298   3.270
    1C        C  282   4.520   3.513   3.392
    1C        C  283   4.513   3.371   3.391
    1C        C  284   4.519   3.584   3.514
    1C        C  285   4.520   3.515   3.638
    1C        C  286   4.495   3.730   3.756
    1C        C  287   4.521   3.591   3.758
    1C        C  288   4.478   3.795   3.880
    1C        C  289   4.496   3.729   4.004
    1C        C  290   4.431   3.936   4.119
    1C        C  291   4.480   3.803   4.123
    1C        C  292   4.401   4.001   4.241
    1C        C  293   4.430   3.939   4.365
    1C        C  294   4.331   4.130   4.483
    1C        C  295   4.399   4.006   4.486
    1C        C  296   4.289   4.191   4.604
    1C        C  297   4.331   4.135   4.727
    1C        C  298   4.203   4.318   4.843
    1C        C  299   4.286   4.201   4.845
    1C        C  300   4.173   4.406   4.952
    1C        C  301   4.354   2.885   2.063
    1C        C  302   4.476   3.068   2.177
    1C        C  303   4.401   2.946   2.180
    1C        C  304   4.487   3.145   2.297
    1C        C  305   4.454   3.079   2.417
    1C        C  306   4.514   3.284   2.536
    1C        C  307   4.481   3.147   2.539
    1C        C  308   4.520   3.358   2.657
    1C        C  309   4.507   3.292   2.781
    1C        C  310   4.529   3.502   2.900
    1C        C  311   4.522   3.360   2.904
    1C        C  312   4.522   3.575   3.021
    1C        C  313   4.521   3.508   3.146
    1C        C  314   4.490   3.719   3.267
    1C        C  315   4.516   3.580   3.267
    1C        C  316   4.476   3.791   3.388
    1C        C  317   4.497   3.724   3.512
    1C        C  318   4.429   3.930   3.631
    1C        C  319   4.476   3.796   3.632
    1C        C  320   4.397   3.991   3.754
    1C        C  321   4.428   3.928   3.877
    1C        C  322   4.321   4.118   3.995
    1C        C  323   4.397   3.998   3.996
    1C        C  324   4.281   4.175   4.118
    1C        C  325   4.328   4.122   4.241
    1C        C  326   4.190   4.289   4.358
    1C        C  327   4.288   4.187   4.361
    1C        C  328   4.141   4.343   4.479
    1C        C  329   4.196   4.297   4.601
    1C        C  330   4.030   4.440   4.717
    1C        C  331   4.144   4.355   4.720
    1C        C  332   3.974   4.496   4.834
    1C        C  333   4.055   4.482   4.948
    1C        C  334   4.555   3.269   2.061
    1C        C  335   4.538   3.130   2.064
    1C        C  336   4.546   3.352   2.174
    1C        C  337   4.521   3.283   2.295
    1C        C  338   4.529   3.498   2.412
    1C        C  339   4.525   3.357   2.415
    1C        C  340   4.525   3.570   2.533
    1C        C  341   4.527   3.500   2.656
    1C        C  342   4.497   3.711   2.775
    1C        C  343   4.521   3.572   2.778
    1C        C  344   4.480   3.784   2.895
    1C        C  345   4.497   3.715   3.017
    1C        C  346   4.428   3.915   3.141
    1C        C  347   4.474   3.781   3.140
    1C        C  348   4.395   3.986   3.259
    1C        C  349   4.429   3.924   3.381
    1C        C  350   4.325   4.108   3.507
    1C        C  351   4.401   3.988   3.505
    1C        C  352   4.277   4.170   3.625
    1C        C  353   4.323   4.112   3.745
    1C        C  354   4.184   4.270   3.872
    1C        C  355   4.280   4.166   3.868
    1C        C  356   4.126   4.323   3.991
    1C        C  357   4.181   4.274   4.112
    1C        C  358   4.017   4.407   4.236
    1C        C  359   4.134   4.328   4.235
    1C        C  360   3.955   4.451   4.355
    1C        C  361   4.023   4.422   4.476
    1C        C  362   3.832   4.522   4.597
    1C        C  363   3.962   4.465   4.596
    1C        C  364   3.766   4.554   4.718
    1C        C  365   3.843   4.549   4.836
    1C        C  366   3.630   4.595   4.954
    1C        C  367   3.767   4.576   4.951
    1C        C  368   4.511   3.567   2.054
    1C        C  369   4.529   3.492   2.171
    1C        C  370   4.506   3.709   2.286
    1C        C  371   4.523   3.568   2.290
    1C        C  372   4.489   3.780   2.407
    1C        C  373   4.506   3.710   2.530
    1C        C  374   4.428   3.910   2.648
    1C        C  375   4.482   3.779   2.651
    1C        C  376   4.398   3.976   2.769
    1C        C  377   4.430   3.917   2.893
    1C        C  378   4.326   4.098   3.011
    1C        C  379   4.401   3.978   3.017
    1C        C  380   4.277   4.157   3.131
    1C        C  381   4.317   4.104   3.256
    1C        C  382   4.183   4.260   3.378
    1C        C  383   4.280   4.157   3.383
    1C        C  384   4.126   4.312   3.497
    1C        C  385   4.177   4.271   3.622
    1C        C  386   4.013   4.395   3.746
    1C        C  387   4.130   4.314   3.749
    1C        C  388   3.948   4.435   3.865
    1C        C  389   4.008   4.401   3.989
    1C        C  390   3.822   4.494   4.113
    1C        C  391   3.952   4.438   4.113
    1C        C  392   3.753   4.519   4.233
    1C        C  393   3.826   4.507   4.354
    1C        C  394   3.620   4.558   4.478
    1C        C  395   3.760   4.535   4.476
    1C        C  396   3.550   4.570   4.600
    1C        C  397   3.625   4.571   4.719
    1C        C  398   3.412   4.556   4.844
    1C        C  399   3.551   4.580   4.839
    1C        C  400   3.344   4.517   4.960
    1C        C  401   4.507   3.706   2.051
    1C        C  402   4.460   3.920   2.166
    1C        C  403   4.496   3.784   2.167
    1C        C  404   4.418   3.982   2.287
    1C        C  405   4.442   3.913   2.408
    1C        C  406   4.331   4.100   2.524
    1C        C  407   4.405   3.979   2.527
    1C        C  408   4.283   4.152   2.646
    1C        C  409   4.321   4.095   2.770
    1C        C  410   4.178   4.255   2.888
    1C        C  411   4.278   4.156   2.891
    1C        C  412   4.129   4.301   3.013
    1C        C  413   4.179   4.258   3.138
    1C        C  414   4.004   4.384   3.253
    1C        C  415   4.123   4.308   3.259
    1C        C  416   3.947   4.417   3.378
    1C        C  417   4.007   4.389   3.503
    1C        C  418   3.815   4.481   3.620
    1C        C  419   3.946   4.426   3.625
    1C        C  420   3.750   4.507   3.744
    1C        C  421   3.817   4.488   3.867
    1C        C  422   3.613   4.539   3.990
    1C        C  423   3.752   4.513   3.991
    1C        C  424   3.543   4.544   4.113
    1C        C  425   3.614   4.544   4.235
    1C        C  426   3.404   4.553   4.362
    1C        C  427   3.545   4.558   4.358
    1C        C  428   3.334   4.551   4.484
    1C        C  429   3.408   4.562   4.604
    1C        C  430   3.196   4.524   4.728
    1C        C  431   3.336   4.550   4.725
    1C        C  432   3.126   4.500   4.850
    1C        C  433   3.206   4.496   4.965
    1C        C  434   4.390   4.126   2.051
    1C        C  435   4.450   4.000   2.051
    1C        C  436   4.307   4.166   2.162
    1C        C  437   4.340   4.101   2.284
    1C        C  438   4.185   4.255   2.401
    1C        C  439   4.286   4.157   2.402
    1C        C  440   4.130   4.301   2.523
    1C        C  441   4.184   4.253   2.645
    1C        C  442   4.008   4.381   2.766
    1C        C  443   4.125   4.300   2.764
    1C        C  444   3.947   4.416   2.889
    1C        C  445   4.011   4.379   3.010
    1C        C  446   3.814   4.474   3.131
    1C        C  447   3.943   4.417   3.129
    1C        C  448   3.752   4.497   3.256
    1C        C  449   3.818   4.476   3.379
    1C        C  450   3.608   4.532   3.496
    1C        C  451   3.747   4.504   3.499
    1C        C  452   3.545   4.543   3.622
    1C        C  453   3.613   4.540   3.747
    1C        C  454   3.399   4.549   3.866
    1C        C  455   3.541   4.550   3.869
    1C        C  456   3.334   4.538   3.991
    1C        C  457   3.402   4.543   4.115
    1C        C  458   3.196   4.507   4.241
    1C        C  459   3.334   4.538   4.239
    1C        C  460   3.128   4.489   4.364
    1C        C  461   3.196   4.518   4.484
    1C        C  462   2.999   4.441   4.608
    1C        C  463   3.128   4.498   4.607
    1C        C  464   2.932   4.406   4.728
    1C        C  465   2.992   4.451   4.849
    1C        C  466   2.803   4.340   4.965
    1C        C  467   2.910   4.431   4.965
    1C        C  468   4.126   4.289   2.042
    1C        C  469   4.192   4.250   2.160
    1C        C  470   4.011   4.376   2.280
    1C        C  471   4.131   4.300   2.279
    1C        C  472   3.943   4.406   2.400
    1C        C  473   4.011   4.377   2.521
    1C        C  474   3.817   4.468   2.645
    1C        C  475   3.946   4.412   2.643
    1C        C  476   3.747   4.496   2.765
    1C        C  477   3.818   4.473   2.886
    1C        C  478   3.609   4.523   3.013
    1C        C  479   3.748   4.495   3.007
    1C        C  480   3.537   4.533   3.134
    1C        C  481   3.613   4.525   3.253
    1C        C  482   3.396   4.537   3.382
    1C        C  483   3.538   4.537   3.373
    1C        C  484   3.327   4.534   3.506
    1C        C  485   3.404   4.547   3.624
    1C        C  486   3.191   4.506   3.749
    1C        C  487   3.328   4.540   3.744
    1C        C  488   3.129   4.482   3.874
    1C        C  489   3.196   4.504   3.997
    1C        C  490   3.003   4.418   4.118
    1C        C  491   3.128   4.485   4.119
    1C        C  492   2.945   4.387   4.244
    1C        C  493   3.000   4.430   4.367
    1C        C  494   2.828   4.306   4.488
    1C        C  495   2.937   4.396   4.489
    1C        C  496   2.775   4.259   4.610
    1C        C  497   2.820   4.318   4.731
    1C        C  498   2.666   4.169   4.849
    1C        C  499   2.753   4.280   4.849
    1C        C  500   2.598   4.122   4.962
    1C        C  501   4.005   4.358   2.042
    1C        C  502   3.818   4.467   2.155
    1C        C  503   3.945   4.407   2.159
    1C        C  504   3.747   4.486   2.276
    1C        C  505   3.812   4.458   2.399
    1C        C  506   3.610   4.513   2.520
    1C        C  507   3.748   4.484   2.522
    1C        C  508   3.537   4.521   2.641
    1C        C  509   3.608   4.519   2.764
    1C        C  510   3.400   4.531   2.887
    1C        C  511   3.542   4.527   2.889
    1C        C  512   3.324   4.527   3.006
    1C        C  513   3.395   4.535   3.129
    1C        C  514   3.195   4.500   3.258
    1C        C  515   3.333   4.531   3.256
    1C        C  516   3.123   4.472   3.377
    1C        C  517   3.190   4.501   3.499
    1C        C  518   3.001   4.417   3.629
    1C        C  519   3.127   4.482   3.624
    1C        C  520   2.943   4.377   3.752
    1C        C  521   3.004   4.415   3.873
    1C        C  522   2.836   4.286   4.002
    1C        C  523   2.946   4.375   3.996
    1C        C  524   2.789   4.238   4.127
    1C        C  525   2.836   4.297   4.247
    1C        C  526   2.695   4.135   4.370
    1C        C  527   2.779   4.249   4.368
    1C        C  528   2.654   4.078   4.492
    1C        C  529   2.689   4.147   4.611
    1C        C  530   2.585   3.963   4.737
    1C        C  531   2.639   4.095   4.732
    1C        C  532   2.541   3.904   4.858
    1C        C  533   2.529   4.000   4.964
    1C        C  534   3.620   4.560   2.038
    1C        C  535   3.752   4.514   2.040
    1C        C  536   3.538   4.540   2.154
    1C        C  537   3.608   4.514   2.276
    1C        C  538   3.396   4.521   2.400
    1C        C  539   3.538   4.521   2.398
    1C        C  540   3.325   4.515   2.523
    1C        C  541   3.395   4.520   2.645
    1C        C  542   3.186   4.489   2.765
    1C        C  543   3.325   4.519   2.768
    1C        C  544   3.123   4.470   2.890
    1C        C  545   3.187   4.490   3.015
    1C        C  546   2.997   4.406   3.136
    1C        C  547   3.122   4.472   3.139
    1C        C  548   2.941   4.369   3.260
    1C        C  549   2.997   4.409   3.384
    1C        C  550   2.831   4.284   3.509
    1C        C  551   2.939   4.375   3.509
    1C        C  552   2.779   4.235   3.631
    1C        C  553   2.832   4.288   3.751
    1C        C  554   2.704   4.126   3.879
    1C        C  555   2.790   4.239   3.877
    1C        C  556   2.661   4.065   4.000
    1C        C  557   2.700   4.129   4.120
    1C        C  558   2.601   3.948   4.250
    1C        C  559   2.663   4.075   4.246
    1C        C  560   2.570   3.882   4.372
    1C        C  561   2.591   3.951   4.493
    1C        C  562   2.531   3.752   4.621
    1C        C  563   2.565   3.889   4.618
    1C        C  564   2.516   3.684   4.744
    1C        C  565   2.520   3.762   4.862
    1C        C  566   2.533   3.550   4.982
    1C        C  567   2.525   3.688   4.981
    1C        C  568   3.331   4.479   2.041
    1C        C  569   3.398   4.516   2.158
    1C        C  570   3.186   4.480   2.281
    1C        C  571   3.324   4.515   2.279
    1C        C  572   3.117   4.461   2.404
    1C        C  573   3.186   4.488   2.524
    1C        C  574   2.987   4.408   2.649
    1C        C  575   3.115   4.469   2.644
    1C        C  576   2.931   4.366   2.772
    1C        C  577   2.998   4.404   2.891
    1C        C  578   2.827   4.278   3.018
    1C        C  579   2.937   4.367   3.013
    1C        C  580   2.778   4.225   3.140
    1C        C  581   2.832   4.279   3.260
    1C        C  582   2.700   4.119   3.385
    1C        C  583   2.786   4.231   3.385
    1C        C  584   2.663   4.061   3.509
    1C        C  585   2.696   4.120   3.633
    1C        C  586   2.597   3.939   3.756
    1C        C  587   2.662   4.065   3.759
    1C        C  588   2.574   3.877   3.881
    1C        C  589   2.601   3.937   4.006
    1C        C  590   2.537   3.739   4.131
    1C        C  591   2.575   3.876   4.131
    1C        C  592   2.525   3.675   4.256
    1C        C  593   2.532   3.746   4.379
    1C        C  594   2.511   3.536   4.502
    1C        C  595   2.520   3.677   4.501
    1C        C  596   2.517   3.466   4.625
    1C        C  597   2.516   3.541   4.745
    1C        C  598   2.533   3.329   4.867
    1C        C  599   2.528   3.470   4.867
    1C        C  600   2.535   3.250   4.983
    1C        C  601   3.198   4.441   2.045
    1C        C  602   2.985   4.396   2.159
    1C        C  603   3.120   4.444   2.161
    1C        C  604   2.926   4.363   2.284
    1C        C  605   2.989   4.401   2.404
    1C        C  606   2.821   4.275   2.527
    1C        C  607   2.928   4.367   2.527
    1C        C  608   2.772   4.225   2.651
    1C        C  609   2.822   4.276   2.773
    1C        C  610   2.687   4.115   2.894
    1C        C  611   2.775   4.226   2.897
    1C        C  612   2.653   4.058   3.019
    1C        C  613   2.691   4.114   3.144
    1C        C  614   2.590   3.928   3.266
    1C        C  615   2.653   4.055   3.267
    1C        C  616   2.569   3.870   3.393
    1C        C  617   2.599   3.934   3.516
    1C        C  618   2.531   3.731   3.641
    1C        C  619   2.570   3.867   3.637
    1C        C  620   2.518   3.665   3.766
    1C        C  621   2.532   3.742   3.885
    1C        C  622   2.510   3.530   4.015
    1C        C  623   2.524   3.671   4.008
    1C        C  624   2.514   3.458   4.137
    1C        C  625   2.514   3.534   4.256
    1C        C  626   2.537   3.326   4.385
    1C        C  627   2.514   3.465   4.380
    1C        C  628   2.558   3.254   4.506
    1C        C  629   2.538   3.326   4.626
    1C        C  630   2.594   3.121   4.748
    1C        C  631   2.549   3.256   4.748
    1C        C  632   2.618   3.052   4.871
    1C        C  633   2.565   3.113   4.988
    1C        C  634   2.782   4.308   2.054
    1C        C  635   2.893   4.394   2.049
    1C        C  636   2.748   4.234   2.168
    1C        C  637   2.810   4.280   2.286
    1C        C  638   2.676   4.114   2.410
    1C        C  639   2.764   4.225   2.408
    1C        C  640   2.640   4.054   2.533
    1C        C  641   2.686   4.113   2.653
    1C        C  642   2.585   3.924   2.778
    1C        C  643   2.647   4.052   2.774
    1C        C  644   2.562   3.859   2.902
    1C        C  645   2.591   3.931   3.020
    1C        C  646   2.528   3.727   3.151
    1C        C  647   2.567   3.863   3.142
    1C        C  648   2.514   3.658   3.274
    1C        C  649   2.531   3.734   3.393
    1C        C  650   2.511   3.524   3.520
    1C        C  651   2.519   3.665   3.516
    1C        C  652   2.516   3.456   3.644
    1C        C  653   2.512   3.524   3.769
    1C        C  654   2.535   3.318   3.891
    1C        C  655   2.510   3.457   3.894
    1C        C  656   2.553   3.253   4.015
    1C        C  657   2.537   3.318   4.140
    1C        C  658   2.607   3.122   4.261
    1C        C  659   2.554   3.253   4.265
    1C        C  660   2.637   3.059   4.384
    1C        C  661   2.602   3.120   4.507
    1C        C  662   2.712   2.939   4.630
    1C        C  663   2.630   3.054   4.629
    1C        C  664   2.753   2.880   4.752
    1C        C  665   2.697   2.932   4.871
    1C        C  666   2.744   2.872   4.989
    1C        C  667   2.684   4.025   2.055
    1C        C  668   2.684   4.108   2.168
    1C        C  669   2.590   3.917   2.291
    1C        C  670   2.645   4.048   2.289
    1C        C  671   2.559   3.851   2.413
    1C        C  672   2.584   3.924   2.532
    1C        C  673   2.519   3.723   2.659
    1C        C  674   2.559   3.859   2.655
    1C        C  675   2.509   3.652   2.781
    1C        C  676   2.527   3.722   2.902
    1C        C  677   2.506   3.517   3.032
    1C        C  678   2.518   3.658   3.028
    1C        C  679   2.507   3.445   3.154
    1C        C  680   2.506   3.517   3.276
    1C        C  681   2.531   3.309   3.405
    1C        C  682   2.509   3.449   3.400
    1C        C  683   2.554   3.242   3.528
    1C        C  684   2.535   3.315   3.648
    1C        C  685   2.604   3.114   3.777
    1C        C  686   2.552   3.246   3.770
    1C        C  687   2.639   3.053   3.899
    1C        C  688   2.603   3.121   4.019
    1C        C  689   2.715   2.936   4.144
    1C        C  690   2.637   3.055   4.139
    1C        C  691   2.758   2.880   4.267
    1C        C  692   2.713   2.939   4.387
    1C        C  693   2.755   2.880   4.509
    1C        C  694   2.631   3.895   2.056
    1C        C  695   2.528   3.707   2.176
    1C        C  696   2.580   3.838   2.174
    1C        C  697   2.507   3.640   2.299
    1C        C  698   2.522   3.715   2.418
    1C        C  699   2.488   3.507   2.542
    1C        C  700   2.502   3.648   2.541
    1C        C  701   2.503   3.440   2.666
    1C        C  702   2.501   3.511   2.788
    1C        C  703   2.527   3.302   2.911
    1C        C  704   2.506   3.442   2.912
    1C        C  705   2.546   3.235   3.035
    1C        C  706   2.533   3.305   3.157
    1C        C  707   2.598   3.108   3.279
    1C        C  708   2.550   3.241   3.282
    1C        C  709   2.633   3.048   3.402
    1C        C  710   2.607   3.111   3.526
    1C        C  711   2.712   2.934   3.650
    1C        C  712   2.634   3.053   3.653
    1C        C  713   2.759   2.880   3.772
    1C        C  714   2.718   2.935   3.896
    1C        C  715   2.757   2.881   4.021
    1C        C  716   2.453   3.502   2.063
    1C        C  717   2.495   3.636   2.060
    1C        C  718   2.464   3.425   2.183
    1C        C  719   2.482   3.500   2.302
    1C        C  720   2.515   3.291   2.424
    1C        C  721   2.485   3.429   2.424
    1C        C  722   2.537   3.225   2.548
    1C        C  723   2.525   3.300   2.667
    1C        C  724   2.594   3.099   2.791
    1C        C  725   2.542   3.231   2.790
    1C        C  726   2.624   3.038   2.915
    1C        C  727   2.595   3.102   3.037
    1C        C  728   2.710   2.922   3.161
    1C        C  729   2.630   3.039   3.159
    1C        C  730   2.755   2.874   3.286
    1C        C  731   2.713   2.931   3.408
    1C        C  732   2.757   2.874   3.530
    1C        C  733   2.490   3.200   2.071
    1C        C  734   2.486   3.283   2.184
    1C        C  735   2.585   3.088   2.304
    1C        C  736   2.525   3.217   2.304
    1C        C  737   2.614   3.023   2.426
    1C        C  738   2.590   3.094   2.546
    1C        C  739   2.699   2.914   2.670
    1C        C  740   2.623   3.034   2.669
    1C        C  741   2.743   2.857   2.791
    1C        C  742   2.702   2.919   2.912
    1C        C  743   2.749   2.869   3.036
    1C        C  744   2.546   3.073   2.073
    1C        C  745   2.686   2.898   2.185
    1C        C  746   2.613   3.019   2.184
    1C        C  747   2.730   2.841   2.307
    1C        C  748   2.687   2.902   2.427
    1C        C  749   2.738   2.851   2.549
    1C        C  750   2.739   2.842   2.069
    1C        C  751   3.670   2.311   1.987
    1C        O  752   3.649   2.187   1.998
    1C        O  753   3.707   2.341   1.855
    1C        C  754   4.611   3.048   1.965
    1C        O  755   4.606   3.082   1.844
    1C        O  756   4.730   2.983   2.002
    1C        C  757   4.465   4.227   1.973
    1C        O  758   4.558   4.294   2.025
    1C        O  759   4.412   4.276   1.853
    1C        C  760   3.595   4.662   1.934
    1C        O  761   3.535   4.770   1.958
    1C        O  762   3.642   4.656   1.802
    1C        C  763   2.882   4.509   1.957
    1C        O  764   2.914   4.481   1.838
    1C        O  765   2.875   4.643   1.998
    1C        C  766   2.345   3.478   1.965
    1C        O  767   2.383   3.434   1.853
    1C        O  768   2.219   3.424   1.996
    1C        C  769   4.687   3.583   5.069
    1C        O  770   4.653   3.572   5.190
    1C        O  771   4.822   3.616   5.061
    1C        C  772   4.271   4.452   5.053
    1C        O  773   4.256   4.404   5.169
    1C        O  774   4.335   4.577   5.054
    1C        C  775   4.147   2.520   5.080
    1C        O  776   4.202   2.408   5.065
    1C        O  777   4.123   2.535   5.218
    1C        C  778   2.880   4.533   5.068
    1C        O  779   2.826   4.640   5.030
    1C        O  780   2.868   4.510   5.206
    1C        C  781   2.470   3.033   5.069
    1C        O  782   2.363   2.996   5.015
    1C        O  783   2.474   3.024   5.208
    1C        C  784   2.415   4.006   5.058
    1C        O  785   2.303   4.056   5.028
    1C        O  786   2.437   3.995   5.196
    1C        C  787   2.949   2.429   2.004
    1C        O  788   2.943   2.434   1.878
    1C        O  789   2.909   2.302   2.044
    1C        C  790   3.183   2.367   5.060
    1C        O  791   3.209   2.259   4.999
    1C        O  792   3.158   2.349   5.196
    1C        H  793   4.241   3.048   5.028
    1C        H  794   4.169   2.817   5.074
    1C        H  795   4.525   3.127   5.053
    1C        H  796   4.536   3.365   5.076
    1C        H  797   4.534   3.802   5.059
    1C        H  798   4.420   3.982   5.063
    1C        H  799   4.248   4.147   5.040
    1C        H  800   4.047   4.560   5.021
    1C        H  801   3.821   4.602   5.040
    1C        H  802   3.584   4.572   5.049
    1C        H  803   3.399   4.487   5.047
    1C        H  804   3.168   4.460   5.058
    1C        H  805   3.901   2.463   5.059
    1C        H  806   3.678   2.488   5.081
    1C        H  807   3.025   2.585   5.078
    1C        H  808   3.446   2.441   5.077
    1C        H  809   2.919   2.796   5.063
    1C        H  810   2.723   2.921   5.082
    1C        H  811   2.495   3.291   5.073
    1C        H  812   2.529   3.505   5.080
    1C        H  813   2.491   3.736   5.071
    1C        H  814   2.642   4.148   5.056
    1C        H  815   2.767   4.311   5.062
    1C        H  816   2.696   2.871   1.975
    1C        H  817   2.863   2.700   1.973
    1C        H  818   3.204   2.410   1.997
    1C        H  819   3.427   2.434   1.979
    1C        H  820   3.854   2.520   1.971
    1C        H  821   4.053   2.650   1.966
    1C        H  822   4.285   2.704   1.987
    1C        H  823   4.342   2.952   1.981
    1C        H  824   4.604   3.313   1.977
    1C        H  825   4.495   3.513   1.963
    1C        H  826   4.520   3.745   1.952
    1C        H  827   3.779   4.466   1.948
    1C        H  828   3.986   4.413   1.952
    1C        H  829   4.157   4.249   1.948
    1C        H  830   4.537   3.994   1.989
    1C        H  831   2.586   3.870   1.962
    1C        H  832   2.698   4.071   1.960
    1C        H  833   2.738   4.280   1.961
    1C        H  834   3.355   4.538   1.955
    1C        H  835   3.154   4.394   1.959
    1C        H  836   2.523   3.015   1.986
    1C        H  837   2.423   3.226   1.993
    1C        H  838   2.508   3.679   1.963
    2V3OU   H29  839   2.803   3.549   0.625
    2V3OU   C27  840   2.787   3.505   0.726
    2V3OU   H27  841   2.723   3.574   0.787
    2V3OU   H28  842   2.729   3.410   0.710
    2V3OU   O11  843   2.911   3.479   0.792
    2V3OU   C15  844   2.924   3.399   0.904
    2V3OU   C13  845   3.053   3.379   0.956
    2V3OU   C14  846   3.076   3.272   1.044
    2V3OU   C16  847   2.971   3.190   1.082
    2V3OU    H6  848   2.994   3.105   1.149
    2V3OU   C12  849   3.216   3.236   1.074
    2V3OU    O2  850   3.243   3.127   1.129
    2V3OU   C10  851   3.329   3.311   1.017
    2V3OU    C8  852   3.462   3.273   1.035
    2V3OU   O10  853   3.492   3.155   1.095
    2V3OU   H26  854   3.405   3.118   1.116
    2V3OU    C6  855   3.568   3.353   0.983
    2V3OU    C5  856   3.539   3.471   0.915
    2V3OU    C4  857   3.706   3.297   0.976
    2V3OU    H4  858   3.728   3.230   1.064
    2V3OU    H5  859   3.713   3.229   0.886
    2V3OU    C2  860   3.818   3.401   0.976
    2V3OU    O6  861   3.807   3.478   1.096
    2V3OU   H21  862   3.767   3.560   1.064
    2V3OU    C3  863   3.784   3.498   0.862
    2V3OU    H2  864   3.866   3.574   0.859
    2V3OU    H3  865   3.784   3.442   0.765
    2V3OU   C25  866   3.952   3.329   0.960
    2V3OU    O7  867   4.004   3.297   0.854
    2V3OU   C26  868   4.032   3.293   1.084
    2V3OU   H22  869   4.068   3.384   1.139
    2V3OU   H23  870   4.120   3.230   1.056
    2V3OU    O8  871   3.965   3.211   1.178
    2V3OU   H24  872   3.927   3.269   1.246
    2V3OU    C1  873   3.649   3.566   0.879
    2V3OU    H1  874   3.628   3.621   0.783
    2V3OU    O3  875   3.661   3.659   0.987
    2V3OU   C19  876   3.623   3.796   0.966
    2V3OU    H9  877   3.524   3.804   0.912
    2V3OU    O4  878   3.718   3.849   0.876
    2V3OU   C20  879   3.847   3.877   0.932
    2V3OU   H10  880   3.897   3.777   0.944
    2V3OU   C24  881   3.613   3.858   1.106
    2V3OU   H16  882   3.544   3.794   1.167
    2V3OU   H17  883   3.568   3.959   1.089
    2V3OU   C23  884   3.753   3.877   1.163
    2V3OU   H15  885   3.793   3.772   1.184
    2V3OU    N1  886   3.739   3.957   1.284
    2V3OU   H19  887   3.810   3.928   1.348
    2V3OU   H20  888   3.652   3.937   1.327
    2V3OU   C21  889   3.849   3.951   1.065
    2V3OU   H11  890   3.954   3.930   1.103
    2V3OU    O5  891   3.833   4.092   1.070
    2V3OU   H18  892   3.782   4.106   1.152
    2V3OU   C22  893   3.916   3.953   0.819
    2V3OU   H12  894   3.862   4.050   0.806
    2V3OU   H13  895   3.909   3.894   0.724
    2V3OU   H14  896   4.025   3.961   0.842
    2V3OU   C11  897   3.163   3.472   0.926
    2V3OU    O1  898   3.136   3.590   0.895
    2V3OU    C9  899   3.304   3.427   0.939
    2V3OU    C7  900   3.404   3.506   0.884
    2V3OU    O9  901   3.388   3.621   0.809
    2V3OU   H25  902   3.292   3.631   0.794
    2V3OU   C17  903   2.820   3.314   0.948
    2V3OU    H7  904   2.719   3.345   0.922
    2V3OU   C18  905   2.840   3.211   1.039
    2V3OU    H8  906   2.756   3.151   1.075
    3SOL     OW  907   0.647   4.483   1.216
    3SOL    HW1  908   0.633   4.582   1.219
    3SOL    HW2  909   0.616   4.442   1.302
    4SOL     OW  910   6.040   2.316   2.763
    4SOL    HW1  911   6.023   2.410   2.789
    4SOL    HW2  912   6.113   2.313   2.694
    5SOL     OW  913   4.446   2.989   0.369
    5SOL    HW1  914   4.462   3.085   0.345
    5SOL    HW2  915   4.348   2.973   0.377
    6SOL     OW  916   3.519   2.495   0.675
    6SOL    HW1  917   3.466   2.472   0.593
    6SOL    HW2  918   3.473   2.459   0.756
    7SOL     OW  919   5.917   0.991   1.432
    7SOL    HW1  920   5.823   0.988   1.398
    7SOL    HW2  921   5.917   0.972   1.530
    8SOL     OW  922   3.056   2.175   2.878
    8SOL    HW1  923   3.102   2.134   2.957
    8SOL    HW2  924   2.957   2.160   2.885
    9SOL     OW  925   6.656   4.178   6.616
    9SOL    HW1  926   6.690   4.269   6.591
    9SOL    HW2  927   6.733   4.120   6.642
   10SOL     OW  928   6.672   4.224   1.822
   10SOL    HW1  929   6.668   4.292   1.749
   10SOL    HW2  930   6.719   4.142   1.788
   11SOL     OW  931   4.113   6.723   0.870
   11SOL    HW1  932   4.085   6.636   0.830
   11SOL    HW2  933   4.033   6.781   0.882
   12SOL     OW  934   5.427   6.632   2.339
   12SOL    HW1  935   5.439   6.730   2.355
   12SOL    HW2  936   5.352   6.598   2.394
   13SOL     OW  937   2.125   6.531   2.055
   13SOL    HW1  938   2.161   6.469   1.985
   13SOL    HW2  939   2.127   6.624   2.020
   14SOL     OW  940   2.752   0.409   3.050
   14SOL    HW1  941   2.713   0.500   3.034
   14SOL    HW2  942   2.787   0.405   3.144
   15SOL     OW  943   2.721   6.956   6.289
   15SOL    HW1  944   2.817   6.984   6.299
   15SOL    HW2  945   2.697   6.955   6.192
   16SOL     OW  946   6.264   1.519   0.252
   16SOL    HW1  947   6.228   1.570   0.174
   16SOL    HW2  948   6.297   1.430   0.220
   17SOL     OW  949   4.076   5.268   3.905
   17SOL    HW1  950   4.114   5.360   3.907
   17SOL    HW2  951   3.985   5.268   3.944
   18SOL     OW  952   1.075   0.228   6.809
   18SOL    HW1  953   1.012   0.150   6.805
   18SOL    HW2  954   1.027   0.311   6.779
   19SOL     OW  955   0.602   7.000   0.805
   19SOL    HW1  956   0.589   0.069   0.821
   19SOL    HW2  957   0.514   6.953   0.808
   20SOL     OW  958   3.534   0.042   4.702
   20SOL    HW1  959   3.511   0.009   4.794
   20SOL    HW2  960   3.458   0.097   4.667
   21SOL     OW  961   2.948   2.868   1.397
   21SOL    HW1  962   3.033   2.908   1.364
   21SOL    HW2  963   2.912   2.921   1.473
   22SOL     OW  964   2.079   1.265   5.373
   22SOL    HW1  965   2.094   1.315   5.458
   22SOL    HW2  966   2.105   1.169   5.386
   23SOL     OW  967   2.531   6.604   4.311
   23SOL    HW1  968   2.462   6.590   4.239
   23SOL    HW2  969   2.613   6.645   4.271
   24SOL     OW  970   4.810   1.772   4.972
   24SOL    HW1  971   4.795   1.714   5.052
   24SOL    HW2  972   4.785   1.866   4.994
   25SOL     OW  973   2.363   6.154   0.515
   25SOL    HW1  974   2.381   6.069   0.564
   25SOL    HW2  975   2.297   6.137   0.442
   26SOL     OW  976   6.042   0.968   2.945
   26SOL    HW1  977   6.000   0.969   3.036
   26SOL    HW2  978   6.087   0.880   2.930
   27SOL     OW  979   6.026   6.762   2.429
   27SOL    HW1  980   6.070   6.840   2.473
   27SOL    HW2  981   6.093   6.715   2.371
   28SOL     OW  982   2.731   1.169   0.224
   28SOL    HW1  983   2.797   1.243   0.207
   28SOL    HW2  984   2.772   1.100   0.283
   29SOL     OW  985   4.950   3.138   2.020
   29SOL    HW1  986   4.864   3.087   2.009
   29SOL    HW2  987   5.026   3.073   2.027
   30SOL     OW  988   3.705   1.093   6.991
   30SOL    HW1  989   3.737   1.181   6.957
   30SOL    HW2  990   3.757   1.020   6.946
   31SOL     OW  991   1.254   2.034   5.150
   31SOL    HW1  992   1.290   2.009   5.060
   31SOL    HW2  993   1.186   2.107   5.140
   32SOL     OW  994   6.074   1.797   2.815
   32SOL    HW1  995   6.172   1.800   2.796
   32SOL    HW2  996   6.031   1.882   2.785
   33SOL     OW  997   1.477   1.212   4.704
   33SOL    HW1  998   1.506   1.177   4.794
   33SOL    HW2  999   1.558   1.228   4.648
   34SOL     OW 1000   0.698   1.079   4.633
   34SOL    HW1 1001   0.775   1.085   4.569
   34SOL    HW2 1002   0.650   0.993   4.620
   35SOL     OW 1003   4.867   2.196   6.528
   35SOL    HW1 1004   4.789   2.246   6.488
   35SOL    HW2 1005   4.836   2.106   6.559
   36SOL     OW 1006   1.047   2.635   6.742
   36SOL    HW1 1007   1.138   2.629   6.701
   36SOL    HW2 1008   1.005   2.723   6.717
   37SOL     OW 1009   3.520   6.690   2.112
   37SOL    HW1 1010   3.486   6.776   2.074
   37SOL    HW2 1011   3.561   6.707   2.202
   38SOL     OW 1012   6.626   5.431   1.079
   38SOL    HW1 1013   6.705   5.475   1.120
   38SOL    HW2 1014   6.544   5.454   1.131
   39SOL     OW 1015   0.211   2.729   6.331
   39SOL    HW1 1016   0.195   2.630   6.330
   39SOL    HW2 1017   0.254   2.757   6.246
   40SOL     OW 1018   0.017   1.845   2.010
   40SOL    HW1 1019   0.114   1.871   2.012
   40SOL    HW2 1020   0.007   1.758   1.962
   41SOL     OW 1021   0.628   1.697   6.137
   41SOL    HW1 1022   0.667   1.605   6.137
   41SOL    HW2 1023   0.689   1.760   6.088
   42SOL     OW 1024   4.519   6.607   0.660
   42SOL    HW1 1025   4.550   6.588   0.567
   42SOL    HW2 1026   4.587   6.575   0.725
   43SOL     OW 1027   4.385   5.227   5.649
   43SOL    HW1 1028   4.450   5.223   5.725
   43SOL    HW2 1029   4.300   5.270   5.679
   44SOL     OW 1030   0.918   5.003   6.643
   44SOL    HW1 1031   0.973   4.996   6.727
   44SOL    HW2 1032   0.848   4.932   6.643
   45SOL     OW 1033   2.718   6.999   0.528
   45SOL    HW1 1034   2.743   6.992   0.625
   45SOL    HW2 1035   2.700   6.907   0.492
   46SOL     OW 1036   0.618   5.376   4.092
   46SOL    HW1 1037   0.560   5.298   4.067
   46SOL    HW2 1038   0.714   5.353   4.078
   47SOL     OW 1039   6.703   4.504   2.648
   47SOL    HW1 1040   6.730   4.600   2.641
   47SOL    HW2 1041   6.756   4.449   2.583
   48SOL     OW 1042   0.916   2.001   5.357
   48SOL    HW1 1043   0.893   2.097   5.347
   48SOL    HW2 1044   0.972   1.988   5.439
   49SOL     OW 1045   5.544   3.663   6.570
   49SOL    HW1 1046   5.616   3.729   6.590
   49SOL    HW2 1047   5.585   3.572   6.558
   50SOL     OW 1048   0.874   4.026   4.451
   50SOL    HW1 1049   0.823   3.965   4.512
   50SOL    HW2 1050   0.969   3.996   4.446
   51SOL     OW 1051   2.150   6.347   1.425
   51SOL    HW1 1052   2.105   6.421   1.376
   51SOL    HW2 1053   2.104   6.331   1.512
   52SOL     OW 1054   0.625   2.270   2.320
   52SOL    HW1 1055   0.659   2.318   2.401
   52SOL    HW2 1056   0.639   2.327   2.239
   53SOL     OW 1057   4.558   6.753   3.601
   53SOL    HW1 1058   4.605   6.791   3.521
   53SOL    HW2 1059   4.569   6.653   3.602
   54SOL     OW 1060   4.816   4.348   5.446
   54SOL    HW1 1061   4.782   4.296   5.525
   54SOL    HW2 1062   4.913   4.369   5.459
   55SOL     OW 1063   4.654   2.707   1.331
   55SOL    HW1 1064   4.616   2.631   1.384
   55SOL    HW2 1065   4.751   2.718   1.354
   56SOL     OW 1066   6.726   0.792   1.681
   56SOL    HW1 1067   6.825   0.805   1.688
   56SOL    HW2 1068   6.681   0.881   1.684
   57SOL     OW 1069   5.019   0.642   6.399
   57SOL    HW1 1070   5.065   0.574   6.456
   57SOL    HW2 1071   5.023   0.731   6.445
   58SOL     OW 1072   6.811   0.796   6.798
   58SOL    HW1 1073   6.822   0.704   6.834
   58SOL    HW2 1074   6.894   0.850   6.816
   59SOL     OW 1075   0.809   0.349   5.483
   59SOL    HW1 1076   0.731   0.289   5.464
   59SOL    HW2 1077   0.784   0.416   5.552
   60SOL     OW 1078   4.509   6.793   6.014
   60SOL    HW1 1079   4.451   6.762   6.089
   60SOL    HW2 1080   4.509   6.893   6.011
   61SOL     OW 1081   3.227   0.606   5.641
   61SOL    HW1 1082   3.162   0.561   5.580
   61SOL    HW2 1083   3.202   0.702   5.652
   62SOL     OW 1084   3.126   0.367   4.403
   62SOL    HW1 1085   3.112   0.456   4.361
   62SOL    HW2 1086   3.181   0.309   4.342
   63SOL     OW 1087   0.001   3.870   4.568
   63SOL    HW1 1088   0.014   3.883   4.666
   63SOL    HW2 1089   6.987   3.781   4.551
   64SOL     OW 1090   6.810   1.686   6.251
   64SOL    HW1 1091   6.753   1.699   6.332
   64SOL    HW2 1092   6.806   1.591   6.221
   65SOL     OW 1093   1.574   4.469   5.224
   65SOL    HW1 1094   1.516   4.388   5.224
   65SOL    HW2 1095   1.623   4.475   5.312
   66SOL     OW 1096   2.834   0.969   1.089
   66SOL    HW1 1097   2.767   0.926   1.029
   66SOL    HW2 1098   2.926   0.954   1.052
   67SOL     OW 1099   4.775   5.133   4.231
   67SOL    HW1 1100   4.793   5.129   4.329
   67SOL    HW2 1101   4.787   5.042   4.191
   68SOL     OW 1102   5.443   2.500   6.929
   68SOL    HW1 1103   5.492   2.548   6.857
   68SOL    HW2 1104   5.452   2.402   6.916
   69SOL     OW 1105   2.639   3.504   5.843
   69SOL    HW1 1106   2.646   3.507   5.743
   69SOL    HW2 1107   2.698   3.432   5.878
   70SOL     OW 1108   5.506   0.829   3.751
   70SOL    HW1 1109   5.489   0.887   3.831
   70SOL    HW2 1110   5.435   0.759   3.745
   71SOL     OW 1111   1.789   4.201   1.685
   71SOL    HW1 1112   1.707   4.144   1.682
   71SOL    HW2 1113   1.870   4.143   1.693
   72SOL     OW 1114   3.923   5.596   4.076
   72SOL    HW1 1115   3.933   5.680   4.024
   72SOL    HW2 1116   3.846   5.605   4.140
   73SOL     OW 1117   3.418   2.783   0.096
   73SOL    HW1 1118   3.425   2.747   0.003
   73SOL    HW2 1119   3.321   2.790   0.121
   74SOL     OW 1120   5.318   6.872   4.677
   74SOL    HW1 1121   5.366   6.960   4.678
   74SOL    HW2 1122   5.276   6.858   4.588
   75SOL     OW 1123   3.852   5.651   5.668
   75SOL    HW1 1124   3.859   5.678   5.572
   75SOL    HW2 1125   3.759   5.665   5.700
   76SOL     OW 1126   2.464   2.858   0.927
   76SOL    HW1 1127   2.399   2.855   0.851
   76SOL    HW2 1128   2.512   2.946   0.925
   77SOL     OW 1129   6.248   4.218   6.832
   77SOL    HW1 1130   6.314   4.150   6.799
   77SOL    HW2 1131   6.177   4.231   6.762
   78SOL     OW 1132   6.018   6.956   5.299
   78SOL    HW1 1133   6.056   0.014   5.264
   78SOL    HW2 1134   5.999   6.965   5.397
   79SOL     OW 1135   3.439   6.232   0.577
   79SOL    HW1 1136   3.507   6.220   0.504
   79SOL    HW2 1137   3.347   6.221   0.538
   80SOL     OW 1138   0.423   1.476   4.446
   80SOL    HW1 1139   0.510   1.499   4.402
   80SOL    HW2 1140   0.440   1.429   4.533
   81SOL     OW 1141   1.196   5.627   2.585
   81SOL    HW1 1142   1.113   5.615   2.530
   81SOL    HW2 1143   1.174   5.680   2.667
   82SOL     OW 1144   6.445   4.178   5.929
   82SOL    HW1 1145   6.451   4.257   5.869
   82SOL    HW2 1146   6.537   4.148   5.954
   83SOL     OW 1147   5.377   7.015   4.994
   83SOL    HW1 1148   5.318   6.934   4.989
   83SOL    HW2 1149   5.391   0.023   4.902
   84SOL     OW 1150   6.845   3.018   2.251
   84SOL    HW1 1151   6.928   2.962   2.248
   84SOL    HW2 1152   6.769   2.965   2.213
   85SOL     OW 1153   1.460   1.322   5.074
   85SOL    HW1 1154   1.480   1.420   5.078
   85SOL    HW2 1155   1.535   1.275   5.027
   86SOL     OW 1156   1.589   1.069   3.787
   86SOL    HW1 1157   1.640   1.020   3.716
   86SOL    HW2 1158   1.620   1.040   3.877
   87SOL     OW 1159   4.713   0.118   1.545
   87SOL    HW1 1160   4.663   0.044   1.590
   87SOL    HW2 1161   4.648   0.186   1.511
   88SOL     OW 1162   5.609   0.766   1.293
   88SOL    HW1 1163   5.621   0.770   1.392
   88SOL    HW2 1164   5.607   0.670   1.264
   89SOL     OW 1165   1.917   2.023   5.435
   89SOL    HW1 1166   1.868   2.096   5.388
   89SOL    HW2 1167   2.006   2.009   5.392
   90SOL     OW 1168   5.572   5.947   3.145
   90SOL    HW1 1169   5.506   5.998   3.199
   90SOL    HW2 1170   5.574   5.852   3.177
   91SOL     OW 1171   5.659   5.116   3.962
   91SOL    HW1 1172   5.613   5.176   4.028
   91SOL    HW2 1173   5.625   5.136   3.870
   92SOL     OW 1174   3.570   5.629   1.049
   92SOL    HW1 1175   3.583   5.720   1.088
   92SOL    HW2 1176   3.475   5.602   1.060
   93SOL     OW 1177   3.451   5.244   5.663
   93SOL    HW1 1178   3.442   5.296   5.748
   93SOL    HW2 1179   3.383   5.171   5.661
   94SOL     OW 1180   1.968   6.274   2.306
   94SOL    HW1 1181   2.050   6.230   2.269
   94SOL    HW2 1182   1.892   6.261   2.242
   95SOL     OW 1183   0.255   0.471   3.984
   95SOL    HW1 1184   0.175   0.462   4.043
   95SOL    HW2 1185   0.248   0.406   3.908
   96SOL     OW 1186   1.879   6.858   4.484
   96SOL    HW1 1187   1.791   6.819   4.509
   96SOL    HW2 1188   1.945   6.842   4.557
   97SOL     OW 1189   6.516   1.936   3.895
   97SOL    HW1 1190   6.562   1.976   3.816
   97SOL    HW2 1191   6.545   1.983   3.978
   98SOL     OW 1192   4.762   1.078   5.554
   98SOL    HW1 1193   4.808   1.133   5.624
   98SOL    HW2 1194   4.675   1.123   5.530
   99SOL     OW 1195   4.916   1.109   0.771
   99SOL    HW1 1196   4.914   1.015   0.735
   99SOL    HW2 1197   5.007   1.128   0.808
  100SOL     OW 1198   6.416   5.839   0.971
  100SOL    HW1 1199   6.319   5.828   0.990
  100SOL    HW2 1200   6.467   5.840   1.057
  101SOL     OW 1201   1.644   6.627   3.323
  101SOL    HW1 1202   1.729   6.669   3.356
  101SOL    HW2 1203   1.627   6.656   3.229
  102SOL     OW 1204   4.637   0.866   2.197
  102SOL    HW1 1205   4.658   0.956   2.234
  102SOL    HW2 1206   4.692   0.797   2.243
  103SOL     OW 1207   4.783   0.825   3.098
  103SOL    HW1 1208   4.732   0.768   3.035
  103SOL    HW2 1209   4.826   0.768   3.168
  104SOL     OW 1210   6.545   6.662   2.350
  104SOL    HW1 1211   6.638   6.697   2.340
  104SOL    HW2 1212   6.541   6.567   2.321
  105SOL     OW 1213   5.798   1.119   5.503
  105SOL    HW1 1214   5.712   1.101   5.455
  105SOL    HW2 1215   5.831   1.034   5.544
  106SOL     OW 1216   4.394   6.796   0.932
  106SOL    HW1 1217   4.369   6.882   0.976
  106SOL    HW2 1218   4.311   6.747   0.904
  107SOL     OW 1219   2.981   3.693   6.829
  107SOL    HW1 1220   3.076   3.674   6.854
  107SOL    HW2 1221   2.931   3.722   6.911
  108SOL     OW 1222   4.282   4.090   5.421
  108SOL    HW1 1223   4.200   4.033   5.416
  108SOL    HW2 1224   4.351   4.055   5.359
  109SOL     OW 1225   5.970   1.084   2.071
  109SOL    HW1 1226   6.008   1.008   2.019
  109SOL    HW2 1227   5.886   1.054   2.117
  110SOL     OW 1228   3.887   6.372   4.019
  110SOL    HW1 1229   3.835   6.400   3.938
  110SOL    HW2 1230   3.916   6.453   4.070
  111SOL     OW 1231   3.336   1.149   3.137
  111SOL    HW1 1232   3.266   1.203   3.088
  111SOL    HW2 1233   3.294   1.067   3.175
  112SOL     OW 1234   0.193   1.708   0.396
  112SOL    HW1 1235   0.102   1.667   0.402
  112SOL    HW2 1236   0.249   1.676   0.473
  113SOL     OW 1237   0.545   6.777   3.454
  113SOL    HW1 1238   0.473   6.844   3.435
  113SOL    HW2 1239   0.544   6.706   3.385
  114SOL     OW 1240   1.584   5.700   0.579
  114SOL    HW1 1241   1.543   5.628   0.636
  114SOL    HW2 1242   1.644   5.756   0.636
  115SOL     OW 1243   5.173   1.078   5.571
  115SOL    HW1 1244   5.203   1.099   5.477
  115SOL    HW2 1245   5.165   0.979   5.581
  116SOL     OW 1246   6.335   3.808   2.840
  116SOL    HW1 1247   6.241   3.836   2.820
  116SOL    HW2 1248   6.382   3.882   2.888
  117SOL     OW 1249   0.499   6.876   6.385
  117SOL    HW1 1250   0.458   6.786   6.398
  117SOL    HW2 1251   0.513   6.893   6.288
  118SOL     OW 1252   2.946   1.432   3.457
  118SOL    HW1 1253   2.936   1.400   3.363
  118SOL    HW2 1254   2.967   1.355   3.517
  119SOL     OW 1255   6.952   2.519   0.070
  119SOL    HW1 1256   6.855   2.494   0.063
  119SOL    HW2 1257   6.991   2.476   0.152
  120SOL     OW 1258   4.107   5.911   1.808
  120SOL    HW1 1259   4.189   5.884   1.859
  120SOL    HW2 1260   4.088   6.007   1.824
  121SOL     OW 1261   2.973   2.611   6.785
  121SOL    HW1 1262   2.891   2.554   6.790
  121SOL    HW2 1263   2.978   2.669   6.867
  122SOL     OW 1264   1.468   3.883   4.330
  122SOL    HW1 1265   1.436   3.977   4.338
  122SOL    HW2 1266   1.408   3.823   4.384
  123SOL     OW 1267   6.616   2.167   1.834
  123SOL    HW1 1268   6.699   2.130   1.877
  123SOL    HW2 1269   6.550   2.093   1.819
  124SOL     OW 1270   4.993   3.753   1.739
  124SOL    HW1 1271   4.935   3.672   1.747
  124SOL    HW2 1272   4.954   3.816   1.672
  125SOL     OW 1273   2.217   3.192   1.295
  125SOL    HW1 1274   2.293   3.233   1.346
  125SOL    HW2 1275   2.148   3.262   1.275
  126SOL     OW 1276   3.981   4.773   0.328
  126SOL    HW1 1277   4.053   4.825   0.282
  126SOL    HW2 1278   4.011   4.678   0.340
  127SOL     OW 1279   0.232   5.902   6.177
  127SOL    HW1 1280   0.137   5.896   6.208
  127SOL    HW2 1281   0.247   5.991   6.132
  128SOL     OW 1282   5.240   2.061   6.955
  128SOL    HW1 1283   5.185   1.983   6.926
  128SOL    HW2 1284   5.298   2.035   0.005
  129SOL     OW 1285   2.620   3.787   6.696
  129SOL    HW1 1286   2.582   3.719   6.758
  129SOL    HW2 1287   2.546   3.846   6.662
  130SOL     OW 1288   1.305   1.934   4.886
  130SOL    HW1 1289   1.357   1.903   4.806
  130SOL    HW2 1290   1.213   1.896   4.884
  131SOL     OW 1291   6.096   1.622   2.613
  131SOL    HW1 1292   6.082   1.655   2.707
  131SOL    HW2 1293   6.178   1.664   2.575
  132SOL     OW 1294   0.864   1.665   2.524
  132SOL    HW1 1295   0.817   1.595   2.577
  132SOL    HW2 1296   0.953   1.685   2.566
  133SOL     OW 1297   6.948   5.871   2.923
  133SOL    HW1 1298   7.028   5.841   2.870
  133SOL    HW2 1299   6.894   5.934   2.867
  134SOL     OW 1300   0.842   3.666   2.789
  134SOL    HW1 1301   0.932   3.637   2.755
  134SOL    HW2 1302   0.772   3.641   2.722
  135SOL     OW 1303   4.994   0.816   4.471
  135SOL    HW1 1304   4.987   0.734   4.528
  135SOL    HW2 1305   5.087   0.853   4.476
  136SOL     OW 1306   4.914   5.780   5.991
  136SOL    HW1 1307   4.999   5.727   5.998
  136SOL    HW2 1308   4.919   5.858   6.053
  137SOL     OW 1309   3.998   1.285   5.931
  137SOL    HW1 1310   3.973   1.219   6.002
  137SOL    HW2 1311   3.920   1.300   5.870
  138SOL     OW 1312   5.534   4.954   5.655
  138SOL    HW1 1313   5.518   4.863   5.616
  138SOL    HW2 1314   5.465   5.017   5.620
  139SOL     OW 1315   3.690   5.437   5.097
  139SOL    HW1 1316   3.769   5.468   5.044
  139SOL    HW2 1317   3.717   5.420   5.192
  140SOL     OW 1318   6.480   3.995   4.411
  140SOL    HW1 1319   6.386   4.025   4.393
  140SOL    HW2 1320   6.479   3.929   4.487
  141SOL     OW 1321   1.784   2.385   2.810
  141SOL    HW1 1322   1.857   2.335   2.857
  141SOL    HW2 1323   1.823   2.450   2.746
  142SOL     OW 1324   0.875   4.682   1.027
  142SOL    HW1 1325   0.956   4.650   0.978
  142SOL    HW2 1326   0.798   4.687   0.964
  143SOL     OW 1327   5.407   4.857   1.812
  143SOL    HW1 1328   5.364   4.936   1.855
  143SOL    HW2 1329   5.506   4.870   1.809
  144SOL     OW 1330   3.129   6.647   0.440
  144SOL    HW1 1331   3.182   6.731   0.429
  144SOL    HW2 1332   3.068   6.635   0.362
  145SOL     OW 1333   6.149   5.875   1.091
  145SOL    HW1 1334   6.126   5.962   1.136
  145SOL    HW2 1335   6.108   5.800   1.143
  146SOL     OW 1336   0.425   4.129   0.685
  146SOL    HW1 1337   0.470   4.070   0.619
  146SOL    HW2 1338   0.410   4.079   0.770
  147SOL     OW 1339   5.926   2.659   0.996
  147SOL    HW1 1340   5.840   2.628   0.956
  147SOL    HW2 1341   5.979   2.579   1.026
  148SOL     OW 1342   0.642   5.390   5.048
  148SOL    HW1 1343   0.564   5.453   5.049
  148SOL    HW2 1344   0.649   5.343   5.136
  149SOL     OW 1345   3.148   1.283   0.008
  149SOL    HW1 1346   3.208   1.342   0.062
  149SOL    HW2 1347   3.098   1.221   0.069
  150SOL     OW 1348   6.234   5.755   5.042
  150SOL    HW1 1349   6.312   5.817   5.031
  150SOL    HW2 1350   6.150   5.809   5.046
  151SOL     OW 1351   5.239   0.524   1.963
  151SOL    HW1 1352   5.224   0.588   1.888
  151SOL    HW2 1353   5.324   0.474   1.948
  152SOL     OW 1354   3.169   0.552   4.181
  152SOL    HW1 1355   3.139   0.645   4.161
  152SOL    HW2 1356   3.265   0.553   4.208
  153SOL     OW 1357   0.722   0.152   2.497
  153SOL    HW1 1358   0.647   0.194   2.448
  153SOL    HW2 1359   0.774   0.223   2.546
  154SOL     OW 1360   0.832   0.953   2.915
  154SOL    HW1 1361   0.794   0.864   2.890
  154SOL    HW2 1362   0.858   0.953   3.011
  155SOL     OW 1363   1.396   1.320   3.284
  155SOL    HW1 1364   1.398   1.241   3.345
  155SOL    HW2 1365   1.314   1.374   3.302
  156SOL     OW 1366   6.802   2.368   1.251
  156SOL    HW1 1367   6.901   2.365   1.244
  156SOL    HW2 1368   6.768   2.283   1.291
  157SOL     OW 1369   0.817   2.612   3.000
  157SOL    HW1 1370   0.769   2.527   3.019
  157SOL    HW2 1371   0.765   2.666   2.935
  158SOL     OW 1372   2.100   1.078   3.068
  158SOL    HW1 1373   2.006   1.089   3.102
  158SOL    HW2 1374   2.162   1.134   3.122
  159SOL     OW 1375   4.837   3.836   1.079
  159SOL    HW1 1376   4.887   3.781   1.146
  159SOL    HW2 1377   4.898   3.863   1.005
  160SOL     OW 1378   0.011   4.718   6.552
  160SOL    HW1 1379   0.008   4.815   6.577
  160SOL    HW2 1380   6.959   4.695   6.496
  161SOL     OW 1381   2.679   4.795   5.157
  161SOL    HW1 1382   2.747   4.736   5.113
  161SOL    HW2 1383   2.604   4.739   5.193
  162SOL     OW 1384   4.444   6.039   2.534
  162SOL    HW1 1385   4.446   6.094   2.450
  162SOL    HW2 1386   4.534   5.998   2.549
  163SOL     OW 1387   5.769   6.692   1.314
  163SOL    HW1 1388   5.706   6.632   1.363
  163SOL    HW2 1389   5.766   6.783   1.354
  164SOL     OW 1390   6.062   3.344   2.278
  164SOL    HW1 1391   5.965   3.344   2.302
  164SOL    HW2 1392   6.078   3.408   2.202
  165SOL     OW 1393   6.711   3.795   6.817
  165SOL    HW1 1394   6.761   3.765   6.898
  165SOL    HW2 1395   6.615   3.808   6.840
  166SOL     OW 1396   1.623   6.829   0.747
  166SOL    HW1 1397   1.703   6.806   0.693
  166SOL    HW2 1398   1.627   6.925   0.775
  167SOL     OW 1399   6.632   2.670   2.528
  167SOL    HW1 1400   6.617   2.763   2.561
  167SOL    HW2 1401   6.599   2.604   2.595
  168SOL     OW 1402   2.326   5.011   1.090
  168SOL    HW1 1403   2.304   4.972   1.179
  168SOL    HW2 1404   2.423   5.037   1.088
  169SOL     OW 1405   0.876   0.668   1.213
  169SOL    HW1 1406   0.953   0.695   1.156
  169SOL    HW2 1407   0.827   0.592   1.169
  170SOL     OW 1408   0.194   2.097   3.820
  170SOL    HW1 1409   0.103   2.127   3.794
  170SOL    HW2 1410   0.232   2.159   3.888
  171SOL     OW 1411   3.290   4.042   0.874
  171SOL    HW1 1412   3.282   3.992   0.961
  171SOL    HW2 1413   3.387   4.061   0.856
  172SOL     OW 1414   0.046   3.015   1.348
  172SOL    HW1 1415   6.999   3.067   1.306
  172SOL    HW2 1416   0.044   3.029   1.447
  173SOL     OW 1417   0.040   6.388   5.319
  173SOL    HW1 1418   0.081   6.310   5.366
  173SOL    HW2 1419   0.092   6.407   5.235
  174SOL     OW 1420   2.611   5.904   3.320
  174SOL    HW1 1421   2.602   5.812   3.282
  174SOL    HW2 1422   2.584   5.971   3.251
  175SOL     OW 1423   0.010   5.045   3.589
  175SOL    HW1 1424   6.987   5.108   3.648
  175SOL    HW2 1425   6.981   5.018   3.512
  176SOL     OW 1426   2.612   6.246   0.008
  176SOL    HW1 1427   2.605   6.192   0.092
  176SOL    HW2 1428   2.562   6.331   0.020
  177SOL     OW 1429   4.788   1.618   2.241
  177SOL    HW1 1430   4.696   1.579   2.233
  177SOL    HW2 1431   4.794   1.672   2.324
  178SOL     OW 1432   5.783   3.960   6.159
  178SOL    HW1 1433   5.872   3.979   6.200
  178SOL    HW2 1434   5.783   3.868   6.120
  179SOL     OW 1435   3.692   6.907   0.569
  179SOL    HW1 1436   3.624   6.918   0.641
  179SOL    HW2 1437   3.647   6.879   0.485
  180SOL     OW 1438   0.990   2.617   0.299
  180SOL    HW1 1439   1.035   2.563   0.371
  180SOL    HW2 1440   1.040   2.604   0.213
  181SOL     OW 1441   2.891   3.486   3.887
  181SOL    HW1 1442   2.901   3.408   3.826
  181SOL    HW2 1443   2.891   3.571   3.833
  182SOL     OW 1444   5.347   2.503   4.927
  182SOL    HW1 1445   5.395   2.539   5.007
  182SOL    HW2 1446   5.249   2.497   4.946
  183SOL     OW 1447   6.356   1.122   3.275
  183SOL    HW1 1448   6.358   1.028   3.239
  183SOL    HW2 1449   6.318   1.121   3.367
  184SOL     OW 1450   6.901   4.436   2.116
  184SOL    HW1 1451   6.883   4.421   2.213
  184SOL    HW2 1452   6.932   4.351   2.074
  185SOL     OW 1453   3.125   3.923   5.968
  185SOL    HW1 1454   3.155   3.943   6.061
  185SOL    HW2 1455   3.183   3.973   5.903
  186SOL     OW 1456   5.802   6.887   3.942
  186SOL    HW1 1457   5.726   6.945   3.914
  186SOL    HW2 1458   5.819   6.898   4.040
  187SOL     OW 1459   5.444   6.860   4.392
  187SOL    HW1 1460   5.509   6.889   4.323
  187SOL    HW2 1461   5.368   6.811   4.349
  188SOL     OW 1462   6.053   2.399   4.912
  188SOL    HW1 1463   6.048   2.479   4.973
  188SOL    HW2 1464   6.097   2.426   4.826
  189SOL     OW 1465   1.663   4.998   3.305
  189SOL    HW1 1466   1.565   4.997   3.325
  189SOL    HW2 1467   1.677   5.014   3.207
  190SOL     OW 1468   3.344   1.456   0.116
  190SOL    HW1 1469   3.405   1.484   0.190
  190SOL    HW2 1470   3.334   1.532   0.052
  191SOL     OW 1471   5.046   5.890   0.042
  191SOL    HW1 1472   5.119   5.903   7.003
  191SOL    HW2 1473   5.085   5.857   0.128
  192SOL     OW 1474   6.322   1.108   6.773
  192SOL    HW1 1475   6.315   1.201   6.738
  192SOL    HW2 1476   6.381   1.106   6.853
  193SOL     OW 1477   6.456   3.869   6.889
  193SOL    HW1 1478   6.467   3.898   6.984
  193SOL    HW2 1479   6.377   3.808   6.882
  194SOL     OW 1480   4.308   6.802   4.206
  194SOL    HW1 1481   4.240   6.864   4.247
  194SOL    HW2 1482   4.353   6.847   4.129
  195SOL     OW 1483   6.686   5.546   3.012
  195SOL    HW1 1484   6.778   5.560   2.974
  195SOL    HW2 1485   6.687   5.468   3.074
  196SOL     OW 1486   0.221   0.648   1.622
  196SOL    HW1 1487   0.295   0.654   1.556
  196SOL    HW2 1488   0.259   0.636   1.714
  197SOL     OW 1489   1.842   0.729   0.452
  197SOL    HW1 1490   1.804   0.766   0.367
  197SOL    HW2 1491   1.772   0.729   0.523
  198SOL     OW 1492   3.225   1.408   4.891
  198SOL    HW1 1493   3.155   1.383   4.957
  198SOL    HW2 1494   3.236   1.334   4.824
  199SOL     OW 1495   2.440   0.744   4.240
  199SOL    HW1 1496   2.503   0.817   4.265
  199SOL    HW2 1497   2.436   0.677   4.315
  200SOL     OW 1498   6.288   1.903   0.572
  200SOL    HW1 1499   6.211   1.848   0.540
  200SOL    HW2 1500   6.323   1.866   0.658
  201SOL     OW 1501   0.645   2.163   5.858
  201SOL    HW1 1502   0.613   2.235   5.797
  201SOL    HW2 1503   0.570   2.101   5.880
  202SOL     OW 1504   6.322   6.698   0.025
  202SOL    HW1 1505   6.329   6.661   0.118
  202SOL    HW2 1506   6.399   6.760   0.008
  203SOL     OW 1507   6.233   3.717   6.906
  203SOL    HW1 1508   6.165   3.645   6.898
  203SOL    HW2 1509   6.238   3.749   7.001
  204SOL     OW 1510   6.610   0.379   5.333
  204SOL    HW1 1511   6.670   0.459   5.346
  204SOL    HW2 1512   6.529   0.406   5.280
  205SOL     OW 1513   2.370   5.019   3.273
  205SOL    HW1 1514   2.311   5.039   3.195
  205SOL    HW2 1515   2.417   5.102   3.301
  206SOL     OW 1516   1.007   3.654   1.498
  206SOL    HW1 1517   0.944   3.604   1.558
  206SOL    HW2 1518   0.996   3.753   1.514
  207SOL     OW 1519   0.424   3.166   4.247
  207SOL    HW1 1520   0.345   3.179   4.306
  207SOL    HW2 1521   0.401   3.102   4.174
  208SOL     OW 1522   1.611   3.248   4.909
  208SOL    HW1 1523   1.576   3.163   4.947
  208SOL    HW2 1524   1.542   3.320   4.917
  209SOL     OW 1525   5.821   4.309   2.518
  209SOL    HW1 1526   5.838   4.212   2.498
  209SOL    HW2 1527   5.723   4.322   2.537
  210SOL     OW 1528   5.036   4.486   1.104
  210SOL    HW1 1529   5.106   4.515   1.169
  210SOL    HW2 1530   5.002   4.565   1.052
  211SOL     OW 1531   1.831   0.962   1.718
  211SOL    HW1 1532   1.769   0.902   1.769
  211SOL    HW2 1533   1.864   0.914   1.636
  212SOL     OW 1534   2.455   4.480   2.023
  212SOL    HW1 1535   2.480   4.464   2.118
  212SOL    HW2 1536   2.417   4.572   2.014
  213SOL     OW 1537   0.818   5.290   1.002
  213SOL    HW1 1538   0.757   5.320   1.075
  213SOL    HW2 1539   0.809   5.192   0.989
  214SOL     OW 1540   5.562   6.445   2.205
  214SOL    HW1 1541   5.523   6.517   2.262
  214SOL    HW2 1542   5.620   6.485   2.135
  215SOL     OW 1543   2.512   5.072   2.919
  215SOL    HW1 1544   2.592   5.035   2.871
  215SOL    HW2 1545   2.490   5.013   2.997
  216SOL     OW 1546   1.522   5.894   2.975
  216SOL    HW1 1547   1.525   5.926   3.069
  216SOL    HW2 1548   1.612   5.863   2.946
  217SOL     OW 1549   0.187   4.535   4.379
  217SOL    HW1 1550   0.181   4.444   4.338
  217SOL    HW2 1551   0.245   4.594   4.322
  218SOL     OW 1552   3.457   3.093   5.630
  218SOL    HW1 1553   3.470   3.176   5.576
  218SOL    HW2 1554   3.545   3.063   5.667
  219SOL     OW 1555   5.446   1.835   1.150
  219SOL    HW1 1556   5.374   1.768   1.132
  219SOL    HW2 1557   5.412   1.903   1.215
  220SOL     OW 1558   1.988   7.012   0.339
  220SOL    HW1 1559   2.042   0.033   0.270
  220SOL    HW2 1560   1.927   0.049   0.384
  221SOL     OW 1561   4.992   4.254   2.075
  221SOL    HW1 1562   5.053   4.265   2.153
  221SOL    HW2 1563   5.044   4.227   1.994
  222SOL     OW 1564   0.961   4.740   6.934
  222SOL    HW1 1565   1.016   4.683   6.994
  222SOL    HW2 1566   1.010   4.825   6.914
  223SOL     OW 1567   5.989   1.471   5.521
  223SOL    HW1 1568   6.004   1.503   5.615
  223SOL    HW2 1569   5.892   1.449   5.509
  224SOL     OW 1570   3.983   3.095   6.016
  224SOL    HW1 1571   4.006   3.073   6.112
  224SOL    HW2 1572   4.008   3.018   5.958
  225SOL     OW 1573   4.040   6.414   6.228
  225SOL    HW1 1574   3.969   6.460   6.280
  225SOL    HW2 1575   4.100   6.482   6.186
  226SOL     OW 1576   1.741   2.166   0.942
  226SOL    HW1 1577   1.766   2.256   0.979
  226SOL    HW2 1578   1.649   2.171   0.904
  227SOL     OW 1579   1.144   3.419   1.651
  227SOL    HW1 1580   1.116   3.397   1.557
  227SOL    HW2 1581   1.209   3.350   1.683
  228SOL     OW 1582   0.664   6.928   2.586
  228SOL    HW1 1583   0.682   7.023   2.558
  228SOL    HW2 1584   0.749   6.888   2.621
  229SOL     OW 1585   4.137   0.836   6.166
  229SOL    HW1 1586   4.227   0.873   6.141
  229SOL    HW2 1587   4.093   0.798   6.086
  230SOL     OW 1588   5.387   3.717   5.557
  230SOL    HW1 1589   5.330   3.780   5.506
  230SOL    HW2 1590   5.377   3.625   5.520
  231SOL     OW 1591   5.033   1.663   0.731
  231SOL    HW1 1592   5.069   1.740   0.785
  231SOL    HW2 1593   4.968   1.611   0.786
  232SOL     OW 1594   1.499   3.039   5.049
  232SOL    HW1 1595   1.406   3.014   5.075
  232SOL    HW2 1596   1.543   2.962   5.003
  233SOL     OW 1597   3.409   1.899   3.464
  233SOL    HW1 1598   3.346   1.822   3.470
  233SOL    HW2 1599   3.455   1.897   3.375
  234SOL     OW 1600   5.605   6.174   0.391
  234SOL    HW1 1601   5.623   6.132   0.302
  234SOL    HW2 1602   5.691   6.211   0.428
  235SOL     OW 1603   5.158   3.245   2.808
  235SOL    HW1 1604   5.236   3.188   2.830
  235SOL    HW2 1605   5.174   3.338   2.840
  236SOL     OW 1606   3.512   3.185   5.953
  236SOL    HW1 1607   3.557   3.243   5.885
  236SOL    HW2 1608   3.414   3.179   5.932
  237SOL     OW 1609   5.990   3.658   3.196
  237SOL    HW1 1610   6.061   3.687   3.260
  237SOL    HW2 1611   5.902   3.656   3.244
  238SOL     OW 1612   6.341   1.911   0.889
  238SOL    HW1 1613   6.252   1.949   0.864
  238SOL    HW2 1614   6.331   1.857   0.973
  239SOL     OW 1615   1.412   3.563   0.539
  239SOL    HW1 1616   1.323   3.521   0.560
  239SOL    HW2 1617   1.411   3.659   0.568
  240SOL     OW 1618   4.952   3.324   4.238
  240SOL    HW1 1619   4.920   3.233   4.211
  240SOL    HW2 1620   5.006   3.316   4.322
  241SOL     OW 1621   1.976   2.532   3.904
  241SOL    HW1 1622   1.951   2.619   3.861
  241SOL    HW2 1623   1.949   2.534   4.001
  242SOL     OW 1624   4.088   3.196   1.839
  242SOL    HW1 1625   4.182   3.190   1.804
  242SOL    HW2 1626   4.077   3.281   1.890
  243SOL     OW 1627   4.261   3.129   6.526
  243SOL    HW1 1628   4.303   3.194   6.462
  243SOL    HW2 1629   4.236   3.177   6.610
  244SOL     OW 1630   5.022   3.494   4.965
  244SOL    HW1 1631   5.023   3.511   4.867
  244SOL    HW2 1632   4.935   3.525   5.004
  245SOL     OW 1633   2.965   0.939   2.865
  245SOL    HW1 1634   2.932   0.874   2.796
  245SOL    HW2 1635   2.944   1.032   2.835
  246SOL     OW 1636   0.180   1.205   2.507
  246SOL    HW1 1637   0.267   1.253   2.494
  246SOL    HW2 1638   0.107   1.271   2.525
  247SOL     OW 1639   2.403   0.123   1.530
  247SOL    HW1 1640   2.406   0.110   1.431
  247SOL    HW2 1641   2.497   0.128   1.566
  248SOL     OW 1642   3.093   3.608   1.443
  248SOL    HW1 1643   3.148   3.660   1.509
  248SOL    HW2 1644   3.080   3.662   1.360
  249SOL     OW 1645   4.362   6.189   6.076
  249SOL    HW1 1646   4.383   6.103   6.030
  249SOL    HW2 1647   4.445   6.225   6.118
  250SOL     OW 1648   4.271   2.487   7.006
  250SOL    HW1 1649   4.279   2.430   6.924
  250SOL    HW2 1650   4.272   2.429   0.059
  251SOL     OW 1651   4.420   4.991   4.907
  251SOL    HW1 1652   4.451   5.085   4.914
  251SOL    HW2 1653   4.472   4.934   4.972
  252SOL     OW 1654   6.326   6.069   5.308
  252SOL    HW1 1655   6.233   6.037   5.321
  252SOL    HW2 1656   6.327   6.169   5.304
  253SOL     OW 1657   4.274   5.338   6.041
  253SOL    HW1 1658   4.274   5.392   5.956
  253SOL    HW2 1659   4.355   5.362   6.095
  254SOL     OW 1660   6.946   2.291   5.809
  254SOL    HW1 1661   6.925   2.212   5.868
  254SOL    HW2 1662   0.017   2.295   5.793
  255SOL     OW 1663   1.382   5.226   6.802
  255SOL    HW1 1664   1.416   5.258   6.713
  255SOL    HW2 1665   1.392   5.127   6.808
  256SOL     OW 1666   4.981   2.187   5.167
  256SOL    HW1 1667   5.032   2.223   5.089
  256SOL    HW2 1668   4.942   2.262   5.219
  257SOL     OW 1669   4.807   6.633   2.309
  257SOL    HW1 1670   4.780   6.542   2.339
  257SOL    HW2 1671   4.787   6.643   2.211
  258SOL     OW 1672   2.465   3.311   5.955
  258SOL    HW1 1673   2.429   3.388   6.006
  258SOL    HW2 1674   2.426   3.310   5.863
  259SOL     OW 1675   3.112   0.772   3.968
  259SOL    HW1 1676   3.025   0.804   4.005
  259SOL    HW2 1677   3.123   0.807   3.875
  260SOL     OW 1678   3.907   5.360   3.405
  260SOL    HW1 1679   3.934   5.279   3.353
  260SOL    HW2 1680   3.834   5.335   3.468
  261SOL     OW 1681   3.212   4.800   6.357
  261SOL    HW1 1682   3.185   4.881   6.304
  261SOL    HW2 1683   3.307   4.810   6.387
  262SOL     OW 1684   0.799   3.744   5.874
  262SOL    HW1 1685   0.730   3.769   5.942
  262SOL    HW2 1686   0.794   3.646   5.854
  263SOL     OW 1687   2.216   0.413   3.399
  263SOL    HW1 1688   2.305   0.377   3.425
  263SOL    HW2 1689   2.209   0.509   3.424
  264SOL     OW 1690   6.654   3.327   6.541
  264SOL    HW1 1691   6.744   3.323   6.499
  264SOL    HW2 1692   6.663   3.347   6.639
  265SOL     OW 1693   6.690   0.487   2.637
  265SOL    HW1 1694   6.694   0.587   2.627
  265SOL    HW2 1695   6.780   0.453   2.664
  266SOL     OW 1696   2.818   0.393   5.389
  266SOL    HW1 1697   2.807   0.352   5.299
  266SOL    HW2 1698   2.731   0.430   5.420
  267SOL     OW 1699   2.159   6.784   2.010
  267SOL    HW1 1700   2.084   6.819   2.066
  267SOL    HW2 1701   2.218   6.860   1.981
  268SOL     OW 1702   4.170   2.350   0.496
  268SOL    HW1 1703   4.118   2.435   0.505
  268SOL    HW2 1704   4.258   2.360   0.542
  269SOL     OW 1705   5.465   2.219   6.920
  269SOL    HW1 1706   5.367   2.201   6.920
  269SOL    HW2 1707   5.514   2.135   6.893
  270SOL     OW 1708   5.614   1.175   0.562
  270SOL    HW1 1709   5.676   1.251   0.583
  270SOL    HW2 1710   5.661   1.107   0.507
  271SOL     OW 1711   0.961   5.604   6.381
  271SOL    HW1 1712   0.906   5.537   6.430
  271SOL    HW2 1713   0.917   5.627   6.294
  272SOL     OW 1714   3.535   5.543   3.245
  272SOL    HW1 1715   3.485   5.597   3.178
  272SOL    HW2 1716   3.517   5.446   3.230
  273SOL     OW 1717   1.607   5.800   6.247
  273SOL    HW1 1718   1.622   5.731   6.319
  273SOL    HW2 1719   1.694   5.822   6.204
  274SOL     OW 1720   4.610   1.621   3.453
  274SOL    HW1 1721   4.654   1.550   3.508
  274SOL    HW2 1722   4.611   1.594   3.356
  275SOL     OW 1723   5.929   1.161   0.962
  275SOL    HW1 1724   5.880   1.075   0.951
  275SOL    HW2 1725   5.967   1.166   1.055
  276SOL     OW 1726   0.801   6.227   3.867
  276SOL    HW1 1727   0.869   6.167   3.824
  276SOL    HW2 1728   0.735   6.257   3.798
  277SOL     OW 1729   2.153   4.764   1.516
  277SOL    HW1 1730   2.186   4.678   1.555
  277SOL    HW2 1731   2.054   4.759   1.505
  278SOL     OW 1732   1.144   3.467   3.933
  278SOL    HW1 1733   1.108   3.412   3.857
  278SOL    HW2 1734   1.088   3.453   4.014
  279SOL     OW 1735   6.278   1.197   3.521
  279SOL    HW1 1736   6.321   1.166   3.605
  279SOL    HW2 1737   6.235   1.286   3.536
  280SOL     OW 1738   1.556   5.145   2.209
  280SOL    HW1 1739   1.624   5.194   2.154
  280SOL    HW2 1740   1.474   5.202   2.218
  281SOL     OW 1741   2.387   4.673   0.981
  281SOL    HW1 1742   2.382   4.743   0.910
  281SOL    HW2 1743   2.309   4.683   1.043
  282SOL     OW 1744   1.898   1.647   4.821
  282SOL    HW1 1745   1.920   1.738   4.786
  282SOL    HW2 1746   1.939   1.578   4.761
  283SOL     OW 1747   2.622   2.596   6.971
  283SOL    HW1 1748   2.616   2.690   6.938
  283SOL    HW2 1749   2.668   2.539   6.902
  284SOL     OW 1750   0.276   3.895   3.981
  284SOL    HW1 1751   0.181   3.923   3.997
  284SOL    HW2 1752   0.279   3.797   3.963
  285SOL     OW 1753   5.270   3.915   4.410
  285SOL    HW1 1754   5.239   3.829   4.451
  285SOL    HW2 1755   5.279   3.904   4.311
  286SOL     OW 1756   2.648   3.923   1.178
  286SOL    HW1 1757   2.732   3.969   1.150
  286SOL    HW2 1758   2.625   3.950   1.272
  287SOL     OW 1759   0.151   3.135   6.681
  287SOL    HW1 1760   0.156   3.041   6.648
  287SOL    HW2 1761   0.242   3.177   6.677
  288SOL     OW 1762   5.889   3.845   2.590
  288SOL    HW1 1763   5.824   3.774   2.560
  288SOL    HW2 1764   5.884   3.923   2.528
  289SOL     OW 1765   3.781   6.380   6.628
  289SOL    HW1 1766   3.804   6.435   6.708
  289SOL    HW2 1767   3.804   6.432   6.545
  290SOL     OW 1768   2.034   0.740   4.877
  290SOL    HW1 1769   2.059   0.829   4.916
  290SOL    HW2 1770   2.023   0.749   4.778
  291SOL     OW 1771   6.800   1.088   3.090
  291SOL    HW1 1772   6.855   1.149   3.032
  291SOL    HW2 1773   6.728   1.047   3.035
  292SOL     OW 1774   3.764   6.814   3.769
  292SOL    HW1 1775   3.736   6.723   3.738
  292SOL    HW2 1776   3.733   6.883   3.703
  293SOL     OW 1777   3.379   5.035   2.918
  293SOL    HW1 1778   3.320   4.971   2.968
  293SOL    HW2 1779   3.405   4.994   2.830
  294SOL     OW 1780   4.744   0.388   0.504
  294SOL    HW1 1781   4.771   0.400   0.408
  294SOL    HW2 1782   4.645   0.386   0.511
  295SOL     OW 1783   5.757   0.530   4.698
  295SOL    HW1 1784   5.728   0.581   4.617
  295SOL    HW2 1785   5.833   0.469   4.674
  296SOL     OW 1786   2.564   1.918   2.633
  296SOL    HW1 1787   2.642   1.860   2.654
  296SOL    HW2 1788   2.520   1.886   2.549
  297SOL     OW 1789   1.833   4.549   2.018
  297SOL    HW1 1790   1.829   4.629   1.957
  297SOL    HW2 1791   1.915   4.555   2.075
  298SOL     OW 1792   6.333   5.091   0.630
  298SOL    HW1 1793   6.316   5.072   0.534
  298SOL    HW2 1794   6.361   5.186   0.641
  299SOL     OW 1795   5.321   2.834   3.508
  299SOL    HW1 1796   5.242   2.873   3.556
  299SOL    HW2 1797   5.306   2.737   3.492
  300SOL     OW 1798   6.051   6.943   1.560
  300SOL    HW1 1799   6.087   0.007   1.544
  300SOL    HW2 1800   6.093   6.905   1.642
  301SOL     OW 1801   5.613   2.617   5.745
  301SOL    HW1 1802   5.591   2.659   5.657
  301SOL    HW2 1803   5.531   2.574   5.782
  302SOL     OW 1804   1.342   5.756   4.958
  302SOL    HW1 1805   1.290   5.841   4.970
  302SOL    HW2 1806   1.439   5.777   4.952
  303SOL     OW 1807   6.279   0.319   3.418
  303SOL    HW1 1808   6.277   0.226   3.379
  303SOL    HW2 1809   6.352   0.371   3.374
  304SOL     OW 1810   3.427   0.569   4.245
  304SOL    HW1 1811   3.452   0.614   4.331
  304SOL    HW2 1812   3.477   0.483   4.237
  305SOL     OW 1813   1.332   3.653   0.143
  305SOL    HW1 1814   1.397   3.591   0.099
  305SOL    HW2 1815   1.383   3.723   0.194
  306SOL     OW 1816   1.288   1.357   2.825
  306SOL    HW1 1817   1.266   1.269   2.867
  306SOL    HW2 1818   1.263   1.355   2.728
  307SOL     OW 1819   3.050   6.909   0.933
  307SOL    HW1 1820   3.102   6.884   1.014
  307SOL    HW2 1821   3.110   6.957   0.869
  308SOL     OW 1822   0.784   5.029   4.141
  308SOL    HW1 1823   0.707   4.973   4.111
  308SOL    HW2 1824   0.791   5.027   4.241
  309SOL     OW 1825   3.588   4.691   5.367
  309SOL    HW1 1826   3.675   4.711   5.322
  309SOL    HW2 1827   3.566   4.594   5.354
  310SOL     OW 1828   1.270   6.000   6.662
  310SOL    HW1 1829   1.227   6.036   6.745
  310SOL    HW2 1830   1.237   5.907   6.645
  311SOL     OW 1831   6.412   0.797   1.108
  311SOL    HW1 1832   6.411   0.739   1.190
  311SOL    HW2 1833   6.460   0.749   1.035
  312SOL     OW 1834   3.919   2.003   6.373
  312SOL    HW1 1835   3.850   2.009   6.301
  312SOL    HW2 1836   3.999   1.953   6.339
  313SOL     OW 1837   6.421   5.054   1.006
  313SOL    HW1 1838   6.364   4.999   0.946
  313SOL    HW2 1839   6.495   5.096   0.953
  314SOL     OW 1840   3.572   6.422   2.899
  314SOL    HW1 1841   3.664   6.441   2.866
  314SOL    HW2 1842   3.577   6.369   2.984
  315SOL     OW 1843   0.445   3.487   2.951
  315SOL    HW1 1844   0.382   3.410   2.961
  315SOL    HW2 1845   0.527   3.470   3.006
  316SOL     OW 1846   2.064   3.398   4.193
  316SOL    HW1 1847   2.106   3.442   4.114
  316SOL    HW2 1848   1.974   3.438   4.210
  317SOL     OW 1849   6.700   1.721   1.016
  317SOL    HW1 1850   6.691   1.698   1.113
  317SOL    HW2 1851   6.724   1.818   1.007
  318SOL     OW 1852   2.606   4.185   0.597
  318SOL    HW1 1853   2.624   4.282   0.613
  318SOL    HW2 1854   2.684   4.131   0.627
  319SOL     OW 1855   0.272   1.796   6.153
  319SOL    HW1 1856   0.367   1.817   6.174
  319SOL    HW2 1857   0.268   1.721   6.087
  320SOL     OW 1858   5.838   3.624   2.961
  320SOL    HW1 1859   5.915   3.634   3.024
  320SOL    HW2 1860   5.753   3.609   3.012
  321SOL     OW 1861   1.702   1.114   1.942
  321SOL    HW1 1862   1.620   1.158   1.907
  321SOL    HW2 1863   1.773   1.115   1.871
  322SOL     OW 1864   3.620   3.465   5.542
  322SOL    HW1 1865   3.716   3.486   5.561
  322SOL    HW2 1866   3.591   3.515   5.460
  323SOL     OW 1867   1.626   4.294   2.770
  323SOL    HW1 1868   1.707   4.251   2.810
  323SOL    HW2 1869   1.653   4.351   2.693
  324SOL     OW 1870   0.232   2.807   4.366
  324SOL    HW1 1871   0.200   2.752   4.289
  324SOL    HW2 1872   0.195   2.769   4.451
  325SOL     OW 1873   2.094   1.624   2.591
  325SOL    HW1 1874   2.180   1.594   2.634
  325SOL    HW2 1875   2.068   1.713   2.628
  326SOL     OW 1876   2.189   4.161   4.577
  326SOL    HW1 1877   2.156   4.225   4.508
  326SOL    HW2 1878   2.230   4.081   4.532
  327SOL     OW 1879   6.195   4.157   6.059
  327SOL    HW1 1880   6.276   4.171   6.003
  327SOL    HW2 1881   6.222   4.128   6.151
  328SOL     OW 1882   3.423   5.257   3.145
  328SOL    HW1 1883   3.398   5.174   3.195
  328SOL    HW2 1884   3.521   5.256   3.128
  329SOL     OW 1885   3.399   4.007   1.889
  329SOL    HW1 1886   3.442   3.926   1.929
  329SOL    HW2 1887   3.399   4.000   1.790
  330SOL     OW 1888   2.961   2.082   0.879
  330SOL    HW1 1889   2.910   1.997   0.865
  330SOL    HW2 1890   2.950   2.111   0.974
  331SOL     OW 1891   6.471   3.721   5.444
  331SOL    HW1 1892   6.394   3.665   5.473
  331SOL    HW2 1893   6.459   3.815   5.477
  332SOL     OW 1894   3.990   1.786   3.352
  332SOL    HW1 1895   3.947   1.794   3.442
  332SOL    HW2 1896   3.922   1.806   3.281
  333SOL     OW 1897   4.716   6.477   0.203
  333SOL    HW1 1898   4.699   6.448   0.109
  333SOL    HW2 1899   4.804   6.524   0.208
  334SOL     OW 1900   5.101   0.113   2.464
  334SOL    HW1 1901   5.049   0.036   2.427
  334SOL    HW2 1902   5.059   0.144   2.549
  335SOL     OW 1903   3.092   0.325   1.857
  335SOL    HW1 1904   3.020   0.370   1.910
  335SOL    HW2 1905   3.109   0.377   1.774
  336SOL     OW 1906   3.687   0.944   5.029
  336SOL    HW1 1907   3.717   0.968   5.121
  336SOL    HW2 1908   3.641   1.023   4.988
  337SOL     OW 1909   1.111   3.528   2.347
  337SOL    HW1 1910   1.116   3.475   2.432
  337SOL    HW2 1911   1.038   3.595   2.354
  338SOL     OW 1912   2.437   2.493   0.977
  338SOL    HW1 1913   2.350   2.516   1.019
  338SOL    HW2 1914   2.509   2.491   1.047
  339SOL     OW 1915   4.887   0.512   2.489
  339SOL    HW1 1916   4.971   0.461   2.466
  339SOL    HW2 1917   4.866   0.577   2.416
  340SOL     OW 1918   5.250   3.641   4.541
  340SOL    HW1 1919   5.340   3.612   4.508
  340SOL    HW2 1920   5.261   3.709   4.613
  341SOL     OW 1921   3.879   4.530   5.481
  341SOL    HW1 1922   3.959   4.575   5.441
  341SOL    HW2 1923   3.799   4.587   5.470
  342SOL     OW 1924   5.924   3.399   0.864
  342SOL    HW1 1925   5.838   3.347   0.864
  342SOL    HW2 1926   5.910   3.487   0.909
  343SOL     OW 1927   1.999   0.160   1.868
  343SOL    HW1 1928   1.993   0.145   1.967
  343SOL    HW2 1929   2.057   0.239   1.849
  344SOL     OW 1930   4.708   0.015   0.013
  344SOL    HW1 1931   4.669   0.074   0.084
  344SOL    HW2 1932   4.768   6.975   0.055
  345SOL     OW 1933   1.311   0.927   5.001
  345SOL    HW1 1934   1.268   1.010   4.968
  345SOL    HW2 1935   1.250   0.849   4.985
  346SOL     OW 1936   1.854   0.296   5.108
  346SOL    HW1 1937   1.946   0.300   5.069
  346SOL    HW2 1938   1.810   0.386   5.100
  347SOL     OW 1939   5.194   5.381   5.883
  347SOL    HW1 1940   5.218   5.321   5.959
  347SOL    HW2 1941   5.153   5.465   5.918
  348SOL     OW 1942   2.872   6.773   3.662
  348SOL    HW1 1943   2.829   6.862   3.647
  348SOL    HW2 1944   2.827   6.727   3.739
  349SOL     OW 1945   2.597   5.186   1.666
  349SOL    HW1 1946   2.635   5.105   1.710
  349SOL    HW2 1947   2.546   5.160   1.584
  350SOL     OW 1948   5.070   3.234   1.614
  350SOL    HW1 1949   5.070   3.140   1.647
  350SOL    HW2 1950   5.149   3.282   1.652
  351SOL     OW 1951   3.234   1.584   0.388
  351SOL    HW1 1952   3.314   1.592   0.329
  351SOL    HW2 1953   3.152   1.577   0.331
  352SOL     OW 1954   3.411   1.880   6.301
  352SOL    HW1 1955   3.316   1.849   6.310
  352SOL    HW2 1956   3.439   1.927   6.384
  353SOL     OW 1957   1.798   6.197   1.275
  353SOL    HW1 1958   1.783   6.114   1.222
  353SOL    HW2 1959   1.719   6.213   1.335
  354SOL     OW 1960   5.363   0.380   2.451
  354SOL    HW1 1961   5.359   0.428   2.538
  354SOL    HW2 1962   5.357   0.281   2.466
  355SOL     OW 1963   0.532   1.048   2.789
  355SOL    HW1 1964   0.612   1.001   2.826
  355SOL    HW2 1965   0.560   1.130   2.740
  356SOL     OW 1966   2.440   6.972   2.720
  356SOL    HW1 1967   2.396   6.922   2.794
  356SOL    HW2 1968   2.475   0.031   2.754
  357SOL     OW 1969   1.365   4.846   4.135
  357SOL    HW1 1970   1.453   4.890   4.149
  357SOL    HW2 1971   1.292   4.905   4.169
  358SOL     OW 1972   5.044   0.716   3.572
  358SOL    HW1 1973   4.962   0.685   3.523
  358SOL    HW2 1974   5.124   0.705   3.512
  359SOL     OW 1975   0.929   1.786   0.546
  359SOL    HW1 1976   0.933   1.817   0.451
  359SOL    HW2 1977   0.985   1.704   0.557
  360SOL     OW 1978   5.539   6.497   6.643
  360SOL    HW1 1979   5.445   6.517   6.616
  360SOL    HW2 1980   5.584   6.447   6.570
  361SOL     OW 1981   2.941   0.176   2.156
  361SOL    HW1 1982   2.906   0.260   2.113
  361SOL    HW2 1983   2.948   0.104   2.086
  362SOL     OW 1984   2.870   3.442   0.287
  362SOL    HW1 1985   2.834   3.529   0.322
  362SOL    HW2 1986   2.925   3.398   0.358
  363SOL     OW 1987   4.827   4.481   4.322
  363SOL    HW1 1988   4.743   4.458   4.274
  363SOL    HW2 1989   4.902   4.491   4.256
  364SOL     OW 1990   2.429   5.859   6.444
  364SOL    HW1 1991   2.387   5.950   6.436
  364SOL    HW2 1992   2.357   5.791   6.459
  365SOL     OW 1993   5.107   6.310   2.829
  365SOL    HW1 1994   5.024   6.324   2.774
  365SOL    HW2 1995   5.156   6.397   2.839
  366SOL     OW 1996   5.871   1.288   0.652
  366SOL    HW1 1997   5.871   1.341   0.567
  366SOL    HW2 1998   5.816   1.336   0.721
  367SOL     OW 1999   0.436   2.491   2.846
  367SOL    HW1 2000   0.504   2.459   2.912
  367SOL    HW2 2001   0.467   2.470   2.753
  368SOL     OW 2002   6.874   5.041   4.521
  368SOL    HW1 2003   6.810   4.965   4.511
  368SOL    HW2 2004   6.825   5.123   4.550
  369SOL     OW 2005   0.833   3.646   2.036
  369SOL    HW1 2006   0.890   3.572   2.000
  369SOL    HW2 2007   0.811   3.627   2.132
  370SOL     OW 2008   3.811   2.399   6.535
  370SOL    HW1 2009   3.732   2.419   6.478
  370SOL    HW2 2010   3.883   2.467   6.517
  371SOL     OW 2011   3.501   2.429   5.864
  371SOL    HW1 2012   3.540   2.383   5.944
  371SOL    HW2 2013   3.505   2.369   5.785
  372SOL     OW 2014   2.507   5.844   0.143
  372SOL    HW1 2015   2.502   5.745   0.133
  372SOL    HW2 2016   2.592   5.878   0.103
  373SOL     OW 2017   6.096   0.026   6.861
  373SOL    HW1 2018   6.084   6.955   6.850
  373SOL    HW2 2019   6.013   0.065   6.900
  374SOL     OW 2020   5.030   0.836   0.535
  374SOL    HW1 2021   5.068   0.898   0.466
  374SOL    HW2 2022   4.930   0.843   0.535
  375SOL     OW 2023   6.675   3.622   2.557
  375SOL    HW1 2024   6.767   3.656   2.575
  375SOL    HW2 2025   6.680   3.529   2.521
  376SOL     OW 2026   2.557   4.216   5.321
  376SOL    HW1 2027   2.533   4.300   5.271
  376SOL    HW2 2028   2.521   4.137   5.272
  377SOL     OW 2029   4.690   0.764   3.588
  377SOL    HW1 2030   4.613   0.819   3.622
  377SOL    HW2 2031   4.657   0.703   3.516
  378SOL     OW 2032   6.080   2.262   5.905
  378SOL    HW1 2033   6.155   2.320   5.874
  378SOL    HW2 2034   6.115   2.193   5.969
  379SOL     OW 2035   6.392   2.513   0.890
  379SOL    HW1 2036   6.489   2.508   0.916
  379SOL    HW2 2037   6.353   2.421   0.892
  380SOL     OW 2038   6.658   2.401   6.975
  380SOL    HW1 2039   6.634   2.474   6.912
  380SOL    HW2 2040   6.574   2.359   7.011
  381SOL     OW 2041   4.424   4.933   6.626
  381SOL    HW1 2042   4.335   4.934   6.579
  381SOL    HW2 2043   4.415   4.974   6.716
  382SOL     OW 2044   1.686   5.368   6.494
  382SOL    HW1 2045   1.666   5.464   6.471
  382SOL    HW2 2046   1.606   5.312   6.477
  383SOL     OW 2047   5.998   1.944   6.997
  383SOL    HW1 2048   5.930   1.978   0.035
  383SOL    HW2 2049   6.016   2.014   6.928
  384SOL     OW 2050   1.307   5.365   4.846
  384SOL    HW1 2051   1.312   5.268   4.823
  384SOL    HW2 2052   1.369   5.417   4.787
  385SOL     OW 2053   4.793   4.320   0.776
  385SOL    HW1 2054   4.749   4.403   0.741
  385SOL    HW2 2055   4.763   4.305   0.871
  386SOL     OW 2056   2.532   5.854   3.966
  386SOL    HW1 2057   2.533   5.954   3.970
  386SOL    HW2 2058   2.469   5.824   3.895
  387SOL     OW 2059   0.542   0.525   5.355
  387SOL    HW1 2060   0.446   0.519   5.327
  387SOL    HW2 2061   0.577   0.433   5.374
  388SOL     OW 2062   6.735   2.004   4.990
  388SOL    HW1 2063   6.783   2.091   4.983
  388SOL    HW2 2064   6.698   1.994   5.083
  389SOL     OW 2065   5.223   4.123   2.521
  389SOL    HW1 2066   5.266   4.212   2.534
  389SOL    HW2 2067   5.157   4.106   2.594
  390SOL     OW 2068   2.761   2.809   0.116
  390SOL    HW1 2069   2.791   2.883   0.055
  390SOL    HW2 2070   2.690   2.755   0.071
  391SOL     OW 2071   3.765   4.038   3.141
  391SOL    HW1 2072   3.707   4.092   3.202
  391SOL    HW2 2073   3.709   3.999   3.068
  392SOL     OW 2074   1.967   3.038   1.556
  392SOL    HW1 2075   1.888   2.988   1.591
  392SOL    HW2 2076   2.032   2.974   1.516
  393SOL     OW 2077   1.356   6.304   0.547
  393SOL    HW1 2078   1.318   6.386   0.505
  393SOL    HW2 2079   1.301   6.279   0.628
  394SOL     OW 2080   6.269   2.556   6.899
  394SOL    HW1 2081   6.332   2.482   6.920
  394SOL    HW2 2082   6.300   2.640   6.944
  395SOL     OW 2083   6.991   6.228   6.567
  395SOL    HW1 2084   0.002   6.312   6.605
  395SOL    HW2 2085   0.033   6.158   6.562
  396SOL     OW 2086   0.570   1.148   1.478
  396SOL    HW1 2087   0.557   1.247   1.475
  396SOL    HW2 2088   0.574   1.117   1.573
  397SOL     OW 2089   4.901   2.066   4.834
  397SOL    HW1 2090   4.817   2.080   4.781
  397SOL    HW2 2091   4.963   2.006   4.783
  398SOL     OW 2092   0.238   1.573   3.446
  398SOL    HW1 2093   0.285   1.485   3.443
  398SOL    HW2 2094   0.306   1.647   3.449
  399SOL     OW 2095   5.369   4.920   5.278
  399SOL    HW1 2096   5.445   4.978   5.307
  399SOL    HW2 2097   5.366   4.915   5.178
  400SOL     OW 2098   6.403   6.521   3.535
  400SOL    HW1 2099   6.326   6.457   3.540
  400SOL    HW2 2100   6.460   6.498   3.456
  401SOL     OW 2101   0.962   5.626   3.986
  401SOL    HW1 2102   0.978   5.595   4.079
  401SOL    HW2 2103   1.042   5.676   3.953
  402SOL     OW 2104   6.415   0.696   4.814
  402SOL    HW1 2105   6.318   0.721   4.806
  402SOL    HW2 2106   6.471   0.769   4.777
  403SOL     OW 2107   2.951   1.489   4.963
  403SOL    HW1 2108   2.942   1.582   4.928
  403SOL    HW2 2109   3.021   1.486   5.035
  404SOL     OW 2110   3.490   5.522   3.503
  404SOL    HW1 2111   3.494   5.610   3.550
  404SOL    HW2 2112   3.522   5.532   3.409
  405SOL     OW 2113   3.441   4.878   3.556
  405SOL    HW1 2114   3.518   4.893   3.494
  405SOL    HW2 2115   3.466   4.906   3.648
  406SOL     OW 2116   1.176   0.382   0.540
  406SOL    HW1 2117   1.218   0.420   0.623
  406SOL    HW2 2118   1.222   0.296   0.516
  407SOL     OW 2119   2.024   4.557   4.106
  407SOL    HW1 2120   2.115   4.534   4.074
  407SOL    HW2 2121   1.973   4.603   4.034
  408SOL     OW 2122   3.111   2.061   1.771
  408SOL    HW1 2123   3.117   2.005   1.854
  408SOL    HW2 2124   3.021   2.103   1.765
  409SOL     OW 2125   0.374   2.492   1.970
  409SOL    HW1 2126   0.430   2.478   2.051
  409SOL    HW2 2127   0.432   2.492   1.889
  410SOL     OW 2128   1.873   3.712   1.693
  410SOL    HW1 2129   1.842   3.686   1.601
  410SOL    HW2 2130   1.939   3.645   1.726
  411SOL     OW 2131   6.391   1.589   1.998
  411SOL    HW1 2132   6.379   1.521   2.070
  411SOL    HW2 2133   6.307   1.596   1.945
  412SOL     OW 2134   2.770   4.750   3.290
  412SOL    HW1 2135   2.677   4.786   3.283
  412SOL    HW2 2136   2.767   4.651   3.302
  413SOL     OW 2137   6.708   4.355   3.240
  413SOL    HW1 2138   6.767   4.293   3.187
  413SOL    HW2 2139   6.646   4.301   3.296
  414SOL     OW 2140   1.926   0.260   2.367
  414SOL    HW1 2141   1.870   0.252   2.450
  414SOL    HW2 2142   1.913   0.351   2.327
  415SOL     OW 2143   5.540   3.120   1.856
  415SOL    HW1 2144   5.469   3.064   1.812
  415SOL    HW2 2145   5.522   3.127   1.954
  416SOL     OW 2146   6.597   3.826   6.450
  416SOL    HW1 2147   6.555   3.763   6.515
  416SOL    HW2 2148   6.697   3.815   6.453
  417SOL     OW 2149   3.210   2.410   6.200
  417SOL    HW1 2150   3.260   2.324   6.186
  417SOL    HW2 2151   3.242   2.454   6.284
  418SOL     OW 2152   3.823   5.762   6.338
  418SOL    HW1 2153   3.899   5.823   6.318
  418SOL    HW2 2154   3.772   5.796   6.417
  419SOL     OW 2155   5.698   6.425   0.621
  419SOL    HW1 2156   5.705   6.461   0.714
  419SOL    HW2 2157   5.694   6.501   0.557
  420SOL     OW 2158   3.003   6.147   0.585
  420SOL    HW1 2159   2.964   6.060   0.555
  420SOL    HW2 2160   3.039   6.195   0.505
  421SOL     OW 2161   5.674   4.768   3.864
  421SOL    HW1 2162   5.656   4.728   3.774
  421SOL    HW2 2163   5.767   4.803   3.867
  422SOL     OW 2164   4.122   1.331   2.251
  422SOL    HW1 2165   4.055   1.374   2.191
  422SOL    HW2 2166   4.096   1.347   2.346
  423SOL     OW 2167   2.813   0.985   6.791
  423SOL    HW1 2168   2.750   1.052   6.832
  423SOL    HW2 2169   2.807   0.990   6.692
  424SOL     OW 2170   2.018   5.012   3.543
  424SOL    HW1 2171   2.067   4.943   3.489
  424SOL    HW2 2172   2.038   4.999   3.640
  425SOL     OW 2173   3.181   1.545   6.653
  425SOL    HW1 2174   3.107   1.498   6.702
  425SOL    HW2 2175   3.268   1.501   6.674
  426SOL     OW 2176   2.104   2.976   3.616
  426SOL    HW1 2177   2.009   3.003   3.602
  426SOL    HW2 2178   2.123   2.969   3.714
  427SOL     OW 2179   5.141   0.820   5.581
  427SOL    HW1 2180   5.216   0.758   5.559
  427SOL    HW2 2181   5.055   0.769   5.583
  428SOL     OW 2182   2.342   1.352   5.987
  428SOL    HW1 2183   2.427   1.302   6.004
  428SOL    HW2 2184   2.266   1.287   5.980
  429SOL     OW 2185   0.324   7.014   3.811
  429SOL    HW1 2186   0.376   6.936   3.776
  429SOL    HW2 2187   0.264   6.983   3.885
  430SOL     OW 2188   1.843   1.427   4.063
  430SOL    HW1 2189   1.884   1.443   3.973
  430SOL    HW2 2190   1.745   1.412   4.053
  431SOL     OW 2191   2.686   0.389   1.167
  431SOL    HW1 2192   2.773   0.375   1.118
  431SOL    HW2 2193   2.671   0.313   1.230
  432SOL     OW 2194   6.247   1.982   2.091
  432SOL    HW1 2195   6.276   1.900   2.139
  432SOL    HW2 2196   6.219   2.052   2.157
  433SOL     OW 2197   1.763   3.613   6.599
  433SOL    HW1 2198   1.683   3.638   6.545
  433SOL    HW2 2199   1.734   3.578   6.688
  434SOL     OW 2200   4.300   6.142   2.739
  434SOL    HW1 2201   4.338   6.117   2.827
  434SOL    HW2 2202   4.355   6.101   2.666
  435SOL     OW 2203   2.387   1.950   5.930
  435SOL    HW1 2204   2.401   1.891   6.009
  435SOL    HW2 2205   2.324   2.024   5.954
  436SOL     OW 2206   5.870   6.066   2.640
  436SOL    HW1 2207   5.907   6.051   2.548
  436SOL    HW2 2208   5.793   6.130   2.635
  437SOL     OW 2209   6.418   1.653   6.370
  437SOL    HW1 2210   6.511   1.628   6.398
  437SOL    HW2 2211   6.373   1.701   6.445
  438SOL     OW 2212   0.676   2.974   1.608
  438SOL    HW1 2213   0.662   3.072   1.626
  438SOL    HW2 2214   0.667   2.923   1.693
  439SOL     OW 2215   0.379   1.476   6.220
  439SOL    HW1 2216   0.441   1.443   6.149
  439SOL    HW2 2217   0.411   1.565   6.254
  440SOL     OW 2218   2.920   1.590   1.766
  440SOL    HW1 2219   2.981   1.628   1.697
  440SOL    HW2 2220   2.911   1.654   1.842
  441SOL     OW 2221   1.231   4.222   2.856
  441SOL    HW1 2222   1.170   4.148   2.828
  441SOL    HW2 2223   1.283   4.254   2.776
  442SOL     OW 2224   3.403   3.601   4.301
  442SOL    HW1 2225   3.451   3.521   4.264
  442SOL    HW2 2226   3.331   3.571   4.363
  443SOL     OW 2227   5.102   2.831   2.639
  443SOL    HW1 2228   5.101   2.783   2.727
  443SOL    HW2 2229   5.186   2.808   2.590
  444SOL     OW 2230   4.188   2.215   1.309
  444SOL    HW1 2231   4.243   2.299   1.315
  444SOL    HW2 2232   4.108   2.232   1.252
  445SOL     OW 2233   2.937   6.403   4.126
  445SOL    HW1 2234   2.964   6.343   4.202
  445SOL    HW2 2235   2.838   6.404   4.118
  446SOL     OW 2236   6.299   0.267   6.752
  446SOL    HW1 2237   6.346   0.298   6.670
  446SOL    HW2 2238   6.327   0.173   6.773
  447SOL     OW 2239   5.977   3.306   0.086
  447SOL    HW1 2240   5.986   3.212   0.054
  447SOL    HW2 2241   5.881   3.331   0.089
  448SOL     OW 2242   3.706   6.944   5.138
  448SOL    HW1 2243   3.797   6.926   5.175
  448SOL    HW2 2244   3.657   6.857   5.126
  449SOL     OW 2245   1.154   4.771   4.899
  449SOL    HW1 2246   1.103   4.730   4.824
  449SOL    HW2 2247   1.245   4.797   4.867
  450SOL     OW 2248   6.624   3.465   4.756
  450SOL    HW1 2249   6.604   3.457   4.658
  450SOL    HW2 2250   6.553   3.417   4.808
  451SOL     OW 2251   3.057   1.557   6.345
  451SOL    HW1 2252   3.099   1.561   6.436
  451SOL    HW2 2253   2.999   1.637   6.333
  452SOL     OW 2254   4.501   4.877   0.586
  452SOL    HW1 2255   4.506   4.785   0.626
  452SOL    HW2 2256   4.540   4.876   0.494
  453SOL     OW 2257   4.348   0.691   0.194
  453SOL    HW1 2258   4.443   0.664   0.214
  453SOL    HW2 2259   4.286   0.617   0.221
  454SOL     OW 2260   0.318   2.592   3.530
  454SOL    HW1 2261   0.372   2.673   3.508
  454SOL    HW2 2262   0.280   2.553   3.446
  455SOL     OW 2263   5.767   5.780   0.208
  455SOL    HW1 2264   5.844   5.822   0.256
  455SOL    HW2 2265   5.764   5.814   0.114
  456SOL     OW 2266   0.704   1.203   2.626
  456SOL    HW1 2267   0.794   1.213   2.669
  456SOL    HW2 2268   0.715   1.205   2.526
  457SOL     OW 2269   3.074   5.714   0.118
  457SOL    HW1 2270   3.025   5.673   0.195
  457SOL    HW2 2271   3.171   5.689   0.123
  458SOL     OW 2272   3.595   1.435   4.792
  458SOL    HW1 2273   3.549   1.504   4.848
  458SOL    HW2 2274   3.560   1.439   4.699
  459SOL     OW 2275   4.006   0.795   3.833
  459SOL    HW1 2276   3.996   0.762   3.927
  459SOL    HW2 2277   4.102   0.790   3.805
  460SOL     OW 2278   0.848   1.493   6.185
  460SOL    HW1 2279   0.929   1.443   6.154
  460SOL    HW2 2280   0.870   1.545   6.267
  461SOL     OW 2281   0.885   0.777   5.456
  461SOL    HW1 2282   0.948   0.731   5.518
  461SOL    HW2 2283   0.923   0.776   5.363
  462SOL     OW 2284   3.789   3.790   5.043
  462SOL    HW1 2285   3.719   3.822   4.979
  462SOL    HW2 2286   3.874   3.840   5.027
  463SOL     OW 2287   5.575   6.176   2.767
  463SOL    HW1 2288   5.599   6.210   2.677
  463SOL    HW2 2289   5.484   6.134   2.764
  464SOL     OW 2290   4.964   5.756   5.074
  464SOL    HW1 2291   5.054   5.712   5.076
  464SOL    HW2 2292   4.974   5.854   5.059
  465SOL     OW 2293   1.096   5.351   1.036
  465SOL    HW1 2294   1.002   5.319   1.022
  465SOL    HW2 2295   1.108   5.380   1.131
  466SOL     OW 2296   3.992   4.947   4.050
  466SOL    HW1 2297   3.899   4.940   4.015
  466SOL    HW2 2298   4.045   5.011   3.994
  467SOL     OW 2299   6.719   0.143   0.714
  467SOL    HW1 2300   6.782   0.081   0.668
  467SOL    HW2 2301   6.755   0.165   0.805
  468SOL     OW 2302   2.337   6.980   6.473
  468SOL    HW1 2303   2.380   0.026   6.421
  468SOL    HW2 2304   2.300   6.912   6.410
  469SOL     OW 2305   4.341   4.995   5.237
  469SOL    HW1 2306   4.435   4.964   5.221
  469SOL    HW2 2307   4.335   5.093   5.216
  470SOL     OW 2308   2.598   4.712   2.401
  470SOL    HW1 2309   2.597   4.658   2.485
  470SOL    HW2 2310   2.684   4.698   2.353
  471SOL     OW 2311   1.622   2.379   4.325
  471SOL    HW1 2312   1.700   2.318   4.336
  471SOL    HW2 2313   1.540   2.326   4.303
  472SOL     OW 2314   4.269   3.961   5.933
  472SOL    HW1 2315   4.248   3.996   6.024
  472SOL    HW2 2316   4.184   3.946   5.883
  473SOL     OW 2317   6.078   3.859   2.816
  473SOL    HW1 2318   6.038   3.851   2.907
  473SOL    HW2 2319   6.007   3.849   2.747
  474SOL     OW 2320   4.480   5.140   4.273
  474SOL    HW1 2321   4.566   5.138   4.223
  474SOL    HW2 2322   4.498   5.144   4.371
  475SOL     OW 2323   5.533   1.619   0.817
  475SOL    HW1 2324   5.454   1.593   0.761
  475SOL    HW2 2325   5.549   1.717   0.809
  476SOL     OW 2326   0.802   2.775   0.393
  476SOL    HW1 2327   0.803   2.741   0.487
  476SOL    HW2 2328   0.882   2.739   0.344
  477SOL     OW 2329   6.124   6.220   4.486
  477SOL    HW1 2330   6.194   6.236   4.416
  477SOL    HW2 2331   6.158   6.251   4.575
  478SOL     OW 2332   6.352   6.002   1.370
  478SOL    HW1 2333   6.285   5.935   1.404
  478SOL    HW2 2334   6.327   6.093   1.404
  479SOL     OW 2335   4.048   3.422   2.100
  479SOL    HW1 2336   3.987   3.344   2.114
  479SOL    HW2 2337   4.104   3.436   2.182
  480SOL     OW 2338   6.402   6.974   1.092
  480SOL    HW1 2339   6.448   6.908   1.033
  480SOL    HW2 2340   6.336   6.926   1.149
  481SOL     OW 2341   5.502   6.648   6.995
  481SOL    HW1 2342   5.543   6.649   6.904
  481SOL    HW2 2343   5.405   6.624   6.989
  482SOL     OW 2344   3.972   5.495   2.286
  482SOL    HW1 2345   4.059   5.503   2.237
  482SOL    HW2 2346   3.942   5.400   2.285
  483SOL     OW 2347   6.503   2.610   5.276
  483SOL    HW1 2348   6.581   2.599   5.214
  483SOL    HW2 2349   6.476   2.707   5.279
  484SOL     OW 2350   2.305   5.853   4.179
  484SOL    HW1 2351   2.334   5.838   4.085
  484SOL    HW2 2352   2.385   5.865   4.237
  485SOL     OW 2353   5.224   3.068   0.636
  485SOL    HW1 2354   5.290   3.053   0.709
  485SOL    HW2 2355   5.272   3.088   0.551
  486SOL     OW 2356   6.444   6.229   5.792
  486SOL    HW1 2357   6.362   6.198   5.840
  486SOL    HW2 2358   6.505   6.151   5.778
  487SOL     OW 2359   5.735   1.681   6.963
  487SOL    HW1 2360   5.655   1.625   6.986
  487SOL    HW2 2361   5.796   1.629   6.904
  488SOL     OW 2362   2.049   6.595   3.885
  488SOL    HW1 2363   2.024   6.657   3.960
  488SOL    HW2 2364   2.051   6.501   3.919
  489SOL     OW 2365   2.294   4.636   5.252
  489SOL    HW1 2366   2.245   4.691   5.185
  489SOL    HW2 2367   2.312   4.690   5.334
  490SOL     OW 2368   0.985   4.108   4.829
  490SOL    HW1 2369   1.056   4.176   4.813
  490SOL    HW2 2370   1.001   4.029   4.770
  491SOL     OW 2371   6.746   3.154   2.012
  491SOL    HW1 2372   6.661   3.187   2.054
  491SOL    HW2 2373   6.816   3.144   2.083
  492SOL     OW 2374   1.603   2.127   6.179
  492SOL    HW1 2375   1.681   2.070   6.203
  492SOL    HW2 2376   1.567   2.098   6.090
  493SOL     OW 2377   2.125   5.578   3.880
  493SOL    HW1 2378   2.146   5.549   3.973
  493SOL    HW2 2379   2.079   5.503   3.831
  494SOL     OW 2380   2.547   6.537   2.230
  494SOL    HW1 2381   2.517   6.630   2.249
  494SOL    HW2 2382   2.645   6.529   2.247
  495SOL     OW 2383   3.675   4.763   6.089
  495SOL    HW1 2384   3.707   4.854   6.065
  495SOL    HW2 2385   3.677   4.704   6.008
  496SOL     OW 2386   5.085   0.380   2.361
  496SOL    HW1 2387   5.179   0.348   2.377
  496SOL    HW2 2388   5.025   0.301   2.350
  497SOL     OW 2389   4.065   2.719   1.086
  497SOL    HW1 2390   4.116   2.775   1.151
  497SOL    HW2 2391   3.971   2.753   1.078
  498SOL     OW 2392   0.742   0.312   0.128
  498SOL    HW1 2393   0.652   0.293   0.089
  498SOL    HW2 2394   0.797   0.360   0.060
  499SOL     OW 2395   2.599   6.494   6.520
  499SOL    HW1 2396   2.542   6.542   6.453
  499SOL    HW2 2397   2.576   6.397   6.521
  500SOL     OW 2398   6.207   1.770   6.527
  500SOL    HW1 2399   6.152   1.847   6.560
  500SOL    HW2 2400   6.186   1.753   6.431
  501SOL     OW 2401   2.213   2.022   4.776
  501SOL    HW1 2402   2.230   2.108   4.729
  501SOL    HW2 2403   2.143   2.034   4.846
  502SOL     OW 2404   3.237   2.594   6.716
  502SOL    HW1 2405   3.151   2.588   6.766
  502SOL    HW2 2406   3.225   2.651   6.635
  503SOL     OW 2407   3.826   4.838   1.743
  503SOL    HW1 2408   3.778   4.925   1.739
  503SOL    HW2 2409   3.762   4.765   1.768
  504SOL     OW 2410   6.377   0.372   6.316
  504SOL    HW1 2411   6.406   0.283   6.279
  504SOL    HW2 2412   6.412   0.382   6.409
  505SOL     OW 2413   0.343   3.930   5.511
  505SOL    HW1 2414   0.284   3.934   5.592
  505SOL    HW2 2415   0.290   3.894   5.434
  506SOL     OW 2416   3.367   6.206   2.413
  506SOL    HW1 2417   3.419   6.287   2.385
  506SOL    HW2 2418   3.284   6.234   2.461
  507SOL     OW 2419   2.269   6.976   3.328
  507SOL    HW1 2420   2.258   7.025   3.415
  507SOL    HW2 2421   2.189   6.991   3.270
  508SOL     OW 2422   0.306   4.321   3.137
  508SOL    HW1 2423   0.334   4.277   3.052
  508SOL    HW2 2424   0.298   4.252   3.210
  509SOL     OW 2425   4.554   0.042   5.333
  509SOL    HW1 2426   4.494   0.073   5.406
  509SOL    HW2 2427   4.628   7.015   5.371
  510SOL     OW 2428   6.581   4.448   6.823
  510SOL    HW1 2429   6.617   4.390   6.897
  510SOL    HW2 2430   6.491   4.414   6.795
  511SOL     OW 2431   6.897   2.613   0.851
  511SOL    HW1 2432   6.805   2.586   0.882
  511SOL    HW2 2433   6.957   2.533   0.854
  512SOL     OW 2434   2.093   1.480   4.729
  512SOL    HW1 2435   2.185   1.440   4.726
  512SOL    HW2 2436   2.066   1.507   4.637
  513SOL     OW 2437   5.911   5.609   2.194
  513SOL    HW1 2438   5.847   5.680   2.223
  513SOL    HW2 2439   5.976   5.648   2.127
  514SOL     OW 2440   5.088   0.839   5.226
  514SOL    HW1 2441   5.074   0.933   5.259
  514SOL    HW2 2442   5.027   0.777   5.275
  515SOL     OW 2443   3.268   0.509   6.521
  515SOL    HW1 2444   3.341   0.470   6.577
  515SOL    HW2 2445   3.306   0.578   6.460
  516SOL     OW 2446   0.769   5.701   2.411
  516SOL    HW1 2447   0.787   5.604   2.422
  516SOL    HW2 2448   0.728   5.738   2.494
  517SOL     OW 2449   3.190   5.441   0.363
  517SOL    HW1 2450   3.250   5.466   0.438
  517SOL    HW2 2451   3.230   5.472   0.276
  518SOL     OW 2452   2.500   6.990   3.138
  518SOL    HW1 2453   2.509   0.052   3.181
  518SOL    HW2 2454   2.572   6.978   3.069
  519SOL     OW 2455   0.495   6.808   3.742
  519SOL    HW1 2456   0.544   6.819   3.655
  519SOL    HW2 2457   0.547   6.748   3.803
  520SOL     OW 2458   3.031   5.606   6.692
  520SOL    HW1 2459   3.124   5.617   6.656
  520SOL    HW2 2460   2.973   5.680   6.658
  521SOL     OW 2461   0.044   0.154   5.079
  521SOL    HW1 2462   0.081   0.068   5.114
  521SOL    HW2 2463   0.024   0.144   4.981
  522SOL     OW 2464   3.144   6.065   5.514
  522SOL    HW1 2465   3.138   6.097   5.609
  522SOL    HW2 2466   3.057   6.022   5.488
  523SOL     OW 2467   2.081   0.033   6.047
  523SOL    HW1 2468   2.155   6.999   6.022
  523SOL    HW2 2469   2.019   0.046   5.969
  524SOL     OW 2470   6.257   2.038   1.680
  524SOL    HW1 2471   6.200   2.113   1.712
  524SOL    HW2 2472   6.323   2.071   1.613
  525SOL     OW 2473   6.691   3.289   3.648
  525SOL    HW1 2474   6.788   3.272   3.666
  525SOL    HW2 2475   6.681   3.323   3.554
  526SOL     OW 2476   4.185   5.977   5.165
  526SOL    HW1 2477   4.266   6.008   5.214
  526SOL    HW2 2478   4.104   5.989   5.223
  527SOL     OW 2479   6.726   1.690   0.448
  527SOL    HW1 2480   6.681   1.770   0.409
  527SOL    HW2 2481   6.757   1.710   0.540
  528SOL     OW 2482   0.052   1.392   3.107
  528SOL    HW1 2483   7.016   1.373   3.032
  528SOL    HW2 2484   0.057   1.313   3.167
  529SOL     OW 2485   1.160   2.167   5.538
  529SOL    HW1 2486   1.209   2.093   5.492
  529SOL    HW2 2487   1.212   2.198   5.617
  530SOL     OW 2488   3.426   4.519   1.702
  530SOL    HW1 2489   3.441   4.428   1.739
  530SOL    HW2 2490   3.488   4.584   1.746
  531SOL     OW 2491   0.186   1.020   5.837
  531SOL    HW1 2492   0.194   1.111   5.876
  531SOL    HW2 2493   0.120   1.021   5.762
  532SOL     OW 2494   3.500   1.522   6.486
  532SOL    HW1 2495   3.461   1.493   6.574
  532SOL    HW2 2496   3.460   1.468   6.412
  533SOL     OW 2497   3.466   6.767   4.639
  533SOL    HW1 2498   3.496   6.862   4.638
  533SOL    HW2 2499   3.405   6.752   4.717
  534SOL     OW 2500   1.534   4.291   0.907
  534SOL    HW1 2501   1.540   4.379   0.859
  534SOL    HW2 2502   1.590   4.224   0.858
  535SOL     OW 2503   5.045   3.876   3.726
  535SOL    HW1 2504   5.015   3.970   3.710
  535SOL    HW2 2505   4.973   3.813   3.696
  536SOL     OW 2506   6.419   0.151   0.684
  536SOL    HW1 2507   6.516   0.131   0.673
  536SOL    HW2 2508   6.405   0.215   0.759
  537SOL     OW 2509   3.619   2.117   2.617
  537SOL    HW1 2510   3.614   2.021   2.642
  537SOL    HW2 2511   3.597   2.128   2.520
  538SOL     OW 2512   4.131   5.850   6.958
  538SOL    HW1 2513   4.186   5.897   6.889
  538SOL    HW2 2514   4.172   5.862   0.020
  539SOL     OW 2515   3.094   6.762   6.352
  539SOL    HW1 2516   2.997   6.743   6.337
  539SOL    HW2 2517   3.145   6.676   6.356
  540SOL     OW 2518   1.858   1.605   5.761
  540SOL    HW1 2519   1.761   1.624   5.778
  540SOL    HW2 2520   1.868   1.560   5.672
  541SOL     OW 2521   6.005   5.741   1.980
  541SOL    HW1 2522   5.985   5.839   1.978
  541SOL    HW2 2523   6.104   5.727   1.985
  542SOL     OW 2524   3.797   6.152   6.778
  542SOL    HW1 2525   3.711   6.101   6.770
  542SOL    HW2 2526   3.800   6.225   6.710
  543SOL     OW 2527   6.668   2.306   5.190
  543SOL    HW1 2528   6.569   2.290   5.194
  543SOL    HW2 2529   6.686   2.402   5.210
  544SOL     OW 2530   1.150   2.036   1.036
  544SOL    HW1 2531   1.136   1.972   1.111
  544SOL    HW2 2532   1.085   2.017   0.962
  545SOL     OW 2533   6.874   4.577   0.662
  545SOL    HW1 2534   6.865   4.637   0.582
  545SOL    HW2 2535   6.866   4.632   0.746
  546SOL     OW 2536   6.863   5.990   2.553
  546SOL    HW1 2537   6.829   6.042   2.631
  546SOL    HW2 2538   6.911   5.908   2.586
  547SOL     OW 2539   3.183   6.375   0.422
  547SOL    HW1 2540   3.276   6.380   0.387
  547SOL    HW2 2541   3.145   6.467   0.429
  548SOL     OW 2542   4.112   2.951   6.711
  548SOL    HW1 2543   4.177   2.911   6.646
  548SOL    HW2 2544   4.045   3.007   6.661
  549SOL     OW 2545   4.835   2.835   3.939
  549SOL    HW1 2546   4.852   2.752   3.886
  549SOL    HW2 2547   4.868   2.823   4.032
  550SOL     OW 2548   6.961   5.867   4.158
  550SOL    HW1 2549   6.876   5.915   4.136
  550SOL    HW2 2550   0.006   5.899   4.097
  551SOL     OW 2551   5.180   0.898   6.770
  551SOL    HW1 2552   5.151   0.806   6.793
  551SOL    HW2 2553   5.183   0.954   6.853
  552SOL     OW 2554   1.160   0.185   4.072
  552SOL    HW1 2555   1.131   0.153   3.982
  552SOL    HW2 2556   1.158   0.285   4.075
  553SOL     OW 2557   4.439   2.635   5.849
  553SOL    HW1 2558   4.523   2.648   5.901
  553SOL    HW2 2559   4.379   2.714   5.861
  554SOL     OW 2560   6.382   4.626   0.646
  554SOL    HW1 2561   6.399   4.557   0.716
  554SOL    HW2 2562   6.304   4.683   0.673
  555SOL     OW 2563   4.168   4.741   5.549
  555SOL    HW1 2564   4.200   4.693   5.467
  555SOL    HW2 2565   4.134   4.674   5.615
  556SOL     OW 2566   5.403   5.975   2.841
  556SOL    HW1 2567   5.368   5.910   2.909
  556SOL    HW2 2568   5.402   5.932   2.751
  557SOL     OW 2569   0.357   3.579   6.798
  557SOL    HW1 2570   0.261   3.592   6.822
  557SOL    HW2 2571   0.403   3.667   6.796
  558SOL     OW 2572   3.566   3.689   1.506
  558SOL    HW1 2573   3.648   3.635   1.491
  558SOL    HW2 2574   3.587   3.786   1.495
  559SOL     OW 2575   5.703   1.298   5.708
  559SOL    HW1 2576   5.627   1.355   5.678
  559SOL    HW2 2577   5.751   1.262   5.628
  560SOL     OW 2578   1.829   2.652   3.241
  560SOL    HW1 2579   1.862   2.559   3.253
  560SOL    HW2 2580   1.903   2.710   3.207
  561SOL     OW 2581   6.481   4.047   0.671
  561SOL    HW1 2582   6.427   4.128   0.648
  561SOL    HW2 2583   6.420   3.968   0.679
  562SOL     OW 2584   3.174   6.367   2.616
  562SOL    HW1 2585   3.164   6.281   2.666
  562SOL    HW2 2586   3.262   6.409   2.639
  563SOL     OW 2587   0.817   0.269   3.820
  563SOL    HW1 2588   0.907   0.311   3.832
  563SOL    HW2 2589   0.763   0.281   3.903
  564SOL     OW 2590   6.320   3.216   6.053
  564SOL    HW1 2591   6.351   3.143   6.114
  564SOL    HW2 2592   6.250   3.270   6.099
  565SOL     OW 2593   3.654   3.386   3.455
  565SOL    HW1 2594   3.661   3.438   3.540
  565SOL    HW2 2595   3.700   3.298   3.466
  566SOL     OW 2596   0.876   2.616   3.296
  566SOL    HW1 2597   0.848   2.551   3.367
  566SOL    HW2 2598   0.878   2.570   3.207
  567SOL     OW 2599   1.868   2.437   5.177
  567SOL    HW1 2600   1.827   2.506   5.118
  567SOL    HW2 2601   1.949   2.474   5.222
  568SOL     OW 2602   0.767   0.484   6.492
  568SOL    HW1 2603   0.768   0.572   6.444
  568SOL    HW2 2604   0.682   0.435   6.472
  569SOL     OW 2605   5.242   3.188   5.133
  569SOL    HW1 2606   5.158   3.237   5.155
  569SOL    HW2 2607   5.284   3.229   5.051
  570SOL     OW 2608   2.555   0.537   5.480
  570SOL    HW1 2609   2.600   0.596   5.546
  570SOL    HW2 2610   2.510   0.461   5.527
  571SOL     OW 2611   2.326   4.227   2.414
  571SOL    HW1 2612   2.339   4.240   2.512
  571SOL    HW2 2613   2.242   4.175   2.398
  572SOL     OW 2614   2.930   1.361   4.720
  572SOL    HW1 2615   2.962   1.448   4.681
  572SOL    HW2 2616   2.924   1.368   4.819
  573SOL     OW 2617   0.386   0.221   5.638
  573SOL    HW1 2618   0.368   0.126   5.667
  573SOL    HW2 2619   0.427   0.271   5.714
  574SOL     OW 2620   3.332   1.327   5.545
  574SOL    HW1 2621   3.279   1.279   5.476
  574SOL    HW2 2622   3.291   1.417   5.563
  575SOL     OW 2623   3.775   4.060   6.653
  575SOL    HW1 2624   3.850   3.999   6.680
  575SOL    HW2 2625   3.812   4.142   6.609
  576SOL     OW 2626   0.002   1.203   3.859
  576SOL    HW1 2627   0.059   1.178   3.938
  576SOL    HW2 2628   0.022   1.297   3.832
  577SOL     OW 2629   6.131   0.208   1.486
  577SOL    HW1 2630   6.092   0.171   1.401
  577SOL    HW2 2631   6.228   0.186   1.491
  578SOL     OW 2632   4.134   6.318   1.095
  578SOL    HW1 2633   4.168   6.405   1.059
  578SOL    HW2 2634   4.207   6.273   1.147
  579SOL     OW 2635   0.325   4.235   2.012
  579SOL    HW1 2636   0.333   4.136   2.023
  579SOL    HW2 2637   0.257   4.271   2.076
  580SOL     OW 2638   4.741   4.295   4.919
  580SOL    HW1 2639   4.755   4.198   4.937
  580SOL    HW2 2640   4.703   4.339   5.000
  581SOL     OW 2641   2.760   1.735   4.100
  581SOL    HW1 2642   2.859   1.724   4.097
  581SOL    HW2 2643   2.718   1.683   4.026
  582SOL     OW 2644   6.829   4.602   5.486
  582SOL    HW1 2645   6.845   4.559   5.397
  582SOL    HW2 2646   6.874   4.691   5.488
  583SOL     OW 2647   2.937   6.239   4.922
  583SOL    HW1 2648   3.014   6.298   4.944
  583SOL    HW2 2649   2.970   6.151   4.888
  584SOL     OW 2650   3.926   0.756   4.819
  584SOL    HW1 2651   3.847   0.710   4.859
  584SOL    HW2 2652   3.903   0.852   4.800
  585SOL     OW 2653   3.566   6.584   1.868
  585SOL    HW1 2654   3.472   6.555   1.850
  585SOL    HW2 2655   3.569   6.636   1.953
  586SOL     OW 2656   3.224   6.508   1.146
  586SOL    HW1 2657   3.177   6.476   1.228
  586SOL    HW2 2658   3.187   6.461   1.066
  587SOL     OW 2659   5.730   0.619   3.525
  587SOL    HW1 2660   5.694   0.559   3.597
  587SOL    HW2 2661   5.764   0.564   3.449
  588SOL     OW 2662   2.217   4.156   2.927
  588SOL    HW1 2663   2.272   4.226   2.882
  588SOL    HW2 2664   2.174   4.196   3.009
  589SOL     OW 2665   3.660   5.420   5.632
  589SOL    HW1 2666   3.576   5.366   5.625
  589SOL    HW2 2667   3.636   5.516   5.651
  590SOL     OW 2668   1.898   0.664   6.473
  590SOL    HW1 2669   1.847   0.708   6.547
  590SOL    HW2 2670   1.924   0.572   6.501
  591SOL     OW 2671   2.413   0.264   3.662
  591SOL    HW1 2672   2.441   0.349   3.707
  591SOL    HW2 2673   2.411   0.279   3.563
  592SOL     OW 2674   5.366   1.459   4.220
  592SOL    HW1 2675   5.309   1.532   4.183
  592SOL    HW2 2676   5.373   1.384   4.154
  593SOL     OW 2677   1.174   6.840   6.758
  593SOL    HW1 2678   1.171   6.849   6.658
  593SOL    HW2 2679   1.266   6.858   6.791
  594SOL     OW 2680   2.661   1.017   4.659
  594SOL    HW1 2681   2.670   1.113   4.632
  594SOL    HW2 2682   2.721   0.999   4.737
  595SOL     OW 2683   5.528   4.011   2.965
  595SOL    HW1 2684   5.576   3.967   2.888
  595SOL    HW2 2685   5.449   3.956   2.991
  596SOL     OW 2686   6.824   5.164   5.007
  596SOL    HW1 2687   6.843   5.110   5.089
  596SOL    HW2 2688   6.745   5.126   4.960
  597SOL     OW 2689   3.278   0.839   6.484
  597SOL    HW1 2690   3.181   0.817   6.484
  597SOL    HW2 2691   3.290   0.938   6.472
  598SOL     OW 2692   3.107   2.983   2.200
  598SOL    HW1 2693   3.086   2.888   2.180
  598SOL    HW2 2694   3.044   3.043   2.150
  599SOL     OW 2695   1.613   5.677   1.947
  599SOL    HW1 2696   1.533   5.619   1.967
  599SOL    HW2 2697   1.616   5.753   2.012
  600SOL     OW 2698   0.774   4.492   5.035
  600SOL    HW1 2699   0.833   4.573   5.035
  600SOL    HW2 2700   0.690   4.513   4.985
  601SOL     OW 2701   6.563   6.979   5.802
  601SOL    HW1 2702   6.591   6.968   5.898
  601SOL    HW2 2703   6.643   6.968   5.743
  602SOL     OW 2704   0.403   0.826   2.962
  602SOL    HW1 2705   0.427   0.890   2.889
  602SOL    HW2 2706   0.304   0.824   2.973
  603SOL     OW 2707   1.262   1.095   3.605
  603SOL    HW1 2708   1.283   1.135   3.694
  603SOL    HW2 2709   1.341   1.106   3.545
  604SOL     OW 2710   5.225   2.794   0.882
  604SOL    HW1 2711   5.174   2.762   0.962
  604SOL    HW2 2712   5.216   2.726   0.808
  605SOL     OW 2713   6.047   6.644   1.472
  605SOL    HW1 2714   5.968   6.633   1.412
  605SOL    HW2 2715   6.079   6.739   1.466
  606SOL     OW 2716   2.271   6.662   5.614
  606SOL    HW1 2717   2.269   6.762   5.621
  606SOL    HW2 2718   2.320   6.624   5.693
  607SOL     OW 2719   1.567   3.488   5.842
  607SOL    HW1 2720   1.514   3.572   5.853
  607SOL    HW2 2721   1.510   3.419   5.798
  608SOL     OW 2722   2.537   1.373   6.599
  608SOL    HW1 2723   2.563   1.328   6.513
  608SOL    HW2 2724   2.591   1.456   6.611
  609SOL     OW 2725   3.635   3.052   2.476
  609SOL    HW1 2726   3.730   3.081   2.478
  609SOL    HW2 2727   3.589   3.081   2.560
  610SOL     OW 2728   5.594   2.907   2.787
  610SOL    HW1 2729   5.648   2.940   2.865
  610SOL    HW2 2730   5.607   2.808   2.778
  611SOL     OW 2731   4.073   1.121   2.077
  611SOL    HW1 2732   4.140   1.126   2.003
  611SOL    HW2 2733   4.098   1.185   2.149
  612SOL     OW 2734   4.216   5.237   4.339
  612SOL    HW1 2735   4.229   5.309   4.406
  612SOL    HW2 2736   4.304   5.194   4.317
  613SOL     OW 2737   4.183   6.901   6.307
  613SOL    HW1 2738   4.159   6.998   6.305
  613SOL    HW2 2739   4.101   6.845   6.292
  614SOL     OW 2740   3.160   6.841   6.038
  614SOL    HW1 2741   3.245   6.889   6.061
  614SOL    HW2 2742   3.181   6.746   6.016
  615SOL     OW 2743   6.992   5.084   4.289
  615SOL    HW1 2744   0.064   5.086   4.287
  615SOL    HW2 2745   6.960   5.073   4.383
  616SOL     OW 2746   6.912   2.682   3.722
  616SOL    HW1 2747   6.828   2.685   3.667
  616SOL    HW2 2748   6.974   2.615   3.682
  617SOL     OW 2749   2.977   7.024   6.228
  617SOL    HW1 2750   3.048   6.975   6.280
  617SOL    HW2 2751   2.993   7.012   6.130
  618SOL     OW 2752   2.340   6.707   3.257
  618SOL    HW1 2753   2.343   6.801   3.290
  618SOL    HW2 2754   2.249   6.669   3.273
  619SOL     OW 2755   1.075   3.298   0.084
  619SOL    HW1 2756   1.016   3.243   0.143
  619SOL    HW2 2757   1.103   3.381   0.133
  620SOL     OW 2758   4.889   3.540   0.944
  620SOL    HW1 2759   4.949   3.620   0.939
  620SOL    HW2 2760   4.796   3.566   0.920
  621SOL     OW 2761   0.171   5.919   1.209
  621SOL    HW1 2762   0.083   5.930   1.255
  621SOL    HW2 2763   0.245   5.935   1.274
  622SOL     OW 2764   1.742   1.652   6.991
  622SOL    HW1 2765   1.655   1.641   0.011
  622SOL    HW2 2766   1.768   1.749   6.991
  623SOL     OW 2767   5.781   5.766   5.647
  623SOL    HW1 2768   5.753   5.681   5.603
  623SOL    HW2 2769   5.833   5.745   5.730
  624SOL     OW 2770   7.024   1.465   1.176
  624SOL    HW1 2771   6.955   1.471   1.247
  624SOL    HW2 2772   0.059   1.543   1.185
  625SOL     OW 2773   2.214   1.029   1.655
  625SOL    HW1 2774   2.309   1.011   1.679
  625SOL    HW2 2775   2.166   1.067   1.734
  626SOL     OW 2776   3.909   6.131   5.806
  626SOL    HW1 2777   3.962   6.057   5.849
  626SOL    HW2 2778   3.972   6.200   5.770
  627SOL     OW 2779   3.889   5.094   0.013
  627SOL    HW1 2780   3.848   5.184   0.004
  627SOL    HW2 2781   3.821   5.030   0.051
  628SOL     OW 2782   5.026   3.535   4.103
  628SOL    HW1 2783   5.030   3.524   4.004
  628SOL    HW2 2784   4.965   3.465   4.142
  629SOL     OW 2785   0.854   0.418   1.543
  629SOL    HW1 2786   0.918   0.354   1.502
  629SOL    HW2 2787   0.765   0.412   1.496
  630SOL     OW 2788   2.353   1.051   2.257
  630SOL    HW1 2789   2.415   1.093   2.190
  630SOL    HW2 2790   2.404   1.028   2.340
  631SOL     OW 2791   3.042   1.211   3.634
  631SOL    HW1 2792   2.981   1.248   3.704
  631SOL    HW2 2793   3.097   1.137   3.674
  632SOL     OW 2794   3.026   1.154   0.218
  632SOL    HW1 2795   3.062   1.227   0.276
  632SOL    HW2 2796   2.975   1.089   0.275
  633SOL     OW 2797   2.221   0.252   3.868
  633SOL    HW1 2798   2.301   0.227   3.813
  633SOL    HW2 2799   2.207   0.183   3.939
  634SOL     OW 2800   2.483   5.409   1.553
  634SOL    HW1 2801   2.418   5.438   1.623
  634SOL    HW2 2802   2.535   5.330   1.587
  635SOL     OW 2803   2.602   6.596   1.469
  635SOL    HW1 2804   2.657   6.632   1.393
  635SOL    HW2 2805   2.510   6.578   1.437
  636SOL     OW 2806   4.948   5.490   6.552
  636SOL    HW1 2807   4.972   5.468   6.457
  636SOL    HW2 2808   4.850   5.507   6.559
  637SOL     OW 2809   6.118   4.623   6.316
  637SOL    HW1 2810   6.024   4.598   6.294
  637SOL    HW2 2811   6.119   4.688   6.392
  638SOL     OW 2812   5.454   1.667   3.452
  638SOL    HW1 2813   5.413   1.577   3.466
  638SOL    HW2 2814   5.553   1.662   3.468
  639SOL     OW 2815   3.303   3.684   1.622
  639SOL    HW1 2816   3.298   3.642   1.712
  639SOL    HW2 2817   3.398   3.707   1.601
  640SOL     OW 2818   3.084   3.192   5.185
  640SOL    HW1 2819   3.002   3.247   5.170
  640SOL    HW2 2820   3.162   3.236   5.140
  641SOL     OW 2821   0.931   0.591   4.840
  641SOL    HW1 2822   0.835   0.610   4.820
  641SOL    HW2 2823   0.963   0.516   4.783
  642SOL     OW 2824   0.395   5.172   7.010
  642SOL    HW1 2825   0.388   5.115   0.064
  642SOL    HW2 2826   0.451   5.125   6.942
  643SOL     OW 2827   5.131   6.802   4.445
  643SOL    HW1 2828   5.049   6.744   4.445
  643SOL    HW2 2829   5.170   6.803   4.353
  644SOL     OW 2830   3.455   6.018   1.989
  644SOL    HW1 2831   3.509   6.002   2.072
  644SOL    HW2 2832   3.395   5.940   1.974
  645SOL     OW 2833   0.465   3.096   3.461
  645SOL    HW1 2834   0.538   3.143   3.410
  645SOL    HW2 2835   0.384   3.088   3.402
  646SOL     OW 2836   1.877   3.589   4.259
  646SOL    HW1 2837   1.822   3.523   4.310
  646SOL    HW2 2838   1.821   3.668   4.236
  647SOL     OW 2839   5.571   5.169   0.984
  647SOL    HW1 2840   5.645   5.176   0.917
  647SOL    HW2 2841   5.530   5.259   0.998
  648SOL     OW 2842   4.654   1.976   3.701
  648SOL    HW1 2843   4.562   1.949   3.731
  648SOL    HW2 2844   4.654   2.074   3.682
  649SOL     OW 2845   4.412   4.302   1.495
  649SOL    HW1 2846   4.375   4.393   1.476
  649SOL    HW2 2847   4.342   4.246   1.540
  650SOL     OW 2848   5.983   5.054   0.653
  650SOL    HW1 2849   6.013   5.068   0.747
  650SOL    HW2 2850   5.896   5.102   0.639
  651SOL     OW 2851   1.336   5.663   6.357
  651SOL    HW1 2852   1.369   5.673   6.263
  651SOL    HW2 2853   1.296   5.572   6.369
  652SOL     OW 2854   4.997   2.974   1.738
  652SOL    HW1 2855   4.939   2.894   1.722
  652SOL    HW2 2856   5.056   2.957   1.817
  653SOL     OW 2857   3.942   5.745   2.368
  653SOL    HW1 2858   3.956   5.649   2.343
  653SOL    HW2 2859   3.881   5.750   2.447
  654SOL     OW 2860   0.083   4.073   6.681
  654SOL    HW1 2861   0.114   4.046   6.589
  654SOL    HW2 2862   0.098   4.171   6.694
  655SOL     OW 2863   1.950   1.350   0.859
  655SOL    HW1 2864   1.918   1.420   0.923
  655SOL    HW2 2865   2.026   1.300   0.900
  656SOL     OW 2866   2.665   6.011   0.688
  656SOL    HW1 2867   2.622   6.000   0.778
  656SOL    HW2 2868   2.644   6.102   0.653
  657SOL     OW 2869   3.835   0.356   6.330
  657SOL    HW1 2870   3.814   0.293   6.255
  657SOL    HW2 2871   3.924   0.399   6.314
  658SOL     OW 2872   4.006   5.535   0.125
  658SOL    HW1 2873   4.091   5.569   0.086
  658SOL    HW2 2874   3.992   5.440   0.097
  659SOL     OW 2875   2.975   1.123   6.145
  659SOL    HW1 2876   2.962   1.198   6.210
  659SOL    HW2 2877   2.950   1.155   6.053
  660SOL     OW 2878   3.032   5.921   3.876
  660SOL    HW1 2879   3.088   5.848   3.916
  660SOL    HW2 2880   2.935   5.904   3.895
  661SOL     OW 2881   0.011   5.447   3.127
  661SOL    HW1 2882   7.021   5.388   3.205
  661SOL    HW2 2883   7.004   5.539   3.145
  662SOL     OW 2884   3.699   2.048   0.067
  662SOL    HW1 2885   3.610   2.085   0.042
  662SOL    HW2 2886   3.766   2.123   0.074
  663SOL     OW 2887   1.239   3.851   4.942
  663SOL    HW1 2888   1.303   3.920   4.909
  663SOL    HW2 2889   1.221   3.866   5.039
  664SOL     OW 2890   5.539   0.266   6.098
  664SOL    HW1 2891   5.574   0.250   6.005
  664SOL    HW2 2892   5.503   0.180   6.134
  665SOL     OW 2893   1.819   3.829   2.655
  665SOL    HW1 2894   1.741   3.808   2.595
  665SOL    HW2 2895   1.892   3.869   2.601
  666SOL     OW 2896   4.222   1.332   2.724
  666SOL    HW1 2897   4.251   1.418   2.766
  666SOL    HW2 2898   4.193   1.267   2.794
  667SOL     OW 2899   5.874   6.587   1.072
  667SOL    HW1 2900   5.820   6.598   1.156
  667SOL    HW2 2901   5.965   6.627   1.085
  668SOL     OW 2902   4.904   3.508   6.742
  668SOL    HW1 2903   4.943   3.598   6.727
  668SOL    HW2 2904   4.855   3.479   6.660
  669SOL     OW 2905   5.737   0.412   3.757
  669SOL    HW1 2906   5.801   0.376   3.824
  669SOL    HW2 2907   5.654   0.444   3.803
  670SOL     OW 2908   3.967   1.808   2.109
  670SOL    HW1 2909   3.890   1.846   2.160
  670SOL    HW2 2910   4.044   1.793   2.172
  671SOL     OW 2911   0.847   5.338   1.843
  671SOL    HW1 2912   0.886   5.387   1.765
  671SOL    HW2 2913   0.849   5.239   1.824
  672SOL     OW 2914   6.967   6.996   1.494
  672SOL    HW1 2915   7.012   7.008   1.583
  672SOL    HW2 2916   6.913   6.911   1.496
  673SOL     OW 2917   6.705   6.651   6.392
  673SOL    HW1 2918   6.656   6.712   6.454
  673SOL    HW2 2919   6.641   6.608   6.329
  674SOL     OW 2920   4.789   6.671   4.272
  674SOL    HW1 2921   4.844   6.676   4.189
  674SOL    HW2 2922   4.694   6.652   4.249
  675SOL     OW 2923   0.249   4.853   2.502
  675SOL    HW1 2924   0.230   4.853   2.404
  675SOL    HW2 2925   0.207   4.932   2.545
  676SOL     OW 2926   2.041   5.912   6.687
  676SOL    HW1 2927   2.030   5.980   6.614
  676SOL    HW2 2928   2.021   5.955   6.775
  677SOL     OW 2929   5.405   0.895   0.925
  677SOL    HW1 2930   5.335   0.880   0.855
  677SOL    HW2 2931   5.478   0.827   0.915
  678SOL     OW 2932   0.014   5.661   4.324
  678SOL    HW1 2933   7.018   5.734   4.260
  678SOL    HW2 2934   6.967   5.596   4.328
  679SOL     OW 2935   5.815   0.267   6.156
  679SOL    HW1 2936   5.716   0.274   6.173
  679SOL    HW2 2937   5.863   0.332   6.216
  680SOL     OW 2938   6.161   0.527   3.957
  680SOL    HW1 2939   6.090   0.459   3.976
  680SOL    HW2 2940   6.164   0.545   3.858
  681SOL     OW 2941   4.716   4.742   3.221
  681SOL    HW1 2942   4.764   4.766   3.305
  681SOL    HW2 2943   4.701   4.824   3.166
  682SOL     OW 2944   6.067   2.498   3.623
  682SOL    HW1 2945   5.973   2.501   3.588
  682SOL    HW2 2946   6.113   2.583   3.600
  683SOL     OW 2947   2.793   6.032   6.720
  683SOL    HW1 2948   2.699   6.015   6.691
  683SOL    HW2 2949   2.856   5.981   6.661
  684SOL     OW 2950   5.546   2.107   6.090
  684SOL    HW1 2951   5.614   2.161   6.138
  684SOL    HW2 2952   5.589   2.061   6.012
  685SOL     OW 2953   3.689   6.547   3.180
  685SOL    HW1 2954   3.630   6.470   3.155
  685SOL    HW2 2955   3.715   6.597   3.098
  686SOL     OW 2956   2.496   0.962   5.520
  686SOL    HW1 2957   2.480   0.970   5.422
  686SOL    HW2 2958   2.590   0.988   5.542
  687SOL     OW 2959   0.514   1.283   4.669
  687SOL    HW1 2960   0.478   1.239   4.751
  687SOL    HW2 2961   0.585   1.226   4.628
  688SOL     OW 2962   4.672   3.728   6.585
  688SOL    HW1 2963   4.695   3.649   6.528
  688SOL    HW2 2964   4.631   3.799   6.528
  689SOL     OW 2965   2.193   6.306   6.729
  689SOL    HW1 2966   2.112   6.304   6.788
  689SOL    HW2 2967   2.275   6.314   6.786
  690SOL     OW 2968   5.928   3.241   4.304
  690SOL    HW1 2969   5.895   3.166   4.246
  690SOL    HW2 2970   5.969   3.312   4.246
  691SOL     OW 2971   5.602   6.565   2.768
  691SOL    HW1 2972   5.689   6.611   2.785
  691SOL    HW2 2973   5.585   6.500   2.842
  692SOL     OW 2974   1.905   6.685   3.430
  692SOL    HW1 2975   1.883   6.691   3.528
  692SOL    HW2 2976   2.000   6.711   3.416
  693SOL     OW 2977   6.109   4.046   1.808
  693SOL    HW1 2978   6.021   4.083   1.836
  693SOL    HW2 2979   6.182   4.096   1.854
  694SOL     OW 2980   4.513   5.170   4.614
  694SOL    HW1 2981   4.468   5.258   4.598
  694SOL    HW2 2982   4.598   5.185   4.664
  695SOL     OW 2983   4.524   0.307   4.546
  695SOL    HW1 2984   4.542   0.209   4.537
  695SOL    HW2 2985   4.592   0.359   4.496
  696SOL     OW 2986   6.746   4.385   1.594
  696SOL    HW1 2987   6.766   4.364   1.499
  696SOL    HW2 2988   6.828   4.423   1.638
  697SOL     OW 2989   1.159   6.492   3.364
  697SOL    HW1 2990   1.116   6.582   3.359
  697SOL    HW2 2991   1.137   6.449   3.451
  698SOL     OW 2992   5.699   6.775   5.214
  698SOL    HW1 2993   5.627   6.723   5.168
  698SOL    HW2 2994   5.676   6.872   5.213
  699SOL     OW 2995   4.433   2.887   0.797
  699SOL    HW1 2996   4.438   2.794   0.762
  699SOL    HW2 2997   4.346   2.901   0.844
  700SOL     OW 2998   3.621   0.145   5.329
  700SOL    HW1 2999   3.627   0.093   5.243
  700SOL    HW2 3000   3.545   0.210   5.324
  701SOL     OW 3001   4.564   4.172   1.662
  701SOL    HW1 3002   4.522   4.215   1.582
  701SOL    HW2 3003   4.523   4.209   1.745
  702SOL     OW 3004   3.121   0.788   5.098
  702SOL    HW1 3005   3.138   0.761   5.003
  702SOL    HW2 3006   3.197   0.846   5.129
  703SOL     OW 3007   3.912   3.025   0.693
  703SOL    HW1 3008   3.927   3.037   0.791
  703SOL    HW2 3009   3.976   3.082   0.642
  704SOL     OW 3010   3.273   1.913   0.294
  704SOL    HW1 3011   3.333   1.910   0.214
  704SOL    HW2 3012   3.300   1.842   0.359
  705SOL     OW 3013   6.579   6.802   6.671
  705SOL    HW1 3014   6.526   6.723   6.702
  705SOL    HW2 3015   6.675   6.790   6.695
  706SOL     OW 3016   3.512   0.046   4.986
  706SOL    HW1 3017   3.419   0.052   5.023
  706SOL    HW2 3018   3.569   7.020   5.048
  707SOL     OW 3019   3.903   5.183   4.263
  707SOL    HW1 3020   3.971   5.243   4.305
  707SOL    HW2 3021   3.946   5.097   4.236
  708SOL     OW 3022   2.711   5.663   4.008
  708SOL    HW1 3023   2.684   5.566   4.009
  708SOL    HW2 3024   2.630   5.720   3.993
  709SOL     OW 3025   1.825   6.715   1.743
  709SOL    HW1 3026   1.855   6.803   1.780
  709SOL    HW2 3027   1.726   6.706   1.754
  710SOL     OW 3028   4.776   2.802   3.113
  710SOL    HW1 3029   4.691   2.750   3.119
  710SOL    HW2 3030   4.816   2.790   3.022
  711SOL     OW 3031   6.518   1.244   0.417
  711SOL    HW1 3032   6.569   1.159   0.422
  711SOL    HW2 3033   6.425   1.230   0.452
  712SOL     OW 3034   4.512   4.873   6.361
  712SOL    HW1 3035   4.453   4.793   6.352
  712SOL    HW2 3036   4.522   4.896   6.458
  713SOL     OW 3037   2.552   2.836   5.376
  713SOL    HW1 3038   2.466   2.791   5.401
  713SOL    HW2 3039   2.532   2.916   5.319
  714SOL     OW 3040   3.907   7.020   2.041
  714SOL    HW1 3041   3.830   0.051   2.066
  714SOL    HW2 3042   3.987   0.049   2.022
  715SOL     OW 3043   6.373   3.912   5.945
  715SOL    HW1 3044   6.382   4.010   5.930
  715SOL    HW2 3045   6.399   3.863   5.861
  716SOL     OW 3046   2.895   0.674   3.223
  716SOL    HW1 3047   2.990   0.645   3.223
  716SOL    HW2 3048   2.888   0.767   3.187
  717SOL     OW 3049   5.383   4.578   3.496
  717SOL    HW1 3050   5.304   4.595   3.554
  717SOL    HW2 3051   5.352   4.560   3.402
  718SOL     OW 3052   6.884   2.035   5.673
  718SOL    HW1 3053   6.813   2.076   5.616
  718SOL    HW2 3054   6.906   1.944   5.639
  719SOL     OW 3055   4.654   5.195   2.685
  719SOL    HW1 3056   4.557   5.170   2.680
  719SOL    HW2 3057   4.708   5.132   2.630
  720SOL     OW 3058   3.110   1.343   1.167
  720SOL    HW1 3059   3.119   1.393   1.253
  720SOL    HW2 3060   3.015   1.314   1.155
  721SOL     OW 3061   0.258   2.310   2.981
  721SOL    HW1 3062   0.299   2.221   2.961
  721SOL    HW2 3063   0.303   2.381   2.926
  722SOL     OW 3064   5.721   5.833   2.305
  722SOL    HW1 3065   5.720   5.783   2.391
  722SOL    HW2 3066   5.756   5.926   2.321
  723SOL     OW 3067   1.970   0.507   4.137
  723SOL    HW1 3068   1.998   0.599   4.161
  723SOL    HW2 3069   1.871   0.498   4.148
  724SOL     OW 3070   1.465   2.135   4.553
  724SOL    HW1 3071   1.530   2.187   4.608
  724SOL    HW2 3072   1.471   2.038   4.577
  725SOL     OW 3073   2.166   3.722   3.826
  725SOL    HW1 3074   2.174   3.748   3.922
  725SOL    HW2 3075   2.200   3.796   3.768
  726SOL     OW 3076   1.709   3.159   0.380
  726SOL    HW1 3077   1.676   3.104   0.304
  726SOL    HW2 3078   1.703   3.106   0.464
  727SOL     OW 3079   4.095   5.405   5.380
  727SOL    HW1 3080   4.039   5.343   5.436
  727SOL    HW2 3081   4.035   5.457   5.319
  728SOL     OW 3082   5.593   3.378   4.218
  728SOL    HW1 3083   5.678   3.410   4.261
  728SOL    HW2 3084   5.616   3.319   4.140
  729SOL     OW 3085   6.928   4.691   0.925
  729SOL    HW1 3086   6.948   4.786   0.901
  729SOL    HW2 3087   7.013   4.639   0.930
  730SOL     OW 3088   3.796   0.996   4.096
  730SOL    HW1 3089   3.761   1.023   4.006
  730SOL    HW2 3090   3.888   1.034   4.108
  731SOL     OW 3091   4.980   4.318   4.694
  731SOL    HW1 3092   4.997   4.268   4.779
  731SOL    HW2 3093   5.007   4.261   4.616
  732SOL     OW 3094   4.562   0.791   4.684
  732SOL    HW1 3095   4.584   0.884   4.712
  732SOL    HW2 3096   4.642   0.733   4.696
  733SOL     OW 3097   0.262   5.159   4.327
  733SOL    HW1 3098   0.240   5.250   4.362
  733SOL    HW2 3099   0.332   5.117   4.385
  734SOL     OW 3100   6.506   5.563   3.463
  734SOL    HW1 3101   6.446   5.641   3.485
  734SOL    HW2 3102   6.592   5.596   3.427
  735SOL     OW 3103   4.924   0.759   1.915
  735SOL    HW1 3104   4.963   0.714   1.834
  735SOL    HW2 3105   4.974   0.729   1.996
  736SOL     OW 3106   1.923   1.681   3.001
  736SOL    HW1 3107   1.846   1.625   2.972
  736SOL    HW2 3108   1.935   1.757   2.936
  737SOL     OW 3109   2.907   2.189   6.591
  737SOL    HW1 3110   2.991   2.195   6.645
  737SOL    HW2 3111   2.845   2.123   6.635
  738SOL     OW 3112   1.713   4.996   0.389
  738SOL    HW1 3113   1.717   4.901   0.421
  738SOL    HW2 3114   1.618   5.028   0.391
  739SOL     OW 3115   2.104   0.818   2.466
  739SOL    HW1 3116   2.057   0.867   2.540
  739SOL    HW2 3117   2.135   0.729   2.498
  740SOL     OW 3118   4.283   2.220   2.517
  740SOL    HW1 3119   4.234   2.232   2.431
  740SOL    HW2 3120   4.340   2.137   2.512
  741SOL     OW 3121   3.527   1.261   2.187
  741SOL    HW1 3122   3.433   1.241   2.213
  741SOL    HW2 3123   3.586   1.183   2.210
  742SOL     OW 3124   2.227   7.011   1.859
  742SOL    HW1 3125   2.221   6.991   1.761
  742SOL    HW2 3126   2.155   0.048   1.884
  743SOL     OW 3127   0.034   6.293   3.083
  743SOL    HW1 3128   0.101   6.220   3.069
  743SOL    HW2 3129   0.066   6.376   3.036
  744SOL     OW 3130   6.153   1.023   0.355
  744SOL    HW1 3131   6.135   0.934   0.396
  744SOL    HW2 3132   6.165   1.091   0.428
  745SOL     OW 3133   1.005   6.531   5.119
  745SOL    HW1 3134   0.989   6.548   5.022
  745SOL    HW2 3135   0.916   6.520   5.165
  746SOL     OW 3136   6.727   5.532   6.130
  746SOL    HW1 3137   6.743   5.496   6.038
  746SOL    HW2 3138   6.630   5.529   6.151
  747SOL     OW 3139   2.889   5.038   2.168
  747SOL    HW1 3140   2.969   4.993   2.205
  747SOL    HW2 3141   2.910   5.077   2.079
  748SOL     OW 3142   6.400   5.571   2.937
  748SOL    HW1 3143   6.500   5.581   2.939
  748SOL    HW2 3144   6.366   5.568   3.031
  749SOL     OW 3145   4.800   4.048   5.011
  749SOL    HW1 3146   4.769   3.964   4.968
  749SOL    HW2 3147   4.801   4.037   5.110
  750SOL     OW 3148   2.851   1.896   2.221
  750SOL    HW1 3149   2.793   1.932   2.294
  750SOL    HW2 3150   2.925   1.961   2.202
  751SOL     OW 3151   3.694   0.309   0.554
  751SOL    HW1 3152   3.761   0.235   0.565
  751SOL    HW2 3153   3.717   0.363   0.473
  752SOL     OW 3154   3.155   3.172   3.924
  752SOL    HW1 3155   3.229   3.111   3.950
  752SOL    HW2 3156   3.109   3.136   3.843
  753SOL     OW 3157   3.088   3.922   3.637
  753SOL    HW1 3158   3.095   3.988   3.712
  753SOL    HW2 3159   3.164   3.857   3.642
  754SOL     OW 3160   4.675   0.215   5.612
  754SOL    HW1 3161   4.613   0.276   5.660
  754SOL    HW2 3162   4.624   0.163   5.543
  755SOL     OW 3163   5.089   4.289   5.150
  755SOL    HW1 3164   5.189   4.295   5.147
  755SOL    HW2 3165   5.062   4.225   5.222
  756SOL     OW 3166   3.212   5.944   6.524
  756SOL    HW1 3167   3.162   5.986   6.600
  756SOL    HW2 3168   3.195   5.995   6.440
  757SOL     OW 3169   0.412   7.017   1.423
  757SOL    HW1 3170   0.327   6.964   1.414
  757SOL    HW2 3171   0.395   0.069   1.479
  758SOL     OW 3172   3.899   1.103   6.235
  758SOL    HW1 3173   3.842   1.028   6.204
  758SOL    HW2 3174   3.842   1.182   6.258
  759SOL     OW 3175   0.083   1.885   3.447
  759SOL    HW1 3176   0.083   1.826   3.367
  759SOL    HW2 3177   0.139   1.966   3.430
  760SOL     OW 3178   7.010   6.169   4.493
  760SOL    HW1 3179   0.070   6.135   4.461
  760SOL    HW2 3180   6.943   6.094   4.490
  761SOL     OW 3181   4.636   4.453   5.969
  761SOL    HW1 3182   4.637   4.498   5.880
  761SOL    HW2 3183   4.568   4.380   5.969
  762SOL     OW 3184   4.124   5.868   4.147
  762SOL    HW1 3185   4.053   5.851   4.079
  762SOL    HW2 3186   4.093   5.937   4.212
  763SOL     OW 3187   5.524   1.102   0.204
  763SOL    HW1 3188   5.517   1.186   0.257
  763SOL    HW2 3189   5.496   1.024   0.260
  764SOL     OW 3190   4.708   6.061   4.583
  764SOL    HW1 3191   4.662   6.119   4.516
  764SOL    HW2 3192   4.705   6.106   4.673
  765SOL     OW 3193   5.198   6.307   0.110
  765SOL    HW1 3194   5.194   6.324   0.208
  765SOL    HW2 3195   5.109   6.272   0.078
  766SOL     OW 3196   3.254   1.082   3.771
  766SOL    HW1 3197   3.227   0.987   3.757
  766SOL    HW2 3198   3.322   1.087   3.844
  767SOL     OW 3199   6.420   6.783   3.347
  767SOL    HW1 3200   6.501   6.743   3.389
  767SOL    HW2 3201   6.432   6.883   3.340
  768SOL     OW 3202   3.237   6.148   1.063
  768SOL    HW1 3203   3.251   6.237   1.019
  768SOL    HW2 3204   3.141   6.140   1.091
  769SOL     OW 3205   3.562   2.041   5.434
  769SOL    HW1 3206   3.638   1.988   5.471
  769SOL    HW2 3207   3.588   2.137   5.427
  770SOL     OW 3208   0.041   5.290   5.988
  770SOL    HW1 3209   0.090   5.324   5.907
  770SOL    HW2 3210   0.023   5.192   5.977
  771SOL     OW 3211   1.714   4.716   2.549
  771SOL    HW1 3212   1.719   4.791   2.615
  771SOL    HW2 3213   1.782   4.730   2.477
  772SOL     OW 3214   6.300   4.916   0.097
  772SOL    HW1 3215   6.348   5.001   0.120
  772SOL    HW2 3216   6.343   4.874   0.017
  773SOL     OW 3217   1.267   4.447   3.608
  773SOL    HW1 3218   1.339   4.487   3.552
  773SOL    HW2 3219   1.302   4.431   3.701
  774SOL     OW 3220   1.840   3.034   3.569
  774SOL    HW1 3221   1.811   2.968   3.638
  774SOL    HW2 3222   1.806   3.125   3.594
  775SOL     OW 3223   0.917   4.751   2.305
  775SOL    HW1 3224   0.844   4.746   2.373
  775SOL    HW2 3225   0.955   4.660   2.290
  776SOL     OW 3226   2.365   4.337   0.433
  776SOL    HW1 3227   2.411   4.352   0.520
  776SOL    HW2 3228   2.396   4.405   0.367
  777SOL     OW 3229   1.130   3.458   6.642
  777SOL    HW1 3230   1.186   3.449   6.725
  777SOL    HW2 3231   1.083   3.372   6.623
  778SOL     OW 3232   3.615   5.681   0.209
  778SOL    HW1 3233   3.650   5.588   0.221
  778SOL    HW2 3234   3.617   5.705   0.112
  779SOL     OW 3235   5.290   2.335   3.606
  779SOL    HW1 3236   5.205   2.286   3.589
  779SOL    HW2 3237   5.362   2.270   3.628
  780SOL     OW 3238   6.235   1.503   5.447
  780SOL    HW1 3239   6.250   1.499   5.349
  780SOL    HW2 3240   6.140   1.482   5.468
  781SOL     OW 3241   0.043   4.979   6.619
  781SOL    HW1 3242   0.016   5.024   6.704
  781SOL    HW2 3243   0.143   4.977   6.613
  782SOL     OW 3244   2.100   4.325   5.668
  782SOL    HW1 3245   2.143   4.297   5.583
  782SOL    HW2 3246   2.000   4.327   5.656
  783SOL     OW 3247   0.072   5.120   5.753
  783SOL    HW1 3248   0.146   5.187   5.753
  783SOL    HW2 3249   0.067   5.075   5.664
  784SOL     OW 3250   1.062   5.504   5.738
  784SOL    HW1 3251   1.009   5.435   5.787
  784SOL    HW2 3252   1.054   5.489   5.640
  785SOL     OW 3253   0.541   0.508   3.745
  785SOL    HW1 3254   0.499   0.484   3.832
  785SOL    HW2 3255   0.573   0.424   3.699
  786SOL     OW 3256   6.447   2.203   5.439
  786SOL    HW1 3257   6.385   2.221   5.515
  786SOL    HW2 3258   6.437   2.108   5.409
  787SOL     OW 3259   2.510   6.379   0.291
  787SOL    HW1 3260   2.505   6.279   0.291
  787SOL    HW2 3261   2.498   6.413   0.198
  788SOL     OW 3262   2.214   3.134   2.541
  788SOL    HW1 3263   2.188   3.214   2.596
  788SOL    HW2 3264   2.293   3.157   2.484
  789SOL     OW 3265   3.294   5.302   2.052
  789SOL    HW1 3266   3.393   5.310   2.063
  789SOL    HW2 3267   3.274   5.229   1.988
  790SOL     OW 3268   0.126   3.711   3.669
  790SOL    HW1 3269   0.120   3.792   3.610
  790SOL    HW2 3270   0.222   3.695   3.693
  791SOL     OW 3271   3.884   0.503   3.699
  791SOL    HW1 3272   3.831   0.545   3.772
  791SOL    HW2 3273   3.833   0.507   3.613
  792SOL     OW 3274   3.205   0.848   0.604
  792SOL    HW1 3275   3.212   0.797   0.518
  792SOL    HW2 3276   3.287   0.903   0.617
  793SOL     OW 3277   2.880   5.821   4.142
  793SOL    HW1 3278   2.843   5.912   4.121
  793SOL    HW2 3279   2.824   5.751   4.097
  794SOL     OW 3280   3.757   2.849   1.525
  794SOL    HW1 3281   3.848   2.819   1.493
  794SOL    HW2 3282   3.753   2.839   1.625
  795SOL     OW 3283   3.469   6.491   6.132
  795SOL    HW1 3284   3.475   6.423   6.204
  795SOL    HW2 3285   3.509   6.454   6.048
  796SOL     OW 3286   1.318   2.554   6.632
  796SOL    HW1 3287   1.404   2.598   6.606
  796SOL    HW2 3288   1.281   2.504   6.553
  797SOL     OW 3289   2.601   6.830   6.896
  797SOL    HW1 3290   2.605   6.882   6.810
  797SOL    HW2 3291   2.506   6.827   6.928
  798SOL     OW 3292   5.602   4.231   1.872
  798SOL    HW1 3293   5.590   4.311   1.929
  798SOL    HW2 3294   5.519   4.215   1.819
  799SOL     OW 3295   3.587   3.414   4.231
  799SOL    HW1 3296   3.630   3.332   4.193
  799SOL    HW2 3297   3.650   3.458   4.295
  800SOL     OW 3298   5.153   3.176   3.684
  800SOL    HW1 3299   5.196   3.107   3.626
  800SOL    HW2 3300   5.102   3.130   3.757
  801SOL     OW 3301   1.583   4.328   0.167
  801SOL    HW1 3302   1.509   4.354   0.229
  801SOL    HW2 3303   1.571   4.232   0.141
  802SOL     OW 3304   4.056   2.771   6.054
  802SOL    HW1 3305   4.015   2.692   6.010
  802SOL    HW2 3306   4.133   2.742   6.112
  803SOL     OW 3307   3.296   2.135   3.531
  803SOL    HW1 3308   3.327   2.048   3.494
  803SOL    HW2 3309   3.301   2.205   3.460
  804SOL     OW 3310   4.194   6.901   2.812
  804SOL    HW1 3311   4.290   6.927   2.821
  804SOL    HW2 3312   4.187   6.815   2.761
  805SOL     OW 3313   3.992   2.096   3.571
  805SOL    HW1 3314   3.970   1.999   3.568
  805SOL    HW2 3315   4.092   2.107   3.564
  806SOL     OW 3316   4.443   6.214   5.681
  806SOL    HW1 3317   4.353   6.200   5.640
  806SOL    HW2 3318   4.462   6.140   5.746
  807SOL     OW 3319   1.242   6.636   6.203
  807SOL    HW1 3320   1.244   6.626   6.103
  807SOL    HW2 3321   1.282   6.554   6.245
  808SOL     OW 3322   5.220   1.404   5.242
  808SOL    HW1 3323   5.181   1.397   5.150
  808SOL    HW2 3324   5.244   1.500   5.260
  809SOL     OW 3325   2.770   6.076   4.102
  809SOL    HW1 3326   2.723   6.105   4.185
  809SOL    HW2 3327   2.719   6.109   4.022
  810SOL     OW 3328   3.287   3.083   6.203
  810SOL    HW1 3329   3.318   2.988   6.200
  810SOL    HW2 3330   3.265   3.114   6.111
  811SOL     OW 3331   6.112   5.133   5.429
  811SOL    HW1 3332   6.172   5.175   5.361
  811SOL    HW2 3333   6.167   5.080   5.493
  812SOL     OW 3334   1.911   2.028   0.450
  812SOL    HW1 3335   1.813   2.017   0.467
  812SOL    HW2 3336   1.962   2.002   0.531
  813SOL     OW 3337   3.285   1.153   4.750
  813SOL    HW1 3338   3.203   1.142   4.693
  813SOL    HW2 3339   3.307   1.066   4.794
  814SOL     OW 3340   1.127   4.490   1.779
  814SOL    HW1 3341   1.193   4.502   1.704
  814SOL    HW2 3342   1.121   4.392   1.801
  815SOL     OW 3343   3.915   0.137   3.612
  815SOL    HW1 3344   3.948   0.184   3.530
  815SOL    HW2 3345   3.855   0.198   3.663
  816SOL     OW 3346   4.482   3.913   6.416
  816SOL    HW1 3347   4.463   3.880   6.324
  816SOL    HW2 3348   4.525   4.003   6.411
  817SOL     OW 3349   6.464   5.355   0.656
  817SOL    HW1 3350   6.514   5.318   0.577
  817SOL    HW2 3351   6.403   5.428   0.625
  818SOL     OW 3352   6.823   1.110   5.097
  818SOL    HW1 3353   6.726   1.088   5.086
  818SOL    HW2 3354   6.847   1.186   5.036
  819SOL     OW 3355   5.600   3.996   2.039
  819SOL    HW1 3356   5.510   3.954   2.042
  819SOL    HW2 3357   5.601   4.067   1.968
  820SOL     OW 3358   2.391   1.837   5.239
  820SOL    HW1 3359   2.432   1.871   5.154
  820SOL    HW2 3360   2.455   1.849   5.315
  821SOL     OW 3361   4.243   4.218   6.360
  821SOL    HW1 3362   4.311   4.186   6.426
  821SOL    HW2 3363   4.256   4.315   6.342
  822SOL     OW 3364   0.047   3.973   2.962
  822SOL    HW1 3365   0.030   3.875   2.953
  822SOL    HW2 3366   0.016   4.020   2.880
  823SOL     OW 3367   1.761   3.317   5.131
  823SOL    HW1 3368   1.713   3.310   5.044
  823SOL    HW2 3369   1.858   3.296   5.118
  824SOL     OW 3370   4.262   0.319   6.595
  824SOL    HW1 3371   4.220   0.274   6.674
  824SOL    HW2 3372   4.346   0.365   6.624
  825SOL     OW 3373   6.826   6.659   1.748
  825SOL    HW1 3374   6.748   6.601   1.726
  825SOL    HW2 3375   6.838   6.662   1.847
  826SOL     OW 3376   3.806   2.205   0.376
  826SOL    HW1 3377   3.715   2.246   0.386
  826SOL    HW2 3378   3.832   2.161   0.462
  827SOL     OW 3379   3.350   3.509   4.724
  827SOL    HW1 3380   3.290   3.528   4.646
  827SOL    HW2 3381   3.409   3.432   4.702
  828SOL     OW 3382   0.361   6.013   5.774
  828SOL    HW1 3383   0.362   5.931   5.717
  828SOL    HW2 3384   0.333   6.091   5.718
  829SOL     OW 3385   3.554   2.884   2.278
  829SOL    HW1 3386   3.455   2.873   2.276
  829SOL    HW2 3387   3.578   2.961   2.337
  830SOL     OW 3388   0.793   4.025   6.147
  830SOL    HW1 3389   0.740   4.023   6.231
  830SOL    HW2 3390   0.807   4.120   6.118
  831SOL     OW 3391   5.572   1.536   3.921
  831SOL    HW1 3392   5.588   1.532   4.020
  831SOL    HW2 3393   5.656   1.564   3.874
  832SOL     OW 3394   3.048   2.048   5.097
  832SOL    HW1 3395   3.119   2.117   5.082
  832SOL    HW2 3396   3.025   2.045   5.194
  833SOL     OW 3397   3.091   2.199   6.406
  833SOL    HW1 3398   3.013   2.193   6.468
  833SOL    HW2 3399   3.073   2.269   6.337
  834SOL     OW 3400   5.984   3.577   1.495
  834SOL    HW1 3401   5.988   3.485   1.456
  834SOL    HW2 3402   5.889   3.602   1.512
  835SOL     OW 3403   6.888   6.245   5.011
  835SOL    HW1 3404   6.880   6.249   4.911
  835SOL    HW2 3405   6.965   6.302   5.040
  836SOL     OW 3406   0.258   0.250   3.800
  836SOL    HW1 3407   0.241   0.275   3.705
  836SOL    HW2 3408   0.284   0.153   3.805
  837SOL     OW 3409   0.428   0.008   6.623
  837SOL    HW1 3410   0.458   6.997   6.537
  837SOL    HW2 3411   0.413   6.963   6.690
  838SOL     OW 3412   0.674   5.610   3.516
  838SOL    HW1 3413   0.747   5.588   3.581
  838SOL    HW2 3414   0.586   5.607   3.563
  839SOL     OW 3415   1.856   1.903   0.015
  839SOL    HW1 3416   1.800   1.973   6.998
  839SOL    HW2 3417   1.923   1.947   0.075
  840SOL     OW 3418   4.758   5.076   0.244
  840SOL    HW1 3419   4.831   5.083   0.177
  840SOL    HW2 3420   4.730   4.980   0.253
  841SOL     OW 3421   3.164   4.626   0.544
  841SOL    HW1 3422   3.203   4.534   0.550
  841SOL    HW2 3423   3.236   4.694   0.559
  842SOL     OW 3424   3.896   5.493   1.081
  842SOL    HW1 3425   3.871   5.542   1.164
  842SOL    HW2 3426   3.814   5.468   1.030
  843SOL     OW 3427   1.985   6.852   2.202
  843SOL    HW1 3428   1.914   6.813   2.261
  843SOL    HW2 3429   2.075   6.837   2.244
  844SOL     OW 3430   0.091   6.666   1.738
  844SOL    HW1 3431   0.141   6.752   1.731
  844SOL    HW2 3432   7.021   6.684   1.746
  845SOL     OW 3433   4.241   1.670   1.599
  845SOL    HW1 3434   4.282   1.632   1.515
  845SOL    HW2 3435   4.143   1.681   1.585
  846SOL     OW 3436   1.370   0.079   1.328
  846SOL    HW1 3437   1.421   7.021   1.327
  846SOL    HW2 3438   1.338   0.099   1.420
  847SOL     OW 3439   2.535   3.124   1.659
  847SOL    HW1 3440   2.619   3.174   1.643
  847SOL    HW2 3441   2.544   3.030   1.625
  848SOL     OW 3442   6.340   6.541   0.992
  848SOL    HW1 3443   6.395   6.560   1.073
  848SOL    HW2 3444   6.252   6.588   0.999
  849SOL     OW 3445   5.151   2.805   6.498
  849SOL    HW1 3446   5.083   2.780   6.430
  849SOL    HW2 3447   5.106   2.834   6.582
  850SOL     OW 3448   2.424   0.912   3.977
  850SOL    HW1 3449   2.408   0.845   3.904
  850SOL    HW2 3450   2.445   0.864   4.062
  851SOL     OW 3451   4.646   2.746   5.973
  851SOL    HW1 3452   4.716   2.791   5.917
  851SOL    HW2 3453   4.672   2.651   5.989
  852SOL     OW 3454   0.848   4.429   1.750
  852SOL    HW1 3455   0.813   4.433   1.844
  852SOL    HW2 3456   0.944   4.457   1.749
  853SOL     OW 3457   3.537   2.760   0.576
  853SOL    HW1 3458   3.515   2.802   0.664
  853SOL    HW2 3459   3.564   2.665   0.590
  854SOL     OW 3460   6.999   0.991   5.670
  854SOL    HW1 3461   6.955   1.068   5.623
  854SOL    HW2 3462   6.929   0.935   5.715
  855SOL     OW 3463   4.383   1.942   6.977
  855SOL    HW1 3464   4.339   2.017   7.027
  855SOL    HW2 3465   4.326   1.860   6.982
  856SOL     OW 3466   0.898   6.166   1.328
  856SOL    HW1 3467   0.827   6.101   1.357
  856SOL    HW2 3468   0.861   6.259   1.331
  857SOL     OW 3469   0.146   6.120   5.325
  857SOL    HW1 3470   0.168   6.124   5.422
  857SOL    HW2 3471   0.219   6.165   5.273
  858SOL     OW 3472   3.033   4.731   0.801
  858SOL    HW1 3473   3.022   4.641   0.759
  858SOL    HW2 3474   3.028   4.722   0.900
  859SOL     OW 3475   4.530   5.911   6.182
  859SOL    HW1 3476   4.526   5.856   6.266
  859SOL    HW2 3477   4.626   5.925   6.156
  860SOL     OW 3478   3.729   2.964   6.934
  860SOL    HW1 3479   3.683   3.017   7.005
  860SOL    HW2 3480   3.777   2.887   6.976
  861SOL     OW 3481   1.051   5.099   2.471
  861SOL    HW1 3482   1.089   5.191   2.475
  861SOL    HW2 3483   1.059   5.056   2.562
  862SOL     OW 3484   1.124   4.999   4.193
  862SOL    HW1 3485   1.134   5.098   4.190
  862SOL    HW2 3486   1.031   4.973   4.167
  863SOL     OW 3487   5.038   7.024   1.264
  863SOL    HW1 3488   5.046   0.020   1.361
  863SOL    HW2 3489   5.045   6.925   1.254
  864SOL     OW 3490   5.494   3.403   3.599
  864SOL    HW1 3491   5.593   3.397   3.590
  864SOL    HW2 3492   5.463   3.494   3.570
  865SOL     OW 3493   1.981   4.980   5.051
  865SOL    HW1 3494   1.907   4.969   4.985
  865SOL    HW2 3495   1.972   5.070   5.095
  866SOL     OW 3496   3.683   6.577   0.903
  866SOL    HW1 3497   3.597   6.532   0.926
  866SOL    HW2 3498   3.757   6.510   0.901
  867SOL     OW 3499   5.768   3.629   4.276
  867SOL    HW1 3500   5.849   3.680   4.246
  867SOL    HW2 3501   5.756   3.641   4.374
  868SOL     OW 3502   7.021   1.423   2.070
  868SOL    HW1 3503   7.015   1.326   2.046
  868SOL    HW2 3504   6.934   1.468   2.049
  869SOL     OW 3505   1.594   2.592   2.174
  869SOL    HW1 3506   1.571   2.556   2.265
  869SOL    HW2 3507   1.509   2.615   2.126
  870SOL     OW 3508   3.671   4.264   1.673
  870SOL    HW1 3509   3.714   4.353   1.683
  870SOL    HW2 3510   3.668   4.239   1.576
  871SOL     OW 3511   4.900   2.039   3.408
  871SOL    HW1 3512   4.804   2.015   3.401
  871SOL    HW2 3513   4.934   2.067   3.318
  872SOL     OW 3514   2.489   2.091   5.703
  872SOL    HW1 3515   2.429   2.063   5.778
  872SOL    HW2 3516   2.464   2.183   5.672
  873SOL     OW 3517   4.382   1.193   6.496
  873SOL    HW1 3518   4.478   1.197   6.467
  873SOL    HW2 3519   4.331   1.133   6.434
  874SOL     OW 3520   5.198   4.170   2.954
  874SOL    HW1 3521   5.282   4.194   3.002
  874SOL    HW2 3522   5.122   4.224   2.989
  875SOL     OW 3523   4.944   5.119   2.357
  875SOL    HW1 3524   5.000   5.190   2.400
  875SOL    HW2 3525   4.996   5.034   2.352
  876SOL     OW 3526   5.761   1.654   5.684
  876SOL    HW1 3527   5.797   1.742   5.653
  876SOL    HW2 3528   5.705   1.614   5.612
  877SOL     OW 3529   1.232   3.633   6.059
  877SOL    HW1 3530   1.284   3.566   6.112
  877SOL    HW2 3531   1.230   3.604   5.963
  878SOL     OW 3532   4.106   6.618   4.926
  878SOL    HW1 3533   4.093   6.535   4.870
  878SOL    HW2 3534   4.163   6.683   4.875
  879SOL     OW 3535   6.074   7.002   5.566
  879SOL    HW1 3536   6.169   6.983   5.590
  879SOL    HW2 3537   6.015   6.929   5.603
  880SOL     OW 3538   3.419   2.849   2.956
  880SOL    HW1 3539   3.403   2.915   2.882
  880SOL    HW2 3540   3.379   2.761   2.931
  881SOL     OW 3541   5.554   2.668   6.732
  881SOL    HW1 3542   5.523   2.670   6.637
  881SOL    HW2 3543   5.618   2.744   6.748
  882SOL     OW 3544   1.414   2.282   4.172
  882SOL    HW1 3545   1.421   2.281   4.072
  882SOL    HW2 3546   1.318   2.273   4.198
  883SOL     OW 3547   3.014   6.557   3.203
  883SOL    HW1 3548   2.970   6.620   3.267
  883SOL    HW2 3549   2.956   6.476   3.191
  884SOL     OW 3550   2.718   3.382   6.237
  884SOL    HW1 3551   2.623   3.402   6.216
  884SOL    HW2 3552   2.755   3.319   6.169
  885SOL     OW 3553   4.543   3.224   7.006
  885SOL    HW1 3554   4.485   3.213   6.925
  885SOL    HW2 3555   4.509   3.301   0.032
  886SOL     OW 3556   3.863   1.653   5.735
  886SOL    HW1 3557   3.778   1.696   5.765
  886SOL    HW2 3558   3.848   1.555   5.725
  887SOL     OW 3559   3.064   0.883   5.490
  887SOL    HW1 3560   3.025   0.974   5.477
  887SOL    HW2 3561   3.008   0.815   5.442
  888SOL     OW 3562   0.420   6.445   1.996
  888SOL    HW1 3563   0.435   6.364   2.053
  888SOL    HW2 3564   0.465   6.432   1.907
  889SOL     OW 3565   0.402   4.236   1.081
  889SOL    HW1 3566   0.325   4.248   1.144
  889SOL    HW2 3567   0.388   4.292   1.000
  890SOL     OW 3568   2.340   6.922   4.522
  890SOL    HW1 3569   2.346   6.901   4.425
  890SOL    HW2 3570   2.321   6.839   4.573
  891SOL     OW 3571   4.170   4.878   2.186
  891SOL    HW1 3572   4.070   4.877   2.195
  891SOL    HW2 3573   4.210   4.924   2.265
  892SOL     OW 3574   2.711   4.320   1.073
  892SOL    HW1 3575   2.657   4.350   0.995
  892SOL    HW2 3576   2.657   4.329   1.157
  893SOL     OW 3577   1.149   4.894   2.335
  893SOL    HW1 3578   1.072   4.829   2.333
  893SOL    HW2 3579   1.115   4.984   2.363
  894SOL     OW 3580   1.280   4.361   0.642
  894SOL    HW1 3581   1.370   4.400   0.658
  894SOL    HW2 3582   1.211   4.435   0.642
  895SOL     OW 3583   6.566   5.869   5.925
  895SOL    HW1 3584   6.468   5.855   5.941
  895SOL    HW2 3585   6.606   5.786   5.887
  896SOL     OW 3586   6.777   1.111   5.858
  896SOL    HW1 3587   6.802   1.015   5.869
  896SOL    HW2 3588   6.826   1.149   5.780
  897SOL     OW 3589   6.058   1.250   0.136
  897SOL    HW1 3590   6.077   1.213   0.227
  897SOL    HW2 3591   6.008   1.337   0.146
  898SOL     OW 3592   4.108   1.699   3.816
  898SOL    HW1 3593   4.108   1.635   3.738
  898SOL    HW2 3594   4.040   1.770   3.800
  899SOL     OW 3595   6.430   6.567   6.788
  899SOL    HW1 3596   6.387   6.508   6.720
  899SOL    HW2 3597   6.383   6.556   6.876
  900SOL     OW 3598   4.699   4.598   5.640
  900SOL    HW1 3599   4.618   4.544   5.616
  900SOL    HW2 3600   4.773   4.537   5.669
  901SOL     OW 3601   1.145   0.650   2.357
  901SOL    HW1 3602   1.134   0.570   2.416
  901SOL    HW2 3603   1.079   0.720   2.385
  902SOL     OW 3604   6.906   2.628   2.947
  902SOL    HW1 3605   6.905   2.727   2.934
  902SOL    HW2 3606   6.913   2.583   2.858
  903SOL     OW 3607   5.630   1.826   0.179
  903SOL    HW1 3608   5.634   1.780   0.091
  903SOL    HW2 3609   5.695   1.783   0.242
  904SOL     OW 3610   2.844   0.399   3.304
  904SOL    HW1 3611   2.856   0.315   3.356
  904SOL    HW2 3612   2.933   0.444   3.292
  905SOL     OW 3613   4.993   2.572   5.869
  905SOL    HW1 3614   5.016   2.529   5.782
  905SOL    HW2 3615   4.933   2.512   5.922
  906SOL     OW 3616   5.799   3.315   1.950
  906SOL    HW1 3617   5.856   3.307   1.868
  906SOL    HW2 3618   5.794   3.411   1.978
  907SOL     OW 3619   5.746   5.370   0.815
  907SOL    HW1 3620   5.746   5.293   0.750
  907SOL    HW2 3621   5.666   5.427   0.798
  908SOL     OW 3622   0.833   4.194   3.660
  908SOL    HW1 3623   0.785   4.192   3.748
  908SOL    HW2 3624   0.790   4.262   3.601
  909SOL     OW 3625   5.255   4.303   6.154
  909SOL    HW1 3626   5.257   4.206   6.132
  909SOL    HW2 3627   5.214   4.354   6.079
  910SOL     OW 3628   3.478   4.793   0.475
  910SOL    HW1 3629   3.453   4.832   0.386
  910SOL    HW2 3630   3.573   4.814   0.495
  911SOL     OW 3631   0.587   4.691   5.927
  911SOL    HW1 3632   0.614   4.788   5.921
  911SOL    HW2 3633   0.522   4.679   6.002
  912SOL     OW 3634   5.414   1.736   4.413
  912SOL    HW1 3635   5.373   1.826   4.425
  912SOL    HW2 3636   5.511   1.746   4.392
  913SOL     OW 3637   5.451   6.101   3.372
  913SOL    HW1 3638   5.410   6.186   3.340
  913SOL    HW2 3639   5.494   6.115   3.461
  914SOL     OW 3640   2.282   6.487   4.430
  914SOL    HW1 3641   2.272   6.469   4.528
  914SOL    HW2 3642   2.338   6.568   4.416
  915SOL     OW 3643   5.628   5.326   2.499
  915SOL    HW1 3644   5.571   5.385   2.557
  915SOL    HW2 3645   5.701   5.285   2.554
  916SOL     OW 3646   1.809   3.881   3.458
  916SOL    HW1 3647   1.849   3.970   3.481
  916SOL    HW2 3648   1.724   3.870   3.509
  917SOL     OW 3649   0.107   6.950   0.172
  917SOL    HW1 3650   0.009   6.945   0.189
  917SOL    HW2 3651   0.139   0.015   0.192
  918SOL     OW 3652   3.204   5.744   5.693
  918SOL    HW1 3653   3.246   5.656   5.717
  918SOL    HW2 3654   3.164   5.738   5.601
  919SOL     OW 3655   4.320   6.983   5.689
  919SOL    HW1 3656   4.410   6.941   5.696
  919SOL    HW2 3657   4.322   0.027   5.619
  920SOL     OW 3658   3.240   4.330   1.122
  920SOL    HW1 3659   3.192   4.340   1.210
  920SOL    HW2 3660   3.173   4.321   1.049
  921SOL     OW 3661   5.557   5.546   5.746
  921SOL    HW1 3662   5.619   5.551   5.667
  921SOL    HW2 3663   5.609   5.563   5.829
  922SOL     OW 3664   3.600   3.882   2.895
  922SOL    HW1 3665   3.574   3.796   2.938
  922SOL    HW2 3666   3.517   3.931   2.867
  923SOL     OW 3667   2.715   3.702   5.527
  923SOL    HW1 3668   2.691   3.724   5.433
  923SOL    HW2 3669   2.811   3.673   5.531
  924SOL     OW 3670   0.166   2.158   0.952
  924SOL    HW1 3671   0.163   2.095   0.874
  924SOL    HW2 3672   0.192   2.250   0.920
  925SOL     OW 3673   1.481   1.347   0.411
  925SOL    HW1 3674   1.577   1.373   0.421
  925SOL    HW2 3675   1.432   1.367   0.496
  926SOL     OW 3676   1.857   2.089   1.512
  926SOL    HW1 3677   1.789   2.155   1.481
  926SOL    HW2 3678   1.881   2.028   1.436
  927SOL     OW 3679   0.799   4.252   5.328
  927SOL    HW1 3680   0.834   4.266   5.235
  927SOL    HW2 3681   0.797   4.154   5.349
  928SOL     OW 3682   2.781   5.335   5.770
  928SOL    HW1 3683   2.872   5.334   5.727
  928SOL    HW2 3684   2.712   5.310   5.702
  929SOL     OW 3685   2.501   2.314   4.378
  929SOL    HW1 3686   2.547   2.296   4.290
  929SOL    HW2 3687   2.432   2.243   4.393
  930SOL     OW 3688   5.697   5.980   6.193
  930SOL    HW1 3689   5.598   5.976   6.205
  930SOL    HW2 3690   5.742   5.955   6.278
  931SOL     OW 3691   5.856   0.003   2.779
  931SOL    HW1 3692   5.903   6.962   2.835
  931SOL    HW2 3693   5.758   0.000   2.798
  932SOL     OW 3694   3.957   0.003   3.842
  932SOL    HW1 3695   3.912   6.943   3.832
  932SOL    HW2 3696   3.959   0.051   3.754
  933SOL     OW 3697   1.098   5.824   2.025
  933SOL    HW1 3698   1.069   5.812   2.120
  933SOL    HW2 3699   1.112   5.734   1.983
  934SOL     OW 3700   2.067   2.781   1.281
  934SOL    HW1 3701   2.028   2.711   1.340
  934SOL    HW2 3702   1.998   2.853   1.265
  935SOL     OW 3703   5.657   2.863   5.890
  935SOL    HW1 3704   5.610   2.860   5.978
  935SOL    HW2 3705   5.635   2.781   5.837
  936SOL     OW 3706   1.290   1.698   5.660
  936SOL    HW1 3707   1.242   1.767   5.714
  936SOL    HW2 3708   1.224   1.650   5.602
  937SOL     OW 3709   3.726   2.389   6.138
  937SOL    HW1 3710   3.655   2.326   6.169
  937SOL    HW2 3711   3.813   2.341   6.130
  938SOL     OW 3712   4.881   0.092   4.153
  938SOL    HW1 3713   4.797   0.039   4.151
  938SOL    HW2 3714   4.926   0.087   4.064
  939SOL     OW 3715   1.752   0.233   4.324
  939SOL    HW1 3716   1.725   0.324   4.355
  939SOL    HW2 3717   1.796   0.240   4.235
  940SOL     OW 3718   2.294   4.899   0.837
  940SOL    HW1 3719   2.306   4.932   0.931
  940SOL    HW2 3720   2.347   4.956   0.775
  941SOL     OW 3721   3.844   0.231   1.695
  941SOL    HW1 3722   3.755   0.187   1.684
  941SOL    HW2 3723   3.854   0.265   1.788
  942SOL     OW 3724   0.187   4.829   0.308
  942SOL    HW1 3725   0.118   4.757   0.303
  942SOL    HW2 3726   0.156   4.909   0.257
  943SOL     OW 3727   3.149   0.077   1.625
  943SOL    HW1 3728   3.138   0.131   1.541
  943SOL    HW2 3729   3.245   0.052   1.636
  944SOL     OW 3730   6.098   5.659   3.612
  944SOL    HW1 3731   6.047   5.578   3.584
  944SOL    HW2 3732   6.035   5.729   3.645
  945SOL     OW 3733   0.557   5.001   6.618
  945SOL    HW1 3734   0.561   5.047   6.530
  945SOL    HW2 3735   0.600   4.911   6.611
  946SOL     OW 3736   6.188   1.811   4.435
  946SOL    HW1 3737   6.103   1.779   4.393
  946SOL    HW2 3738   6.263   1.802   4.369
  947SOL     OW 3739   3.152   4.043   2.605
  947SOL    HW1 3740   3.073   3.986   2.580
  947SOL    HW2 3741   3.212   4.053   2.526
  948SOL     OW 3742   4.259   2.130   3.597
  948SOL    HW1 3743   4.341   2.173   3.560
  948SOL    HW2 3744   4.253   2.148   3.695
  949SOL     OW 3745   1.668   0.650   5.700
  949SOL    HW1 3746   1.576   0.613   5.684
  949SOL    HW2 3747   1.689   0.644   5.797
  950SOL     OW 3748   5.971   0.171   1.268
  950SOL    HW1 3749   5.965   0.189   1.170
  950SOL    HW2 3750   5.881   0.146   1.303
  951SOL     OW 3751   0.758   0.089   2.201
  951SOL    HW1 3752   0.812   0.167   2.169
  951SOL    HW2 3753   0.787   0.063   2.293
  952SOL     OW 3754   3.083   1.569   3.005
  952SOL    HW1 3755   3.003   1.625   3.029
  952SOL    HW2 3756   3.072   1.478   3.045
  953SOL     OW 3757   0.355   6.010   4.903
  953SOL    HW1 3758   0.376   5.912   4.897
  953SOL    HW2 3759   0.256   6.023   4.899
  954SOL     OW 3760   4.321   6.850   2.486
  954SOL    HW1 3761   4.269   6.795   2.551
  954SOL    HW2 3762   4.324   6.804   2.397
  955SOL     OW 3763   3.558   3.955   1.541
  955SOL    HW1 3764   3.468   3.999   1.550
  955SOL    HW2 3765   3.608   3.964   1.626
  956SOL     OW 3766   3.779   6.638   0.639
  956SOL    HW1 3767   3.757   6.609   0.733
  956SOL    HW2 3768   3.735   6.726   0.621
  957SOL     OW 3769   6.600   0.111   3.263
  957SOL    HW1 3770   6.570   0.196   3.219
  957SOL    HW2 3771   6.660   0.061   3.202
  958SOL     OW 3772   5.250   5.596   2.452
  958SOL    HW1 3773   5.216   5.509   2.417
  958SOL    HW2 3774   5.257   5.662   2.377
  959SOL     OW 3775   4.778   5.773   2.211
  959SOL    HW1 3776   4.854   5.708   2.209
  959SOL    HW2 3777   4.695   5.727   2.179
  960SOL     OW 3778   1.238   6.557   5.940
  960SOL    HW1 3779   1.276   6.640   5.898
  960SOL    HW2 3780   1.142   6.549   5.914
  961SOL     OW 3781   4.604   0.961   4.272
  961SOL    HW1 3782   4.643   0.942   4.182
  961SOL    HW2 3783   4.563   0.878   4.309
  962SOL     OW 3784   0.133   1.324   5.451
  962SOL    HW1 3785   0.091   1.352   5.365
  962SOL    HW2 3786   0.154   1.404   5.507
  963SOL     OW 3787   5.585   2.462   1.803
  963SOL    HW1 3788   5.552   2.383   1.855
  963SOL    HW2 3789   5.508   2.504   1.754
  964SOL     OW 3790   3.466   6.384   4.393
  964SOL    HW1 3791   3.504   6.475   4.406
  964SOL    HW2 3792   3.506   6.343   4.310
  965SOL     OW 3793   4.861   1.292   4.778
  965SOL    HW1 3794   4.885   1.201   4.813
  965SOL    HW2 3795   4.915   1.361   4.826
  966SOL     OW 3796   5.226   1.358   3.160
  966SOL    HW1 3797   5.204   1.263   3.184
  966SOL    HW2 3798   5.266   1.361   3.069
  967SOL     OW 3799   4.438   5.629   6.347
  967SOL    HW1 3800   4.342   5.655   6.339
  967SOL    HW2 3801   4.469   5.642   6.441
  968SOL     OW 3802   4.485   6.462   1.280
  968SOL    HW1 3803   4.438   6.477   1.193
  968SOL    HW2 3804   4.434   6.506   1.353
  969SOL     OW 3805   3.666   3.337   6.687
  969SOL    HW1 3806   3.631   3.327   6.780
  969SOL    HW2 3807   3.640   3.257   6.633
  970SOL     OW 3808   3.827   6.298   6.003
  970SOL    HW1 3809   3.898   6.324   6.069
  970SOL    HW2 3810   3.856   6.217   5.952
  971SOL     OW 3811   4.849   4.500   3.832
  971SOL    HW1 3812   4.869   4.418   3.886
  971SOL    HW2 3813   4.909   4.503   3.752
  972SOL     OW 3814   1.135   1.654   0.856
  972SOL    HW1 3815   1.081   1.735   0.833
  972SOL    HW2 3816   1.232   1.678   0.855
  973SOL     OW 3817   6.955   2.566   4.976
  973SOL    HW1 3818   6.971   2.664   4.986
  973SOL    HW2 3819   0.004   2.524   4.928
  974SOL     OW 3820   1.225   3.316   1.272
  974SOL    HW1 3821   1.229   3.401   1.326
  974SOL    HW2 3822   1.267   3.242   1.325
  975SOL     OW 3823   3.184   0.439   2.143
  975SOL    HW1 3824   3.203   0.485   2.230
  975SOL    HW2 3825   3.144   0.349   2.161
  976SOL     OW 3826   6.944   3.559   3.563
  976SOL    HW1 3827   7.022   3.612   3.596
  976SOL    HW2 3828   6.975   3.468   3.535
  977SOL     OW 3829   0.252   1.517   2.119
  977SOL    HW1 3830   0.169   1.461   2.115
  977SOL    HW2 3831   0.231   1.606   2.158
  978SOL     OW 3832   6.095   1.998   0.861
  978SOL    HW1 3833   6.039   2.078   0.881
  978SOL    HW2 3834   6.070   1.924   0.924
  979SOL     OW 3835   0.323   5.629   6.791
  979SOL    HW1 3836   0.276   5.556   6.841
  979SOL    HW2 3837   0.260   5.668   6.723
  980SOL     OW 3838   4.860   1.389   4.030
  980SOL    HW1 3839   4.765   1.386   4.061
  980SOL    HW2 3840   4.897   1.480   4.047
  981SOL     OW 3841   0.453   6.263   6.197
  981SOL    HW1 3842   0.511   6.206   6.256
  981SOL    HW2 3843   0.507   6.340   6.162
  982SOL     OW 3844   6.849   1.151   6.142
  982SOL    HW1 3845   6.789   1.126   6.066
  982SOL    HW2 3846   6.912   1.075   6.160
  983SOL     OW 3847   0.352   3.720   1.985
  983SOL    HW1 3848   0.340   3.627   1.952
  983SOL    HW2 3849   0.263   3.758   2.011
  984SOL     OW 3850   0.241   3.489   4.473
  984SOL    HW1 3851   0.211   3.400   4.508
  984SOL    HW2 3852   0.280   3.478   4.382
  985SOL     OW 3853   5.187   5.336   6.212
  985SOL    HW1 3854   5.172   5.252   6.160
  985SOL    HW2 3855   5.098   5.379   6.233
  986SOL     OW 3856   3.646   5.232   1.187
  986SOL    HW1 3857   3.689   5.289   1.257
  986SOL    HW2 3858   3.663   5.271   1.096
  987SOL     OW 3859   4.827   4.867   4.217
  987SOL    HW1 3860   4.769   4.824   4.286
  987SOL    HW2 3861   4.922   4.866   4.249
  988SOL     OW 3862   3.343   4.796   1.730
  988SOL    HW1 3863   3.383   4.735   1.799
  988SOL    HW2 3864   3.244   4.800   1.742
  989SOL     OW 3865   0.627   1.907   1.052
  989SOL    HW1 3866   0.571   1.891   1.133
  989SOL    HW2 3867   0.592   1.853   0.976
  990SOL     OW 3868   4.194   0.285   4.979
  990SOL    HW1 3869   4.124   0.343   4.939
  990SOL    HW2 3870   4.220   0.214   4.913
  991SOL     OW 3871   1.496   6.621   3.987
  991SOL    HW1 3872   1.568   6.552   3.985
  991SOL    HW2 3873   1.453   6.622   4.078
  992SOL     OW 3874   6.460   3.411   1.517
  992SOL    HW1 3875   6.526   3.405   1.593
  992SOL    HW2 3876   6.508   3.437   1.433
  993SOL     OW 3877   2.181   4.104   6.746
  993SOL    HW1 3878   2.118   4.031   6.771
  993SOL    HW2 3879   2.270   4.065   6.722
  994SOL     OW 3880   1.839   6.433   1.147
  994SOL    HW1 3881   1.822   6.350   1.201
  994SOL    HW2 3882   1.877   6.504   1.207
  995SOL     OW 3883   5.044   4.143   4.921
  995SOL    HW1 3884   4.961   4.095   4.950
  995SOL    HW2 3885   5.088   4.184   5.001
  996SOL     OW 3886   3.952   6.915   5.280
  996SOL    HW1 3887   4.024   6.975   5.246
  996SOL    HW2 3888   3.979   6.819   5.268
  997SOL     OW 3889   1.047   6.680   3.785
  997SOL    HW1 3890   1.025   6.595   3.833
  997SOL    HW2 3891   1.137   6.712   3.814
  998SOL     OW 3892   4.493   0.450   0.380
  998SOL    HW1 3893   4.524   0.463   0.286
  998SOL    HW2 3894   4.461   0.356   0.391
  999SOL     OW 3895   6.089   3.099   2.701
  999SOL    HW1 3896   6.130   3.024   2.649
  999SOL    HW2 3897   6.161   3.147   2.752
 1000SOL     OW 3898   6.164   1.512   3.122
 1000SOL    HW1 3899   6.233   1.581   3.099
 1000SOL    HW2 3900   6.186   1.427   3.075
 1001SOL     OW 3901   2.845   6.701   3.400
 1001SOL    HW1 3902   2.775   6.767   3.372
 1001SOL    HW2 3903   2.886   6.732   3.486
 1002SOL     OW 3904   4.998   2.572   0.353
 1002SOL    HW1 3905   5.003   2.586   0.452
 1002SOL    HW2 3906   5.043   2.486   0.330
 1003SOL     OW 3907   2.020   2.109   3.961
 1003SOL    HW1 3908   1.993   2.150   3.874
 1003SOL    HW2 3909   2.111   2.141   3.987
 1004SOL     OW 3910   4.214   1.707   4.810
 1004SOL    HW1 3911   4.194   1.609   4.797
 1004SOL    HW2 3912   4.247   1.722   4.903
 1005SOL     OW 3913   0.785   5.210   2.092
 1005SOL    HW1 3914   0.807   5.132   2.034
 1005SOL    HW2 3915   0.793   5.294   2.039
 1006SOL     OW 3916   1.877   3.660   2.317
 1006SOL    HW1 3917   1.961   3.709   2.340
 1006SOL    HW2 3918   1.883   3.624   2.224
 1007SOL     OW 3919   4.592   0.736   6.478
 1007SOL    HW1 3920   4.552   0.798   6.410
 1007SOL    HW2 3921   4.638   0.661   6.431
 1008SOL     OW 3922   0.309   4.335   4.141
 1008SOL    HW1 3923   0.394   4.361   4.187
 1008SOL    HW2 3924   0.267   4.258   4.190
 1009SOL     OW 3925   6.655   5.969   0.515
 1009SOL    HW1 3926   6.667   5.882   0.467
 1009SOL    HW2 3927   6.563   5.974   0.553
 1010SOL     OW 3928   3.133   4.580   0.220
 1010SOL    HW1 3929   3.086   4.588   0.308
 1010SOL    HW2 3930   3.229   4.557   0.236
 1011SOL     OW 3931   6.455   4.645   2.696
 1011SOL    HW1 3932   6.534   4.592   2.663
 1011SOL    HW2 3933   6.485   4.733   2.731
 1012SOL     OW 3934   5.281   6.182   2.977
 1012SOL    HW1 3935   5.338   6.111   2.935
 1012SOL    HW2 3936   5.221   6.221   2.907
 1013SOL     OW 3937   0.216   1.236   5.983
 1013SOL    HW1 3938   0.259   1.322   5.954
 1013SOL    HW2 3939   0.233   1.222   6.080
 1014SOL     OW 3940   0.524   4.770   4.343
 1014SOL    HW1 3941   0.498   4.807   4.432
 1014SOL    HW2 3942   0.458   4.801   4.274
 1015SOL     OW 3943   2.977   6.322   5.999
 1015SOL    HW1 3944   3.053   6.268   6.036
 1015SOL    HW2 3945   2.941   6.277   5.918
 1016SOL     OW 3946   6.721   4.325   0.678
 1016SOL    HW1 3947   6.777   4.408   0.667
 1016SOL    HW2 3948   6.668   4.309   0.595
 1017SOL     OW 3949   1.313   6.754   1.869
 1017SOL    HW1 3950   1.369   6.770   1.950
 1017SOL    HW2 3951   1.237   6.819   1.866
 1018SOL     OW 3952   5.375   5.572   6.490
 1018SOL    HW1 3953   5.381   5.488   6.436
 1018SOL    HW2 3954   5.357   5.548   6.586
 1019SOL     OW 3955   6.941   3.739   2.877
 1019SOL    HW1 3956   6.973   3.693   2.795
 1019SOL    HW2 3957   6.896   3.673   2.937
 1020SOL     OW 3958   5.476   1.566   1.451
 1020SOL    HW1 3959   5.378   1.544   1.453
 1020SOL    HW2 3960   5.524   1.500   1.394
 1021SOL     OW 3961   0.846   6.977   1.038
 1021SOL    HW1 3962   0.945   6.991   1.029
 1021SOL    HW2 3963   0.800   7.004   0.954
 1022SOL     OW 3964   2.588   5.225   5.612
 1022SOL    HW1 3965   2.515   5.256   5.674
 1022SOL    HW2 3966   2.579   5.127   5.597
 1023SOL     OW 3967   1.079   2.358   2.651
 1023SOL    HW1 3968   1.170   2.399   2.656
 1023SOL    HW2 3969   1.046   2.339   2.743
 1024SOL     OW 3970   2.005   3.414   4.845
 1024SOL    HW1 3971   1.992   3.351   4.921
 1024SOL    HW2 3972   1.933   3.400   4.777
 1025SOL     OW 3973   4.559   3.908   0.474
 1025SOL    HW1 3974   4.608   3.843   0.416
 1025SOL    HW2 3975   4.552   3.996   0.428
 1026SOL     OW 3976   2.988   2.659   1.738
 1026SOL    HW1 3977   3.087   2.654   1.754
 1026SOL    HW2 3978   2.944   2.578   1.777
 1027SOL     OW 3979   6.494   0.293   0.407
 1027SOL    HW1 3980   6.449   0.237   0.477
 1027SOL    HW2 3981   6.439   0.293   0.323
 1028SOL     OW 3982   6.862   5.924   4.445
 1028SOL    HW1 3983   6.774   5.887   4.416
 1028SOL    HW2 3984   6.936   5.876   4.397
 1029SOL     OW 3985   1.142   0.205   4.926
 1029SOL    HW1 3986   1.130   0.106   4.920
 1029SOL    HW2 3987   1.240   0.226   4.932
 1030SOL     OW 3988   4.335   3.346   0.544
 1030SOL    HW1 3989   4.391   3.298   0.476
 1030SOL    HW2 3990   4.391   3.364   0.625
 1031SOL     OW 3991   4.805   2.569   0.126
 1031SOL    HW1 3992   4.842   2.615   0.206
 1031SOL    HW2 3993   4.868   2.581   0.049
 1032SOL     OW 3994   1.251   1.433   1.551
 1032SOL    HW1 3995   1.182   1.505   1.560
 1032SOL    HW2 3996   1.340   1.475   1.530
 1033SOL     OW 3997   6.265   6.806   2.065
 1033SOL    HW1 3998   6.249   6.725   2.122
 1033SOL    HW2 3999   6.349   6.852   2.095
 1034SOL     OW 4000   1.950   0.783   4.165
 1034SOL    HW1 4001   1.865   0.835   4.171
 1034SOL    HW2 4002   1.994   0.782   4.255
 1035SOL     OW 4003   1.105   0.042   0.022
 1035SOL    HW1 4004   1.140   0.105   6.980
 1035SOL    HW2 4005   1.091   0.091   0.108
 1036SOL     OW 4006   5.457   1.310   2.416
 1036SOL    HW1 4007   5.386   1.373   2.387
 1036SOL    HW2 4008   5.458   1.305   2.516
 1037SOL     OW 4009   0.530   3.962   2.309
 1037SOL    HW1 4010   0.590   4.030   2.350
 1037SOL    HW2 4011   0.535   3.877   2.360
 1038SOL     OW 4012   1.146   6.080   6.888
 1038SOL    HW1 4013   1.096   6.031   6.959
 1038SOL    HW2 4014   1.181   6.167   6.925
 1039SOL     OW 4015   3.026   3.929   2.882
 1039SOL    HW1 4016   2.966   3.852   2.859
 1039SOL    HW2 4017   3.044   3.983   2.800
 1040SOL     OW 4018   4.510   1.307   2.737
 1040SOL    HW1 4019   4.412   1.314   2.718
 1040SOL    HW2 4020   4.535   1.211   2.750
 1041SOL     OW 4021   6.996   0.432   6.219
 1041SOL    HW1 4022   0.016   0.471   6.297
 1041SOL    HW2 4023   6.952   0.347   6.246
 1042SOL     OW 4024   5.356   2.681   3.978
 1042SOL    HW1 4025   5.287   2.675   4.050
 1042SOL    HW2 4026   5.325   2.744   3.907
 1043SOL     OW 4027   2.220   2.402   3.953
 1043SOL    HW1 4028   2.137   2.447   3.920
 1043SOL    HW2 4029   2.215   2.394   4.053
 1044SOL     OW 4030   4.498   4.582   2.392
 1044SOL    HW1 4031   4.532   4.490   2.373
 1044SOL    HW2 4032   4.499   4.637   2.308
 1045SOL     OW 4033   1.936   0.207   3.027
 1045SOL    HW1 4034   2.032   0.185   3.048
 1045SOL    HW2 4035   1.927   0.306   3.013
 1046SOL     OW 4036   4.185   2.933   0.401
 1046SOL    HW1 4037   4.154   2.891   0.316
 1046SOL    HW2 4038   4.194   2.864   0.472
 1047SOL     OW 4039   4.495   1.120   4.609
 1047SOL    HW1 4040   4.569   1.057   4.634
 1047SOL    HW2 4041   4.422   1.115   4.677
 1048SOL     OW 4042   6.549   0.378   2.036
 1048SOL    HW1 4043   6.637   0.365   2.083
 1048SOL    HW2 4044   6.566   0.413   1.944
 1049SOL     OW 4045   3.776   5.895   0.245
 1049SOL    HW1 4046   3.808   5.918   0.153
 1049SOL    HW2 4047   3.717   5.814   0.241
 1050SOL     OW 4048   2.676   1.407   3.941
 1050SOL    HW1 4049   2.629   1.463   3.873
 1050SOL    HW2 4050   2.760   1.370   3.901
 1051SOL     OW 4051   1.630   2.404   6.192
 1051SOL    HW1 4052   1.562   2.436   6.125
 1051SOL    HW2 4053   1.628   2.304   6.195
 1052SOL     OW 4054   4.393   2.301   6.135
 1052SOL    HW1 4055   4.391   2.399   6.151
 1052SOL    HW2 4056   4.410   2.253   6.221
 1053SOL     OW 4057   4.704   2.473   4.977
 1053SOL    HW1 4058   4.736   2.410   4.906
 1053SOL    HW2 4059   4.769   2.548   4.987
 1054SOL     OW 4060   5.442   5.114   6.814
 1054SOL    HW1 4061   5.411   5.021   6.797
 1054SOL    HW2 4062   5.490   5.118   6.902
 1055SOL     OW 4063   5.356   5.844   6.433
 1055SOL    HW1 4064   5.403   5.883   6.512
 1055SOL    HW2 4065   5.347   5.745   6.446
 1056SOL     OW 4066   3.533   3.385   0.208
 1056SOL    HW1 4067   3.519   3.429   0.119
 1056SOL    HW2 4068   3.457   3.323   0.226
 1057SOL     OW 4069   3.006   3.215   6.411
 1057SOL    HW1 4070   3.103   3.234   6.430
 1057SOL    HW2 4071   2.993   3.116   6.406
 1058SOL     OW 4072   3.683   1.747   2.134
 1058SOL    HW1 4073   3.715   1.841   2.145
 1058SOL    HW2 4074   3.661   1.731   2.037
 1059SOL     OW 4075   1.445   6.420   2.823
 1059SOL    HW1 4076   1.523   6.456   2.771
 1059SOL    HW2 4077   1.475   6.345   2.882
 1060SOL     OW 4078   6.395   6.434   5.091
 1060SOL    HW1 4079   6.328   6.376   5.138
 1060SOL    HW2 4080   6.484   6.426   5.137
 1061SOL     OW 4081   0.758   4.368   6.458
 1061SOL    HW1 4082   0.724   4.325   6.542
 1061SOL    HW2 4083   0.855   4.350   6.448
 1062SOL     OW 4084   4.058   4.996   5.620
 1062SOL    HW1 4085   4.105   4.908   5.616
 1062SOL    HW2 4086   4.061   5.032   5.713
 1063SOL     OW 4087   3.310   5.851   3.688
 1063SOL    HW1 4088   3.274   5.897   3.607
 1063SOL    HW2 4089   3.235   5.803   3.734
 1064SOL     OW 4090   1.381   3.775   6.909
 1064SOL    HW1 4091   1.347   3.788   7.002
 1064SOL    HW2 4092   1.304   3.752   6.848
 1065SOL     OW 4093   6.209   1.163   5.498
 1065SOL    HW1 4094   6.187   1.211   5.583
 1065SOL    HW2 4095   6.194   1.065   5.510
 1066SOL     OW 4096   4.557   6.170   1.039
 1066SOL    HW1 4097   4.656   6.183   1.034
 1066SOL    HW2 4098   4.524   6.203   1.128
 1067SOL     OW 4099   4.198   1.194   0.382
 1067SOL    HW1 4100   4.180   1.292   0.381
 1067SOL    HW2 4101   4.286   1.176   0.428
 1068SOL     OW 4102   5.954   2.740   3.335
 1068SOL    HW1 4103   6.046   2.736   3.295
 1068SOL    HW2 4104   5.895   2.673   3.289
 1069SOL     OW 4105   0.449   1.112   3.140
 1069SOL    HW1 4106   0.378   1.065   3.193
 1069SOL    HW2 4107   0.417   1.127   3.047
 1070SOL     OW 4108   1.349   0.267   2.176
 1070SOL    HW1 4109   1.377   0.346   2.122
 1070SOL    HW2 4110   1.249   0.267   2.185
 1071SOL     OW 4111   1.084   3.190   5.079
 1071SOL    HW1 4112   0.994   3.178   5.038
 1071SOL    HW2 4113   1.111   3.286   5.074
 1072SOL     OW 4114   2.202   0.957   1.390
 1072SOL    HW1 4115   2.293   0.962   1.350
 1072SOL    HW2 4116   2.205   0.987   1.485
 1073SOL     OW 4117   5.143   2.291   2.669
 1073SOL    HW1 4118   5.166   2.377   2.624
 1073SOL    HW2 4119   5.070   2.245   2.617
 1074SOL     OW 4120   3.667   6.638   1.608
 1074SOL    HW1 4121   3.646   6.633   1.706
 1074SOL    HW2 4122   3.721   6.720   1.590
 1075SOL     OW 4123   0.054   3.858   4.839
 1075SOL    HW1 4124   0.103   3.788   4.891
 1075SOL    HW2 4125   0.024   3.930   4.901
 1076SOL     OW 4126   2.808   4.575   5.962
 1076SOL    HW1 4127   2.863   4.570   5.878
 1076SOL    HW2 4128   2.868   4.587   6.040
 1077SOL     OW 4129   0.139   6.472   0.797
 1077SOL    HW1 4130   0.088   6.420   0.728
 1077SOL    HW2 4131   0.131   6.426   0.886
 1078SOL     OW 4132   5.778   6.695   3.743
 1078SOL    HW1 4133   5.796   6.598   3.758
 1078SOL    HW2 4134   5.790   6.745   3.829
 1079SOL     OW 4135   1.333   5.012   1.295
 1079SOL    HW1 4136   1.276   4.982   1.219
 1079SOL    HW2 4137   1.312   4.957   1.376
 1080SOL     OW 4138   5.221   5.574   0.520
 1080SOL    HW1 4139   5.139   5.590   0.574
 1080SOL    HW2 4140   5.260   5.485   0.543
 1081SOL     OW 4141   6.743   6.717   3.427
 1081SOL    HW1 4142   6.785   6.660   3.498
 1081SOL    HW2 4143   6.783   6.809   3.431
 1082SOL     OW 4144   4.610   0.188   0.219
 1082SOL    HW1 4145   4.550   0.171   0.297
 1082SOL    HW2 4146   4.674   0.261   0.242
 1083SOL     OW 4147   6.772   3.807   2.264
 1083SOL    HW1 4148   6.798   3.714   2.291
 1083SOL    HW2 4149   6.673   3.813   2.252
 1084SOL     OW 4150   4.397   6.892   5.207
 1084SOL    HW1 4151   4.345   6.864   5.288
 1084SOL    HW2 4152   4.451   6.973   5.229
 1085SOL     OW 4153   2.135   3.621   4.661
 1085SOL    HW1 4154   2.113   3.544   4.720
 1085SOL    HW2 4155   2.106   3.706   4.705
 1086SOL     OW 4156   4.918   4.341   2.638
 1086SOL    HW1 4157   4.951   4.258   2.683
 1086SOL    HW2 4158   4.818   4.345   2.644
 1087SOL     OW 4159   3.428   0.610   6.051
 1087SOL    HW1 4160   3.342   0.585   6.096
 1087SOL    HW2 4161   3.505   0.573   6.103
 1088SOL     OW 4162   5.702   5.753   4.466
 1088SOL    HW1 4163   5.711   5.704   4.553
 1088SOL    HW2 4164   5.735   5.847   4.478
 1089SOL     OW 4165   5.662   4.729   4.849
 1089SOL    HW1 4166   5.590   4.797   4.834
 1089SOL    HW2 4167   5.748   4.776   4.869
 1090SOL     OW 4168   6.489   3.036   5.029
 1090SOL    HW1 4169   6.560   2.965   5.036
 1090SOL    HW2 4170   6.399   2.994   5.047
 1091SOL     OW 4171   1.837   3.455   3.966
 1091SOL    HW1 4172   1.821   3.475   3.869
 1091SOL    HW2 4173   1.819   3.358   3.983
 1092SOL     OW 4174   0.866   6.270   0.092
 1092SOL    HW1 4175   0.785   6.211   0.089
 1092SOL    HW2 4176   0.876   6.318   0.005
 1093SOL     OW 4177   1.802   0.691   3.155
 1093SOL    HW1 4178   1.749   0.744   3.089
 1093SOL    HW2 4179   1.813   0.597   3.123
 1094SOL     OW 4180   0.414   0.291   3.140
 1094SOL    HW1 4181   0.335   0.330   3.094
 1094SOL    HW2 4182   0.443   0.208   3.092
 1095SOL     OW 4183   6.452   4.415   0.892
 1095SOL    HW1 4184   6.534   4.377   0.935
 1095SOL    HW2 4185   6.438   4.370   0.803
 1096SOL     OW 4186   1.842   5.639   1.781
 1096SOL    HW1 4187   1.767   5.674   1.837
 1096SOL    HW2 4188   1.823   5.545   1.753
 1097SOL     OW 4189   3.506   5.420   4.743
 1097SOL    HW1 4190   3.427   5.374   4.701
 1097SOL    HW2 4191   3.547   5.360   4.811
 1098SOL     OW 4192   6.970   4.242   6.975
 1098SOL    HW1 4193   6.889   4.202   6.933
 1098SOL    HW2 4194   0.020   4.181   6.963
 1099SOL     OW 4195   5.485   0.150   6.674
 1099SOL    HW1 4196   5.447   0.058   6.670
 1099SOL    HW2 4197   5.521   0.167   6.766
 1100SOL     OW 4198   5.042   0.561   4.630
 1100SOL    HW1 4199   5.017   0.466   4.608
 1100SOL    HW2 4200   5.112   0.561   4.701
 1101SOL     OW 4201   5.191   2.539   6.977
 1101SOL    HW1 4202   5.169   2.452   7.022
 1101SOL    HW2 4203   5.288   2.539   6.951
 1102SOL     OW 4204   3.862   1.343   4.771
 1102SOL    HW1 4205   3.903   1.388   4.692
 1102SOL    HW2 4206   3.776   1.387   4.794
 1103SOL     OW 4207   2.809   6.391   0.459
 1103SOL    HW1 4208   2.810   6.315   0.393
 1103SOL    HW2 4209   2.757   6.364   0.540
 1104SOL     OW 4210   6.286   0.711   4.162
 1104SOL    HW1 4211   6.294   0.677   4.256
 1104SOL    HW2 4212   6.218   0.656   4.113
 1105SOL     OW 4213   4.648   0.140   6.307
 1105SOL    HW1 4214   4.600   0.097   6.230
 1105SOL    HW2 4215   4.742   0.158   6.281
 1106SOL     OW 4216   6.335   1.359   2.163
 1106SOL    HW1 4217   6.256   1.358   2.101
 1106SOL    HW2 4218   6.311   1.311   2.247
 1107SOL     OW 4219   1.118   2.824   0.082
 1107SOL    HW1 4220   1.064   2.854   0.161
 1107SOL    HW2 4221   1.069   2.848   7.026
 1108SOL     OW 4222   2.507   0.917   2.015
 1108SOL    HW1 4223   2.442   0.841   2.020
 1108SOL    HW2 4224   2.515   0.947   1.920
 1109SOL     OW 4225   5.174   1.142   5.289
 1109SOL    HW1 4226   5.196   1.096   5.203
 1109SOL    HW2 4227   5.196   1.240   5.280
 1110SOL     OW 4228   1.374   0.039   1.676
 1110SOL    HW1 4229   1.445   0.109   1.682
 1110SOL    HW2 4230   1.354   0.004   1.768
 1111SOL     OW 4231   5.163   3.550   6.228
 1111SOL    HW1 4232   5.177   3.458   6.192
 1111SOL    HW2 4233   5.236   3.573   6.292
 1112SOL     OW 4234   5.714   0.320   2.666
 1112SOL    HW1 4235   5.761   0.299   2.580
 1112SOL    HW2 4236   5.698   0.418   2.671
 1113SOL     OW 4237   0.035   0.671   2.790
 1113SOL    HW1 4238   7.018   0.666   2.879
 1113SOL    HW2 4239   0.021   0.762   2.750
 1114SOL     OW 4240   3.752   3.665   4.385
 1114SOL    HW1 4241   3.684   3.655   4.458
 1114SOL    HW2 4242   3.786   3.759   4.385
 1115SOL     OW 4243   1.788   5.759   5.697
 1115SOL    HW1 4244   1.787   5.661   5.714
 1115SOL    HW2 4245   1.701   5.799   5.727
 1116SOL     OW 4246   4.411   0.182   0.403
 1116SOL    HW1 4247   4.400   0.082   0.402
 1116SOL    HW2 4248   4.321   0.225   0.403
 1117SOL     OW 4249   2.251   2.292   1.638
 1117SOL    HW1 4250   2.308   2.370   1.611
 1117SOL    HW2 4251   2.306   2.229   1.693
 1118SOL     OW 4252   4.387   0.100   0.079
 1118SOL    HW1 4253   4.471   0.115   0.132
 1118SOL    HW2 4254   4.353   0.008   0.096
 1119SOL     OW 4255   3.352   6.299   3.383
 1119SOL    HW1 4256   3.275   6.245   3.416
 1119SOL    HW2 4257   3.324   6.352   3.302
 1120SOL     OW 4258   0.666   2.852   1.880
 1120SOL    HW1 4259   0.728   2.780   1.849
 1120SOL    HW2 4260   0.716   2.921   1.930
 1121SOL     OW 4261   5.409   4.622   6.045
 1121SOL    HW1 4262   5.387   4.708   5.999
 1121SOL    HW2 4263   5.374   4.545   5.991
 1122SOL     OW 4264   6.199   0.967   2.673
 1122SOL    HW1 4265   6.205   1.026   2.753
 1122SOL    HW2 4266   6.165   0.877   2.700
 1123SOL     OW 4267   3.350   2.077   5.083
 1123SOL    HW1 4268   3.446   2.072   5.056
 1123SOL    HW2 4269   3.309   2.160   5.044
 1124SOL     OW 4270   2.666   2.255   3.608
 1124SOL    HW1 4271   2.663   2.291   3.702
 1124SOL    HW2 4272   2.752   2.282   3.565
 1125SOL     OW 4273   1.218   3.231   3.454
 1125SOL    HW1 4274   1.233   3.289   3.533
 1125SOL    HW2 4275   1.138   3.173   3.470
 1126SOL     OW 4276   5.150   4.900   3.781
 1126SOL    HW1 4277   5.210   4.973   3.811
 1126SOL    HW2 4278   5.096   4.866   3.858
 1127SOL     OW 4279   5.180   0.374   0.677
 1127SOL    HW1 4280   5.201   0.292   0.624
 1127SOL    HW2 4281   5.156   0.448   0.615
 1128SOL     OW 4282   3.305   1.665   4.649
 1128SOL    HW1 4283   3.359   1.667   4.733
 1128SOL    HW2 4284   3.331   1.584   4.596
 1129SOL     OW 4285   1.470   0.389   6.821
 1129SOL    HW1 4286   1.530   0.339   6.759
 1129SOL    HW2 4287   1.474   0.486   6.799
 1130SOL     OW 4288   2.054   5.774   0.313
 1130SOL    HW1 4289   1.972   5.781   0.256
 1130SOL    HW2 4290   2.107   5.693   0.286
 1131SOL     OW 4291   1.498   5.610   3.197
 1131SOL    HW1 4292   1.412   5.659   3.209
 1131SOL    HW2 4293   1.524   5.567   3.284
 1132SOL     OW 4294   1.513   2.750   2.919
 1132SOL    HW1 4295   1.562   2.802   2.990
 1132SOL    HW2 4296   1.415   2.755   2.937
 1133SOL     OW 4297   1.240   5.849   0.069
 1133SOL    HW1 4298   1.147   5.887   0.078
 1133SOL    HW2 4299   1.301   5.895   0.133
 1134SOL     OW 4300   4.099   5.037   1.082
 1134SOL    HW1 4301   4.052   5.032   0.994
 1134SOL    HW2 4302   4.078   5.124   1.126
 1135SOL     OW 4303   1.591   6.509   2.507
 1135SOL    HW1 4304   1.654   6.584   2.486
 1135SOL    HW2 4305   1.634   6.446   2.571
 1136SOL     OW 4306   1.288   4.842   2.989
 1136SOL    HW1 4307   1.370   4.844   2.933
 1136SOL    HW2 4308   1.287   4.757   3.043
 1137SOL     OW 4309   1.319   5.366   3.962
 1137SOL    HW1 4310   1.408   5.354   3.916
 1137SOL    HW2 4311   1.310   5.461   3.992
 1138SOL     OW 4312   2.621   4.878   4.540
 1138SOL    HW1 4313   2.558   4.956   4.547
 1138SOL    HW2 4314   2.598   4.811   4.610
 1139SOL     OW 4315   3.484   6.091   4.860
 1139SOL    HW1 4316   3.487   6.149   4.779
 1139SOL    HW2 4317   3.390   6.060   4.876
 1140SOL     OW 4318   1.834   2.688   1.429
 1140SOL    HW1 4319   1.738   2.716   1.433
 1140SOL    HW2 4320   1.866   2.668   1.521
 1141SOL     OW 4321   6.318   4.963   6.589
 1141SOL    HW1 4322   6.406   4.916   6.577
 1141SOL    HW2 4323   6.332   5.061   6.594
 1142SOL     OW 4324   0.898   5.788   3.604
 1142SOL    HW1 4325   0.932   5.857   3.668
 1142SOL    HW2 4326   0.836   5.832   3.538
 1143SOL     OW 4327   0.215   3.659   1.517
 1143SOL    HW1 4328   0.167   3.630   1.599
 1143SOL    HW2 4329   0.293   3.717   1.543
 1144SOL     OW 4330   4.963   4.713   0.118
 1144SOL    HW1 4331   5.002   4.636   0.066
 1144SOL    HW2 4332   4.881   4.682   0.166
 1145SOL     OW 4333   5.921   0.184   1.007
 1145SOL    HW1 4334   5.861   0.263   0.996
 1145SOL    HW2 4335   5.984   0.179   0.931
 1146SOL     OW 4336   1.623   0.187   1.301
 1146SOL    HW1 4337   1.523   0.192   1.296
 1146SOL    HW2 4338   1.650   0.110   1.359
 1147SOL     OW 4339   0.991   5.588   0.365
 1147SOL    HW1 4340   1.038   5.553   0.283
 1147SOL    HW2 4341   0.958   5.680   0.347
 1148SOL     OW 4342   3.713   5.905   1.628
 1148SOL    HW1 4343   3.747   5.855   1.708
 1148SOL    HW2 4344   3.634   5.960   1.654
 1149SOL     OW 4345   6.263   2.880   1.644
 1149SOL    HW1 4346   6.223   2.788   1.639
 1149SOL    HW2 4347   6.210   2.935   1.708
 1150SOL     OW 4348   0.658   1.794   0.602
 1150SOL    HW1 4349   0.644   1.792   0.701
 1150SOL    HW2 4350   0.756   1.800   0.583
 1151SOL     OW 4351   6.089   5.330   4.635
 1151SOL    HW1 4352   6.173   5.307   4.587
 1151SOL    HW2 4353   6.015   5.270   4.603
 1152SOL     OW 4354   3.310   6.510   5.708
 1152SOL    HW1 4355   3.215   6.491   5.683
 1152SOL    HW2 4356   3.313   6.565   5.792
 1153SOL     OW 4357   5.686   6.943   1.069
 1153SOL    HW1 4358   5.692   6.994   0.984
 1153SOL    HW2 4359   5.778   6.918   1.100
 1154SOL     OW 4360   1.108   2.806   0.995
 1154SOL    HW1 4361   1.044   2.853   1.055
 1154SOL    HW2 4362   1.193   2.787   1.044
 1155SOL     OW 4363   3.946   5.570   3.726
 1155SOL    HW1 4364   3.996   5.550   3.811
 1155SOL    HW2 4365   3.893   5.489   3.700
 1156SOL     OW 4366   3.257   0.285   1.069
 1156SOL    HW1 4367   3.356   0.288   1.086
 1156SOL    HW2 4368   3.218   0.376   1.086
 1157SOL     OW 4369   2.216   1.910   0.974
 1157SOL    HW1 4370   2.298   1.887   1.027
 1157SOL    HW2 4371   2.244   1.947   0.885
 1158SOL     OW 4372   5.854   4.974   3.803
 1158SOL    HW1 4373   5.780   5.023   3.850
 1158SOL    HW2 4374   5.889   5.031   3.729
 1159SOL     OW 4375   5.313   4.911   0.018
 1159SOL    HW1 4376   5.299   4.949   0.109
 1159SOL    HW2 4377   5.272   4.972   6.978
 1160SOL     OW 4378   4.413   2.376   1.271
 1160SOL    HW1 4379   4.472   2.317   1.215
 1160SOL    HW2 4380   4.380   2.452   1.217
 1161SOL     OW 4381   0.329   3.963   0.939
 1161SOL    HW1 4382   0.416   3.913   0.939
 1161SOL    HW2 4383   0.286   3.955   1.029
 1162SOL     OW 4384   2.108   3.027   5.094
 1162SOL    HW1 4385   2.207   3.016   5.085
 1162SOL    HW2 4386   2.063   2.985   5.016
 1163SOL     OW 4387   4.209   1.838   2.229
 1163SOL    HW1 4388   4.269   1.761   2.250
 1163SOL    HW2 4389   4.263   1.911   2.187
 1164SOL     OW 4390   4.334   2.336   6.765
 1164SOL    HW1 4391   4.399   2.262   6.780
 1164SOL    HW2 4392   4.244   2.298   6.743
 1165SOL     OW 4393   4.280   0.276   2.931
 1165SOL    HW1 4394   4.313   0.277   3.025
 1165SOL    HW2 4395   4.359   0.283   2.869
 1166SOL     OW 4396   4.134   4.376   6.794
 1166SOL    HW1 4397   4.207   4.402   6.731
 1166SOL    HW2 4398   4.120   4.450   6.861
 1167SOL     OW 4399   5.295   3.732   3.843
 1167SOL    HW1 4400   5.349   3.755   3.762
 1167SOL    HW2 4401   5.203   3.771   3.834
 1168SOL     OW 4402   0.548   0.389   0.472
 1168SOL    HW1 4403   0.488   0.379   0.392
 1168SOL    HW2 4404   0.634   0.340   0.455
 1169SOL     OW 4405   4.880   1.635   5.732
 1169SOL    HW1 4406   4.911   1.719   5.688
 1169SOL    HW2 4407   4.939   1.559   5.705
 1170SOL     OW 4408   5.290   4.458   3.254
 1170SOL    HW1 4409   5.224   4.424   3.187
 1170SOL    HW2 4410   5.364   4.392   3.264
 1171SOL     OW 4411   0.085   6.773   0.989
 1171SOL    HW1 4412   0.111   6.783   0.893
 1171SOL    HW2 4413   0.124   6.689   1.025
 1172SOL     OW 4414   5.881   2.384   6.768
 1172SOL    HW1 4415   5.844   2.371   6.676
 1172SOL    HW2 4416   5.903   2.481   6.782
 1173SOL     OW 4417   5.186   2.997   2.238
 1173SOL    HW1 4418   5.136   3.029   2.318
 1173SOL    HW2 4419   5.218   3.075   2.185
 1174SOL     OW 4420   2.577   5.230   6.304
 1174SOL    HW1 4421   2.618   5.306   6.354
 1174SOL    HW2 4422   2.541   5.163   6.368
 1175SOL     OW 4423   3.223   3.398   4.463
 1175SOL    HW1 4424   3.222   3.337   4.384
 1175SOL    HW2 4425   3.131   3.402   4.503
 1176SOL     OW 4426   5.253   3.941   6.838
 1176SOL    HW1 4427   5.276   4.029   6.797
 1176SOL    HW2 4428   5.199   3.955   6.920
 1177SOL     OW 4429   1.472   0.581   4.274
 1177SOL    HW1 4430   1.425   0.647   4.216
 1177SOL    HW2 4431   1.407   0.514   4.309
 1178SOL     OW 4432   3.889   6.883   0.232
 1178SOL    HW1 4433   3.852   6.975   0.241
 1178SOL    HW2 4434   3.832   6.819   0.283
 1179SOL     OW 4435   0.428   6.219   1.014
 1179SOL    HW1 4436   0.434   6.318   1.020
 1179SOL    HW2 4437   0.451   6.189   0.922
 1180SOL     OW 4438   4.047   6.520   0.710
 1180SOL    HW1 4439   4.100   6.529   0.626
 1180SOL    HW2 4440   3.952   6.546   0.692
 1181SOL     OW 4441   6.167   6.370   5.692
 1181SOL    HW1 4442   6.262   6.380   5.665
 1181SOL    HW2 4443   6.154   6.281   5.736
 1182SOL     OW 4444   5.320   3.583   4.088
 1182SOL    HW1 4445   5.304   3.638   4.006
 1182SOL    HW2 4446   5.239   3.586   4.147
 1183SOL     OW 4447   1.546   4.077   0.055
 1183SOL    HW1 4448   1.596   4.050   7.001
 1183SOL    HW2 4449   1.455   4.036   0.054
 1184SOL     OW 4450   0.679   1.954   4.930
 1184SOL    HW1 4451   0.690   1.918   5.022
 1184SOL    HW2 4452   0.600   2.015   4.926
 1185SOL     OW 4453   0.186   2.118   0.138
 1185SOL    HW1 4454   0.098   2.107   0.093
 1185SOL    HW2 4455   0.242   2.184   0.087
 1186SOL     OW 4456   5.152   6.232   3.402
 1186SOL    HW1 4457   5.088   6.262   3.472
 1186SOL    HW2 4458   5.181   6.310   3.348
 1187SOL     OW 4459   6.726   2.311   0.267
 1187SOL    HW1 4460   6.791   2.367   0.318
 1187SOL    HW2 4461   6.761   2.293   0.176
 1188SOL     OW 4462   4.332   1.591   6.667
 1188SOL    HW1 4463   4.417   1.538   6.666
 1188SOL    HW2 4464   4.254   1.529   6.663
 1189SOL     OW 4465   6.124   3.981   4.053
 1189SOL    HW1 4466   6.145   3.982   4.150
 1189SOL    HW2 4467   6.041   4.036   4.036
 1190SOL     OW 4468   2.389   1.182   3.867
 1190SOL    HW1 4469   2.385   1.107   3.933
 1190SOL    HW2 4470   2.416   1.146   3.778
 1191SOL     OW 4471   2.679   0.184   2.822
 1191SOL    HW1 4472   2.687   0.117   2.896
 1191SOL    HW2 4473   2.720   0.271   2.851
 1192SOL     OW 4474   5.916   5.167   4.511
 1192SOL    HW1 4475   5.838   5.152   4.451
 1192SOL    HW2 4476   5.957   5.079   4.536
 1193SOL     OW 4477   6.458   6.293   3.927
 1193SOL    HW1 4478   6.553   6.293   3.960
 1193SOL    HW2 4479   6.436   6.203   3.890
 1194SOL     OW 4480   3.721   0.278   1.238
 1194SOL    HW1 4481   3.725   0.189   1.195
 1194SOL    HW2 4482   3.797   0.289   1.302
 1195SOL     OW 4483   5.217   3.386   3.478
 1195SOL    HW1 4484   5.215   3.322   3.554
 1195SOL    HW2 4485   5.223   3.336   3.391
 1196SOL     OW 4486   0.261   6.603   5.679
 1196SOL    HW1 4487   0.276   6.620   5.581
 1196SOL    HW2 4488   0.306   6.518   5.705
 1197SOL     OW 4489   2.848   6.525   6.648
 1197SOL    HW1 4490   2.763   6.533   6.597
 1197SOL    HW2 4491   2.833   6.473   6.732
 1198SOL     OW 4492   1.547   2.727   0.532
 1198SOL    HW1 4493   1.462   2.746   0.581
 1198SOL    HW2 4494   1.616   2.695   0.596
 1199SOL     OW 4495   5.821   4.637   2.687
 1199SOL    HW1 4496   5.768   4.660   2.605
 1199SOL    HW2 4497   5.787   4.552   2.725
 1200SOL     OW 4498   3.135   3.744   1.953
 1200SOL    HW1 4499   3.152   3.819   2.018
 1200SOL    HW2 4500   3.057   3.767   1.895
 1201SOL     OW 4501   1.187   2.326   4.996
 1201SOL    HW1 4502   1.237   2.409   4.973
 1201SOL    HW2 4503   1.161   2.328   5.092
 1202SOL     OW 4504   0.960   6.608   4.837
 1202SOL    HW1 4505   0.875   6.659   4.844
 1202SOL    HW2 4506   0.956   6.547   4.757
 1203SOL     OW 4507   4.684   5.294   5.184
 1203SOL    HW1 4508   4.625   5.337   5.252
 1203SOL    HW2 4509   4.762   5.251   5.229
 1204SOL     OW 4510   2.110   0.306   2.714
 1204SOL    HW1 4511   2.097   0.394   2.668
 1204SOL    HW2 4512   2.151   0.322   2.804
 1205SOL     OW 4513   5.764   3.259   2.461
 1205SOL    HW1 4514   5.711   3.178   2.436
 1205SOL    HW2 4515   5.798   3.249   2.555
 1206SOL     OW 4516   3.286   2.936   3.983
 1206SOL    HW1 4517   3.239   2.927   4.071
 1206SOL    HW2 4518   3.385   2.935   3.998
 1207SOL     OW 4519   1.018   5.916   3.225
 1207SOL    HW1 4520   0.922   5.891   3.212
 1207SOL    HW2 4521   1.063   5.920   3.136
 1208SOL     OW 4522   4.046   2.298   6.812
 1208SOL    HW1 4523   4.069   2.238   6.889
 1208SOL    HW2 4524   4.001   2.244   6.740
 1209SOL     OW 4525   4.270   6.626   5.559
 1209SOL    HW1 4526   4.242   6.559   5.490
 1209SOL    HW2 4527   4.368   6.645   5.548
 1210SOL     OW 4528   2.259   1.185   3.253
 1210SOL    HW1 4529   2.276   1.280   3.278
 1210SOL    HW2 4530   2.220   1.136   3.331
 1211SOL     OW 4531   0.871   2.884   1.104
 1211SOL    HW1 4532   0.875   2.846   1.196
 1211SOL    HW2 4533   0.777   2.911   1.082
 1212SOL     OW 4534   0.496   6.753   0.265
 1212SOL    HW1 4535   0.574   6.752   0.202
 1212SOL    HW2 4536   0.525   6.720   0.355
 1213SOL     OW 4537   6.213   2.783   2.868
 1213SOL    HW1 4538   6.293   2.726   2.888
 1213SOL    HW2 4539   6.244   2.873   2.838
 1214SOL     OW 4540   1.397   2.784   2.360
 1214SOL    HW1 4541   1.342   2.756   2.282
 1214SOL    HW2 4542   1.435   2.875   2.343
 1215SOL     OW 4543   1.987   5.348   2.674
 1215SOL    HW1 4544   1.928   5.361   2.594
 1215SOL    HW2 4545   2.082   5.341   2.645
 1216SOL     OW 4546   3.474   0.210   2.067
 1216SOL    HW1 4547   3.486   0.307   2.088
 1216SOL    HW2 4548   3.383   0.196   2.028
 1217SOL     OW 4549   2.891   4.160   0.176
 1217SOL    HW1 4550   2.943   4.198   0.100
 1217SOL    HW2 4551   2.939   4.179   0.262
 1218SOL     OW 4552   1.968   4.940   4.242
 1218SOL    HW1 4553   1.955   5.014   4.308
 1218SOL    HW2 4554   2.012   4.862   4.287
 1219SOL     OW 4555   3.616   5.406   2.201
 1219SOL    HW1 4556   3.592   5.357   2.117
 1219SOL    HW2 4557   3.633   5.502   2.179
 1220SOL     OW 4558   0.629   4.842   2.161
 1220SOL    HW1 4559   0.721   4.811   2.136
 1220SOL    HW2 4560   0.632   4.886   2.250
 1221SOL     OW 4561   3.951   3.583   6.274
 1221SOL    HW1 4562   3.885   3.533   6.331
 1221SOL    HW2 4563   3.964   3.534   6.188
 1222SOL     OW 4564   6.917   1.991   6.725
 1222SOL    HW1 4565   6.893   2.082   6.759
 1222SOL    HW2 4566   6.933   1.929   6.801
 1223SOL     OW 4567   4.389   5.411   1.278
 1223SOL    HW1 4568   4.397   5.511   1.285
 1223SOL    HW2 4569   4.353   5.386   1.188
 1224SOL     OW 4570   2.997   1.043   1.461
 1224SOL    HW1 4571   3.071   1.091   1.509
 1224SOL    HW2 4572   3.035   0.973   1.401
 1225SOL     OW 4573   3.519   4.743   5.773
 1225SOL    HW1 4574   3.571   4.828   5.780
 1225SOL    HW2 4575   3.562   4.674   5.831
 1226SOL     OW 4576   2.275   5.399   0.827
 1226SOL    HW1 4577   2.299   5.349   0.743
 1226SOL    HW2 4578   2.196   5.457   0.810
 1227SOL     OW 4579   1.134   4.450   5.309
 1227SOL    HW1 4580   1.136   4.480   5.404
 1227SOL    HW2 4581   1.061   4.498   5.260
 1228SOL     OW 4582   3.535   2.368   0.985
 1228SOL    HW1 4583   3.575   2.277   0.986
 1228SOL    HW2 4584   3.443   2.364   0.948
 1229SOL     OW 4585   3.009   4.286   6.977
 1229SOL    HW1 4586   3.108   4.296   6.988
 1229SOL    HW2 4587   2.973   4.362   6.922
 1230SOL     OW 4588   3.994   0.257   3.390
 1230SOL    HW1 4589   3.996   0.347   3.346
 1230SOL    HW2 4590   3.974   0.187   3.321
 1231SOL     OW 4591   0.944   3.156   3.496
 1231SOL    HW1 4592   0.861   3.142   3.550
 1231SOL    HW2 4593   0.926   3.220   3.422
 1232SOL     OW 4594   1.894   1.500   2.453
 1232SOL    HW1 4595   1.810   1.553   2.464
 1232SOL    HW2 4596   1.965   1.539   2.511
 1233SOL     OW 4597   0.959   2.382   4.334
 1233SOL    HW1 4598   0.966   2.481   4.320
 1233SOL    HW2 4599   0.940   2.363   4.430
 1234SOL     OW 4600   6.628   4.528   4.131
 1234SOL    HW1 4601   6.605   4.459   4.062
 1234SOL    HW2 4602   6.727   4.526   4.149
 1235SOL     OW 4603   6.881   5.077   3.297
 1235SOL    HW1 4604   6.938   5.013   3.246
 1235SOL    HW2 4605   6.794   5.091   3.249
 1236SOL     OW 4606   5.987   0.624   6.875
 1236SOL    HW1 4607   5.970   0.691   6.803
 1236SOL    HW2 4608   6.084   0.601   6.877
 1237SOL     OW 4609   2.794   3.910   0.220
 1237SOL    HW1 4610   2.831   3.996   0.185
 1237SOL    HW2 4611   2.707   3.928   0.265
 1238SOL     OW 4612   1.964   0.939   1.267
 1238SOL    HW1 4613   1.935   1.020   1.216
 1238SOL    HW2 4614   2.054   0.956   1.308
 1239SOL     OW 4615   1.053   1.130   5.090
 1239SOL    HW1 4616   1.119   1.184   5.142
 1239SOL    HW2 4617   0.991   1.192   5.042
 1240SOL     OW 4618   6.220   5.512   0.679
 1240SOL    HW1 4619   6.244   5.609   0.683
 1240SOL    HW2 4620   6.128   5.499   0.716
 1241SOL     OW 4621   0.738   2.055   4.135
 1241SOL    HW1 4622   0.747   1.975   4.075
 1241SOL    HW2 4623   0.642   2.081   4.141
 1242SOL     OW 4624   1.816   1.869   6.465
 1242SOL    HW1 4625   1.822   1.957   6.513
 1242SOL    HW2 4626   1.818   1.795   6.531
 1243SOL     OW 4627   3.293   5.080   5.255
 1243SOL    HW1 4628   3.309   5.159   5.313
 1243SOL    HW2 4629   3.337   4.999   5.295
 1244SOL     OW 4630   1.174   1.591   2.960
 1244SOL    HW1 4631   1.244   1.536   2.914
 1244SOL    HW2 4632   1.217   1.645   3.033
 1245SOL     OW 4633   3.629   2.975   4.864
 1245SOL    HW1 4634   3.698   2.956   4.794
 1245SOL    HW2 4635   3.538   2.970   4.823
 1246SOL     OW 4636   1.222   6.545   1.474
 1246SOL    HW1 4637   1.133   6.591   1.481
 1246SOL    HW2 4638   1.295   6.613   1.478
 1247SOL     OW 4639   0.360   6.641   6.458
 1247SOL    HW1 4640   0.341   6.591   6.543
 1247SOL    HW2 4641   0.274   6.666   6.414
 1248SOL     OW 4642   2.307   6.876   4.227
 1248SOL    HW1 4643   2.366   6.926   4.163
 1248SOL    HW2 4644   2.329   6.778   4.221
 1249SOL     OW 4645   6.495   3.423   3.790
 1249SOL    HW1 4646   6.521   3.508   3.836
 1249SOL    HW2 4647   6.571   3.391   3.733
 1250SOL     OW 4648   6.292   3.338   4.396
 1250SOL    HW1 4649   6.372   3.363   4.449
 1250SOL    HW2 4650   6.210   3.377   4.438
 1251SOL     OW 4651   3.180   0.758   0.136
 1251SOL    HW1 4652   3.247   0.729   0.067
 1251SOL    HW2 4653   3.130   0.838   0.102
 1252SOL     OW 4654   3.908   3.726   0.289
 1252SOL    HW1 4655   3.921   3.701   0.385
 1252SOL    HW2 4656   3.862   3.815   0.284
 1253SOL     OW 4657   5.167   1.931   3.186
 1253SOL    HW1 4658   5.145   1.853   3.244
 1253SOL    HW2 4659   5.162   1.904   3.090
 1254SOL     OW 4660   5.357   1.193   4.049
 1254SOL    HW1 4661   5.274   1.176   4.102
 1254SOL    HW2 4662   5.400   1.106   4.026
 1255SOL     OW 4663   5.774   0.386   0.949
 1255SOL    HW1 4664   5.817   0.475   0.934
 1255SOL    HW2 4665   5.705   0.370   0.879
 1256SOL     OW 4666   5.623   3.038   3.592
 1256SOL    HW1 4667   5.700   2.985   3.557
 1256SOL    HW2 4668   5.559   3.058   3.517
 1257SOL     OW 4669   6.058   1.696   5.138
 1257SOL    HW1 4670   6.124   1.639   5.186
 1257SOL    HW2 4671   6.076   1.692   5.039
 1258SOL     OW 4672   0.082   5.269   4.061
 1258SOL    HW1 4673   0.058   5.215   4.142
 1258SOL    HW2 4674   0.128   5.353   4.089
 1259SOL     OW 4675   5.851   2.313   5.384
 1259SOL    HW1 4676   5.887   2.401   5.354
 1259SOL    HW2 4677   5.924   2.258   5.423
 1260SOL     OW 4678   1.015   1.395   4.587
 1260SOL    HW1 4679   1.039   1.394   4.684
 1260SOL    HW2 4680   1.094   1.366   4.533
 1261SOL     OW 4681   6.251   3.235   1.488
 1261SOL    HW1 4682   6.342   3.273   1.499
 1261SOL    HW2 4683   6.212   3.265   1.401
 1262SOL     OW 4684   5.232   5.647   1.762
 1262SOL    HW1 4685   5.323   5.670   1.795
 1262SOL    HW2 4686   5.223   5.674   1.666
 1263SOL     OW 4687   1.239   2.766   2.973
 1263SOL    HW1 4688   1.193   2.815   3.047
 1263SOL    HW2 4689   1.208   2.671   2.971
 1264SOL     OW 4690   1.144   2.959   5.780
 1264SOL    HW1 4691   1.070   2.897   5.753
 1264SOL    HW2 4692   1.120   3.004   5.866
 1265SOL     OW 4693   6.173   1.295   6.389
 1265SOL    HW1 4694   6.190   1.373   6.327
 1265SOL    HW2 4695   6.260   1.249   6.407
 1266SOL     OW 4696   3.885   1.986   6.036
 1266SOL    HW1 4697   3.823   1.936   6.097
 1266SOL    HW2 4698   3.965   1.929   6.017
 1267SOL     OW 4699   2.860   0.819   1.913
 1267SOL    HW1 4700   2.792   0.767   1.862
 1267SOL    HW2 4701   2.912   0.757   1.973
 1268SOL     OW 4702   4.287   2.133   5.143
 1268SOL    HW1 4703   4.292   2.039   5.179
 1268SOL    HW2 4704   4.255   2.131   5.048
 1269SOL     OW 4705   5.428   2.094   3.555
 1269SOL    HW1 4706   5.374   2.138   3.484
 1269SOL    HW2 4707   5.395   2.001   3.569
 1270SOL     OW 4708   5.690   5.393   3.704
 1270SOL    HW1 4709   5.682   5.436   3.793
 1270SOL    HW2 4710   5.762   5.438   3.651
 1271SOL     OW 4711   1.418   6.776   1.565
 1271SOL    HW1 4712   1.446   6.780   1.469
 1271SOL    HW2 4713   1.374   6.862   1.591
 1272SOL     OW 4714   5.467   2.066   0.981
 1272SOL    HW1 4715   5.467   1.988   1.044
 1272SOL    HW2 4716   5.497   2.035   0.890
 1273SOL     OW 4717   1.990   4.300   5.087
 1273SOL    HW1 4718   2.056   4.269   5.155
 1273SOL    HW2 4719   2.030   4.293   4.996
 1274SOL     OW 4720   6.872   4.397   4.185
 1274SOL    HW1 4721   6.964   4.380   4.149
 1274SOL    HW2 4722   6.841   4.318   4.237
 1275SOL     OW 4723   1.696   1.930   2.551
 1275SOL    HW1 4724   1.701   1.839   2.593
 1275SOL    HW2 4725   1.784   1.976   2.563
 1276SOL     OW 4726   5.869   4.023   3.837
 1276SOL    HW1 4727   5.782   3.992   3.876
 1276SOL    HW2 4728   5.879   4.121   3.852
 1277SOL     OW 4729   0.937   6.460   5.761
 1277SOL    HW1 4730   0.960   6.383   5.822
 1277SOL    HW2 4731   1.005   6.465   5.688
 1278SOL     OW 4732   6.831   6.250   2.954
 1278SOL    HW1 4733   6.842   6.286   2.861
 1278SOL    HW2 4734   6.917   6.261   3.004
 1279SOL     OW 4735   2.904   2.742   0.568
 1279SOL    HW1 4736   2.913   2.675   0.642
 1279SOL    HW2 4737   2.842   2.815   0.598
 1280SOL     OW 4738   3.135   2.181   2.619
 1280SOL    HW1 4739   3.048   2.178   2.569
 1280SOL    HW2 4740   3.117   2.169   2.717
 1281SOL     OW 4741   5.924   5.870   6.033
 1281SOL    HW1 4742   5.897   5.785   5.988
 1281SOL    HW2 4743   5.849   5.903   6.091
 1282SOL     OW 4744   1.085   2.437   1.383
 1282SOL    HW1 4745   1.125   2.420   1.474
 1282SOL    HW2 4746   1.113   2.364   1.321
 1283SOL     OW 4747   1.263   0.160   5.214
 1283SOL    HW1 4748   1.285   0.256   5.202
 1283SOL    HW2 4749   1.317   0.123   5.290
 1284SOL     OW 4750   4.072   2.061   1.535
 1284SOL    HW1 4751   4.126   2.095   1.612
 1284SOL    HW2 4752   4.077   2.125   1.459
 1285SOL     OW 4753   3.800   1.286   4.233
 1285SOL    HW1 4754   3.813   1.189   4.255
 1285SOL    HW2 4755   3.878   1.338   4.268
 1286SOL     OW 4756   5.795   0.759   2.017
 1286SOL    HW1 4757   5.837   0.704   2.089
 1286SOL    HW2 4758   5.718   0.709   1.977
 1287SOL     OW 4759   5.666   4.349   6.797
 1287SOL    HW1 4760   5.584   4.348   6.740
 1287SOL    HW2 4761   5.678   4.260   6.840
 1288SOL     OW 4762   5.094   4.380   5.459
 1288SOL    HW1 4763   5.088   4.381   5.359
 1288SOL    HW2 4764   5.183   4.414   5.488
 1289SOL     OW 4765   0.847   7.015   0.730
 1289SOL    HW1 4766   0.749   7.019   0.750
 1289SOL    HW2 4767   0.862   7.000   0.632
 1290SOL     OW 4768   1.277   6.898   4.562
 1290SOL    HW1 4769   1.216   6.976   4.547
 1290SOL    HW2 4770   1.232   6.815   4.528
 1291SOL     OW 4771   4.672   6.262   4.114
 1291SOL    HW1 4772   4.745   6.285   4.050
 1291SOL    HW2 4773   4.593   6.320   4.097
 1292SOL     OW 4774   6.663   6.437   3.084
 1292SOL    HW1 4775   6.732   6.372   3.052
 1292SOL    HW2 4776   6.577   6.422   3.035
 1293SOL     OW 4777   4.711   0.284   0.857
 1293SOL    HW1 4778   4.643   0.312   0.790
 1293SOL    HW2 4779   4.672   0.216   0.919
 1294SOL     OW 4780   2.132   4.376   5.342
 1294SOL    HW1 4781   2.206   4.423   5.389
 1294SOL    HW2 4782   2.167   4.294   5.298
 1295SOL     OW 4783   0.092   4.398   0.608
 1295SOL    HW1 4784   0.003   4.442   0.618
 1295SOL    HW2 4785   0.156   4.462   0.566
 1296SOL     OW 4786   3.745   0.191   6.131
 1296SOL    HW1 4787   3.673   0.170   6.065
 1296SOL    HW2 4788   3.827   0.139   6.109
 1297SOL     OW 4789   6.379   6.578   0.290
 1297SOL    HW1 4790   6.361   6.539   0.380
 1297SOL    HW2 4791   6.402   6.504   0.226
 1298SOL     OW 4792   4.707   6.967   2.689
 1298SOL    HW1 4793   4.660   6.894   2.640
 1298SOL    HW2 4794   4.717   0.019   2.629
 1299SOL     OW 4795   1.080   4.941   5.356
 1299SOL    HW1 4796   1.060   4.979   5.446
 1299SOL    HW2 4797   1.175   4.912   5.353
 1300SOL     OW 4798   1.434   5.498   0.711
 1300SOL    HW1 4799   1.368   5.493   0.636
 1300SOL    HW2 4800   1.403   5.440   0.786
 1301SOL     OW 4801   6.387   2.147   6.713
 1301SOL    HW1 4802   6.364   2.218   6.647
 1301SOL    HW2 4803   6.469   2.098   6.682
 1302SOL     OW 4804   6.814   6.648   5.049
 1302SOL    HW1 4805   6.878   6.654   5.125
 1302SOL    HW2 4806   6.779   6.554   5.042
 1303SOL     OW 4807   2.417   6.399   0.901
 1303SOL    HW1 4808   2.420   6.301   0.922
 1303SOL    HW2 4809   2.322   6.431   0.907
 1304SOL     OW 4810   6.200   1.327   6.954
 1304SOL    HW1 4811   6.124   1.323   6.889
 1304SOL    HW2 4812   6.166   1.320   0.019
 1305SOL     OW 4813   3.728   4.150   6.009
 1305SOL    HW1 4814   3.647   4.130   6.063
 1305SOL    HW2 4815   3.722   4.102   5.921
 1306SOL     OW 4816   2.606   6.161   4.329
 1306SOL    HW1 4817   2.511   6.167   4.299
 1306SOL    HW2 4818   2.627   6.241   4.386
 1307SOL     OW 4819   2.086   3.421   2.895
 1307SOL    HW1 4820   2.063   3.458   2.986
 1307SOL    HW2 4821   2.080   3.494   2.827
 1308SOL     OW 4822   0.399   3.919   5.935
 1308SOL    HW1 4823   0.300   3.927   5.947
 1308SOL    HW2 4824   0.434   4.005   5.898
 1309SOL     OW 4825   6.252   4.480   0.168
 1309SOL    HW1 4826   6.275   4.383   0.167
 1309SOL    HW2 4827   6.197   4.502   0.086
 1310SOL     OW 4828   2.459   2.364   3.326
 1310SOL    HW1 4829   2.377   2.417   3.345
 1310SOL    HW2 4830   2.509   2.404   3.249
 1311SOL     OW 4831   6.312   5.371   6.897
 1311SOL    HW1 4832   6.354   5.371   6.806
 1311SOL    HW2 4833   6.333   5.457   6.943
 1312SOL     OW 4834   2.138   1.923   6.573
 1312SOL    HW1 4835   2.230   1.951   6.601
 1312SOL    HW2 4836   2.070   1.967   6.632
 1313SOL     OW 4837   4.731   5.091   3.317
 1313SOL    HW1 4838   4.681   5.063   3.399
 1313SOL    HW2 4839   4.829   5.072   3.330
 1314SOL     OW 4840   3.145   1.792   3.803
 1314SOL    HW1 4841   3.225   1.850   3.784
 1314SOL    HW2 4842   3.062   1.838   3.772
 1315SOL     OW 4843   5.531   7.004   3.795
 1315SOL    HW1 4844   5.497   0.068   3.814
 1315SOL    HW2 4845   5.620   7.009   3.751
 1316SOL     OW 4846   4.773   0.524   6.392
 1316SOL    HW1 4847   4.783   0.442   6.448
 1316SOL    HW2 4848   4.862   0.571   6.385
 1317SOL     OW 4849   3.798   3.005   3.982
 1317SOL    HW1 4850   3.855   3.025   4.063
 1317SOL    HW2 4851   3.798   3.085   3.922
 1318SOL     OW 4852   1.613   0.824   0.285
 1318SOL    HW1 4853   1.598   0.909   0.234
 1318SOL    HW2 4854   1.584   0.835   0.380
 1319SOL     OW 4855   6.450   1.498   0.031
 1319SOL    HW1 4856   6.541   1.538   0.040
 1319SOL    HW2 4857   6.441   1.421   0.094
 1320SOL     OW 4858   2.932   2.939   6.375
 1320SOL    HW1 4859   2.944   2.910   6.280
 1320SOL    HW2 4860   2.925   2.858   6.433
 1321SOL     OW 4861   0.052   2.567   1.458
 1321SOL    HW1 4862   0.145   2.581   1.492
 1321SOL    HW2 4863   0.010   2.491   1.507
 1322SOL     OW 4864   1.990   2.819   6.975
 1322SOL    HW1 4865   2.024   2.894   0.003
 1322SOL    HW2 4866   1.894   2.835   6.953
 1323SOL     OW 4867   4.486   0.865   1.421
 1323SOL    HW1 4868   4.484   0.965   1.419
 1323SOL    HW2 4869   4.405   0.831   1.468
 1324SOL     OW 4870   2.150   3.893   5.558
 1324SOL    HW1 4871   2.087   3.871   5.484
 1324SOL    HW2 4872   2.116   3.854   5.643
 1325SOL     OW 4873   4.749   5.308   4.688
 1325SOL    HW1 4874   4.775   5.316   4.785
 1325SOL    HW2 4875   4.723   5.398   4.653
 1326SOL     OW 4876   3.951   1.407   5.035
 1326SOL    HW1 4877   3.857   1.400   5.070
 1326SOL    HW2 4878   3.952   1.387   4.937
 1327SOL     OW 4879   4.636   5.221   1.965
 1327SOL    HW1 4880   4.708   5.289   1.968
 1327SOL    HW2 4881   4.608   5.198   2.058
 1328SOL     OW 4882   1.093   2.905   5.484
 1328SOL    HW1 4883   1.003   2.927   5.447
 1328SOL    HW2 4884   1.083   2.836   5.556
 1329SOL     OW 4885   1.516   2.518   4.565
 1329SOL    HW1 4886   1.416   2.517   4.569
 1329SOL    HW2 4887   1.547   2.490   4.475
 1330SOL     OW 4888   6.220   3.123   2.282
 1330SOL    HW1 4889   6.264   3.125   2.192
 1330SOL    HW2 4890   6.146   3.190   2.284
 1331SOL     OW 4891   4.291   1.586   3.039
 1331SOL    HW1 4892   4.317   1.674   3.079
 1331SOL    HW2 4893   4.256   1.600   2.946
 1332SOL     OW 4894   2.430   6.575   6.300
 1332SOL    HW1 4895   2.346   6.526   6.279
 1332SOL    HW2 4896   2.414   6.674   6.292
 1333SOL     OW 4897   3.238   3.636   2.496
 1333SOL    HW1 4898   3.285   3.698   2.432
 1333SOL    HW2 4899   3.290   3.631   2.581
 1334SOL     OW 4900   0.444   4.504   1.612
 1334SOL    HW1 4901   0.443   4.572   1.685
 1334SOL    HW2 4902   0.538   4.492   1.579
 1335SOL     OW 4903   6.861   3.532   3.285
 1335SOL    HW1 4904   6.791   3.508   3.353
 1335SOL    HW2 4905   6.859   3.466   3.211
 1336SOL     OW 4906   1.845   6.535   5.782
 1336SOL    HW1 4907   1.932   6.558   5.825
 1336SOL    HW2 4908   1.775   6.600   5.810
 1337SOL     OW 4909   6.765   0.053   1.857
 1337SOL    HW1 4910   6.731   0.146   1.845
 1337SOL    HW2 4911   6.694   7.015   1.834
 1338SOL     OW 4912   0.268   4.115   5.018
 1338SOL    HW1 4913   0.287   4.061   4.936
 1338SOL    HW2 4914   0.257   4.211   4.994
 1339SOL     OW 4915   5.225   1.364   6.913
 1339SOL    HW1 4916   5.185   1.455   6.923
 1339SOL    HW2 4917   5.262   1.334   7.001
 1340SOL     OW 4918   2.597   2.770   0.506
 1340SOL    HW1 4919   2.663   2.721   0.449
 1340SOL    HW2 4920   2.645   2.841   0.559
 1341SOL     OW 4921   6.091   6.263   0.551
 1341SOL    HW1 4922   6.028   6.203   0.599
 1341SOL    HW2 4923   6.185   6.237   0.574
 1342SOL     OW 4924   1.764   5.839   0.717
 1342SOL    HW1 4925   1.784   5.772   0.789
 1342SOL    HW2 4926   1.739   5.926   0.759
 1343SOL     OW 4927   4.747   6.105   2.753
 1343SOL    HW1 4928   4.768   6.137   2.661
 1343SOL    HW2 4929   4.690   6.022   2.747
 1344SOL     OW 4930   1.620   0.829   3.012
 1344SOL    HW1 4931   1.569   0.756   2.966
 1344SOL    HW2 4932   1.628   0.908   2.950
 1345SOL     OW 4933   1.259   6.490   5.198
 1345SOL    HW1 4934   1.308   6.564   5.245
 1345SOL    HW2 4935   1.168   6.521   5.173
 1346SOL     OW 4936   3.892   6.085   4.061
 1346SOL    HW1 4937   3.933   6.175   4.050
 1346SOL    HW2 4938   3.825   6.088   4.135
 1347SOL     OW 4939   6.176   0.877   5.566
 1347SOL    HW1 4940   6.267   0.872   5.525
 1347SOL    HW2 4941   6.156   0.792   5.614
 1348SOL     OW 4942   1.461   6.173   4.188
 1348SOL    HW1 4943   1.425   6.080   4.188
 1348SOL    HW2 4944   1.561   6.169   4.197
 1349SOL     OW 4945   5.097   4.102   4.215
 1349SOL    HW1 4946   5.177   4.061   4.171
 1349SOL    HW2 4947   5.024   4.034   4.221
 1350SOL     OW 4948   5.338   4.650   6.950
 1350SOL    HW1 4949   5.335   4.738   6.998
 1350SOL    HW2 4950   5.255   4.598   6.970
 1351SOL     OW 4951   6.219   3.952   6.480
 1351SOL    HW1 4952   6.289   3.983   6.544
 1351SOL    HW2 4953   6.245   3.863   6.442
 1352SOL     OW 4954   0.156   1.056   4.055
 1352SOL    HW1 4955   0.079   1.018   4.005
 1352SOL    HW2 4956   0.139   1.048   4.154
 1353SOL     OW 4957   6.344   3.566   5.897
 1353SOL    HW1 4958   6.392   3.602   5.818
 1353SOL    HW2 4959   6.400   3.578   5.979
 1354SOL     OW 4960   5.047   5.374   3.514
 1354SOL    HW1 4961   5.009   5.413   3.430
 1354SOL    HW2 4962   4.978   5.378   3.587
 1355SOL     OW 4963   3.903   3.405   4.058
 1355SOL    HW1 4964   3.990   3.450   4.035
 1355SOL    HW2 4965   3.841   3.471   4.100
 1356SOL     OW 4966   2.707   3.305   6.807
 1356SOL    HW1 4967   2.696   3.259   6.895
 1356SOL    HW2 4968   2.617   3.320   6.766
 1357SOL     OW 4969   0.163   3.230   4.532
 1357SOL    HW1 4970   0.180   3.155   4.469
 1357SOL    HW2 4971   0.138   3.194   4.622
 1358SOL     OW 4972   2.912   5.868   6.301
 1358SOL    HW1 4973   2.871   5.877   6.210
 1358SOL    HW2 4974   3.002   5.911   6.302
 1359SOL     OW 4975   6.206   5.265   0.142
 1359SOL    HW1 4976   6.297   5.223   0.137
 1359SOL    HW2 4977   6.188   5.315   0.058
 1360SOL     OW 4978   2.454   1.705   5.775
 1360SOL    HW1 4979   2.414   1.782   5.826
 1360SOL    HW2 4980   2.385   1.667   5.713
 1361SOL     OW 4981   6.137   4.905   5.193
 1361SOL    HW1 4982   6.191   4.988   5.182
 1361SOL    HW2 4983   6.169   4.854   5.273
 1362SOL     OW 4984   3.287   4.167   4.768
 1362SOL    HW1 4985   3.356   4.167   4.840
 1362SOL    HW2 4986   3.236   4.253   4.769
 1363SOL     OW 4987   6.891   6.397   3.304
 1363SOL    HW1 4988   6.957   6.354   3.242
 1363SOL    HW2 4989   6.800   6.394   3.263
 1364SOL     OW 4990   3.361   4.358   0.168
 1364SOL    HW1 4991   3.347   4.312   0.080
 1364SOL    HW2 4992   3.402   4.448   0.152
 1365SOL     OW 4993   6.354   2.373   5.825
 1365SOL    HW1 4994   6.413   2.318   5.885
 1365SOL    HW2 4995   6.398   2.460   5.806
 1366SOL     OW 4996   2.122   0.920   3.999
 1366SOL    HW1 4997   2.083   0.854   4.064
 1366SOL    HW2 4998   2.217   0.897   3.982
 1367SOL     OW 4999   2.470   0.861   1.320
 1367SOL    HW1 5000   2.562   0.898   1.314
 1367SOL    HW2 5001   2.450   0.834   1.415
 1368SOL     OW 5002   0.741   0.775   3.195
 1368SOL    HW1 5003   0.718   0.723   3.278
 1368SOL    HW2 5004   0.659   0.816   3.157
 1369SOL     OW 5005   0.132   6.526   2.579
 1369SOL    HW1 5006   0.116   6.616   2.539
 1369SOL    HW2 5007   0.231   6.509   2.585
 1370SOL     OW 5008   0.381   0.775   2.396
 1370SOL    HW1 5009   0.312   0.748   2.463
 1370SOL    HW2 5010   0.408   0.870   2.414
 1371SOL     OW 5011   1.964   6.927   4.814
 1371SOL    HW1 5012   2.037   6.947   4.749
 1371SOL    HW2 5013   1.884   6.893   4.765
 1372SOL     OW 5014   3.231   1.732   1.206
 1372SOL    HW1 5015   3.211   1.652   1.262
 1372SOL    HW2 5016   3.310   1.780   1.243
 1373SOL     OW 5017   1.264   6.105   6.125
 1373SOL    HW1 5018   1.277   6.204   6.134
 1373SOL    HW2 5019   1.238   6.067   6.214
 1374SOL     OW 5020   5.447   3.140   4.536
 1374SOL    HW1 5021   5.373   3.106   4.594
 1374SOL    HW2 5022   5.535   3.106   4.571
 1375SOL     OW 5023   0.939   4.554   3.879
 1375SOL    HW1 5024   0.840   4.550   3.890
 1375SOL    HW2 5025   0.980   4.594   3.961
 1376SOL     OW 5026   5.412   0.140   2.186
 1376SOL    HW1 5027   5.363   0.080   2.124
 1376SOL    HW2 5028   5.385   0.120   2.280
 1377SOL     OW 5029   6.859   3.743   5.599
 1377SOL    HW1 5030   6.886   3.786   5.513
 1377SOL    HW2 5031   6.810   3.658   5.580
 1378SOL     OW 5032   2.256   1.409   0.421
 1378SOL    HW1 5033   2.236   1.345   0.347
 1378SOL    HW2 5034   2.354   1.412   0.436
 1379SOL     OW 5035   4.324   5.192   1.423
 1379SOL    HW1 5036   4.357   5.271   1.372
 1379SOL    HW2 5037   4.395   5.159   1.485
 1380SOL     OW 5038   6.210   5.629   2.743
 1380SOL    HW1 5039   6.288   5.628   2.806
 1380SOL    HW2 5040   6.187   5.724   2.721
 1381SOL     OW 5041   3.701   0.002   1.512
 1381SOL    HW1 5042   3.668   0.016   1.419
 1381SOL    HW2 5043   3.799   0.022   1.516
 1382SOL     OW 5044   6.395   3.670   0.382
 1382SOL    HW1 5045   6.431   3.584   0.419
 1382SOL    HW2 5046   6.466   3.740   0.386
 1383SOL     OW 5047   3.455   0.007   0.714
 1383SOL    HW1 5048   3.433   6.951   0.763
 1383SOL    HW2 5049   3.401   0.082   0.750
 1384SOL     OW 5050   1.010   2.081   3.274
 1384SOL    HW1 5051   1.098   2.125   3.290
 1384SOL    HW2 5052   0.960   2.075   3.361
 1385SOL     OW 5053   4.910   3.252   4.788
 1385SOL    HW1 5054   4.929   3.349   4.802
 1385SOL    HW2 5055   4.877   3.237   4.695
 1386SOL     OW 5056   2.335   2.808   3.249
 1386SOL    HW1 5057   2.342   2.904   3.221
 1386SOL    HW2 5058   2.281   2.801   3.332
 1387SOL     OW 5059   3.891   1.076   4.676
 1387SOL    HW1 5060   3.816   1.029   4.629
 1387SOL    HW2 5061   3.871   1.174   4.681
 1388SOL     OW 5062   4.844   2.422   3.620
 1388SOL    HW1 5063   4.904   2.344   3.635
 1388SOL    HW2 5064   4.823   2.430   3.522
 1389SOL     OW 5065   0.619   1.651   5.172
 1389SOL    HW1 5066   0.530   1.640   5.217
 1389SOL    HW2 5067   0.630   1.746   5.143
 1390SOL     OW 5068   6.164   2.346   3.093
 1390SOL    HW1 5069   6.148   2.256   3.054
 1390SOL    HW2 5070   6.122   2.416   3.036
 1391SOL     OW 5071   5.639   0.714   5.512
 1391SOL    HW1 5072   5.713   0.723   5.446
 1391SOL    HW2 5073   5.645   0.788   5.579
 1392SOL     OW 5074   3.147   0.040   4.429
 1392SOL    HW1 5075   3.180   0.101   4.501
 1392SOL    HW2 5076   3.131   6.977   4.467
 1393SOL     OW 5077   4.645   0.198   6.763
 1393SOL    HW1 5078   4.674   0.141   6.840
 1393SOL    HW2 5079   4.574   0.150   6.712
 1394SOL     OW 5080   3.995   1.073   4.928
 1394SOL    HW1 5081   3.932   1.091   4.852
 1394SOL    HW2 5082   3.943   1.059   5.012
 1395SOL     OW 5083   0.943   4.536   2.784
 1395SOL    HW1 5084   0.987   4.495   2.864
 1395SOL    HW2 5085   0.914   4.629   2.807
 1396SOL     OW 5086   1.500   2.431   3.538
 1396SOL    HW1 5087   1.540   2.343   3.565
 1396SOL    HW2 5088   1.536   2.458   3.449
 1397SOL     OW 5089   2.408   5.640   5.607
 1397SOL    HW1 5090   2.374   5.731   5.584
 1397SOL    HW2 5091   2.497   5.649   5.653
 1398SOL     OW 5092   3.063   0.432   6.358
 1398SOL    HW1 5093   2.967   0.459   6.363
 1398SOL    HW2 5094   3.111   0.462   6.440
 1399SOL     OW 5095   3.856   0.093   0.528
 1399SOL    HW1 5096   3.930   0.073   0.592
 1399SOL    HW2 5097   3.778   0.033   0.548
 1400SOL     OW 5098   0.593   2.577   6.073
 1400SOL    HW1 5099   0.545   2.541   5.993
 1400SOL    HW2 5100   0.531   2.580   6.151
 1401SOL     OW 5101   4.592   6.855   3.351
 1401SOL    HW1 5102   4.512   6.812   3.309
 1401SOL    HW2 5103   4.585   6.954   3.342
 1402SOL     OW 5104   4.949   4.062   3.072
 1402SOL    HW1 5105   4.950   4.161   3.069
 1402SOL    HW2 5106   4.937   4.026   2.979
 1403SOL     OW 5107   2.861   3.023   6.970
 1403SOL    HW1 5108   2.873   3.044   6.873
 1403SOL    HW2 5109   2.805   3.093   7.013
 1404SOL     OW 5110   3.542   6.170   0.062
 1404SOL    HW1 5111   3.525   6.102   7.019
 1404SOL    HW2 5112   3.516   6.260   0.028
 1405SOL     OW 5113   1.304   4.817   0.041
 1405SOL    HW1 5114   1.271   4.743   7.011
 1405SOL    HW2 5115   1.233   4.843   0.106
 1406SOL     OW 5116   2.040   2.433   1.027
 1406SOL    HW1 5117   2.096   2.351   1.012
 1406SOL    HW2 5118   2.045   2.492   0.946
 1407SOL     OW 5119   6.184   3.395   2.030
 1407SOL    HW1 5120   6.205   3.489   2.003
 1407SOL    HW2 5121   6.228   3.332   1.967
 1408SOL     OW 5122   6.059   6.180   1.537
 1408SOL    HW1 5123   6.014   6.183   1.448
 1408SOL    HW2 5124   6.149   6.222   1.530
 1409SOL     OW 5125   6.164   2.705   5.522
 1409SOL    HW1 5126   6.070   2.700   5.555
 1409SOL    HW2 5127   6.197   2.612   5.503
 1410SOL     OW 5128   3.109   0.433   0.549
 1410SOL    HW1 5129   3.025   0.381   0.555
 1410SOL    HW2 5130   3.100   0.504   0.479
 1411SOL     OW 5131   3.493   0.473   6.675
 1411SOL    HW1 5132   3.470   0.476   6.772
 1411SOL    HW2 5133   3.530   0.383   6.652
 1412SOL     OW 5134   1.365   1.190   6.589
 1412SOL    HW1 5135   1.457   1.169   6.557
 1412SOL    HW2 5136   1.313   1.232   6.516
 1413SOL     OW 5137   1.656   0.988   4.472
 1413SOL    HW1 5138   1.696   0.936   4.548
 1413SOL    HW2 5139   1.556   0.976   4.472
 1414SOL     OW 5140   0.050   4.915   3.052
 1414SOL    HW1 5141   0.148   4.928   3.063
 1414SOL    HW2 5142   0.008   4.999   3.017
 1415SOL     OW 5143   2.965   1.814   5.443
 1415SOL    HW1 5144   2.962   1.910   5.468
 1415SOL    HW2 5145   3.059   1.787   5.422
 1416SOL     OW 5146   4.238   0.885   5.005
 1416SOL    HW1 5147   4.196   0.974   5.021
 1416SOL    HW2 5148   4.182   0.813   5.046
 1417SOL     OW 5149   3.554   3.997   4.216
 1417SOL    HW1 5150   3.514   4.049   4.141
 1417SOL    HW2 5151   3.481   3.958   4.272
 1418SOL     OW 5152   3.203   3.937   6.623
 1418SOL    HW1 5153   3.189   3.882   6.541
 1418SOL    HW2 5154   3.228   3.878   6.700
 1419SOL     OW 5155   0.532   5.355   1.617
 1419SOL    HW1 5156   0.553   5.442   1.661
 1419SOL    HW2 5157   0.610   5.325   1.562
 1420SOL     OW 5158   2.749   6.501   3.554
 1420SOL    HW1 5159   2.651   6.503   3.536
 1420SOL    HW2 5160   2.795   6.568   3.496
 1421SOL     OW 5161   1.052   4.900   1.377
 1421SOL    HW1 5162   1.134   4.861   1.419
 1421SOL    HW2 5163   0.978   4.832   1.378
 1422SOL     OW 5164   1.884   3.384   6.472
 1422SOL    HW1 5165   1.832   3.455   6.519
 1422SOL    HW2 5166   1.828   3.302   6.464
 1423SOL     OW 5167   4.898   0.232   5.463
 1423SOL    HW1 5168   4.810   0.253   5.505
 1423SOL    HW2 5169   4.965   0.212   5.535
 1424SOL     OW 5170   5.686   3.856   1.462
 1424SOL    HW1 5171   5.729   3.840   1.551
 1424SOL    HW2 5172   5.625   3.780   1.440
 1425SOL     OW 5173   5.430   6.485   2.591
 1425SOL    HW1 5174   5.504   6.517   2.650
 1425SOL    HW2 5175   5.469   6.440   2.510
 1426SOL     OW 5176   3.482   0.643   0.561
 1426SOL    HW1 5177   3.414   0.693   0.508
 1426SOL    HW2 5178   3.455   0.547   0.570
 1427SOL     OW 5179   1.161   0.446   4.069
 1427SOL    HW1 5180   1.064   0.471   4.076
 1427SOL    HW2 5181   1.214   0.526   4.040
 1428SOL     OW 5182   2.821   4.732   3.724
 1428SOL    HW1 5183   2.778   4.648   3.757
 1428SOL    HW2 5184   2.862   4.781   3.802
 1429SOL     OW 5185   6.044   0.798   0.735
 1429SOL    HW1 5186   5.980   0.871   0.710
 1429SOL    HW2 5187   6.099   0.828   0.814
 1430SOL     OW 5188   2.185   3.924   4.417
 1430SOL    HW1 5189   2.184   3.824   4.415
 1430SOL    HW2 5190   2.128   3.960   4.343
 1431SOL     OW 5191   3.661   1.858   0.824
 1431SOL    HW1 5192   3.718   1.776   0.824
 1431SOL    HW2 5193   3.591   1.850   0.895
 1432SOL     OW 5194   2.436   6.716   2.579
 1432SOL    HW1 5195   2.443   6.713   2.479
 1432SOL    HW2 5196   2.430   6.812   2.609
 1433SOL     OW 5197   4.259   1.445   3.370
 1433SOL    HW1 5198   4.325   1.460   3.297
 1433SOL    HW2 5199   4.276   1.356   3.413
 1434SOL     OW 5200   6.351   3.805   1.289
 1434SOL    HW1 5201   6.341   3.754   1.374
 1434SOL    HW2 5202   6.407   3.752   1.225
 1435SOL     OW 5203   6.755   6.015   4.081
 1435SOL    HW1 5204   6.748   6.049   3.988
 1435SOL    HW2 5205   6.673   6.043   4.133
 1436SOL     OW 5206   6.127   0.924   6.916
 1436SOL    HW1 5207   6.062   0.881   6.853
 1436SOL    HW2 5208   6.177   0.996   6.868
 1437SOL     OW 5209   3.881   1.298   0.154
 1437SOL    HW1 5210   3.816   1.223   0.165
 1437SOL    HW2 5211   3.970   1.262   0.127
 1438SOL     OW 5212   2.395   5.474   3.279
 1438SOL    HW1 5213   2.357   5.503   3.191
 1438SOL    HW2 5214   2.408   5.554   3.338
 1439SOL     OW 5215   6.572   4.836   4.775
 1439SOL    HW1 5216   6.537   4.889   4.698
 1439SOL    HW2 5217   6.523   4.748   4.779
 1440SOL     OW 5218   3.698   2.913   2.038
 1440SOL    HW1 5219   3.619   2.892   2.097
 1440SOL    HW2 5220   3.672   2.980   1.969
 1441SOL     OW 5221   0.597   2.375   0.056
 1441SOL    HW1 5222   0.596   2.463   0.104
 1441SOL    HW2 5223   0.629   2.388   6.990
 1442SOL     OW 5224   5.810   5.516   0.199
 1442SOL    HW1 5225   5.800   5.612   0.223
 1442SOL    HW2 5226   5.730   5.486   0.147
 1443SOL     OW 5227   2.164   3.343   4.474
 1443SOL    HW1 5228   2.250   3.390   4.494
 1443SOL    HW2 5229   2.139   3.358   4.378
 1444SOL     OW 5230   4.853   6.611   5.599
 1444SOL    HW1 5231   4.789   6.535   5.610
 1444SOL    HW2 5232   4.910   6.595   5.519
 1445SOL     OW 5233   6.745   3.271   6.890
 1445SOL    HW1 5234   6.838   3.253   6.858
 1445SOL    HW2 5235   6.727   3.369   6.889
 1446SOL     OW 5236   3.139   6.142   2.761
 1446SOL    HW1 5237   3.039   6.137   2.766
 1446SOL    HW2 5238   3.175   6.051   2.738
 1447SOL     OW 5239   6.509   1.372   4.597
 1447SOL    HW1 5240   6.411   1.359   4.613
 1447SOL    HW2 5241   6.523   1.402   4.503
 1448SOL     OW 5242   5.067   1.529   1.153
 1448SOL    HW1 5243   5.143   1.563   1.099
 1448SOL    HW2 5244   5.017   1.605   1.193
 1449SOL     OW 5245   4.935   5.933   6.769
 1449SOL    HW1 5246   5.015   5.979   6.808
 1449SOL    HW2 5247   4.959   5.839   6.745
 1450SOL     OW 5248   5.453   0.891   4.056
 1450SOL    HW1 5249   5.383   0.851   4.116
 1450SOL    HW2 5250   5.542   0.852   4.079
 1451SOL     OW 5251   0.397   6.233   2.700
 1451SOL    HW1 5252   0.492   6.232   2.669
 1451SOL    HW2 5253   0.355   6.321   2.674
 1452SOL     OW 5254   1.582   0.363   6.188
 1452SOL    HW1 5255   1.522   0.362   6.108
 1452SOL    HW2 5256   1.673   0.332   6.161
 1453SOL     OW 5257   6.368   4.612   4.248
 1453SOL    HW1 5258   6.292   4.547   4.257
 1453SOL    HW2 5259   6.342   4.700   4.288
 1454SOL     OW 5260   6.434   5.009   1.285
 1454SOL    HW1 5261   6.429   5.006   1.185
 1454SOL    HW2 5262   6.528   4.989   1.314
 1455SOL     OW 5263   2.702   1.175   1.931
 1455SOL    HW1 5264   2.777   1.130   1.883
 1455SOL    HW2 5265   2.693   1.269   1.899
 1456SOL     OW 5266   5.348   4.340   5.144
 1456SOL    HW1 5267   5.420   4.324   5.211
 1456SOL    HW2 5268   5.370   4.421   5.090
 1457SOL     OW 5269   2.557   1.248   4.387
 1457SOL    HW1 5270   2.605   1.275   4.471
 1457SOL    HW2 5271   2.533   1.330   4.335
 1458SOL     OW 5272   6.578   5.802   6.803
 1458SOL    HW1 5273   6.488   5.795   6.760
 1458SOL    HW2 5274   6.643   5.743   6.755
 1459SOL     OW 5275   3.446   7.003   1.025
 1459SOL    HW1 5276   3.432   6.920   0.971
 1459SOL    HW2 5277   3.390   6.998   1.107
 1460SOL     OW 5278   0.884   1.440   0.170
 1460SOL    HW1 5279   0.960   1.478   0.117
 1460SOL    HW2 5280   0.821   1.514   0.195
 1461SOL     OW 5281   5.581   4.245   2.637
 1461SOL    HW1 5282   5.506   4.291   2.589
 1461SOL    HW2 5283   5.555   4.151   2.657
 1462SOL     OW 5284   5.946   0.406   5.400
 1462SOL    HW1 5285   5.847   0.397   5.413
 1462SOL    HW2 5286   5.993   0.335   5.452
 1463SOL     OW 5287   0.910   2.792   5.772
 1463SOL    HW1 5288   0.844   2.723   5.801
 1463SOL    HW2 5289   0.866   2.857   5.711
 1464SOL     OW 5290   0.074   0.392   1.730
 1464SOL    HW1 5291   0.125   0.467   1.771
 1464SOL    HW2 5292   0.049   0.326   1.801
 1465SOL     OW 5293   2.921   6.860   3.986
 1465SOL    HW1 5294   2.983   6.883   3.911
 1465SOL    HW2 5295   2.906   6.940   4.043
 1466SOL     OW 5296   5.511   6.342   4.549
 1466SOL    HW1 5297   5.593   6.335   4.605
 1466SOL    HW2 5298   5.451   6.264   4.568
 1467SOL     OW 5299   0.823   4.891   4.400
 1467SOL    HW1 5300   0.884   4.969   4.411
 1467SOL    HW2 5301   0.761   4.886   4.478
 1468SOL     OW 5302   4.818   0.297   2.218
 1468SOL    HW1 5303   4.905   0.295   2.169
 1468SOL    HW2 5304   4.749   0.341   2.161
 1469SOL     OW 5305   6.345   0.211   2.059
 1469SOL    HW1 5306   6.417   0.280   2.050
 1469SOL    HW2 5307   6.386   0.120   2.061
 1470SOL     OW 5308   6.715   1.162   2.164
 1470SOL    HW1 5309   6.701   1.138   2.068
 1470SOL    HW2 5310   6.809   1.142   2.190
 1471SOL     OW 5311   0.262   1.243   1.056
 1471SOL    HW1 5312   0.251   1.147   1.082
 1471SOL    HW2 5313   0.301   1.248   0.964
 1472SOL     OW 5314   4.607   4.970   5.173
 1472SOL    HW1 5315   4.669   4.935   5.244
 1472SOL    HW2 5316   4.637   5.061   5.145
 1473SOL     OW 5317   0.274   3.347   3.667
 1473SOL    HW1 5318   0.366   3.344   3.707
 1473SOL    HW2 5319   0.208   3.317   3.736
 1474SOL     OW 5320   4.550   6.487   2.299
 1474SOL    HW1 5321   4.545   6.553   2.224
 1474SOL    HW2 5322   4.480   6.507   2.367
 1475SOL     OW 5323   6.278   6.941   2.786
 1475SOL    HW1 5324   6.193   6.991   2.769
 1475SOL    HW2 5325   6.336   6.946   2.705
 1476SOL     OW 5326   1.394   2.144   0.851
 1476SOL    HW1 5327   1.300   2.112   0.838
 1476SOL    HW2 5328   1.442   2.082   0.913
 1477SOL     OW 5329   3.276   6.366   4.078
 1477SOL    HW1 5330   3.271   6.267   4.084
 1477SOL    HW2 5331   3.261   6.406   4.168
 1478SOL     OW 5332   0.509   4.257   1.342
 1478SOL    HW1 5333   0.476   4.244   1.249
 1478SOL    HW2 5334   0.599   4.214   1.352
 1479SOL     OW 5335   1.768   4.703   6.691
 1479SOL    HW1 5336   1.824   4.623   6.712
 1479SOL    HW2 5337   1.702   4.717   6.765
 1480SOL     OW 5338   3.179   0.600   6.761
 1480SOL    HW1 5339   3.125   0.681   6.739
 1480SOL    HW2 5340   3.225   0.567   6.679
 1481SOL     OW 5341   6.749   3.061   1.126
 1481SOL    HW1 5342   6.716   3.043   1.218
 1481SOL    HW2 5343   6.719   2.988   1.064
 1482SOL     OW 5344   6.670   0.492   6.030
 1482SOL    HW1 5345   6.698   0.398   6.052
 1482SOL    HW2 5346   6.749   0.544   6.000
 1483SOL     OW 5347   0.008   1.837   0.676
 1483SOL    HW1 5348   6.974   1.906   0.641
 1483SOL    HW2 5349   6.983   1.757   0.706
 1484SOL     OW 5350   5.581   6.384   2.980
 1484SOL    HW1 5351   5.500   6.362   3.034
 1484SOL    HW2 5352   5.607   6.304   2.925
 1485SOL     OW 5353   5.440   3.801   4.992
 1485SOL    HW1 5354   5.477   3.716   5.029
 1485SOL    HW2 5355   5.384   3.780   4.912
 1486SOL     OW 5356   5.390   2.748   2.562
 1486SOL    HW1 5357   5.477   2.747   2.609
 1486SOL    HW2 5358   5.402   2.787   2.470
 1487SOL     OW 5359   0.478   6.760   5.437
 1487SOL    HW1 5360   0.577   6.751   5.421
 1487SOL    HW2 5361   0.429   6.702   5.372
 1488SOL     OW 5362   4.793   2.033   4.366
 1488SOL    HW1 5363   4.717   1.979   4.329
 1488SOL    HW2 5364   4.880   1.989   4.342
 1489SOL     OW 5365   3.232   5.328   4.626
 1489SOL    HW1 5366   3.276   5.238   4.622
 1489SOL    HW2 5367   3.197   5.353   4.536
 1490SOL     OW 5368   3.348   3.105   0.801
 1490SOL    HW1 5369   3.381   3.012   0.793
 1490SOL    HW2 5370   3.379   3.159   0.722
 1491SOL     OW 5371   1.896   1.760   3.422
 1491SOL    HW1 5372   1.914   1.705   3.341
 1491SOL    HW2 5373   1.890   1.701   3.503
 1492SOL     OW 5374   6.966   2.218   2.132
 1492SOL    HW1 5375   6.884   2.163   2.148
 1492SOL    HW2 5376   0.001   2.206   2.209
 1493SOL     OW 5377   6.739   3.174   4.554
 1493SOL    HW1 5378   6.803   3.099   4.537
 1493SOL    HW2 5379   6.699   3.164   4.645
 1494SOL     OW 5380   5.747   1.917   4.647
 1494SOL    HW1 5381   5.840   1.951   4.656
 1494SOL    HW2 5382   5.697   1.930   4.732
 1495SOL     OW 5383   1.023   3.830   1.913
 1495SOL    HW1 5384   1.105   3.861   1.961
 1495SOL    HW2 5385   1.011   3.732   1.927
 1496SOL     OW 5386   6.835   0.342   2.238
 1496SOL    HW1 5387   6.883   0.293   2.165
 1496SOL    HW2 5388   6.832   0.440   2.216
 1497SOL     OW 5389   5.796   4.310   6.170
 1497SOL    HW1 5390   5.779   4.374   6.246
 1497SOL    HW2 5391   5.720   4.245   6.164
 1498SOL     OW 5392   3.190   6.215   6.117
 1498SOL    HW1 5393   3.257   6.187   6.048
 1498SOL    HW2 5394   3.237   6.241   6.201
 1499SOL     OW 5395   2.069   4.381   3.782
 1499SOL    HW1 5396   2.119   4.346   3.862
 1499SOL    HW2 5397   2.041   4.475   3.800
 1500SOL     OW 5398   4.078   5.702   5.193
 1500SOL    HW1 5399   4.101   5.795   5.167
 1500SOL    HW2 5400   4.160   5.644   5.188
 1501SOL     OW 5401   3.317   1.364   1.577
 1501SOL    HW1 5402   3.243   1.382   1.642
 1501SOL    HW2 5403   3.373   1.289   1.612
 1502SOL     OW 5404   6.719   0.222   6.085
 1502SOL    HW1 5405   6.765   0.220   6.174
 1502SOL    HW2 5406   6.666   0.138   6.073
 1503SOL     OW 5407   3.224   3.722   5.696
 1503SOL    HW1 5408   3.235   3.821   5.706
 1503SOL    HW2 5409   3.285   3.676   5.761
 1504SOL     OW 5410   2.094   0.509   2.976
 1504SOL    HW1 5411   2.052   0.485   3.063
 1504SOL    HW2 5412   2.024   0.548   2.915
 1505SOL     OW 5413   5.963   6.157   2.891
 1505SOL    HW1 5414   5.879   6.117   2.927
 1505SOL    HW2 5415   5.967   6.143   2.792
 1506SOL     OW 5416   6.760   0.511   3.890
 1506SOL    HW1 5417   6.836   0.577   3.890
 1506SOL    HW2 5418   6.788   0.429   3.940
 1507SOL     OW 5419   2.675   1.897   6.254
 1507SOL    HW1 5420   2.616   1.832   6.204
 1507SOL    HW2 5421   2.684   1.981   6.201
 1508SOL     OW 5422   3.881   6.672   1.106
 1508SOL    HW1 5423   3.828   6.665   1.022
 1508SOL    HW2 5424   3.833   6.623   1.180
 1509SOL     OW 5425   4.584   2.198   5.930
 1509SOL    HW1 5426   4.519   2.221   6.003
 1509SOL    HW2 5427   4.558   2.111   5.889
 1510SOL     OW 5428   6.795   1.813   2.098
 1510SOL    HW1 5429   6.744   1.899   2.105
 1510SOL    HW2 5430   6.892   1.833   2.082
 1511SOL     OW 5431   0.292   2.516   0.364
 1511SOL    HW1 5432   0.389   2.494   0.349
 1511SOL    HW2 5433   0.240   2.432   0.369
 1512SOL     OW 5434   0.162   6.949   2.725
 1512SOL    HW1 5435   0.241   6.888   2.725
 1512SOL    HW2 5436   0.178   7.026   2.663
 1513SOL     OW 5437   2.421   0.237   2.796
 1513SOL    HW1 5438   2.520   0.225   2.793
 1513SOL    HW2 5439   2.385   0.245   2.703
 1514SOL     OW 5440   4.388   0.205   5.498
 1514SOL    HW1 5441   4.400   0.269   5.575
 1514SOL    HW2 5442   4.303   0.227   5.450
 1515SOL     OW 5443   5.351   5.531   4.553
 1515SOL    HW1 5444   5.270   5.490   4.595
 1515SOL    HW2 5445   5.400   5.462   4.500
 1516SOL     OW 5446   6.420   2.080   2.639
 1516SOL    HW1 5447   6.453   2.043   2.726
 1516SOL    HW2 5448   6.440   2.015   2.565
 1517SOL     OW 5449   2.373   5.718   1.567
 1517SOL    HW1 5450   2.395   5.637   1.622
 1517SOL    HW2 5451   2.393   5.800   1.619
 1518SOL     OW 5452   0.715   4.854   7.028
 1518SOL    HW1 5453   0.800   4.807   7.003
 1518SOL    HW2 5454   0.642   4.787   0.012
 1519SOL     OW 5455   1.352   4.147   1.870
 1519SOL    HW1 5456   1.336   4.091   1.951
 1519SOL    HW2 5457   1.265   4.179   1.834
 1520SOL     OW 5458   1.970   3.984   3.940
 1520SOL    HW1 5459   2.057   3.949   3.905
 1520SOL    HW2 5460   1.900   3.913   3.934
 1521SOL     OW 5461   2.002   5.977   5.765
 1521SOL    HW1 5462   1.956   5.901   5.719
 1521SOL    HW2 5463   2.007   5.958   5.863
 1522SOL     OW 5464   1.387   2.235   6.314
 1522SOL    HW1 5465   1.437   2.206   6.231
 1522SOL    HW2 5466   1.445   2.222   6.394
 1523SOL     OW 5467   5.291   1.538   0.679
 1523SOL    HW1 5468   5.212   1.599   0.685
 1523SOL    HW2 5469   5.261   1.443   0.680
 1524SOL     OW 5470   2.005   1.645   2.012
 1524SOL    HW1 5471   2.033   1.555   1.978
 1524SOL    HW2 5472   1.921   1.635   2.066
 1525SOL     OW 5473   4.453   2.345   5.228
 1525SOL    HW1 5474   4.381   2.285   5.192
 1525SOL    HW2 5475   4.540   2.296   5.229
 1526SOL     OW 5476   5.637   2.640   1.214
 1526SOL    HW1 5477   5.700   2.564   1.225
 1526SOL    HW2 5478   5.559   2.629   1.276
 1527SOL     OW 5479   2.011   6.880   5.235
 1527SOL    HW1 5480   2.047   6.807   5.177
 1527SOL    HW2 5481   1.947   6.936   5.182
 1528SOL     OW 5482   5.230   6.047   3.603
 1528SOL    HW1 5483   5.305   6.104   3.636
 1528SOL    HW2 5484   5.194   6.084   3.517
 1529SOL     OW 5485   0.597   0.608   6.197
 1529SOL    HW1 5486   0.515   0.574   6.243
 1529SOL    HW2 5487   0.572   0.645   6.107
 1530SOL     OW 5488   4.034   0.147   1.244
 1530SOL    HW1 5489   4.028   0.051   1.217
 1530SOL    HW2 5490   4.083   0.198   1.174
 1531SOL     OW 5491   5.010   1.884   6.870
 1531SOL    HW1 5492   4.932   1.927   6.914
 1531SOL    HW2 5493   5.033   1.934   6.786
 1532SOL     OW 5494   2.900   1.224   5.045
 1532SOL    HW1 5495   2.918   1.226   5.143
 1532SOL    HW2 5496   2.903   1.317   5.008
 1533SOL     OW 5497   4.229   2.630   1.629
 1533SOL    HW1 5498   4.238   2.726   1.656
 1533SOL    HW2 5499   4.134   2.601   1.641
 1534SOL     OW 5500   5.672   0.931   0.011
 1534SOL    HW1 5501   5.636   0.976   0.092
 1534SOL    HW2 5502   5.766   0.960   7.023
 1535SOL     OW 5503   4.417   4.642   4.293
 1535SOL    HW1 5504   4.393   4.656   4.389
 1535SOL    HW2 5505   4.346   4.682   4.235
 1536SOL     OW 5506   2.834   6.325   3.110
 1536SOL    HW1 5507   2.752   6.313   3.166
 1536SOL    HW2 5508   2.853   6.242   3.059
 1537SOL     OW 5509   1.821   5.333   4.916
 1537SOL    HW1 5510   1.781   5.305   5.003
 1537SOL    HW2 5511   1.868   5.421   4.927
 1538SOL     OW 5512   3.589   6.212   0.341
 1538SOL    HW1 5513   3.579   6.176   0.248
 1538SOL    HW2 5514   3.683   6.199   0.372
 1539SOL     OW 5515   1.896   6.455   0.876
 1539SOL    HW1 5516   1.918   6.358   0.866
 1539SOL    HW2 5517   1.870   6.474   0.970
 1540SOL     OW 5518   6.041   0.863   6.145
 1540SOL    HW1 5519   6.023   0.767   6.125
 1540SOL    HW2 5520   6.128   0.889   6.103
 1541SOL     OW 5521   4.935   2.028   2.232
 1541SOL    HW1 5522   4.915   2.053   2.137
 1541SOL    HW2 5523   4.851   1.995   2.276
 1542SOL     OW 5524   0.204   5.697   1.028
 1542SOL    HW1 5525   0.193   5.788   1.069
 1542SOL    HW2 5526   0.299   5.685   1.001
 1543SOL     OW 5527   3.330   2.994   2.735
 1543SOL    HW1 5528   3.379   3.080   2.720
 1543SOL    HW2 5529   3.373   2.922   2.681
 1544SOL     OW 5530   2.965   3.430   1.605
 1544SOL    HW1 5531   2.997   3.448   1.698
 1544SOL    HW2 5532   3.011   3.491   1.541
 1545SOL     OW 5533   0.667   6.344   5.818
 1545SOL    HW1 5534   0.734   6.401   5.770
 1545SOL    HW2 5535   0.700   6.324   5.910
 1546SOL     OW 5536   6.765   6.295   1.205
 1546SOL    HW1 5537   6.748   6.196   1.208
 1546SOL    HW2 5538   6.748   6.328   1.112
 1547SOL     OW 5539   2.822   6.714   0.515
 1547SOL    HW1 5540   2.833   6.662   0.600
 1547SOL    HW2 5541   2.867   6.665   0.440
 1548SOL     OW 5542   6.273   4.203   3.092
 1548SOL    HW1 5543   6.292   4.197   2.995
 1548SOL    HW2 5544   6.202   4.272   3.108
 1549SOL     OW 5545   5.839   2.231   1.589
 1549SOL    HW1 5546   5.801   2.169   1.658
 1549SOL    HW2 5547   5.857   2.180   1.505
 1550SOL     OW 5548   2.809   4.766   2.227
 1550SOL    HW1 5549   2.818   4.860   2.193
 1550SOL    HW2 5550   2.825   4.702   2.152
 1551SOL     OW 5551   1.334   2.336   2.218
 1551SOL    HW1 5552   1.367   2.295   2.133
 1551SOL    HW2 5553   1.313   2.263   2.284
 1552SOL     OW 5554   1.754   6.704   2.289
 1552SOL    HW1 5555   1.823   6.633   2.275
 1552SOL    HW2 5556   1.726   6.740   2.200
 1553SOL     OW 5557   6.462   1.444   5.583
 1553SOL    HW1 5558   6.449   1.356   5.628
 1553SOL    HW2 5559   6.376   1.472   5.539
 1554SOL     OW 5560   2.145   3.075   0.050
 1554SOL    HW1 5561   2.163   3.101   6.983
 1554SOL    HW2 5562   2.230   3.081   0.102
 1555SOL     OW 5563   4.281   1.514   0.947
 1555SOL    HW1 5564   4.349   1.445   0.921
 1555SOL    HW2 5565   4.202   1.469   0.987
 1556SOL     OW 5566   2.641   1.825   0.489
 1556SOL    HW1 5567   2.550   1.810   0.526
 1556SOL    HW2 5568   2.689   1.894   0.543
 1557SOL     OW 5569   2.432   2.040   1.495
 1557SOL    HW1 5570   2.381   2.078   1.418
 1557SOL    HW2 5571   2.373   2.035   1.575
 1558SOL     OW 5572   4.884   1.512   0.400
 1558SOL    HW1 5573   4.867   1.426   0.448
 1558SOL    HW2 5574   4.804   1.537   0.347
 1559SOL     OW 5575   2.373   6.292   3.929
 1559SOL    HW1 5576   2.413   6.381   3.909
 1559SOL    HW2 5577   2.303   6.301   4.000
 1560SOL     OW 5578   4.741   3.082   1.628
 1560SOL    HW1 5579   4.837   3.104   1.647
 1560SOL    HW2 5580   4.690   3.076   1.713
 1561SOL     OW 5581   6.119   6.846   0.821
 1561SOL    HW1 5582   6.196   6.854   0.758
 1561SOL    HW2 5583   6.081   6.753   0.816
 1562SOL     OW 5584   2.365   6.210   3.295
 1562SOL    HW1 5585   2.286   6.166   3.252
 1562SOL    HW2 5586   2.345   6.226   3.392
 1563SOL     OW 5587   2.330   4.767   4.084
 1563SOL    HW1 5588   2.263   4.756   4.158
 1563SOL    HW2 5589   2.384   4.684   4.075
 1564SOL     OW 5590   2.151   2.354   3.371
 1564SOL    HW1 5591   2.188   2.412   3.444
 1564SOL    HW2 5592   2.072   2.400   3.329
 1565SOL     OW 5593   5.499   1.755   5.799
 1565SOL    HW1 5594   5.453   1.831   5.755
 1565SOL    HW2 5595   5.580   1.729   5.745
 1566SOL     OW 5596   0.712   3.152   3.679
 1566SOL    HW1 5597   0.622   3.109   3.675
 1566SOL    HW2 5598   0.727   3.190   3.771
 1567SOL     OW 5599   5.100   1.023   3.528
 1567SOL    HW1 5600   5.088   0.937   3.579
 1567SOL    HW2 5601   5.191   1.025   3.486
 1568SOL     OW 5602   2.291   4.421   0.946
 1568SOL    HW1 5603   2.210   4.392   0.997
 1568SOL    HW2 5604   2.301   4.520   0.954
 1569SOL     OW 5605   1.977   0.857   1.995
 1569SOL    HW1 5606   2.047   0.870   2.065
 1569SOL    HW2 5607   1.950   0.946   1.959
 1570SOL     OW 5608   2.491   6.386   5.607
 1570SOL    HW1 5609   2.403   6.391   5.653
 1570SOL    HW2 5610   2.500   6.461   5.542
 1571SOL     OW 5611   2.047   1.707   4.278
 1571SOL    HW1 5612   1.998   1.700   4.191
 1571SOL    HW2 5613   2.125   1.770   4.268
 1572SOL     OW 5614   2.886   5.263   4.179
 1572SOL    HW1 5615   2.931   5.333   4.123
 1572SOL    HW2 5616   2.931   5.175   4.164
 1573SOL     OW 5617   5.677   6.109   6.887
 1573SOL    HW1 5618   5.628   6.034   6.933
 1573SOL    HW2 5619   5.614   6.185   6.872
 1574SOL     OW 5620   0.745   2.879   3.303
 1574SOL    HW1 5621   0.770   2.783   3.319
 1574SOL    HW2 5622   0.825   2.937   3.316
 1575SOL     OW 5623   0.013   1.995   1.135
 1575SOL    HW1 5624   0.081   2.039   1.076
 1575SOL    HW2 5625   6.949   2.012   1.098
 1576SOL     OW 5626   1.184   6.385   2.758
 1576SOL    HW1 5627   1.193   6.366   2.660
 1576SOL    HW2 5628   1.275   6.397   2.798
 1577SOL     OW 5629   4.446   5.557   3.420
 1577SOL    HW1 5630   4.513   5.625   3.448
 1577SOL    HW2 5631   4.491   5.468   3.409
 1578SOL     OW 5632   5.587   1.824   2.098
 1578SOL    HW1 5633   5.494   1.861   2.090
 1578SOL    HW2 5634   5.597   1.746   2.036
 1579SOL     OW 5635   1.651   3.808   2.867
 1579SOL    HW1 5636   1.580   3.873   2.839
 1579SOL    HW2 5637   1.723   3.805   2.797
 1580SOL     OW 5638   3.759   3.660   4.089
 1580SOL    HW1 5639   3.713   3.672   4.177
 1580SOL    HW2 5640   3.701   3.693   4.015
 1581SOL     OW 5641   5.364   3.952   5.193
 1581SOL    HW1 5642   5.378   3.895   5.112
 1581SOL    HW2 5643   5.453   3.977   5.232
 1582SOL     OW 5644   3.846   6.276   4.395
 1582SOL    HW1 5645   3.763   6.280   4.339
 1582SOL    HW2 5646   3.852   6.358   4.451
 1583SOL     OW 5647   0.058   4.715   4.151
 1583SOL    HW1 5648   7.018   4.689   4.220
 1583SOL    HW2 5649   0.013   4.728   4.063
 1584SOL     OW 5650   0.599   4.352   0.751
 1584SOL    HW1 5651   0.583   4.383   0.657
 1584SOL    HW2 5652   0.563   4.260   0.763
 1585SOL     OW 5653   4.146   6.151   4.749
 1585SOL    HW1 5654   4.214   6.084   4.720
 1585SOL    HW2 5655   4.056   6.126   4.711
 1586SOL     OW 5656   3.231   6.364   2.899
 1586SOL    HW1 5657   3.209   6.278   2.852
 1586SOL    HW2 5658   3.146   6.413   2.920
 1587SOL     OW 5659   3.971   0.494   0.480
 1587SOL    HW1 5660   3.892   0.554   0.493
 1587SOL    HW2 5661   4.004   0.502   0.386
 1588SOL     OW 5662   6.076   1.709   3.901
 1588SOL    HW1 5663   6.036   1.734   3.813
 1588SOL    HW2 5664   6.136   1.782   3.933
 1589SOL     OW 5665   0.021   1.472   3.758
 1589SOL    HW1 5666   0.001   1.533   3.681
 1589SOL    HW2 5667   7.020   1.515   3.843
 1590SOL     OW 5668   5.530   6.583   3.889
 1590SOL    HW1 5669   5.614   6.529   3.885
 1590SOL    HW2 5670   5.514   6.626   3.800
 1591SOL     OW 5671   6.549   4.796   0.471
 1591SOL    HW1 5672   6.487   4.761   0.541
 1591SOL    HW2 5673   6.500   4.808   0.385
 1592SOL     OW 5674   0.094   4.350   3.958
 1592SOL    HW1 5675   0.138   4.341   3.868
 1592SOL    HW2 5676   0.155   4.313   4.028
 1593SOL     OW 5677   4.292   4.836   0.987
 1593SOL    HW1 5678   4.347   4.851   1.069
 1593SOL    HW2 5679   4.202   4.878   0.999
 1594SOL     OW 5680   5.543   1.238   2.709
 1594SOL    HW1 5681   5.515   1.161   2.652
 1594SOL    HW2 5682   5.643   1.239   2.717
 1595SOL     OW 5683   6.921   3.838   0.704
 1595SOL    HW1 5684   7.001   3.875   0.751
 1595SOL    HW2 5685   6.946   3.811   0.611
 1596SOL     OW 5686   5.628   3.954   4.691
 1596SOL    HW1 5687   5.596   3.984   4.781
 1596SOL    HW2 5688   5.576   4.001   4.620
 1597SOL     OW 5689   4.376   6.488   1.000
 1597SOL    HW1 5690   4.406   6.577   0.966
 1597SOL    HW2 5691   4.360   6.426   0.923
 1598SOL     OW 5692   0.645   6.613   6.322
 1598SOL    HW1 5693   0.578   6.616   6.248
 1598SOL    HW2 5694   0.615   6.547   6.391
 1599SOL     OW 5695   4.955   5.580   4.062
 1599SOL    HW1 5696   4.928   5.653   3.999
 1599SOL    HW2 5697   4.900   5.499   4.044
 1600SOL     OW 5698   5.706   1.015   1.200
 1600SOL    HW1 5699   5.748   1.031   1.111
 1600SOL    HW2 5700   5.694   0.916   1.214
 1601SOL     OW 5701   6.551   0.799   5.233
 1601SOL    HW1 5702   6.563   0.810   5.332
 1601SOL    HW2 5703   6.635   0.761   5.193
 1602SOL     OW 5704   3.581   5.839   3.360
 1602SOL    HW1 5705   3.642   5.792   3.297
 1602SOL    HW2 5706   3.487   5.831   3.328
 1603SOL     OW 5707   3.085   5.670   1.514
 1603SOL    HW1 5708   3.148   5.722   1.571
 1603SOL    HW2 5709   3.003   5.724   1.497
 1604SOL     OW 5710   4.361   4.937   1.782
 1604SOL    HW1 5711   4.286   4.985   1.736
 1604SOL    HW2 5712   4.407   4.877   1.716
 1605SOL     OW 5713   3.223   4.816   0.066
 1605SOL    HW1 5714   3.258   4.789   7.004
 1605SOL    HW2 5715   3.177   4.739   0.109
 1606SOL     OW 5716   5.484   5.592   4.803
 1606SOL    HW1 5717   5.427   5.571   4.723
 1606SOL    HW2 5718   5.475   5.519   4.871
 1607SOL     OW 5719   4.246   4.759   4.123
 1607SOL    HW1 5720   4.146   4.764   4.126
 1607SOL    HW2 5721   4.275   4.726   4.034
 1608SOL     OW 5722   6.191   3.265   2.908
 1608SOL    HW1 5723   6.116   3.282   2.971
 1608SOL    HW2 5724   6.186   3.330   2.831
 1609SOL     OW 5725   1.149   0.296   0.978
 1609SOL    HW1 5726   1.119   0.377   0.927
 1609SOL    HW2 5727   1.206   0.239   0.918
 1610SOL     OW 5728   5.334   4.818   1.143
 1610SOL    HW1 5729   5.235   4.813   1.139
 1610SOL    HW2 5730   5.370   4.738   1.190
 1611SOL     OW 5731   0.726   4.210   0.121
 1611SOL    HW1 5732   0.639   4.178   0.157
 1611SOL    HW2 5733   0.799   4.190   0.187
 1612SOL     OW 5734   5.049   7.012   1.874
 1612SOL    HW1 5735   4.955   0.001   1.906
 1612SOL    HW2 5736   5.046   6.946   1.798
 1613SOL     OW 5737   6.203   6.230   2.987
 1613SOL    HW1 5738   6.115   6.198   2.953
 1613SOL    HW2 5739   6.274   6.208   2.920
 1614SOL     OW 5740   6.109   1.224   5.750
 1614SOL    HW1 5741   6.014   1.200   5.766
 1614SOL    HW2 5742   6.169   1.153   5.787
 1615SOL     OW 5743   6.127   3.202   5.561
 1615SOL    HW1 5744   6.126   3.110   5.522
 1615SOL    HW2 5745   6.113   3.196   5.660
 1616SOL     OW 5746   2.223   0.760   3.201
 1616SOL    HW1 5747   2.239   0.852   3.163
 1616SOL    HW2 5748   2.125   0.744   3.206
 1617SOL     OW 5749   0.157   6.814   4.256
 1617SOL    HW1 5750   0.240   6.759   4.245
 1617SOL    HW2 5751   0.102   6.775   4.330
 1618SOL     OW 5752   3.451   5.213   2.615
 1618SOL    HW1 5753   3.406   5.283   2.560
 1618SOL    HW2 5754   3.541   5.193   2.576
 1619SOL     OW 5755   1.237   4.037   6.189
 1619SOL    HW1 5756   1.306   4.093   6.236
 1619SOL    HW2 5757   1.283   3.964   6.138
 1620SOL     OW 5758   3.154   0.048   5.046
 1620SOL    HW1 5759   3.175   0.090   4.958
 1620SOL    HW2 5760   3.097   0.111   5.100
 1621SOL     OW 5761   4.674   5.090   0.881
 1621SOL    HW1 5762   4.575   5.078   0.876
 1621SOL    HW2 5763   4.720   5.023   0.823
 1622SOL     OW 5764   6.521   3.204   4.123
 1622SOL    HW1 5765   6.596   3.267   4.103
 1622SOL    HW2 5766   6.546   3.147   4.202
 1623SOL     OW 5767   0.628   2.565   4.495
 1623SOL    HW1 5768   0.605   2.471   4.470
 1623SOL    HW2 5769   0.571   2.628   4.441
 1624SOL     OW 5770   4.329   2.996   6.865
 1624SOL    HW1 5771   4.343   2.998   6.964
 1624SOL    HW2 5772   4.230   2.999   6.846
 1625SOL     OW 5773   0.820   6.584   0.337
 1625SOL    HW1 5774   0.875   6.660   0.372
 1625SOL    HW2 5775   0.811   6.514   0.407
 1626SOL     OW 5776   3.109   1.351   1.768
 1626SOL    HW1 5777   3.102   1.259   1.806
 1626SOL    HW2 5778   3.018   1.394   1.768
 1627SOL     OW 5779   4.505   0.845   6.255
 1627SOL    HW1 5780   4.517   0.923   6.193
 1627SOL    HW2 5781   4.511   0.760   6.203
 1628SOL     OW 5782   5.526   5.683   1.267
 1628SOL    HW1 5783   5.580   5.713   1.346
 1628SOL    HW2 5784   5.462   5.612   1.295
 1629SOL     OW 5785   1.230   6.344   2.095
 1629SOL    HW1 5786   1.251   6.428   2.045
 1629SOL    HW2 5787   1.166   6.288   2.042
 1630SOL     OW 5788   0.000   5.024   6.007
 1630SOL    HW1 5789   0.012   4.934   6.050
 1630SOL    HW2 5790   0.057   5.029   5.925
 1631SOL     OW 5791   4.926   4.352   5.816
 1631SOL    HW1 5792   4.939   4.315   5.908
 1631SOL    HW2 5793   4.866   4.292   5.764
 1632SOL     OW 5794   5.679   4.843   1.811
 1632SOL    HW1 5795   5.732   4.763   1.839
 1632SOL    HW2 5796   5.742   4.916   1.783
 1633SOL     OW 5797   6.488   4.391   5.743
 1633SOL    HW1 5798   6.407   4.434   5.782
 1633SOL    HW2 5799   6.532   4.453   5.679
 1634SOL     OW 5800   1.068   4.596   5.962
 1634SOL    HW1 5801   1.084   4.607   6.060
 1634SOL    HW2 5802   1.022   4.509   5.946
 1635SOL     OW 5803   3.346   1.401   3.788
 1635SOL    HW1 5804   3.294   1.317   3.774
 1635SOL    HW2 5805   3.368   1.410   3.885
 1636SOL     OW 5806   0.210   6.024   2.038
 1636SOL    HW1 5807   0.247   6.094   1.977
 1636SOL    HW2 5808   0.180   6.066   2.123
 1637SOL     OW 5809   1.641   1.201   1.500
 1637SOL    HW1 5810   1.543   1.183   1.495
 1637SOL    HW2 5811   1.688   1.118   1.530
 1638SOL     OW 5812   5.370   1.053   3.053
 1638SOL    HW1 5813   5.283   1.082   3.094
 1638SOL    HW2 5814   5.360   0.961   3.016
 1639SOL     OW 5815   5.289   1.647   1.026
 1639SOL    HW1 5816   5.369   1.592   1.003
 1639SOL    HW2 5817   5.276   1.717   0.956
 1640SOL     OW 5818   0.042   1.403   6.245
 1640SOL    HW1 5819   7.005   1.391   6.170
 1640SOL    HW2 5820   0.087   1.492   6.235
 1641SOL     OW 5821   5.870   0.944   2.631
 1641SOL    HW1 5822   5.874   0.992   2.719
 1641SOL    HW2 5823   5.854   1.011   2.558
 1642SOL     OW 5824   0.400   3.542   6.487
 1642SOL    HW1 5825   0.374   3.494   6.571
 1642SOL    HW2 5826   0.416   3.475   6.414
 1643SOL     OW 5827   2.503   5.372   4.356
 1643SOL    HW1 5828   2.533   5.277   4.354
 1643SOL    HW2 5829   2.581   5.432   4.339
 1644SOL     OW 5830   5.704   2.011   1.724
 1644SOL    HW1 5831   5.717   2.013   1.823
 1644SOL    HW2 5832   5.608   1.995   1.702
 1645SOL     OW 5833   2.044   1.331   4.216
 1645SOL    HW1 5834   2.136   1.356   4.185
 1645SOL    HW2 5835   1.976   1.382   4.164
 1646SOL     OW 5836   0.076   5.463   1.750
 1646SOL    HW1 5837   0.128   5.402   1.691
 1646SOL    HW2 5838   0.017   5.522   1.695
 1647SOL     OW 5839   6.666   4.202   5.411
 1647SOL    HW1 5840   6.567   4.208   5.412
 1647SOL    HW2 5841   6.698   4.174   5.502
 1648SOL     OW 5842   5.903   5.993   1.975
 1648SOL    HW1 5843   5.882   5.999   2.072
 1648SOL    HW2 5844   5.931   6.084   1.941
 1649SOL     OW 5845   3.524   1.048   3.506
 1649SOL    HW1 5846   3.574   1.135   3.510
 1649SOL    HW2 5847   3.487   1.028   3.597
 1650SOL     OW 5848   2.209   2.975   5.589
 1650SOL    HW1 5849   2.224   2.896   5.649
 1650SOL    HW2 5850   2.244   3.058   5.634
 1651SOL     OW 5851   2.232   2.280   4.689
 1651SOL    HW1 5852   2.306   2.346   4.673
 1651SOL    HW2 5853   2.144   2.325   4.675
 1652SOL     OW 5854   6.945   4.485   1.742
 1652SOL    HW1 5855   6.994   4.417   1.795
 1652SOL    HW2 5856   7.003   4.565   1.727
 1653SOL     OW 5857   5.476   3.846   1.794
 1653SOL    HW1 5858   5.406   3.794   1.745
 1653SOL    HW2 5859   5.542   3.783   1.836
 1654SOL     OW 5860   0.288   2.644   1.535
 1654SOL    HW1 5861   0.346   2.592   1.472
 1654SOL    HW2 5862   0.318   2.739   1.537
 1655SOL     OW 5863   6.886   0.793   6.106
 1655SOL    HW1 5864   6.973   0.843   6.112
 1655SOL    HW2 5865   6.901   0.707   6.056
 1656SOL     OW 5866   1.860   4.888   2.722
 1656SOL    HW1 5867   1.954   4.916   2.705
 1656SOL    HW2 5868   1.804   4.969   2.740
 1657SOL     OW 5869   0.881   1.843   6.051
 1657SOL    HW1 5870   0.911   1.921   5.996
 1657SOL    HW2 5871   0.899   1.861   6.147
 1658SOL     OW 5872   4.750   6.936   5.429
 1658SOL    HW1 5873   4.774   6.896   5.341
 1658SOL    HW2 5874   4.829   6.932   5.490
 1659SOL     OW 5875   2.017   1.328   6.540
 1659SOL    HW1 5876   2.103   1.278   6.532
 1659SOL    HW2 5877   2.028   1.419   6.500
 1660SOL     OW 5878   2.405   0.717   1.587
 1660SOL    HW1 5879   2.466   0.639   1.570
 1660SOL    HW2 5880   2.314   0.696   1.551
 1661SOL     OW 5881   4.227   5.049   3.227
 1661SOL    HW1 5882   4.245   4.956   3.196
 1661SOL    HW2 5883   4.287   5.113   3.178
 1662SOL     OW 5884   0.919   2.234   4.114
 1662SOL    HW1 5885   0.855   2.159   4.132
 1662SOL    HW2 5886   0.914   2.300   4.189
 1663SOL     OW 5887   6.489   4.043   1.437
 1663SOL    HW1 5888   6.488   3.946   1.413
 1663SOL    HW2 5889   6.462   4.055   1.532
 1664SOL     OW 5890   0.908   1.171   6.734
 1664SOL    HW1 5891   0.842   1.145   6.805
 1664SOL    HW2 5892   0.959   1.089   6.705
 1665SOL     OW 5893   1.845   3.133   0.931
 1665SOL    HW1 5894   1.745   3.140   0.929
 1665SOL    HW2 5895   1.885   3.215   0.889
 1666SOL     OW 5896   5.833   6.105   5.125
 1666SOL    HW1 5897   5.780   6.062   5.052
 1666SOL    HW2 5898   5.839   6.204   5.108
 1667SOL     OW 5899   5.795   5.492   1.495
 1667SOL    HW1 5900   5.854   5.514   1.573
 1667SOL    HW2 5901   5.802   5.565   1.427
 1668SOL     OW 5902   0.141   2.755   2.459
 1668SOL    HW1 5903   0.047   2.767   2.490
 1668SOL    HW2 5904   0.203   2.801   2.522
 1669SOL     OW 5905   6.567   2.458   5.485
 1669SOL    HW1 5906   6.533   2.508   5.405
 1669SOL    HW2 5907   6.558   2.359   5.468
 1670SOL     OW 5908   3.064   4.600   5.360
 1670SOL    HW1 5909   3.125   4.526   5.389
 1670SOL    HW2 5910   2.985   4.560   5.314
 1671SOL     OW 5911   6.528   2.375   0.434
 1671SOL    HW1 5912   6.488   2.441   0.370
 1671SOL    HW2 5913   6.607   2.331   0.391
 1672SOL     OW 5914   1.523   2.182   2.071
 1672SOL    HW1 5915   1.566   2.204   2.158
 1672SOL    HW2 5916   1.501   2.085   2.068
 1673SOL     OW 5917   0.866   0.742   6.060
 1673SOL    HW1 5918   0.846   0.647   6.085
 1673SOL    HW2 5919   0.945   0.744   5.998
 1674SOL     OW 5920   4.912   2.571   2.977
 1674SOL    HW1 5921   4.863   2.522   2.906
 1674SOL    HW2 5922   4.888   2.534   3.067
 1675SOL     OW 5923   5.212   0.827   2.008
 1675SOL    HW1 5924   5.198   0.782   2.096
 1675SOL    HW2 5925   5.147   0.902   1.998
 1676SOL     OW 5926   2.332   1.837   3.935
 1676SOL    HW1 5927   2.283   1.848   3.848
 1676SOL    HW2 5928   2.334   1.924   3.983
 1677SOL     OW 5929   2.849   3.163   1.688
 1677SOL    HW1 5930   2.890   3.233   1.630
 1677SOL    HW2 5931   2.801   3.208   1.764
 1678SOL     OW 5932   6.640   0.067   1.545
 1678SOL    HW1 5933   6.639   0.094   1.641
 1678SOL    HW2 5934   6.707   0.123   1.496
 1679SOL     OW 5935   6.810   2.169   6.904
 1679SOL    HW1 5936   6.768   2.259   6.918
 1679SOL    HW2 5937   6.740   2.103   6.876
 1680SOL     OW 5938   5.730   1.247   4.177
 1680SOL    HW1 5939   5.728   1.345   4.154
 1680SOL    HW2 5940   5.823   1.212   4.164
 1681SOL     OW 5941   4.515   6.635   4.268
 1681SOL    HW1 5942   4.436   6.696   4.265
 1681SOL    HW2 5943   4.512   6.581   4.352
 1682SOL     OW 5944   4.694   1.715   5.334
 1682SOL    HW1 5945   4.778   1.765   5.356
 1682SOL    HW2 5946   4.711   1.652   5.259
 1683SOL     OW 5947   1.108   4.662   4.117
 1683SOL    HW1 5948   1.027   4.651   4.175
 1683SOL    HW2 5949   1.170   4.728   4.158
 1684SOL     OW 5950   3.589   5.709   1.469
 1684SOL    HW1 5951   3.639   5.644   1.411
 1684SOL    HW2 5952   3.651   5.745   1.539
 1685SOL     OW 5953   6.933   2.153   6.378
 1685SOL    HW1 5954   6.850   2.131   6.327
 1685SOL    HW2 5955   6.909   2.195   6.465
 1686SOL     OW 5956   2.846   5.900   1.163
 1686SOL    HW1 5957   2.842   5.953   1.248
 1686SOL    HW2 5958   2.794   5.815   1.175
 1687SOL     OW 5959   4.342   4.426   6.600
 1687SOL    HW1 5960   4.438   4.404   6.617
 1687SOL    HW2 5961   4.328   4.441   6.502
 1688SOL     OW 5962   2.667   0.324   1.655
 1688SOL    HW1 5963   2.612   0.286   1.729
 1688SOL    HW2 5964   2.720   0.251   1.612
 1689SOL     OW 5965   4.386   0.974   2.143
 1689SOL    HW1 5966   4.373   0.973   2.044
 1689SOL    HW2 5967   4.473   0.931   2.166
 1690SOL     OW 5968   0.672   4.603   4.214
 1690SOL    HW1 5969   0.766   4.634   4.230
 1690SOL    HW2 5970   0.608   4.669   4.254
 1691SOL     OW 5971   4.831   2.769   5.456
 1691SOL    HW1 5972   4.782   2.774   5.369
 1691SOL    HW2 5973   4.767   2.747   5.529
 1692SOL     OW 5974   5.996   5.549   2.885
 1692SOL    HW1 5975   6.059   5.568   2.810
 1692SOL    HW2 5976   6.000   5.624   2.952
 1693SOL     OW 5977   5.642   7.014   5.630
 1693SOL    HW1 5978   5.675   6.941   5.569
 1693SOL    HW2 5979   5.694   7.013   5.715
 1694SOL     OW 5980   4.426   1.746   6.039
 1694SOL    HW1 5981   4.385   1.721   5.951
 1694SOL    HW2 5982   4.415   1.845   6.054
 1695SOL     OW 5983   5.871   0.893   5.637
 1695SOL    HW1 5984   5.865   0.833   5.716
 1695SOL    HW2 5985   5.936   0.855   5.571
 1696SOL     OW 5986   5.296   6.819   1.148
 1696SOL    HW1 5987   5.207   6.778   1.165
 1696SOL    HW2 5988   5.285   6.918   1.134
 1697SOL     OW 5989   4.109   3.727   1.910
 1697SOL    HW1 5990   4.039   3.798   1.919
 1697SOL    HW2 5991   4.065   3.640   1.888
 1698SOL     OW 5992   4.689   2.382   1.435
 1698SOL    HW1 5993   4.618   2.444   1.469
 1698SOL    HW2 5994   4.731   2.334   1.512
 1699SOL     OW 5995   1.254   0.527   0.741
 1699SOL    HW1 5996   1.296   0.612   0.773
 1699SOL    HW2 5997   1.163   0.517   0.782
 1700SOL     OW 5998   6.023   3.313   3.104
 1700SOL    HW1 5999   6.001   3.406   3.133
 1700SOL    HW2 6000   6.030   3.254   3.185
 1701SOL     OW 6001   1.220   6.000   5.006
 1701SOL    HW1 6002   1.248   6.092   5.035
 1701SOL    HW2 6003   1.162   5.958   5.076
 1702SOL     OW 6004   2.173   2.292   6.811
 1702SOL    HW1 6005   2.182   2.269   6.714
 1702SOL    HW2 6006   2.261   2.326   6.845
 1703SOL     OW 6007   2.515   1.321   1.626
 1703SOL    HW1 6008   2.423   1.356   1.607
 1703SOL    HW2 6009   2.551   1.365   1.709
 1704SOL     OW 6010   2.577   2.380   6.597
 1704SOL    HW1 6011   2.619   2.328   6.522
 1704SOL    HW2 6012   2.504   2.438   6.562
 1705SOL     OW 6013   5.685   3.047   1.002
 1705SOL    HW1 6014   5.745   3.126   1.017
 1705SOL    HW2 6015   5.721   2.968   1.050
 1706SOL     OW 6016   6.346   0.561   5.849
 1706SOL    HW1 6017   6.418   0.491   5.850
 1706SOL    HW2 6018   6.261   0.521   5.816
 1707SOL     OW 6019   3.069   1.619   2.722
 1707SOL    HW1 6020   3.024   1.708   2.716
 1707SOL    HW2 6021   3.081   1.594   2.818
 1708SOL     OW 6022   2.528   4.359   1.284
 1708SOL    HW1 6023   2.459   4.288   1.270
 1708SOL    HW2 6024   2.538   4.377   1.382
 1709SOL     OW 6025   6.201   5.382   2.658
 1709SOL    HW1 6026   6.290   5.360   2.617
 1709SOL    HW2 6027   6.200   5.478   2.685
 1710SOL     OW 6028   4.744   2.782   2.155
 1710SOL    HW1 6029   4.808   2.804   2.229
 1710SOL    HW2 6030   4.743   2.856   2.088
 1711SOL     OW 6031   3.901   5.273   0.341
 1711SOL    HW1 6032   3.992   5.259   0.303
 1711SOL    HW2 6033   3.872   5.192   0.391
 1712SOL     OW 6034   6.884   2.479   2.188
 1712SOL    HW1 6035   6.919   2.385   2.190
 1712SOL    HW2 6036   6.810   2.486   2.122
 1713SOL     OW 6037   2.698   1.248   2.336
 1713SOL    HW1 6038   2.649   1.211   2.258
 1713SOL    HW2 6039   2.791   1.274   2.309
 1714SOL     OW 6040   3.042   4.771   1.073
 1714SOL    HW1 6041   2.980   4.749   1.148
 1714SOL    HW2 6042   3.136   4.753   1.102
 1715SOL     OW 6043   1.248   5.633   1.101
 1715SOL    HW1 6044   1.333   5.580   1.104
 1715SOL    HW2 6045   1.177   5.586   1.154
 1716SOL     OW 6046   5.014   1.809   1.984
 1716SOL    HW1 6047   4.958   1.736   1.946
 1716SOL    HW2 6048   4.969   1.897   1.969
 1717SOL     OW 6049   3.913   6.988   4.180
 1717SOL    HW1 6050   3.958   0.018   4.112
 1717SOL    HW2 6051   3.917   6.893   4.149
 1718SOL     OW 6052   1.869   3.947   2.175
 1718SOL    HW1 6053   1.962   3.975   2.149
 1718SOL    HW2 6054   1.805   4.022   2.158
 1719SOL     OW 6055   0.868   4.746   2.927
 1719SOL    HW1 6056   0.874   4.703   3.017
 1719SOL    HW2 6057   0.828   4.837   2.936
 1720SOL     OW 6058   1.613   2.806   5.303
 1720SOL    HW1 6059   1.672   2.748   5.360
 1720SOL    HW2 6060   1.668   2.849   5.231
 1721SOL     OW 6061   2.064   2.352   0.225
 1721SOL    HW1 6062   2.152   2.323   0.189
 1721SOL    HW2 6063   2.056   2.451   0.221
 1722SOL     OW 6064   3.655   2.002   3.422
 1722SOL    HW1 6065   3.594   1.935   3.465
 1722SOL    HW2 6066   3.664   1.982   3.324
 1723SOL     OW 6067   6.385   5.579   1.876
 1723SOL    HW1 6068   6.330   5.497   1.886
 1723SOL    HW2 6069   6.482   5.555   1.881
 1724SOL     OW 6070   5.640   3.616   1.599
 1724SOL    HW1 6071   5.651   3.520   1.624
 1724SOL    HW2 6072   5.702   3.672   1.654
 1725SOL     OW 6073   2.018   6.669   4.681
 1725SOL    HW1 6074   1.964   6.585   4.681
 1725SOL    HW2 6075   2.114   6.648   4.659
 1726SOL     OW 6076   5.645   4.988   2.804
 1726SOL    HW1 6077   5.583   4.912   2.781
 1726SOL    HW2 6078   5.702   5.010   2.724
 1727SOL     OW 6079   3.037   3.755   3.983
 1727SOL    HW1 6080   3.137   3.760   3.986
 1727SOL    HW2 6081   3.003   3.715   4.069
 1728SOL     OW 6082   5.659   2.031   4.244
 1728SOL    HW1 6083   5.649   2.015   4.146
 1728SOL    HW2 6084   5.613   2.115   4.270
 1729SOL     OW 6085   1.925   2.847   2.906
 1729SOL    HW1 6086   1.839   2.894   2.885
 1729SOL    HW2 6087   1.939   2.845   3.005
 1730SOL     OW 6088   3.390   0.723   3.975
 1730SOL    HW1 6089   3.292   0.704   3.963
 1730SOL    HW2 6090   3.427   0.665   4.047
 1731SOL     OW 6091   6.758   4.826   2.349
 1731SOL    HW1 6092   6.811   4.808   2.267
 1731SOL    HW2 6093   6.717   4.917   2.344
 1732SOL     OW 6094   3.746   3.242   4.907
 1732SOL    HW1 6095   3.841   3.227   4.933
 1732SOL    HW2 6096   3.698   3.155   4.904
 1733SOL     OW 6097   1.612   2.262   0.255
 1733SOL    HW1 6098   1.703   2.224   0.237
 1733SOL    HW2 6099   1.622   2.350   0.302
 1734SOL     OW 6100   0.827   4.767   2.569
 1734SOL    HW1 6101   0.899   4.798   2.630
 1734SOL    HW2 6102   0.745   4.823   2.583
 1735SOL     OW 6103   3.586   5.694   5.716
 1735SOL    HW1 6104   3.514   5.661   5.655
 1735SOL    HW2 6105   3.559   5.782   5.755
 1736SOL     OW 6106   4.466   2.065   4.584
 1736SOL    HW1 6107   4.417   1.991   4.539
 1736SOL    HW2 6108   4.447   2.063   4.682
 1737SOL     OW 6109   1.221   0.144   6.582
 1737SOL    HW1 6110   1.161   0.189   6.517
 1737SOL    HW2 6111   1.203   0.178   6.674
 1738SOL     OW 6112   1.602   3.195   2.210
 1738SOL    HW1 6113   1.569   3.255   2.137
 1738SOL    HW2 6114   1.699   3.176   2.195
 1739SOL     OW 6115   4.568   6.415   2.701
 1739SOL    HW1 6116   4.638   6.343   2.702
 1739SOL    HW2 6117   4.511   6.404   2.619
 1740SOL     OW 6118   0.837   1.811   4.699
 1740SOL    HW1 6119   0.853   1.874   4.623
 1740SOL    HW2 6120   0.809   1.864   4.780
 1741SOL     OW 6121   1.456   1.872   4.619
 1741SOL    HW1 6122   1.387   1.804   4.594
 1741SOL    HW2 6123   1.541   1.825   4.643
 1742SOL     OW 6124   6.411   0.118   6.219
 1742SOL    HW1 6125   6.359   0.148   6.140
 1742SOL    HW2 6126   6.349   0.076   6.286
 1743SOL     OW 6127   0.985   2.399   2.926
 1743SOL    HW1 6128   0.914   2.470   2.917
 1743SOL    HW2 6129   1.071   2.442   2.953
 1744SOL     OW 6130   3.202   1.568   5.648
 1744SOL    HW1 6131   3.111   1.543   5.614
 1744SOL    HW2 6132   3.193   1.622   5.731
 1745SOL     OW 6133   5.233   6.421   1.461
 1745SOL    HW1 6134   5.294   6.497   1.437
 1745SOL    HW2 6135   5.277   6.363   1.530
 1746SOL     OW 6136   2.574   5.037   2.076
 1746SOL    HW1 6137   2.620   5.051   1.989
 1746SOL    HW2 6138   2.642   5.015   2.147
 1747SOL     OW 6139   2.295   6.414   2.268
 1747SOL    HW1 6140   2.386   6.454   2.274
 1747SOL    HW2 6141   2.240   6.467   2.203
 1748SOL     OW 6142   6.652   1.299   3.981
 1748SOL    HW1 6143   6.660   1.376   4.046
 1748SOL    HW2 6144   6.686   1.328   3.892
 1749SOL     OW 6145   6.738   5.310   2.122
 1749SOL    HW1 6146   6.704   5.216   2.126
 1749SOL    HW2 6147   6.837   5.308   2.107
 1750SOL     OW 6148   2.975   1.899   0.531
 1750SOL    HW1 6149   2.920   1.946   0.601
 1750SOL    HW2 6150   2.940   1.806   0.519
 1751SOL     OW 6151   6.266   4.334   4.117
 1751SOL    HW1 6152   6.282   4.396   4.041
 1751SOL    HW2 6153   6.348   4.328   4.174
 1752SOL     OW 6154   5.838   0.107   3.129
 1752SOL    HW1 6155   5.892   0.080   3.209
 1752SOL    HW2 6156   5.890   0.172   3.074
 1753SOL     OW 6157   0.166   1.370   0.658
 1753SOL    HW1 6158   0.249   1.385   0.605
 1753SOL    HW2 6159   0.142   1.455   0.706
 1754SOL     OW 6160   2.136   4.893   3.802
 1754SOL    HW1 6161   2.158   4.945   3.884
 1754SOL    HW2 6162   2.221   4.865   3.757
 1755SOL     OW 6163   5.241   6.593   5.433
 1755SOL    HW1 6164   5.197   6.680   5.412
 1755SOL    HW2 6165   5.258   6.541   5.349
 1756SOL     OW 6166   4.401   5.263   0.689
 1756SOL    HW1 6167   4.418   5.174   0.731
 1756SOL    HW2 6168   4.354   5.251   0.602
 1757SOL     OW 6169   2.632   5.289   5.052
 1757SOL    HW1 6170   2.723   5.330   5.051
 1757SOL    HW2 6171   2.628   5.218   5.122
 1758SOL     OW 6172   6.984   6.655   3.930
 1758SOL    HW1 6173   0.006   6.655   3.844
 1758SOL    HW2 6174   6.892   6.619   3.916
 1759SOL     OW 6175   1.516   5.825   5.761
 1759SOL    HW1 6176   1.502   5.881   5.843
 1759SOL    HW2 6177   1.432   5.773   5.743
 1760SOL     OW 6178   5.914   1.130   4.533
 1760SOL    HW1 6179   5.854   1.210   4.538
 1760SOL    HW2 6180   5.919   1.086   4.623
 1761SOL     OW 6181   4.696   2.726   4.489
 1761SOL    HW1 6182   4.622   2.681   4.539
 1761SOL    HW2 6183   4.762   2.763   4.553
 1762SOL     OW 6184   0.763   1.312   5.532
 1762SOL    HW1 6185   0.762   1.230   5.589
 1762SOL    HW2 6186   0.670   1.332   5.501
 1763SOL     OW 6187   1.172   5.276   4.172
 1763SOL    HW1 6188   1.239   5.284   4.098
 1763SOL    HW2 6189   1.214   5.302   4.258
 1764SOL     OW 6190   6.743   5.109   2.437
 1764SOL    HW1 6191   6.786   5.199   2.428
 1764SOL    HW2 6192   6.653   5.110   2.392
 1765SOL     OW 6193   5.396   3.944   2.676
 1765SOL    HW1 6194   5.375   4.005   2.600
 1765SOL    HW2 6195   5.311   3.915   2.720
 1766SOL     OW 6196   3.756   4.903   3.956
 1766SOL    HW1 6197   3.703   4.877   3.875
 1766SOL    HW2 6198   3.697   4.952   4.020
 1767SOL     OW 6199   2.844   4.614   1.622
 1767SOL    HW1 6200   2.917   4.602   1.554
 1767SOL    HW2 6201   2.867   4.562   1.705
 1768SOL     OW 6202   3.645   5.672   2.099
 1768SOL    HW1 6203   3.724   5.683   2.038
 1768SOL    HW2 6204   3.644   5.746   2.166
 1769SOL     OW 6205   5.483   6.903   0.339
 1769SOL    HW1 6206   5.491   6.946   0.429
 1769SOL    HW2 6207   5.548   6.827   0.334
 1770SOL     OW 6208   2.030   3.485   6.885
 1770SOL    HW1 6209   1.998   3.391   6.875
 1770SOL    HW2 6210   2.057   3.501   6.980
 1771SOL     OW 6211   1.806   3.100   6.489
 1771SOL    HW1 6212   1.797   3.117   6.391
 1771SOL    HW2 6213   1.901   3.076   6.510
 1772SOL     OW 6214   2.685   4.959   1.292
 1772SOL    HW1 6215   2.695   4.878   1.350
 1772SOL    HW2 6216   2.774   4.985   1.256
 1773SOL     OW 6217   1.669   5.637   4.689
 1773SOL    HW1 6218   1.699   5.725   4.650
 1773SOL    HW2 6219   1.716   5.563   4.641
 1774SOL     OW 6220   5.900   4.314   1.564
 1774SOL    HW1 6221   5.994   4.281   1.554
 1774SOL    HW2 6222   5.887   4.396   1.509
 1775SOL     OW 6223   2.180   6.537   0.301
 1775SOL    HW1 6224   2.246   6.554   0.375
 1775SOL    HW2 6225   2.174   6.439   0.284
 1776SOL     OW 6226   4.394   3.199   6.077
 1776SOL    HW1 6227   4.375   3.234   5.986
 1776SOL    HW2 6228   4.438   3.109   6.069
 1777SOL     OW 6229   4.445   5.182   5.914
 1777SOL    HW1 6230   4.396   5.245   5.974
 1777SOL    HW2 6231   4.471   5.100   5.965
 1778SOL     OW 6232   6.971   0.426   2.691
 1778SOL    HW1 6233   7.007   0.382   2.608
 1778SOL    HW2 6234   7.016   0.514   2.704
 1779SOL     OW 6235   0.397   6.288   5.214
 1779SOL    HW1 6236   0.459   6.245   5.148
 1779SOL    HW2 6237   0.439   6.286   5.305
 1780SOL     OW 6238   2.699   6.916   4.800
 1780SOL    HW1 6239   2.629   6.963   4.746
 1780SOL    HW2 6240   2.673   6.919   4.897
 1781SOL     OW 6241   3.768   0.992   5.679
 1781SOL    HW1 6242   3.727   1.007   5.589
 1781SOL    HW2 6243   3.704   0.940   5.737
 1782SOL     OW 6244   5.987   0.362   2.253
 1782SOL    HW1 6245   5.969   0.352   2.155
 1782SOL    HW2 6246   6.080   0.333   2.274
 1783SOL     OW 6247   1.365   3.398   6.449
 1783SOL    HW1 6248   1.287   3.460   6.459
 1783SOL    HW2 6249   1.333   3.303   6.455
 1784SOL     OW 6250   1.152   5.872   0.992
 1784SOL    HW1 6251   1.173   5.792   1.047
 1784SOL    HW2 6252   1.134   5.950   1.051
 1785SOL     OW 6253   2.585   5.287   4.784
 1785SOL    HW1 6254   2.633   5.280   4.871
 1785SOL    HW2 6255   2.525   5.367   4.785
 1786SOL     OW 6256   0.703   5.271   2.369
 1786SOL    HW1 6257   0.718   5.268   2.270
 1786SOL    HW2 6258   0.606   5.285   2.387
 1787SOL     OW 6259   2.911   1.323   6.321
 1787SOL    HW1 6260   2.839   1.383   6.286
 1787SOL    HW2 6261   2.989   1.378   6.350
 1788SOL     OW 6262   3.540   4.230   0.370
 1788SOL    HW1 6263   3.530   4.188   0.460
 1788SOL    HW2 6264   3.485   4.180   0.303
 1789SOL     OW 6265   5.856   3.164   3.873
 1789SOL    HW1 6266   5.776   3.109   3.899
 1789SOL    HW2 6267   5.906   3.117   3.800
 1790SOL     OW 6268   2.714   2.401   4.534
 1790SOL    HW1 6269   2.808   2.372   4.516
 1790SOL    HW2 6270   2.651   2.347   4.479
 1791SOL     OW 6271   6.468   0.342   3.129
 1791SOL    HW1 6272   6.380   0.304   3.099
 1791SOL    HW2 6273   6.528   0.354   3.050
 1792SOL     OW 6274   6.910   3.523   5.931
 1792SOL    HW1 6275   6.993   3.555   5.886
 1792SOL    HW2 6276   6.847   3.486   5.863
 1793SOL     OW 6277   1.240   2.977   5.101
 1793SOL    HW1 6278   1.203   2.899   5.051
 1793SOL    HW2 6279   1.173   3.052   5.100
 1794SOL     OW 6280   0.231   2.235   6.747
 1794SOL    HW1 6281   0.215   2.138   6.729
 1794SOL    HW2 6282   0.280   2.245   6.834
 1795SOL     OW 6283   5.654   3.676   0.784
 1795SOL    HW1 6284   5.656   3.616   0.705
 1795SOL    HW2 6285   5.747   3.706   0.806
 1796SOL     OW 6286   6.410   6.324   6.198
 1796SOL    HW1 6287   6.312   6.343   6.203
 1796SOL    HW2 6288   6.444   6.295   6.287
 1797SOL     OW 6289   3.160   6.695   5.261
 1797SOL    HW1 6290   3.235   6.724   5.321
 1797SOL    HW2 6291   3.153   6.596   5.262
 1798SOL     OW 6292   2.351   4.900   6.805
 1798SOL    HW1 6293   2.312   4.898   6.713
 1798SOL    HW2 6294   2.433   4.843   6.808
 1799SOL     OW 6295   3.405   1.799   1.879
 1799SOL    HW1 6296   3.477   1.731   1.868
 1799SOL    HW2 6297   3.446   1.891   1.875
 1800SOL     OW 6298   5.447   2.391   5.448
 1800SOL    HW1 6299   5.446   2.346   5.359
 1800SOL    HW2 6300   5.504   2.473   5.443
 1801SOL     OW 6301   1.223   2.475   2.975
 1801SOL    HW1 6302   1.272   2.408   3.031
 1801SOL    HW2 6303   1.258   2.474   2.882
 1802SOL     OW 6304   6.034   4.581   5.059
 1802SOL    HW1 6305   6.022   4.566   5.158
 1802SOL    HW2 6306   6.127   4.555   5.033
 1803SOL     OW 6307   5.696   6.178   3.931
 1803SOL    HW1 6308   5.701   6.150   3.835
 1803SOL    HW2 6309   5.744   6.111   3.987
 1804SOL     OW 6310   1.165   2.681   5.981
 1804SOL    HW1 6311   1.242   2.732   5.944
 1804SOL    HW2 6312   1.198   2.601   6.031
 1805SOL     OW 6313   6.783   5.042   6.476
 1805SOL    HW1 6314   6.710   4.974   6.486
 1805SOL    HW2 6315   6.792   5.092   6.562
 1806SOL     OW 6316   0.198   0.925   2.638
 1806SOL    HW1 6317   0.257   1.003   2.655
 1806SOL    HW2 6318   0.106   0.945   2.671
 1807SOL     OW 6319   6.692   2.769   2.842
 1807SOL    HW1 6320   6.725   2.676   2.823
 1807SOL    HW2 6321   6.600   2.780   2.803
 1808SOL     OW 6322   5.533   1.528   0.138
 1808SOL    HW1 6323   5.513   1.567   0.227
 1808SOL    HW2 6324   5.467   1.456   0.117
 1809SOL     OW 6325   4.445   1.199   5.468
 1809SOL    HW1 6326   4.375   1.130   5.453
 1809SOL    HW2 6327   4.498   1.213   5.384
 1810SOL     OW 6328   0.865   1.093   3.184
 1810SOL    HW1 6329   0.873   1.142   3.271
 1810SOL    HW2 6330   0.822   1.154   3.116
 1811SOL     OW 6331   2.728   4.972   1.820
 1811SOL    HW1 6332   2.821   4.964   1.784
 1811SOL    HW2 6333   2.696   4.883   1.852
 1812SOL     OW 6334   3.595   0.471   6.237
 1812SOL    HW1 6335   3.570   0.532   6.311
 1812SOL    HW2 6336   3.671   0.412   6.266
 1813SOL     OW 6337   5.276   3.232   2.089
 1813SOL    HW1 6338   5.215   3.309   2.108
 1813SOL    HW2 6339   5.364   3.246   2.135
 1814SOL     OW 6340   6.815   6.098   1.726
 1814SOL    HW1 6341   6.776   6.035   1.659
 1814SOL    HW2 6342   6.909   6.120   1.700
 1815SOL     OW 6343   6.182   6.158   1.143
 1815SOL    HW1 6344   6.229   6.201   1.066
 1815SOL    HW2 6345   6.240   6.161   1.224
 1816SOL     OW 6346   3.555   5.779   4.776
 1816SOL    HW1 6347   3.507   5.867   4.775
 1816SOL    HW2 6348   3.567   5.748   4.870
 1817SOL     OW 6349   6.713   2.699   4.657
 1817SOL    HW1 6350   6.629   2.653   4.627
 1817SOL    HW2 6351   6.699   2.798   4.651
 1818SOL     OW 6352   2.385   2.629   0.226
 1818SOL    HW1 6353   2.360   2.561   0.157
 1818SOL    HW2 6354   2.481   2.656   0.214
 1819SOL     OW 6355   0.527   3.819   0.893
 1819SOL    HW1 6356   0.482   3.806   0.804
 1819SOL    HW2 6357   0.626   3.824   0.880
 1820SOL     OW 6358   3.571   6.687   4.131
 1820SOL    HW1 6359   3.593   6.598   4.091
 1820SOL    HW2 6360   3.472   6.696   4.141
 1821SOL     OW 6361   3.915   1.321   2.986
 1821SOL    HW1 6362   3.863   1.338   2.902
 1821SOL    HW2 6363   3.940   1.408   3.028
 1822SOL     OW 6364   2.904   5.042   4.456
 1822SOL    HW1 6365   2.814   4.999   4.461
 1822SOL    HW2 6366   2.903   5.127   4.508
 1823SOL     OW 6367   4.764   6.548   5.010
 1823SOL    HW1 6368   4.829   6.479   5.041
 1823SOL    HW2 6369   4.675   6.504   4.992
 1824SOL     OW 6370   4.546   2.716   1.738
 1824SOL    HW1 6371   4.498   2.646   1.684
 1824SOL    HW2 6372   4.504   2.805   1.723
 1825SOL     OW 6373   1.465   3.188   7.028
 1825SOL    HW1 6374   1.456   3.147   6.937
 1825SOL    HW2 6375   1.475   3.116   0.069
 1826SOL     OW 6376   3.953   3.540   0.085
 1826SOL    HW1 6377   3.868   3.489   0.098
 1826SOL    HW2 6378   3.955   3.617   0.149
 1827SOL     OW 6379   5.252   4.727   0.349
 1827SOL    HW1 6380   5.213   4.796   0.288
 1827SOL    HW2 6381   5.341   4.758   0.382
 1828SOL     OW 6382   2.475   6.124   4.706
 1828SOL    HW1 6383   2.549   6.060   4.686
 1828SOL    HW2 6384   2.488   6.162   4.798
 1829SOL     OW 6385   2.364   5.896   2.408
 1829SOL    HW1 6386   2.322   5.806   2.398
 1829SOL    HW2 6387   2.295   5.961   2.442
 1830SOL     OW 6388   4.739   1.654   6.882
 1830SOL    HW1 6389   4.743   1.636   6.784
 1830SOL    HW2 6390   4.813   1.604   6.928
 1831SOL     OW 6391   3.805   4.173   0.075
 1831SOL    HW1 6392   3.854   4.204   7.022
 1831SOL    HW2 6393   3.724   4.122   0.048
 1832SOL     OW 6394   2.393   2.382   5.304
 1832SOL    HW1 6395   2.344   2.306   5.348
 1832SOL    HW2 6396   2.361   2.469   5.343
 1833SOL     OW 6397   5.918   1.857   0.321
 1833SOL    HW1 6398   5.966   1.835   0.406
 1833SOL    HW2 6399   5.906   1.956   0.314
 1834SOL     OW 6400   1.550   3.660   6.459
 1834SOL    HW1 6401   1.492   3.579   6.470
 1834SOL    HW2 6402   1.505   3.739   6.501
 1835SOL     OW 6403   6.041   0.784   6.434
 1835SOL    HW1 6404   6.092   0.700   6.419
 1835SOL    HW2 6405   6.016   0.825   6.346
 1836SOL     OW 6406   5.432   0.314   5.275
 1836SOL    HW1 6407   5.451   0.292   5.179
 1836SOL    HW2 6408   5.468   0.243   5.334
 1837SOL     OW 6409   1.594   1.847   1.599
 1837SOL    HW1 6410   1.502   1.817   1.576
 1837SOL    HW2 6411   1.590   1.935   1.646
 1838SOL     OW 6412   4.573   0.544   0.134
 1838SOL    HW1 6413   4.669   0.529   0.109
 1838SOL    HW2 6414   4.517   0.545   0.051
 1839SOL     OW 6415   0.310   2.306   7.009
 1839SOL    HW1 6416   0.281   2.397   0.009
 1839SOL    HW2 6417   0.409   2.298   7.015
 1840SOL     OW 6418   1.116   6.887   6.061
 1840SOL    HW1 6419   1.108   6.886   5.961
 1840SOL    HW2 6420   1.079   6.973   6.096
 1841SOL     OW 6421   1.903   6.908   0.960
 1841SOL    HW1 6422   1.868   6.902   0.866
 1841SOL    HW2 6423   1.950   6.995   0.972
 1842SOL     OW 6424   0.863   5.065   1.886
 1842SOL    HW1 6425   0.776   5.035   1.847
 1842SOL    HW2 6426   0.906   4.988   1.934
 1843SOL     OW 6427   3.696   0.646   6.666
 1843SOL    HW1 6428   3.781   0.613   6.708
 1843SOL    HW2 6429   3.629   0.572   6.666
 1844SOL     OW 6430   5.141   3.380   1.363
 1844SOL    HW1 6431   5.106   3.304   1.419
 1844SOL    HW2 6432   5.108   3.467   1.400
 1845SOL     OW 6433   0.631   2.292   4.566
 1845SOL    HW1 6434   0.720   2.332   4.590
 1845SOL    HW2 6435   0.639   2.242   4.479
 1846SOL     OW 6436   3.917   0.612   1.918
 1846SOL    HW1 6437   3.890   0.695   1.967
 1846SOL    HW2 6438   3.937   0.635   1.823
 1847SOL     OW 6439   2.780   6.310   6.833
 1847SOL    HW1 6440   2.734   6.303   6.921
 1847SOL    HW2 6441   2.772   6.223   6.784
 1848SOL     OW 6442   2.957   5.773   4.622
 1848SOL    HW1 6443   3.030   5.748   4.559
 1848SOL    HW2 6444   2.870   5.737   4.588
 1849SOL     OW 6445   4.649   2.649   2.710
 1849SOL    HW1 6446   4.680   2.740   2.685
 1849SOL    HW2 6447   4.594   2.610   2.636
 1850SOL     OW 6448   5.155   1.278   0.610
 1850SOL    HW1 6449   5.215   1.210   0.567
 1850SOL    HW2 6450   5.130   1.247   0.702
 1851SOL     OW 6451   2.164   4.825   3.390
 1851SOL    HW1 6452   2.207   4.878   3.317
 1851SOL    HW2 6453   2.108   4.753   3.349
 1852SOL     OW 6454   0.109   1.088   4.342
 1852SOL    HW1 6455   0.078   1.183   4.338
 1852SOL    HW2 6456   0.050   1.036   4.404
 1853SOL     OW 6457   0.831   1.927   4.422
 1853SOL    HW1 6458   0.835   1.866   4.343
 1853SOL    HW2 6459   0.922   1.963   4.442
 1854SOL     OW 6460   1.571   6.963   3.654
 1854SOL    HW1 6461   1.538   6.876   3.616
 1854SOL    HW2 6462   1.503   0.006   3.639
 1855SOL     OW 6463   6.727   1.044   5.395
 1855SOL    HW1 6464   6.742   1.005   5.304
 1855SOL    HW2 6465   6.643   1.097   5.395
 1856SOL     OW 6466   4.688   4.149   6.859
 1856SOL    HW1 6467   4.618   4.133   6.929
 1856SOL    HW2 6468   4.730   4.062   6.834
 1857SOL     OW 6469   4.412   1.194   6.996
 1857SOL    HW1 6470   4.316   1.219   7.010
 1857SOL    HW2 6471   4.431   1.107   0.014
 1858SOL     OW 6472   4.118   1.909   4.424
 1858SOL    HW1 6473   4.136   1.892   4.327
 1858SOL    HW2 6474   4.205   1.909   4.474
 1859SOL     OW 6475   6.770   5.656   3.456
 1859SOL    HW1 6476   6.866   5.630   3.452
 1859SOL    HW2 6477   6.749   5.718   3.381
 1860SOL     OW 6478   1.194   6.657   0.018
 1860SOL    HW1 6479   1.274   6.664   0.077
 1860SOL    HW2 6480   1.123   6.604   0.064
 1861SOL     OW 6481   6.147   0.113   5.140
 1861SOL    HW1 6482   6.148   0.030   5.084
 1861SOL    HW2 6483   6.170   0.192   5.083
 1862SOL     OW 6484   4.188   4.785   5.127
 1862SOL    HW1 6485   4.246   4.711   5.094
 1862SOL    HW2 6486   4.244   4.860   5.160
 1863SOL     OW 6487   6.872   1.292   0.853
 1863SOL    HW1 6488   6.919   1.378   0.870
 1863SOL    HW2 6489   6.828   1.295   0.763
 1864SOL     OW 6490   2.807   5.785   2.712
 1864SOL    HW1 6491   2.827   5.800   2.615
 1864SOL    HW2 6492   2.709   5.768   2.723
 1865SOL     OW 6493   6.110   2.788   6.567
 1865SOL    HW1 6494   6.147   2.839   6.645
 1865SOL    HW2 6495   6.036   2.728   6.597
 1866SOL     OW 6496   6.928   4.482   5.251
 1866SOL    HW1 6497   6.885   4.403   5.208
 1866SOL    HW2 6498   7.027   4.477   5.239
 1867SOL     OW 6499   1.179   6.860   0.637
 1867SOL    HW1 6500   1.194   6.777   0.691
 1867SOL    HW2 6501   1.240   6.932   0.669
 1868SOL     OW 6502   5.777   3.294   6.808
 1868SOL    HW1 6503   5.686   3.320   6.840
 1868SOL    HW2 6504   5.815   3.224   6.868
 1869SOL     OW 6505   4.185   1.179   5.739
 1869SOL    HW1 6506   4.212   1.251   5.676
 1869SOL    HW2 6507   4.149   1.220   5.823
 1870SOL     OW 6508   5.471   1.426   5.954
 1870SOL    HW1 6509   5.478   1.415   5.855
 1870SOL    HW2 6510   5.417   1.350   5.992
 1871SOL     OW 6511   2.689   4.417   0.401
 1871SOL    HW1 6512   2.682   4.332   0.348
 1871SOL    HW2 6513   2.692   4.495   0.339
 1872SOL     OW 6514   2.303   3.588   6.606
 1872SOL    HW1 6515   2.211   3.614   6.633
 1872SOL    HW2 6516   2.333   3.646   6.529
 1873SOL     OW 6517   5.799   1.120   2.440
 1873SOL    HW1 6518   5.703   1.105   2.414
 1873SOL    HW2 6519   5.833   1.203   2.396
 1874SOL     OW 6520   2.193   4.881   6.311
 1874SOL    HW1 6521   2.139   4.965   6.309
 1874SOL    HW2 6522   2.257   4.884   6.388
 1875SOL     OW 6523   1.566   6.699   1.767
 1875SOL    HW1 6524   1.490   6.739   1.716
 1875SOL    HW2 6525   1.543   6.605   1.793
 1876SOL     OW 6526   1.619   4.947   5.620
 1876SOL    HW1 6527   1.641   4.991   5.533
 1876SOL    HW2 6528   1.636   4.849   5.613
 1877SOL     OW 6529   0.613   1.038   3.346
 1877SOL    HW1 6530   0.567   1.092   3.276
 1877SOL    HW2 6531   0.711   1.034   3.326
 1878SOL     OW 6532   5.730   3.760   3.535
 1878SOL    HW1 6533   5.682   3.750   3.448
 1878SOL    HW2 6534   5.667   3.741   3.610
 1879SOL     OW 6535   3.973   6.635   5.180
 1879SOL    HW1 6536   3.929   6.561   5.231
 1879SOL    HW2 6537   4.042   6.597   5.119
 1880SOL     OW 6538   2.162   4.255   3.997
 1880SOL    HW1 6539   2.210   4.252   4.084
 1880SOL    HW2 6540   2.100   4.178   3.990
 1881SOL     OW 6541   3.255   2.104   2.371
 1881SOL    HW1 6542   3.215   2.175   2.428
 1881SOL    HW2 6543   3.355   2.113   2.372
 1882SOL     OW 6544   4.269   0.131   6.831
 1882SOL    HW1 6545   4.345   0.159   6.889
 1882SOL    HW2 6546   4.187   0.119   6.886
 1883SOL     OW 6547   2.038   3.725   3.329
 1883SOL    HW1 6548   2.094   3.801   3.297
 1883SOL    HW2 6549   1.948   3.759   3.357
 1884SOL     OW 6550   4.788   0.920   0.496
 1884SOL    HW1 6551   4.746   1.009   0.512
 1884SOL    HW2 6552   4.717   0.849   0.494
 1885SOL     OW 6553   6.765   1.558   1.283
 1885SOL    HW1 6554   6.719   1.488   1.230
 1885SOL    HW2 6555   6.697   1.616   1.329
 1886SOL     OW 6556   3.874   2.902   5.205
 1886SOL    HW1 6557   3.937   2.832   5.240
 1886SOL    HW2 6558   3.791   2.859   5.171
 1887SOL     OW 6559   0.650   6.058   5.579
 1887SOL    HW1 6560   0.658   5.958   5.579
 1887SOL    HW2 6561   0.682   6.095   5.666
 1888SOL     OW 6562   2.555   1.346   5.054
 1888SOL    HW1 6563   2.564   1.442   5.081
 1888SOL    HW2 6564   2.615   1.326   4.976
 1889SOL     OW 6565   3.676   3.955   6.428
 1889SOL    HW1 6566   3.622   3.871   6.427
 1889SOL    HW2 6567   3.702   3.978   6.522
 1890SOL     OW 6568   6.326   6.936   5.652
 1890SOL    HW1 6569   6.405   6.954   5.711
 1890SOL    HW2 6570   6.332   6.843   5.616
 1891SOL     OW 6571   4.975   3.299   0.090
 1891SOL    HW1 6572   5.025   3.249   0.020
 1891SOL    HW2 6573   4.923   3.373   0.047
 1892SOL     OW 6574   2.479   0.360   3.422
 1892SOL    HW1 6575   2.498   0.309   3.338
 1892SOL    HW2 6576   2.548   0.432   3.433
 1893SOL     OW 6577   2.758   2.456   6.798
 1893SOL    HW1 6578   2.785   2.382   6.859
 1893SOL    HW2 6579   2.710   2.418   6.719
 1894SOL     OW 6580   5.652   3.316   0.921
 1894SOL    HW1 6581   5.582   3.245   0.929
 1894SOL    HW2 6582   5.624   3.396   0.974
 1895SOL     OW 6583   4.042   6.373   2.991
 1895SOL    HW1 6584   4.086   6.383   3.080
 1895SOL    HW2 6585   3.992   6.286   2.987
 1896SOL     OW 6586   0.091   2.309   4.311
 1896SOL    HW1 6587   0.038   2.291   4.229
 1896SOL    HW2 6588   0.089   2.228   4.370
 1897SOL     OW 6589   5.541   5.707   3.294
 1897SOL    HW1 6590   5.496   5.780   3.346
 1897SOL    HW2 6591   5.474   5.639   3.266
 1898SOL     OW 6592   5.427   5.801   0.138
 1898SOL    HW1 6593   5.333   5.790   0.169
 1898SOL    HW2 6594   5.488   5.796   0.217
 1899SOL     OW 6595   1.721   3.378   4.330
 1899SOL    HW1 6596   1.726   3.304   4.262
 1899SOL    HW2 6597   1.629   3.418   4.329
 1900SOL     OW 6598   2.402   5.315   1.264
 1900SOL    HW1 6599   2.417   5.370   1.346
 1900SOL    HW2 6600   2.384   5.375   1.186
 1901SOL     OW 6601   6.979   1.473   0.127
 1901SOL    HW1 6602   0.039   1.490   0.084
 1901SOL    HW2 6603   6.986   1.490   0.226
 1902SOL     OW 6604   1.750   3.003   5.155
 1902SOL    HW1 6605   1.788   2.967   5.069
 1902SOL    HW2 6606   1.665   3.052   5.136
 1903SOL     OW 6607   6.697   6.503   3.976
 1903SOL    HW1 6608   6.668   6.507   3.880
 1903SOL    HW2 6609   6.634   6.555   4.033
 1904SOL     OW 6610   0.600   1.022   3.782
 1904SOL    HW1 6611   0.652   0.936   3.784
 1904SOL    HW2 6612   0.551   1.033   3.869
 1905SOL     OW 6613   6.049   3.108   6.630
 1905SOL    HW1 6614   6.051   3.204   6.600
 1905SOL    HW2 6615   6.141   3.081   6.660
 1906SOL     OW 6616   2.369   5.586   6.107
 1906SOL    HW1 6617   2.437   5.649   6.146
 1906SOL    HW2 6618   2.412   5.530   6.037
 1907SOL     OW 6619   4.021   1.097   2.510
 1907SOL    HW1 6620   4.014   1.196   2.522
 1907SOL    HW2 6621   4.103   1.075   2.459
 1908SOL     OW 6622   5.361   4.671   0.926
 1908SOL    HW1 6623   5.434   4.687   0.859
 1908SOL    HW2 6624   5.361   4.744   0.994
 1909SOL     OW 6625   4.871   5.156   4.486
 1909SOL    HW1 6626   4.821   5.194   4.564
 1909SOL    HW2 6627   4.902   5.063   4.509
 1910SOL     OW 6628   4.902   3.917   4.279
 1910SOL    HW1 6629   4.864   3.955   4.364
 1910SOL    HW2 6630   4.899   3.817   4.284
 1911SOL     OW 6631   0.832   2.540   5.483
 1911SOL    HW1 6632   0.901   2.594   5.436
 1911SOL    HW2 6633   0.869   2.450   5.505
 1912SOL     OW 6634   3.590   0.561   2.347
 1912SOL    HW1 6635   3.550   0.499   2.415
 1912SOL    HW2 6636   3.624   0.643   2.393
 1913SOL     OW 6637   3.167   3.558   0.252
 1913SOL    HW1 6638   3.095   3.624   0.272
 1913SOL    HW2 6639   3.159   3.480   0.313
 1914SOL     OW 6640   4.616   1.250   5.238
 1914SOL    HW1 6641   4.574   1.332   5.200
 1914SOL    HW2 6642   4.670   1.204   5.168
 1915SOL     OW 6643   2.680   6.911   5.098
 1915SOL    HW1 6644   2.776   6.887   5.116
 1915SOL    HW2 6645   2.673   7.010   5.085
 1916SOL     OW 6646   3.876   0.209   2.727
 1916SOL    HW1 6647   3.912   0.211   2.633
 1916SOL    HW2 6648   3.952   0.199   2.791
 1917SOL     OW 6649   3.881   3.932   2.849
 1917SOL    HW1 6650   3.924   3.956   2.936
 1917SOL    HW2 6651   3.782   3.926   2.861
 1918SOL     OW 6652   0.182   7.015   6.302
 1918SOL    HW1 6653   0.214   6.920   6.308
 1918SOL    HW2 6654   0.128   7.026   6.219
 1919SOL     OW 6655   5.374   0.772   1.783
 1919SOL    HW1 6656   5.305   0.800   1.850
 1919SOL    HW2 6657   5.330   0.723   1.707
 1920SOL     OW 6658   5.733   6.446   4.689
 1920SOL    HW1 6659   5.777   6.430   4.777
 1920SOL    HW2 6660   5.802   6.439   4.616
 1921SOL     OW 6661   2.673   6.920   0.260
 1921SOL    HW1 6662   2.616   6.936   0.340
 1921SOL    HW2 6663   2.749   6.985   0.259
 1922SOL     OW 6664   3.190   5.406   6.916
 1922SOL    HW1 6665   3.118   5.462   6.875
 1922SOL    HW2 6666   3.152   5.320   6.949
 1923SOL     OW 6667   1.558   2.697   1.677
 1923SOL    HW1 6668   1.594   2.632   1.744
 1923SOL    HW2 6669   1.629   2.762   1.651
 1924SOL     OW 6670   1.238   3.793   2.304
 1924SOL    HW1 6671   1.198   3.701   2.296
 1924SOL    HW2 6672   1.322   3.788   2.358
 1925SOL     OW 6673   2.712   4.875   0.365
 1925SOL    HW1 6674   2.749   4.968   0.359
 1925SOL    HW2 6675   2.784   4.813   0.396
 1926SOL     OW 6676   6.971   0.128   2.481
 1926SOL    HW1 6677   6.939   0.218   2.450
 1926SOL    HW2 6678   0.035   0.137   2.520
 1927SOL     OW 6679   5.429   3.366   1.250
 1927SOL    HW1 6680   5.356   3.378   1.317
 1927SOL    HW2 6681   5.391   3.325   1.167
 1928SOL     OW 6682   0.032   5.010   4.721
 1928SOL    HW1 6683   7.022   4.928   4.763
 1928SOL    HW2 6684   0.016   5.006   4.622
 1929SOL     OW 6685   1.691   4.412   3.253
 1929SOL    HW1 6686   1.754   4.446   3.183
 1929SOL    HW2 6687   1.700   4.312   3.260
 1930SOL     OW 6688   6.451   5.952   6.497
 1930SOL    HW1 6689   6.466   5.983   6.590
 1930SOL    HW2 6690   6.435   5.853   6.496
 1931SOL     OW 6691   2.206   2.951   3.892
 1931SOL    HW1 6692   2.216   3.050   3.881
 1931SOL    HW2 6693   2.125   2.932   3.948
 1932SOL     OW 6694   5.800   2.659   3.124
 1932SOL    HW1 6695   5.727   2.721   3.153
 1932SOL    HW2 6696   5.760   2.574   3.091
 1933SOL     OW 6697   2.346   4.679   0.587
 1933SOL    HW1 6698   2.382   4.588   0.607
 1933SOL    HW2 6699   2.261   4.671   0.535
 1934SOL     OW 6700   0.471   6.227   3.081
 1934SOL    HW1 6701   0.428   6.193   3.165
 1934SOL    HW2 6702   0.431   6.181   3.002
 1935SOL     OW 6703   0.466   1.689   2.572
 1935SOL    HW1 6704   0.370   1.699   2.599
 1935SOL    HW2 6705   0.507   1.613   2.623
 1936SOL     OW 6706   0.549   6.494   5.105
 1936SOL    HW1 6707   0.577   6.443   5.023
 1936SOL    HW2 6708   0.576   6.590   5.095
 1937SOL     OW 6709   5.266   2.140   3.339
 1937SOL    HW1 6710   5.223   2.062   3.293
 1937SOL    HW2 6711   5.240   2.225   3.294
 1938SOL     OW 6712   4.546   0.445   3.599
 1938SOL    HW1 6713   4.466   0.386   3.612
 1938SOL    HW2 6714   4.537   0.494   3.512
 1939SOL     OW 6715   2.580   0.993   4.278
 1939SOL    HW1 6716   2.574   1.068   4.345
 1939SOL    HW2 6717   2.641   1.019   4.204
 1940SOL     OW 6718   6.533   1.017   6.393
 1940SOL    HW1 6719   6.612   0.981   6.442
 1940SOL    HW2 6720   6.449   0.995   6.444
 1941SOL     OW 6721   4.444   4.966   2.626
 1941SOL    HW1 6722   4.497   5.027   2.567
 1941SOL    HW2 6723   4.360   4.938   2.580
 1942SOL     OW 6724   0.198   3.445   2.464
 1942SOL    HW1 6725   0.282   3.393   2.449
 1942SOL    HW2 6726   0.210   3.537   2.428
 1943SOL     OW 6727   3.703   5.317   3.837
 1943SOL    HW1 6728   3.758   5.248   3.790
 1943SOL    HW2 6729   3.759   5.363   3.907
 1944SOL     OW 6730   6.447   6.555   2.061
 1944SOL    HW1 6731   6.470   6.482   2.126
 1944SOL    HW2 6732   6.515   6.628   2.068
 1945SOL     OW 6733   3.500   5.609   2.624
 1945SOL    HW1 6734   3.492   5.561   2.537
 1945SOL    HW2 6735   3.488   5.544   2.699
 1946SOL     OW 6736   1.709   6.676   6.644
 1946SOL    HW1 6737   1.693   6.768   6.680
 1946SOL    HW2 6738   1.775   6.681   6.569
 1947SOL     OW 6739   4.403   0.995   3.914
 1947SOL    HW1 6740   4.477   0.954   3.967
 1947SOL    HW2 6741   4.415   1.094   3.911
 1948SOL     OW 6742   6.661   2.830   5.032
 1948SOL    HW1 6743   6.632   2.743   4.992
 1948SOL    HW2 6744   6.731   2.814   5.101
 1949SOL     OW 6745   4.551   3.640   7.015
 1949SOL    HW1 6746   4.625   3.707   7.017
 1949SOL    HW2 6747   4.463   3.687   7.021
 1950SOL     OW 6748   2.420   4.442   0.687
 1950SOL    HW1 6749   2.359   4.427   0.764
 1950SOL    HW2 6750   2.513   4.455   0.719
 1951SOL     OW 6751   5.630   2.844   6.381
 1951SOL    HW1 6752   5.702   2.774   6.374
 1951SOL    HW2 6753   5.548   2.802   6.420
 1952SOL     OW 6754   3.103   3.089   3.003
 1952SOL    HW1 6755   3.173   3.037   3.052
 1952SOL    HW2 6756   3.060   3.154   3.066
 1953SOL     OW 6757   1.385   1.741   4.228
 1953SOL    HW1 6758   1.398   1.840   4.226
 1953SOL    HW2 6759   1.457   1.696   4.174
 1954SOL     OW 6760   2.656   2.028   3.976
 1954SOL    HW1 6761   2.587   2.072   3.918
 1954SOL    HW2 6762   2.699   1.953   3.927
 1955SOL     OW 6763   6.571   5.390   2.752
 1955SOL    HW1 6764   6.652   5.357   2.801
 1955SOL    HW2 6765   6.523   5.457   2.808
 1956SOL     OW 6766   4.055   6.167   3.764
 1956SOL    HW1 6767   4.058   6.263   3.791
 1956SOL    HW2 6768   4.105   6.112   3.831
 1957SOL     OW 6769   2.367   6.621   5.907
 1957SOL    HW1 6770   2.452   6.608   5.958
 1957SOL    HW2 6771   2.325   6.532   5.890
 1958SOL     OW 6772   4.020   3.470   6.017
 1958SOL    HW1 6773   4.078   3.541   5.977
 1958SOL    HW2 6774   3.985   3.411   5.944
 1959SOL     OW 6775   3.554   0.697   0.916
 1959SOL    HW1 6776   3.585   0.785   0.881
 1959SOL    HW2 6777   3.631   0.647   0.955
 1960SOL     OW 6778   4.812   5.882   2.997
 1960SOL    HW1 6779   4.840   5.974   3.022
 1960SOL    HW2 6780   4.884   5.817   3.021
 1961SOL     OW 6781   5.931   5.230   5.752
 1961SOL    HW1 6782   5.995   5.178   5.809
 1961SOL    HW2 6783   5.886   5.167   5.687
 1962SOL     OW 6784   0.235   6.878   4.589
 1962SOL    HW1 6785   0.259   6.949   4.523
 1962SOL    HW2 6786   0.314   6.859   4.647
 1963SOL     OW 6787   2.879   1.874   3.764
 1963SOL    HW1 6788   2.821   1.920   3.697
 1963SOL    HW2 6789   2.849   1.779   3.774
 1964SOL     OW 6790   6.315   2.502   2.800
 1964SOL    HW1 6791   6.224   2.495   2.841
 1964SOL    HW2 6792   6.307   2.529   2.705
 1965SOL     OW 6793   2.057   6.240   3.593
 1965SOL    HW1 6794   2.040   6.151   3.551
 1965SOL    HW2 6795   1.969   6.286   3.611
 1966SOL     OW 6796   0.071   6.181   0.056
 1966SOL    HW1 6797   7.016   6.161   0.003
 1966SOL    HW2 6798   0.083   6.110   0.127
 1967SOL     OW 6799   6.867   2.269   4.989
 1967SOL    HW1 6800   6.812   2.262   5.072
 1967SOL    HW2 6801   6.856   2.360   4.950
 1968SOL     OW 6802   4.775   5.394   4.959
 1968SOL    HW1 6803   4.747   5.490   4.953
 1968SOL    HW2 6804   4.748   5.357   5.048
 1969SOL     OW 6805   6.280   1.225   1.326
 1969SOL    HW1 6806   6.294   1.323   1.333
 1969SOL    HW2 6807   6.348   1.178   1.382
 1970SOL     OW 6808   2.335   1.062   4.488
 1970SOL    HW1 6809   2.258   1.119   4.458
 1970SOL    HW2 6810   2.420   1.100   4.452
 1971SOL     OW 6811   6.754   1.450   5.857
 1971SOL    HW1 6812   6.690   1.380   5.825
 1971SOL    HW2 6813   6.835   1.449   5.799
 1972SOL     OW 6814   1.238   6.335   3.844
 1972SOL    HW1 6815   1.327   6.360   3.881
 1972SOL    HW2 6816   1.196   6.266   3.902
 1973SOL     OW 6817   3.629   2.932   0.160
 1973SOL    HW1 6818   3.559   2.861   0.158
 1973SOL    HW2 6819   3.585   3.022   0.167
 1974SOL     OW 6820   5.899   6.401   4.470
 1974SOL    HW1 6821   5.900   6.435   4.376
 1974SOL    HW2 6822   5.968   6.329   4.480
 1975SOL     OW 6823   2.690   7.008   3.532
 1975SOL    HW1 6824   2.660   6.942   3.463
 1975SOL    HW2 6825   2.750   0.048   3.490
 1976SOL     OW 6826   6.385   4.090   6.264
 1976SOL    HW1 6827   6.359   4.041   6.347
 1976SOL    HW2 6828   6.403   4.186   6.285
 1977SOL     OW 6829   2.923   2.224   5.290
 1977SOL    HW1 6830   3.017   2.256   5.300
 1977SOL    HW2 6831   2.891   2.242   5.197
 1978SOL     OW 6832   6.742   2.199   5.495
 1978SOL    HW1 6833   6.655   2.190   5.448
 1978SOL    HW2 6834   6.728   2.239   5.586
 1979SOL     OW 6835   6.708   4.558   1.963
 1979SOL    HW1 6836   6.775   4.525   2.030
 1979SOL    HW2 6837   6.735   4.528   1.872
 1980SOL     OW 6838   2.525   0.546   2.641
 1980SOL    HW1 6839   2.499   0.632   2.685
 1980SOL    HW2 6840   2.454   0.520   2.576
 1981SOL     OW 6841   5.818   3.148   3.002
 1981SOL    HW1 6842   5.869   3.224   3.041
 1981SOL    HW2 6843   5.855   3.061   3.036
 1982SOL     OW 6844   0.383   0.142   4.983
 1982SOL    HW1 6845   0.473   0.171   5.016
 1982SOL    HW2 6846   0.381   0.043   4.975
 1983SOL     OW 6847   1.248   5.239   1.549
 1983SOL    HW1 6848   1.320   5.173   1.570
 1983SOL    HW2 6849   1.278   5.331   1.574
 1984SOL     OW 6850   4.089   0.291   5.568
 1984SOL    HW1 6851   4.064   0.356   5.496
 1984SOL    HW2 6852   4.042   0.204   5.553
 1985SOL     OW 6853   1.286   4.822   2.113
 1985SOL    HW1 6854   1.237   4.857   2.193
 1985SOL    HW2 6855   1.294   4.895   2.045
 1986SOL     OW 6856   5.443   2.048   1.334
 1986SOL    HW1 6857   5.439   2.111   1.412
 1986SOL    HW2 6858   5.502   1.970   1.357
 1987SOL     OW 6859   1.895   2.917   0.678
 1987SOL    HW1 6860   1.808   2.967   0.673
 1987SOL    HW2 6861   1.950   2.954   0.753
 1988SOL     OW 6862   5.289   2.728   1.194
 1988SOL    HW1 6863   5.192   2.750   1.189
 1988SOL    HW2 6864   5.301   2.638   1.237
 1989SOL     OW 6865   2.585   2.521   3.118
 1989SOL    HW1 6866   2.620   2.609   3.086
 1989SOL    HW2 6867   2.631   2.447   3.068
 1990SOL     OW 6868   1.610   6.686   3.061
 1990SOL    HW1 6869   1.650   6.751   2.996
 1990SOL    HW2 6870   1.523   6.654   3.025
 1991SOL     OW 6871   5.019   5.559   2.614
 1991SOL    HW1 6872   4.945   5.516   2.562
 1991SOL    HW2 6873   5.103   5.558   2.561
 1992SOL     OW 6874   2.531   5.733   4.979
 1992SOL    HW1 6875   2.585   5.709   4.899
 1992SOL    HW2 6876   2.468   5.659   5.002
 1993SOL     OW 6877   3.295   3.628   4.033
 1993SOL    HW1 6878   3.281   3.546   3.978
 1993SOL    HW2 6879   3.326   3.602   4.124
 1994SOL     OW 6880   6.451   2.220   1.146
 1994SOL    HW1 6881   6.429   2.285   1.219
 1994SOL    HW2 6882   6.467   2.270   1.061
 1995SOL     OW 6883   4.031   2.918   1.466
 1995SOL    HW1 6884   3.996   2.925   1.372
 1995SOL    HW2 6885   4.089   2.998   1.485
 1996SOL     OW 6886   2.161   5.779   6.168
 1996SOL    HW1 6887   2.254   5.743   6.164
 1996SOL    HW2 6888   2.151   5.853   6.101
 1997SOL     OW 6889   5.769   6.370   5.119
 1997SOL    HW1 6890   5.682   6.392   5.163
 1997SOL    HW2 6891   5.838   6.436   5.147
 1998SOL     OW 6892   3.527   4.958   4.770
 1998SOL    HW1 6893   3.511   4.988   4.864
 1998SOL    HW2 6894   3.598   4.887   4.769
 1999SOL     OW 6895   3.485   0.464   2.119
 1999SOL    HW1 6896   3.401   0.516   2.103
 1999SOL    HW2 6897   3.524   0.491   2.208
 2000SOL     OW 6898   3.206   1.098   6.510
 2000SOL    HW1 6899   3.110   1.075   6.525
 2000SOL    HW2 6900   3.250   1.111   6.599
 2001SOL     OW 6901   2.214   3.161   6.827
 2001SOL    HW1 6902   2.235   3.088   6.762
 2001SOL    HW2 6903   2.139   3.217   6.792
 2002SOL     OW 6904   2.493   5.004   5.128
 2002SOL    HW1 6905   2.453   4.975   5.214
 2002SOL    HW2 6906   2.584   4.965   5.118
 2003SOL     OW 6907   5.995   4.231   4.144
 2003SOL    HW1 6908   5.976   4.191   4.233
 2003SOL    HW2 6909   6.072   4.295   4.152
 2004SOL     OW 6910   3.031   0.170   6.489
 2004SOL    HW1 6911   3.097   0.098   6.468
 2004SOL    HW2 6912   3.034   0.240   6.419
 2005SOL     OW 6913   2.436   6.878   5.559
 2005SOL    HW1 6914   2.489   6.846   5.637
 2005SOL    HW2 6915   2.483   6.956   5.517
 2006SOL     OW 6916   4.605   0.501   2.147
 2006SOL    HW1 6917   4.517   0.548   2.140
 2006SOL    HW2 6918   4.623   0.453   2.061
 2007SOL     OW 6919   6.110   5.799   0.507
 2007SOL    HW1 6920   6.047   5.870   0.539
 2007SOL    HW2 6921   6.177   5.780   0.578
 2008SOL     OW 6922   0.320   5.740   5.651
 2008SOL    HW1 6923   0.223   5.757   5.666
 2008SOL    HW2 6924   0.355   5.681   5.724
 2009SOL     OW 6925   1.041   0.166   0.237
 2009SOL    HW1 6926   1.014   0.260   0.260
 2009SOL    HW2 6927   1.087   0.124   0.315
 2010SOL     OW 6928   2.939   0.919   0.652
 2010SOL    HW1 6929   2.920   0.831   0.696
 2010SOL    HW2 6930   3.037   0.937   0.653
 2011SOL     OW 6931   0.117   1.900   4.822
 2011SOL    HW1 6932   0.151   1.986   4.785
 2011SOL    HW2 6933   0.116   1.904   4.922
 2012SOL     OW 6934   0.144   3.291   2.027
 2012SOL    HW1 6935   0.065   3.250   1.983
 2012SOL    HW2 6936   0.114   3.367   2.084
 2013SOL     OW 6937   3.408   2.274   1.769
 2013SOL    HW1 6938   3.410   2.203   1.839
 2013SOL    HW2 6939   3.491   2.329   1.774
 2014SOL     OW 6940   3.858   4.905   3.674
 2014SOL    HW1 6941   3.844   4.900   3.773
 2014SOL    HW2 6942   3.941   4.855   3.650
 2015SOL     OW 6943   2.595   5.421   6.888
 2015SOL    HW1 6944   2.633   5.340   6.843
 2015SOL    HW2 6945   2.607   5.500   6.830
 2016SOL     OW 6946   6.712   5.714   4.811
 2016SOL    HW1 6947   6.713   5.617   4.835
 2016SOL    HW2 6948   6.634   5.733   4.751
 2017SOL     OW 6949   2.262   4.718   2.056
 2017SOL    HW1 6950   2.323   4.779   2.107
 2017SOL    HW2 6951   2.260   4.746   1.960
 2018SOL     OW 6952   0.216   4.636   4.633
 2018SOL    HW1 6953   0.290   4.570   4.650
 2018SOL    HW2 6954   0.176   4.618   4.543
 2019SOL     OW 6955   5.462   0.975   2.651
 2019SOL    HW1 6956   5.507   0.976   2.740
 2019SOL    HW2 6957   5.396   0.899   2.648
 2020SOL     OW 6958   2.149   5.063   3.109
 2020SOL    HW1 6959   2.079   4.992   3.102
 2020SOL    HW2 6960   2.143   5.125   3.031
 2021SOL     OW 6961   1.453   6.130   1.561
 2021SOL    HW1 6962   1.479   6.158   1.468
 2021SOL    HW2 6963   1.430   6.033   1.561
 2022SOL     OW 6964   4.081   5.280   1.528
 2022SOL    HW1 6965   4.029   5.204   1.567
 2022SOL    HW2 6966   4.163   5.245   1.482
 2023SOL     OW 6967   0.417   2.498   6.283
 2023SOL    HW1 6968   0.323   2.478   6.255
 2023SOL    HW2 6969   0.470   2.414   6.283
 2024SOL     OW 6970   5.459   6.436   3.601
 2024SOL    HW1 6971   5.498   6.524   3.575
 2024SOL    HW2 6972   5.384   6.452   3.666
 2025SOL     OW 6973   6.159   0.867   0.987
 2025SOL    HW1 6974   6.248   0.850   1.029
 2025SOL    HW2 6975   6.095   0.901   1.057
 2026SOL     OW 6976   2.430   1.982   4.973
 2026SOL    HW1 6977   2.348   1.996   4.918
 2026SOL    HW2 6978   2.472   2.070   4.994
 2027SOL     OW 6979   6.234   6.642   2.310
 2027SOL    HW1 6980   6.291   6.603   2.382
 2027SOL    HW2 6981   6.208   6.571   2.245
 2028SOL     OW 6982   3.683   4.147   5.544
 2028SOL    HW1 6983   3.702   4.133   5.447
 2028SOL    HW2 6984   3.760   4.112   5.598
 2029SOL     OW 6985   2.222   0.238   6.545
 2029SOL    HW1 6986   2.294   0.210   6.481
 2029SOL    HW2 6987   2.260   0.300   6.614
 2030SOL     OW 6988   2.130   2.403   3.072
 2030SOL    HW1 6989   2.180   2.364   3.149
 2030SOL    HW2 6990   2.171   2.491   3.046
 2031SOL     OW 6991   6.098   0.086   2.679
 2031SOL    HW1 6992   6.011   0.073   2.726
 2031SOL    HW2 6993   6.083   0.090   2.580
 2032SOL     OW 6994   4.350   6.423   2.500
 2032SOL    HW1 6995   4.292   6.427   2.419
 2032SOL    HW2 6996   4.297   6.453   2.580
 2033SOL     OW 6997   0.393   4.783   0.122
 2033SOL    HW1 6998   0.356   4.747   0.036
 2033SOL    HW2 6999   0.317   4.807   0.183
 2034SOL     OW 7000   1.982   5.366   3.782
 2034SOL    HW1 7001   1.955   5.319   3.867
 2034SOL    HW2 7002   2.065   5.324   3.746
 2035SOL     OW 7003   0.580   0.494   2.511
 2035SOL    HW1 7004   0.660   0.461   2.562
 2035SOL    HW2 7005   0.582   0.594   2.506
 2036SOL     OW 7006   0.921   4.818   2.044
 2036SOL    HW1 7007   0.929   4.805   2.143
 2036SOL    HW2 7008   0.982   4.754   1.998
 2037SOL     OW 7009   0.789   3.270   6.005
 2037SOL    HW1 7010   0.737   3.190   6.033
 2037SOL    HW2 7011   0.779   3.342   6.073
 2038SOL     OW 7012   1.487   6.639   4.856
 2038SOL    HW1 7013   1.390   6.628   4.835
 2038SOL    HW2 7014   1.539   6.645   4.770
 2039SOL     OW 7015   1.318   5.001   1.933
 2039SOL    HW1 7016   1.258   5.077   1.910
 2039SOL    HW2 7017   1.408   5.015   1.892
 2040SOL     OW 7018   3.843   3.293   4.578
 2040SOL    HW1 7019   3.912   3.356   4.542
 2040SOL    HW2 7020   3.884   3.237   4.650
 2041SOL     OW 7021   5.298   2.901   0.173
 2041SOL    HW1 7022   5.310   2.829   0.242
 2041SOL    HW2 7023   5.213   2.950   0.191
 2042SOL     OW 7024   4.209   6.565   0.486
 2042SOL    HW1 7025   4.226   6.560   0.387
 2042SOL    HW2 7026   4.230   6.658   0.518
 2043SOL     OW 7027   5.029   5.265   2.957
 2043SOL    HW1 7028   5.098   5.280   2.886
 2043SOL    HW2 7029   5.072   5.277   3.047
 2044SOL     OW 7030   6.030   1.431   1.790
 2044SOL    HW1 7031   5.965   1.355   1.786
 2044SOL    HW2 7032   6.117   1.402   1.750
 2045SOL     OW 7033   3.462   6.439   5.511
 2045SOL    HW1 7034   3.496   6.345   5.517
 2045SOL    HW2 7035   3.414   6.463   5.596
 2046SOL     OW 7036   6.722   1.065   4.756
 2046SOL    HW1 7037   6.804   1.122   4.761
 2046SOL    HW2 7038   6.748   0.969   4.746
 2047SOL     OW 7039   5.479   3.462   6.965
 2047SOL    HW1 7040   5.489   3.557   6.935
 2047SOL    HW2 7041   5.431   3.460   0.024
 2048SOL     OW 7042   4.730   5.954   5.818
 2048SOL    HW1 7043   4.767   5.932   5.908
 2048SOL    HW2 7044   4.740   5.875   5.757
 2049SOL     OW 7045   5.532   5.864   6.937
 2049SOL    HW1 7046   5.588   5.782   6.952
 2049SOL    HW2 7047   5.477   5.883   7.018
 2050SOL     OW 7048   5.507   1.183   4.598
 2050SOL    HW1 7049   5.500   1.223   4.507
 2050SOL    HW2 7050   5.441   1.226   4.659
 2051SOL     OW 7051   3.286   6.075   0.796
 2051SOL    HW1 7052   3.318   6.072   0.891
 2051SOL    HW2 7053   3.322   6.157   0.751
 2052SOL     OW 7054   1.169   2.257   1.191
 2052SOL    HW1 7055   1.150   2.172   1.142
 2052SOL    HW2 7056   1.266   2.278   1.184
 2053SOL     OW 7057   5.157   0.282   6.967
 2053SOL    HW1 7058   5.165   0.273   6.867
 2053SOL    HW2 7059   5.194   0.371   6.995
 2054SOL     OW 7060   0.788   3.011   0.752
 2054SOL    HW1 7061   0.727   2.961   0.813
 2054SOL    HW2 7062   0.877   2.967   0.749
 2055SOL     OW 7063   6.222   1.285   4.585
 2055SOL    HW1 7064   6.190   1.306   4.678
 2055SOL    HW2 7065   6.178   1.346   4.520
 2056SOL     OW 7066   6.856   6.601   2.446
 2056SOL    HW1 7067   6.945   6.647   2.448
 2056SOL    HW2 7068   6.855   6.534   2.372
 2057SOL     OW 7069   5.042   2.920   3.560
 2057SOL    HW1 7070   4.977   2.855   3.520
 2057SOL    HW2 7071   5.011   2.949   3.650
 2058SOL     OW 7072   1.222   1.013   1.983
 2058SOL    HW1 7073   1.231   0.929   2.037
 2058SOL    HW2 7074   1.234   0.991   1.886
 2059SOL     OW 7075   1.607   0.357   0.288
 2059SOL    HW1 7076   1.556   0.271   0.284
 2059SOL    HW2 7077   1.576   0.418   0.215
 2060SOL     OW 7078   0.640   4.787   3.428
 2060SOL    HW1 7079   0.709   4.770   3.499
 2060SOL    HW2 7080   0.549   4.768   3.464
 2061SOL     OW 7081   0.952   0.990   0.629
 2061SOL    HW1 7082   0.992   1.081   0.622
 2061SOL    HW2 7083   0.949   0.948   0.538
 2062SOL     OW 7084   3.634   0.086   3.231
 2062SOL    HW1 7085   3.551   0.034   3.209
 2062SOL    HW2 7086   3.639   0.167   3.172
 2063SOL     OW 7087   2.548   3.122   0.885
 2063SOL    HW1 7088   2.542   3.180   0.803
 2063SOL    HW2 7089   2.509   3.171   0.963
 2064SOL     OW 7090   0.658   2.135   1.228
 2064SOL    HW1 7091   0.630   2.078   1.151
 2064SOL    HW2 7092   0.645   2.232   1.205
 2065SOL     OW 7093   6.721   2.947   3.062
 2065SOL    HW1 7094   6.659   3.018   3.028
 2065SOL    HW2 7095   6.694   2.858   3.024
 2066SOL     OW 7096   0.858   5.341   3.373
 2066SOL    HW1 7097   0.927   5.292   3.321
 2066SOL    HW2 7098   0.784   5.278   3.398
 2067SOL     OW 7099   6.550   0.590   0.719
 2067SOL    HW1 7100   6.616   0.524   0.682
 2067SOL    HW2 7101   6.564   0.600   0.817
 2068SOL     OW 7102   2.643   2.039   5.265
 2068SOL    HW1 7103   2.713   1.972   5.239
 2068SOL    HW2 7104   2.629   2.103   5.189
 2069SOL     OW 7105   2.014   1.611   1.733
 2069SOL    HW1 7106   1.943   1.644   1.670
 2069SOL    HW2 7107   2.022   1.674   1.810
 2070SOL     OW 7108   1.137   2.114   2.836
 2070SOL    HW1 7109   1.074   2.148   2.905
 2070SOL    HW2 7110   1.112   2.152   2.746
 2071SOL     OW 7111   2.678   6.142   5.892
 2071SOL    HW1 7112   2.692   6.216   5.826
 2071SOL    HW2 7113   2.581   6.116   5.892
 2072SOL     OW 7114   5.704   4.374   2.878
 2072SOL    HW1 7115   5.640   4.336   2.811
 2072SOL    HW2 7116   5.771   4.305   2.904
 2073SOL     OW 7117   3.367   6.926   5.179
 2073SOL    HW1 7118   3.283   6.938   5.127
 2073SOL    HW2 7119   3.423   6.855   5.135
 2074SOL     OW 7120   4.486   2.162   3.434
 2074SOL    HW1 7121   4.413   2.142   3.369
 2074SOL    HW2 7122   4.551   2.086   3.436
 2075SOL     OW 7123   3.342   2.923   5.833
 2075SOL    HW1 7124   3.405   2.950   5.760
 2075SOL    HW2 7125   3.394   2.894   5.913
 2076SOL     OW 7126   4.966   6.244   0.019
 2076SOL    HW1 7127   4.911   6.225   0.100
 2076SOL    HW2 7128   4.948   6.176   6.977
 2077SOL     OW 7129   3.578   1.176   4.916
 2077SOL    HW1 7130   3.618   1.245   4.856
 2077SOL    HW2 7131   3.503   1.215   4.968
 2078SOL     OW 7132   4.109   6.356   4.286
 2078SOL    HW1 7133   4.016   6.331   4.312
 2078SOL    HW2 7134   4.142   6.428   4.347
 2079SOL     OW 7135   5.417   6.960   3.475
 2079SOL    HW1 7136   5.423   6.981   3.377
 2079SOL    HW2 7137   5.499   6.994   3.521
 2080SOL     OW 7138   3.198   1.596   2.465
 2080SOL    HW1 7139   3.111   1.568   2.425
 2080SOL    HW2 7140   3.184   1.623   2.560
 2081SOL     OW 7141   1.479   5.570   2.617
 2081SOL    HW1 7142   1.387   5.603   2.595
 2081SOL    HW2 7143   1.492   5.575   2.716
 2082SOL     OW 7144   5.132   1.099   3.190
 2082SOL    HW1 7145   5.046   1.150   3.201
 2082SOL    HW2 7146   5.124   1.012   3.238
 2083SOL     OW 7147   3.329   3.725   6.369
 2083SOL    HW1 7148   3.312   3.651   6.304
 2083SOL    HW2 7149   3.417   3.710   6.415
 2084SOL     OW 7150   0.221   2.111   3.401
 2084SOL    HW1 7151   0.279   2.144   3.475
 2084SOL    HW2 7152   0.259   2.141   3.313
 2085SOL     OW 7153   5.801   6.969   0.764
 2085SOL    HW1 7154   5.833   6.887   0.812
 2085SOL    HW2 7155   5.879   0.002   0.748
 2086SOL     OW 7156   3.358   6.412   7.027
 2086SOL    HW1 7157   3.393   6.505   7.016
 2086SOL    HW2 7158   3.258   6.412   7.021
 2087SOL     OW 7159   6.345   5.790   2.457
 2087SOL    HW1 7160   6.374   5.716   2.397
 2087SOL    HW2 7161   6.253   5.772   2.492
 2088SOL     OW 7162   2.175   6.221   1.003
 2088SOL    HW1 7163   2.099   6.181   0.952
 2088SOL    HW2 7164   2.165   6.320   1.006
 2089SOL     OW 7165   2.107   1.215   6.843
 2089SOL    HW1 7166   2.105   1.300   6.792
 2089SOL    HW2 7167   2.201   1.181   6.848
 2090SOL     OW 7168   2.900   3.525   3.400
 2090SOL    HW1 7169   2.922   3.594   3.331
 2090SOL    HW2 7170   2.855   3.569   3.478
 2091SOL     OW 7171   2.376   3.940   1.097
 2091SOL    HW1 7172   2.373   3.976   1.004
 2091SOL    HW2 7173   2.471   3.934   1.128
 2092SOL     OW 7174   5.800   0.014   0.305
 2092SOL    HW1 7175   5.875   0.074   0.332
 2092SOL    HW2 7176   5.790   0.016   0.205
 2093SOL     OW 7177   0.975   1.718   2.210
 2093SOL    HW1 7178   0.954   1.620   2.217
 2093SOL    HW2 7179   1.010   1.751   2.297
 2094SOL     OW 7180   0.138   1.054   2.245
 2094SOL    HW1 7181   0.219   1.108   2.224
 2094SOL    HW2 7182   0.130   1.042   2.344
 2095SOL     OW 7183   7.000   4.531   4.866
 2095SOL    HW1 7184   6.960   4.481   4.790
 2095SOL    HW2 7185   6.965   4.625   4.867
 2096SOL     OW 7186   5.228   4.651   3.713
 2096SOL    HW1 7187   5.302   4.634   3.778
 2096SOL    HW2 7188   5.197   4.745   3.721
 2097SOL     OW 7189   6.797   3.129   5.125
 2097SOL    HW1 7190   6.873   3.137   5.188
 2097SOL    HW2 7191   6.716   3.096   5.174
 2098SOL     OW 7192   4.787   0.623   4.744
 2098SOL    HW1 7193   4.887   0.628   4.753
 2098SOL    HW2 7194   4.749   0.575   4.823
 2099SOL     OW 7195   3.266   2.014   3.940
 2099SOL    HW1 7196   3.330   2.055   3.874
 2099SOL    HW2 7197   3.308   2.014   4.031
 2100SOL     OW 7198   4.406   4.466   5.660
 2100SOL    HW1 7199   4.360   4.409   5.728
 2100SOL    HW2 7200   4.390   4.427   5.569
 2101SOL     OW 7201   5.450   0.111   1.734
 2101SOL    HW1 7202   5.406   0.102   1.645
 2101SOL    HW2 7203   5.545   0.140   1.722
 2102SOL     OW 7204   6.874   5.089   0.931
 2102SOL    HW1 7205   6.796   5.130   0.883
 2102SOL    HW2 7206   6.842   5.051   1.019
 2103SOL     OW 7207   3.892   3.679   6.834
 2103SOL    HW1 7208   3.959   3.744   6.798
 2103SOL    HW2 7209   3.937   3.593   6.857
 2104SOL     OW 7210   0.307   5.222   6.694
 2104SOL    HW1 7211   0.321   5.294   6.763
 2104SOL    HW2 7212   0.312   5.132   6.737
 2105SOL     OW 7213   5.002   5.607   2.154
 2105SOL    HW1 7214   5.077   5.544   2.132
 2105SOL    HW2 7215   5.031   5.670   2.225
 2106SOL     OW 7216   6.207   6.610   6.405
 2106SOL    HW1 7217   6.234   6.696   6.361
 2106SOL    HW2 7218   6.122   6.625   6.456
 2107SOL     OW 7219   2.978   4.976   6.810
 2107SOL    HW1 7220   3.044   4.902   6.824
 2107SOL    HW2 7221   2.916   4.981   6.888
 2108SOL     OW 7222   5.748   4.597   6.798
 2108SOL    HW1 7223   5.710   4.634   6.882
 2108SOL    HW2 7224   5.713   4.505   6.783
 2109SOL     OW 7225   5.252   5.730   2.775
 2109SOL    HW1 7226   5.168   5.717   2.722
 2109SOL    HW2 7227   5.328   5.748   2.713
 2110SOL     OW 7228   1.392   5.410   5.522
 2110SOL    HW1 7229   1.480   5.450   5.549
 2110SOL    HW2 7230   1.400   5.371   5.430
 2111SOL     OW 7231   1.407   1.774   6.824
 2111SOL    HW1 7232   1.483   1.839   6.832
 2111SOL    HW2 7233   1.369   1.756   6.914
 2112SOL     OW 7234   5.103   3.969   0.030
 2112SOL    HW1 7235   5.038   4.045   0.015
 2112SOL    HW2 7236   5.115   3.955   0.128
 2113SOL     OW 7237   6.857   1.163   3.640
 2113SOL    HW1 7238   6.899   1.190   3.727
 2113SOL    HW2 7239   6.908   1.085   3.602
 2114SOL     OW 7240   1.191   3.885   5.800
 2114SOL    HW1 7241   1.122   3.866   5.870
 2114SOL    HW2 7242   1.146   3.926   5.720
 2115SOL     OW 7243   4.102   4.940   1.591
 2115SOL    HW1 7244   4.148   4.951   1.502
 2115SOL    HW2 7245   4.048   4.856   1.590
 2116SOL     OW 7246   0.529   3.721   4.671
 2116SOL    HW1 7247   0.437   3.699   4.637
 2116SOL    HW2 7248   0.527   3.728   4.771
 2117SOL     OW 7249   5.682   5.404   6.320
 2117SOL    HW1 7250   5.721   5.410   6.412
 2117SOL    HW2 7251   5.591   5.365   6.324
 2118SOL     OW 7252   0.254   3.055   2.083
 2118SOL    HW1 7253   0.334   3.032   2.028
 2118SOL    HW2 7254   0.215   3.141   2.052
 2119SOL     OW 7255   4.186   6.515   0.186
 2119SOL    HW1 7256   4.157   6.420   0.202
 2119SOL    HW2 7257   4.261   6.517   0.120
 2120SOL     OW 7258   6.626   3.741   1.945
 2120SOL    HW1 7259   6.531   3.730   1.915
 2120SOL    HW2 7260   6.630   3.742   2.044
 2121SOL     OW 7261   0.795   3.630   4.036
 2121SOL    HW1 7262   0.749   3.717   4.015
 2121SOL    HW2 7263   0.755   3.592   4.120
 2122SOL     OW 7264   3.874   5.423   5.818
 2122SOL    HW1 7265   3.900   5.514   5.787
 2122SOL    HW2 7266   3.793   5.392   5.768
 2123SOL     OW 7267   4.017   6.034   3.216
 2123SOL    HW1 7268   3.950   6.069   3.151
 2123SOL    HW2 7269   4.016   6.090   3.299
 2124SOL     OW 7270   2.506   2.661   1.851
 2124SOL    HW1 7271   2.558   2.659   1.936
 2124SOL    HW2 7272   2.447   2.580   1.846
 2125SOL     OW 7273   5.172   6.041   6.486
 2125SOL    HW1 7274   5.220   6.127   6.502
 2125SOL    HW2 7275   5.235   5.976   6.442
 2126SOL     OW 7276   2.805   1.929   1.093
 2126SOL    HW1 7277   2.752   1.999   1.141
 2126SOL    HW2 7278   2.871   1.888   1.156
 2127SOL     OW 7279   6.175   2.446   4.688
 2127SOL    HW1 7280   6.138   2.413   4.601
 2127SOL    HW2 7281   6.248   2.512   4.670
 2128SOL     OW 7282   1.304   3.706   4.459
 2128SOL    HW1 7283   1.296   3.653   4.375
 2128SOL    HW2 7284   1.259   3.657   4.534
 2129SOL     OW 7285   4.537   2.542   5.405
 2129SOL    HW1 7286   4.483   2.570   5.484
 2129SOL    HW2 7287   4.479   2.487   5.344
 2130SOL     OW 7288   4.160   6.409   2.738
 2130SOL    HW1 7289   4.228   6.336   2.729
 2130SOL    HW2 7290   4.103   6.392   2.818
 2131SOL     OW 7291   4.892   1.981   0.184
 2131SOL    HW1 7292   4.860   2.075   0.167
 2131SOL    HW2 7293   4.839   1.918   0.128
 2132SOL     OW 7294   0.450   2.354   1.113
 2132SOL    HW1 7295   0.456   2.344   1.014
 2132SOL    HW2 7296   0.492   2.440   1.141
 2133SOL     OW 7297   2.233   4.065   6.202
 2133SOL    HW1 7298   2.256   4.114   6.118
 2133SOL    HW2 7299   2.264   3.971   6.196
 2134SOL     OW 7300   0.100   0.181   0.931
 2134SOL    HW1 7301   0.025   0.246   0.939
 2134SOL    HW2 7302   0.187   0.228   0.946
 2135SOL     OW 7303   5.869   5.217   6.122
 2135SOL    HW1 7304   5.777   5.177   6.117
 2135SOL    HW2 7305   5.900   5.217   6.216
 2136SOL     OW 7306   1.641   4.626   6.456
 2136SOL    HW1 7307   1.696   4.585   6.383
 2136SOL    HW2 7308   1.702   4.664   6.526
 2137SOL     OW 7309   2.034   6.000   3.481
 2137SOL    HW1 7310   2.025   6.018   3.383
 2137SOL    HW2 7311   2.095   5.922   3.495
 2138SOL     OW 7312   5.104   1.965   1.702
 2138SOL    HW1 7313   5.039   1.992   1.631
 2138SOL    HW2 7314   5.158   1.887   1.670
 2139SOL     OW 7315   2.285   6.275   4.926
 2139SOL    HW1 7316   2.217   6.203   4.935
 2139SOL    HW2 7317   2.320   6.299   5.017
 2140SOL     OW 7318   2.129   2.735   3.463
 2140SOL    HW1 7319   2.040   2.693   3.480
 2140SOL    HW2 7320   2.130   2.827   3.502
 2141SOL     OW 7321   6.446   3.628   2.669
 2141SOL    HW1 7322   6.535   3.629   2.625
 2141SOL    HW2 7323   6.438   3.709   2.729
 2142SOL     OW 7324   2.322   1.525   1.617
 2142SOL    HW1 7325   2.298   1.621   1.631
 2142SOL    HW2 7326   2.239   1.471   1.603
 2143SOL     OW 7327   6.785   5.614   5.112
 2143SOL    HW1 7328   6.860   5.598   5.177
 2143SOL    HW2 7329   6.741   5.701   5.134
 2144SOL     OW 7330   5.549   4.553   3.027
 2144SOL    HW1 7331   5.547   4.535   3.125
 2144SOL    HW2 7332   5.617   4.495   2.983
 2145SOL     OW 7333   2.923   0.936   3.141
 2145SOL    HW1 7334   2.934   0.923   3.042
 2145SOL    HW2 7335   2.845   0.996   3.158
 2146SOL     OW 7336   2.276   1.182   0.156
 2146SOL    HW1 7337   2.361   1.232   0.177
 2146SOL    HW2 7338   2.260   1.113   0.226
 2147SOL     OW 7339   5.489   6.493   4.897
 2147SOL    HW1 7340   5.507   6.591   4.909
 2147SOL    HW2 7341   5.561   6.453   4.839
 2148SOL     OW 7342   2.106   2.519   5.189
 2148SOL    HW1 7343   2.164   2.480   5.118
 2148SOL    HW2 7344   2.135   2.613   5.207
 2149SOL     OW 7345   0.292   6.826   0.012
 2149SOL    HW1 7346   0.329   6.746   0.060
 2149SOL    HW2 7347   0.205   6.852   0.054
 2150SOL     OW 7348   1.276   2.619   0.394
 2150SOL    HW1 7349   1.290   2.597   0.297
 2150SOL    HW2 7350   1.277   2.535   0.447
 2151SOL     OW 7351   1.107   5.052   0.406
 2151SOL    HW1 7352   1.175   5.105   0.355
 2151SOL    HW2 7353   1.020   5.101   0.407
 2152SOL     OW 7354   5.461   6.172   3.697
 2152SOL    HW1 7355   5.463   6.272   3.686
 2152SOL    HW2 7356   5.540   6.132   3.650
 2153SOL     OW 7357   4.817   0.498   3.688
 2153SOL    HW1 7358   4.721   0.496   3.662
 2153SOL    HW2 7359   4.837   0.583   3.735
 2154SOL     OW 7360   1.909   6.177   1.831
 2154SOL    HW1 7361   1.953   6.238   1.766
 2154SOL    HW2 7362   1.969   6.165   1.911
 2155SOL     OW 7363   5.191   0.736   0.253
 2155SOL    HW1 7364   5.214   0.832   0.266
 2155SOL    HW2 7365   5.261   0.692   0.197
 2156SOL     OW 7366   6.129   1.477   4.389
 2156SOL    HW1 7367   6.141   1.547   4.319
 2156SOL    HW2 7368   6.047   1.498   4.443
 2157SOL     OW 7369   4.494   6.501   3.057
 2157SOL    HW1 7370   4.454   6.495   3.149
 2157SOL    HW2 7371   4.421   6.507   2.989
 2158SOL     OW 7372   3.421   0.516   6.930
 2158SOL    HW1 7373   3.410   0.615   6.926
 2158SOL    HW2 7374   3.332   0.474   6.949
 2159SOL     OW 7375   1.092   2.606   5.639
 2159SOL    HW1 7376   1.037   2.529   5.606
 2159SOL    HW2 7377   1.037   2.661   5.703
 2160SOL     OW 7378   5.978   6.893   6.399
 2160SOL    HW1 7379   6.069   6.935   6.388
 2160SOL    HW2 7380   5.966   6.821   6.330
 2161SOL     OW 7381   1.590   3.600   6.823
 2161SOL    HW1 7382   1.516   3.666   6.836
 2161SOL    HW2 7383   1.615   3.560   6.911
 2162SOL     OW 7384   1.391   6.611   0.179
 2162SOL    HW1 7385   1.325   6.562   0.236
 2162SOL    HW2 7386   1.471   6.635   0.233
 2163SOL     OW 7387   0.947   3.164   4.423
 2163SOL    HW1 7388   0.981   3.257   4.439
 2163SOL    HW2 7389   1.022   3.099   4.434
 2164SOL     OW 7390   1.744   4.300   1.953
 2164SOL    HW1 7391   1.779   4.391   1.975
 2164SOL    HW2 7392   1.754   4.283   1.855
 2165SOL     OW 7393   5.791   1.461   5.949
 2165SOL    HW1 7394   5.771   1.519   5.870
 2165SOL    HW2 7395   5.759   1.368   5.931
 2166SOL     OW 7396   6.227   2.264   2.560
 2166SOL    HW1 7397   6.297   2.204   2.597
 2166SOL    HW2 7398   6.268   2.327   2.494
 2167SOL     OW 7399   1.576   2.486   2.959
 2167SOL    HW1 7400   1.571   2.586   2.950
 2167SOL    HW2 7401   1.643   2.451   2.893
 2168SOL     OW 7402   1.451   2.004   4.269
 2168SOL    HW1 7403   1.483   1.998   4.364
 2168SOL    HW2 7404   1.453   2.100   4.239
 2169SOL     OW 7405   6.841   6.949   0.574
 2169SOL    HW1 7406   6.927   6.988   0.607
 2169SOL    HW2 7407   6.835   6.853   0.601
 2170SOL     OW 7408   1.778   3.170   6.207
 2170SOL    HW1 7409   1.811   3.113   6.132
 2170SOL    HW2 7410   1.732   3.250   6.170
 2171SOL     OW 7411   5.816   6.844   1.907
 2171SOL    HW1 7412   5.798   6.914   1.838
 2171SOL    HW2 7413   5.749   6.852   1.981
 2172SOL     OW 7414   2.417   2.473   4.629
 2172SOL    HW1 7415   2.494   2.464   4.566
 2172SOL    HW2 7416   2.450   2.476   4.723
 2173SOL     OW 7417   4.149   0.898   4.649
 2173SOL    HW1 7418   4.193   0.967   4.591
 2173SOL    HW2 7419   4.086   0.944   4.712
 2174SOL     OW 7420   5.070   6.657   6.034
 2174SOL    HW1 7421   5.090   6.651   5.936
 2174SOL    HW2 7422   4.973   6.676   6.047
 2175SOL     OW 7423   2.905   2.829   6.133
 2175SOL    HW1 7424   2.957   2.744   6.123
 2175SOL    HW2 7425   2.847   2.841   6.053
 2176SOL     OW 7426   6.732   1.067   2.573
 2176SOL    HW1 7427   6.699   1.082   2.666
 2176SOL    HW2 7428   6.657   1.083   2.508
 2177SOL     OW 7429   1.103   0.756   4.947
 2177SOL    HW1 7430   1.078   0.839   4.897
 2177SOL    HW2 7431   1.039   0.683   4.925
 2178SOL     OW 7432   2.100   3.654   2.052
 2178SOL    HW1 7433   2.152   3.569   2.046
 2178SOL    HW2 7434   2.002   3.634   2.053
 2179SOL     OW 7435   1.469   4.284   6.775
 2179SOL    HW1 7436   1.553   4.248   6.734
 2179SOL    HW2 7437   1.492   4.349   6.847
 2180SOL     OW 7438   0.148   4.873   2.232
 2180SOL    HW1 7439   0.232   4.910   2.191
 2180SOL    HW2 7440   0.113   4.800   2.173
 2181SOL     OW 7441   4.361   5.040   2.851
 2181SOL    HW1 7442   4.346   5.135   2.822
 2181SOL    HW2 7443   4.398   4.987   2.774
 2182SOL     OW 7444   0.473   6.823   1.163
 2182SOL    HW1 7445   0.493   6.921   1.164
 2182SOL    HW2 7446   0.387   6.807   1.210
 2183SOL     OW 7447   4.384   2.561   6.575
 2183SOL    HW1 7448   4.294   2.604   6.576
 2183SOL    HW2 7449   4.380   2.475   6.626
 2184SOL     OW 7450   6.459   2.944   7.003
 2184SOL    HW1 7451   6.460   3.036   6.966
 2184SOL    HW2 7452   6.549   2.923   0.015
 2185SOL     OW 7453   7.015   1.887   6.509
 2185SOL    HW1 7454   6.963   1.911   6.591
 2185SOL    HW2 7455   7.025   1.967   6.450
 2186SOL     OW 7456   6.824   6.122   5.888
 2186SOL    HW1 7457   6.786   6.059   5.956
 2186SOL    HW2 7458   6.910   6.160   5.922
 2187SOL     OW 7459   5.723   3.353   1.637
 2187SOL    HW1 7460   5.694   3.293   1.562
 2187SOL    HW2 7461   5.822   3.345   1.650
 2188SOL     OW 7462   2.736   2.010   0.668
 2188SOL    HW1 7463   2.688   2.010   0.755
 2188SOL    HW2 7464   2.751   2.105   0.638
 2189SOL     OW 7465   2.337   0.405   2.454
 2189SOL    HW1 7466   2.353   0.308   2.472
 2189SOL    HW2 7467   2.338   0.422   2.355
 2190SOL     OW 7468   6.968   4.612   1.420
 2190SOL    HW1 7469   6.887   4.654   1.461
 2190SOL    HW2 7470   6.955   4.605   1.321
 2191SOL     OW 7471   2.992   0.770   6.114
 2191SOL    HW1 7472   2.941   0.820   6.185
 2191SOL    HW2 7473   3.068   0.720   6.156
 2192SOL     OW 7474   5.274   1.593   1.915
 2192SOL    HW1 7475   5.278   1.520   1.983
 2192SOL    HW2 7476   5.302   1.680   1.957
 2193SOL     OW 7477   1.837   0.379   5.754
 2193SOL    HW1 7478   1.850   0.389   5.656
 2193SOL    HW2 7479   1.860   0.285   5.782
 2194SOL     OW 7480   0.500   4.534   5.680
 2194SOL    HW1 7481   0.434   4.461   5.697
 2194SOL    HW2 7482   0.541   4.562   5.767
 2195SOL     OW 7483   0.471   4.381   5.268
 2195SOL    HW1 7484   0.517   4.359   5.182
 2195SOL    HW2 7485   0.488   4.308   5.334
 2196SOL     OW 7486   3.769   1.777   6.669
 2196SOL    HW1 7487   3.783   1.872   6.698
 2196SOL    HW2 7488   3.754   1.774   6.570
 2197SOL     OW 7489   3.769   4.876   6.521
 2197SOL    HW1 7490   3.709   4.946   6.483
 2197SOL    HW2 7491   3.722   4.787   6.519
 2198SOL     OW 7492   1.134   1.087   6.042
 2198SOL    HW1 7493   1.220   1.130   6.017
 2198SOL    HW2 7494   1.153   1.005   6.097
 2199SOL     OW 7495   4.870   6.688   3.403
 2199SOL    HW1 7496   4.782   6.734   3.395
 2199SOL    HW2 7497   4.943   6.748   3.368
 2200SOL     OW 7498   2.831   1.834   5.172
 2200SOL    HW1 7499   2.883   1.783   5.241
 2200SOL    HW2 7500   2.888   1.845   5.090
 2201SOL     OW 7501   5.833   3.061   4.116
 2201SOL    HW1 7502   5.881   2.974   4.121
 2201SOL    HW2 7503   5.867   3.114   4.038
 2202SOL     OW 7504   4.759   6.864   4.553
 2202SOL    HW1 7505   4.788   6.790   4.492
 2202SOL    HW2 7506   4.774   6.837   4.648
 2203SOL     OW 7507   1.967   6.156   0.826
 2203SOL    HW1 7508   1.874   6.129   0.847
 2203SOL    HW2 7509   1.977   6.167   0.727
 2204SOL     OW 7510   4.857   3.852   0.254
 2204SOL    HW1 7511   4.943   3.899   0.273
 2204SOL    HW2 7512   4.832   3.796   0.333
 2205SOL     OW 7513   4.901   4.999   1.271
 2205SOL    HW1 7514   4.878   5.068   1.203
 2205SOL    HW2 7515   4.818   4.973   1.321
 2206SOL     OW 7516   2.869   3.571   5.076
 2206SOL    HW1 7517   2.828   3.598   4.989
 2206SOL    HW2 7518   2.859   3.646   5.142
 2207SOL     OW 7519   4.768   4.762   1.593
 2207SOL    HW1 7520   4.858   4.746   1.633
 2207SOL    HW2 7521   4.777   4.822   1.513
 2208SOL     OW 7522   6.609   5.717   3.234
 2208SOL    HW1 7523   6.655   5.667   3.161
 2208SOL    HW2 7524   6.592   5.811   3.205
 2209SOL     OW 7525   2.122   6.023   3.795
 2209SOL    HW1 7526   2.026   6.049   3.793
 2209SOL    HW2 7527   2.163   6.038   3.705
 2210SOL     OW 7528   5.340   6.399   2.006
 2210SOL    HW1 7529   5.322   6.494   1.978
 2210SOL    HW2 7530   5.399   6.399   2.087
 2211SOL     OW 7531   1.842   1.048   0.922
 2211SOL    HW1 7532   1.858   1.106   1.002
 2211SOL    HW2 7533   1.930   1.019   0.884
 2212SOL     OW 7534   2.831   6.544   5.941
 2212SOL    HW1 7535   2.881   6.461   5.966
 2212SOL    HW2 7536   2.735   6.534   5.963
 2213SOL     OW 7537   3.565   2.066   4.157
 2213SOL    HW1 7538   3.642   2.096   4.213
 2213SOL    HW2 7539   3.479   2.083   4.205
 2214SOL     OW 7540   3.948   4.720   7.023
 2214SOL    HW1 7541   4.024   4.785   7.019
 2214SOL    HW2 7542   3.871   4.762   0.043
 2215SOL     OW 7543   0.185   5.429   0.395
 2215SOL    HW1 7544   0.266   5.466   0.348
 2215SOL    HW2 7545   0.204   5.424   0.493
 2216SOL     OW 7546   0.012   5.995   0.263
 2216SOL    HW1 7547   0.019   5.924   0.333
 2216SOL    HW2 7548   6.988   6.072   0.298
 2217SOL     OW 7549   4.336   1.461   3.804
 2217SOL    HW1 7550   4.271   1.484   3.731
 2217SOL    HW2 7551   4.422   1.511   3.789
 2218SOL     OW 7552   5.798   4.998   6.489
 2218SOL    HW1 7553   5.733   4.957   6.425
 2218SOL    HW2 7554   5.860   5.058   6.439
 2219SOL     OW 7555   5.531   2.509   0.563
 2219SOL    HW1 7556   5.445   2.461   0.542
 2219SOL    HW2 7557   5.510   2.591   0.617
 2220SOL     OW 7558   6.591   0.055   4.752
 2220SOL    HW1 7559   6.564   6.988   4.737
 2220SOL    HW2 7560   6.516   0.105   4.795
 2221SOL     OW 7561   5.221   0.228   3.359
 2221SOL    HW1 7562   5.273   0.284   3.423
 2221SOL    HW2 7563   5.276   0.150   3.331
 2222SOL     OW 7564   3.966   0.534   4.310
 2222SOL    HW1 7565   4.025   0.477   4.367
 2222SOL    HW2 7566   3.925   0.606   4.366
 2223SOL     OW 7567   0.725   0.258   5.938
 2223SOL    HW1 7568   0.670   0.209   6.005
 2223SOL    HW2 7569   0.664   0.308   5.876
 2224SOL     OW 7570   4.755   5.250   6.186
 2224SOL    HW1 7571   4.659   5.275   6.192
 2224SOL    HW2 7572   4.780   5.234   6.091
 2225SOL     OW 7573   6.323   0.913   0.628
 2225SOL    HW1 7574   6.261   0.983   0.594
 2225SOL    HW2 7575   6.389   0.890   0.557
 2226SOL     OW 7576   2.727   3.235   6.473
 2226SOL    HW1 7577   2.721   3.290   6.390
 2226SOL    HW2 7578   2.818   3.195   6.480
 2227SOL     OW 7579   4.466   1.857   1.616
 2227SOL    HW1 7580   4.470   1.957   1.608
 2227SOL    HW2 7581   4.428   1.833   1.705
 2228SOL     OW 7582   4.800   6.645   6.920
 2228SOL    HW1 7583   4.815   6.743   6.938
 2228SOL    HW2 7584   4.702   6.626   6.922
 2229SOL     OW 7585   3.800   3.149   4.371
 2229SOL    HW1 7586   3.826   3.213   4.443
 2229SOL    HW2 7587   3.858   3.164   4.291
 2230SOL     OW 7588   0.203   1.944   6.667
 2230SOL    HW1 7589   0.132   1.886   6.628
 2230SOL    HW2 7590   0.220   1.917   6.762
 2231SOL     OW 7591   0.955   0.119   5.468
 2231SOL    HW1 7592   0.953   0.094   5.371
 2231SOL    HW2 7593   0.899   0.201   5.482
 2232SOL     OW 7594   1.094   0.782   0.070
 2232SOL    HW1 7595   1.002   0.759   0.104
 2232SOL    HW2 7596   1.157   0.707   0.089
 2233SOL     OW 7597   3.268   5.331   0.708
 2233SOL    HW1 7598   3.212   5.252   0.683
 2233SOL    HW2 7599   3.350   5.300   0.757
 2234SOL     OW 7600   5.304   1.850   1.970
 2234SOL    HW1 7601   5.349   1.857   1.881
 2234SOL    HW2 7602   5.205   1.845   1.957
 2235SOL     OW 7603   1.580   1.577   4.088
 2235SOL    HW1 7604   1.540   1.495   4.047
 2235SOL    HW2 7605   1.632   1.626   4.019
 2236SOL     OW 7606   3.026   5.128   5.151
 2236SOL    HW1 7607   3.012   5.100   5.056
 2236SOL    HW2 7608   3.116   5.098   5.182
 2237SOL     OW 7609   5.890   6.794   6.638
 2237SOL    HW1 7610   5.900   6.834   6.547
 2237SOL    HW2 7611   5.978   6.761   6.670
 2238SOL     OW 7612   4.824   3.927   1.603
 2238SOL    HW1 7613   4.733   3.902   1.635
 2238SOL    HW2 7614   4.839   4.025   1.619
 2239SOL     OW 7615   3.215   0.399   2.558
 2239SOL    HW1 7616   3.163   0.336   2.616
 2239SOL    HW2 7617   3.299   0.356   2.527
 2240SOL     OW 7618   4.309   5.261   3.084
 2240SOL    HW1 7619   4.368   5.332   3.121
 2240SOL    HW2 7620   4.308   5.267   2.984
 2241SOL     OW 7621   1.609   2.164   3.557
 2241SOL    HW1 7622   1.539   2.092   3.561
 2241SOL    HW2 7623   1.681   2.143   3.624
 2242SOL     OW 7624   5.351   2.292   4.008
 2242SOL    HW1 7625   5.442   2.327   3.985
 2242SOL    HW2 7626   5.322   2.227   3.939
 2243SOL     OW 7627   2.536   0.432   6.339
 2243SOL    HW1 7628   2.497   0.522   6.320
 2243SOL    HW2 7629   2.565   0.427   6.434
 2244SOL     OW 7630   2.420   1.915   1.160
 2244SOL    HW1 7631   2.508   1.955   1.184
 2244SOL    HW2 7632   2.349   1.954   1.218
 2245SOL     OW 7633   7.014   1.267   6.716
 2245SOL    HW1 7634   0.019   1.318   6.636
 2245SOL    HW2 7635   6.916   1.248   6.706
 2246SOL     OW 7636   5.545   0.539   6.043
 2246SOL    HW1 7637   5.625   0.535   5.984
 2246SOL    HW2 7638   5.525   0.448   6.080
 2247SOL     OW 7639   3.697   3.119   1.850
 2247SOL    HW1 7640   3.614   3.117   1.794
 2247SOL    HW2 7641   3.777   3.100   1.791
 2248SOL     OW 7642   4.870   3.079   4.155
 2248SOL    HW1 7643   4.852   3.069   4.058
 2248SOL    HW2 7644   4.952   3.028   4.180
 2249SOL     OW 7645   2.602   6.111   3.860
 2249SOL    HW1 7646   2.595   6.064   3.772
 2249SOL    HW2 7647   2.526   6.176   3.868
 2250SOL     OW 7648   3.921   5.652   6.116
 2250SOL    HW1 7649   3.867   5.674   6.197
 2250SOL    HW2 7650   3.969   5.565   6.129
 2251SOL     OW 7651   3.526   6.714   5.067
 2251SOL    HW1 7652   3.589   6.651   5.022
 2251SOL    HW2 7653   3.513   6.685   5.162
 2252SOL     OW 7654   3.625   1.864   2.657
 2252SOL    HW1 7655   3.572   1.817   2.727
 2252SOL    HW2 7656   3.600   1.829   2.567
 2253SOL     OW 7657   1.284   2.518   1.977
 2253SOL    HW1 7658   1.356   2.462   1.935
 2253SOL    HW2 7659   1.208   2.459   2.004
 2254SOL     OW 7660   3.463   2.822   2.585
 2254SOL    HW1 7661   3.511   2.841   2.500
 2254SOL    HW2 7662   3.512   2.753   2.637
 2255SOL     OW 7663   1.964   1.838   6.047
 2255SOL    HW1 7664   2.024   1.759   6.043
 2255SOL    HW2 7665   1.971   1.890   5.962
 2256SOL     OW 7666   5.112   6.892   0.631
 2256SOL    HW1 7667   5.029   6.853   0.671
 2256SOL    HW2 7668   5.088   6.948   0.552
 2257SOL     OW 7669   0.467   1.344   6.469
 2257SOL    HW1 7670   0.438   1.417   6.407
 2257SOL    HW2 7671   0.547   1.298   6.430
 2258SOL     OW 7672   1.663   0.680   3.911
 2258SOL    HW1 7673   1.663   0.778   3.932
 2258SOL    HW2 7674   1.708   0.665   3.823
 2259SOL     OW 7675   6.481   6.696   5.227
 2259SOL    HW1 7676   6.511   6.778   5.178
 2259SOL    HW2 7677   6.496   6.615   5.170
 2260SOL     OW 7678   0.842   3.179   1.149
 2260SOL    HW1 7679   0.888   3.095   1.120
 2260SOL    HW2 7680   0.864   3.253   1.085
 2261SOL     OW 7681   4.096   4.672   6.623
 2261SOL    HW1 7682   4.116   4.699   6.529
 2261SOL    HW2 7683   4.181   4.664   6.675
 2262SOL     OW 7684   6.943   0.387   3.420
 2262SOL    HW1 7685   6.917   0.292   3.437
 2262SOL    HW2 7686   6.973   0.430   3.505
 2263SOL     OW 7687   2.991   4.047   6.755
 2263SOL    HW1 7688   3.012   4.096   6.840
 2263SOL    HW2 7689   3.075   4.034   6.703
 2264SOL     OW 7690   1.963   0.407   6.601
 2264SOL    HW1 7691   1.979   0.444   6.692
 2264SOL    HW2 7692   2.035   0.341   6.578
 2265SOL     OW 7693   0.390   6.561   3.645
 2265SOL    HW1 7694   0.352   6.609   3.566
 2265SOL    HW2 7695   0.446   6.624   3.699
 2266SOL     OW 7696   3.991   3.902   6.665
 2266SOL    HW1 7697   4.032   3.842   6.596
 2266SOL    HW2 7698   4.046   3.984   6.676
 2267SOL     OW 7699   5.888   2.615   5.087
 2267SOL    HW1 7700   5.878   2.714   5.077
 2267SOL    HW2 7701   5.834   2.569   5.017
 2268SOL     OW 7702   0.809   6.233   4.272
 2268SOL    HW1 7703   0.898   6.268   4.243
 2268SOL    HW2 7704   0.773   6.289   4.346
 2269SOL     OW 7705   1.598   2.502   5.423
 2269SOL    HW1 7706   1.500   2.485   5.416
 2269SOL    HW2 7707   1.645   2.462   5.344
 2270SOL     OW 7708   4.215   2.050   6.533
 2270SOL    HW1 7709   4.131   2.103   6.539
 2270SOL    HW2 7710   4.201   1.971   6.473
 2271SOL     OW 7711   3.842   5.869   5.079
 2271SOL    HW1 7712   3.931   5.832   5.107
 2271SOL    HW2 7713   3.776   5.794   5.073
 2272SOL     OW 7714   5.853   0.720   5.851
 2272SOL    HW1 7715   5.773   0.766   5.889
 2272SOL    HW2 7716   5.907   0.680   5.925
 2273SOL     OW 7717   1.854   2.187   4.405
 2273SOL    HW1 7718   1.850   2.087   4.403
 2273SOL    HW2 7719   1.878   2.218   4.497
 2274SOL     OW 7720   1.390   0.768   0.748
 2274SOL    HW1 7721   1.444   0.736   0.670
 2274SOL    HW2 7722   1.448   0.821   0.810
 2275SOL     OW 7723   5.196   3.487   2.918
 2275SOL    HW1 7724   5.131   3.549   2.961
 2275SOL    HW2 7725   5.288   3.525   2.925
 2276SOL     OW 7726   1.891   1.310   1.428
 2276SOL    HW1 7727   1.876   1.253   1.347
 2276SOL    HW2 7728   1.807   1.315   1.481
 2277SOL     OW 7729   4.085   3.600   3.688
 2277SOL    HW1 7730   4.077   3.542   3.607
 2277SOL    HW2 7731   4.057   3.693   3.665
 2278SOL     OW 7732   6.247   3.579   3.956
 2278SOL    HW1 7733   6.255   3.679   3.960
 2278SOL    HW2 7734   6.336   3.538   3.976
 2279SOL     OW 7735   0.719   5.786   5.603
 2279SOL    HW1 7736   0.692   5.690   5.604
 2279SOL    HW2 7737   0.789   5.800   5.534
 2280SOL     OW 7738   5.168   3.077   5.387
 2280SOL    HW1 7739   5.077   3.109   5.412
 2280SOL    HW2 7740   5.189   3.108   5.294
 2281SOL     OW 7741   5.224   6.744   2.137
 2281SOL    HW1 7742   5.198   6.763   2.232
 2281SOL    HW2 7743   5.264   6.653   2.130
 2282SOL     OW 7744   3.501   5.312   5.953
 2282SOL    HW1 7745   3.429   5.330   6.020
 2282SOL    HW2 7746   3.589   5.339   5.991
 2283SOL     OW 7747   0.023   1.032   4.777
 2283SOL    HW1 7748   0.098   1.083   4.735
 2283SOL    HW2 7749   0.028   1.042   4.877
 2284SOL     OW 7750   1.704   4.289   6.048
 2284SOL    HW1 7751   1.650   4.205   6.057
 2284SOL    HW2 7752   1.801   4.264   6.039
 2285SOL     OW 7753   2.091   5.054   0.150
 2285SOL    HW1 7754   2.101   5.005   0.063
 2285SOL    HW2 7755   2.168   5.115   0.163
 2286SOL     OW 7756   4.796   4.686   2.595
 2286SOL    HW1 7757   4.816   4.698   2.692
 2286SOL    HW2 7758   4.744   4.601   2.581
 2287SOL     OW 7759   2.211   1.347   3.964
 2287SOL    HW1 7760   2.280   1.296   3.912
 2287SOL    HW2 7761   2.237   1.443   3.970
 2288SOL     OW 7762   6.553   4.487   3.017
 2288SOL    HW1 7763   6.595   4.448   3.099
 2288SOL    HW2 7764   6.615   4.555   2.978
 2289SOL     OW 7765   0.069   4.599   0.154
 2289SOL    HW1 7766   7.015   4.578   0.207
 2289SOL    HW2 7767   0.128   4.519   0.150
 2290SOL     OW 7768   0.569   5.543   0.034
 2290SOL    HW1 7769   0.664   5.511   0.043
 2290SOL    HW2 7770   0.550   5.566   6.967
 2291SOL     OW 7771   1.831   1.402   0.181
 2291SOL    HW1 7772   1.869   1.493   0.163
 2291SOL    HW2 7773   1.887   1.333   0.134
 2292SOL     OW 7774   2.310   0.632   4.744
 2292SOL    HW1 7775   2.355   0.704   4.690
 2292SOL    HW2 7776   2.227   0.669   4.785
 2293SOL     OW 7777   5.189   4.024   3.248
 2293SOL    HW1 7778   5.101   4.069   3.231
 2293SOL    HW2 7779   5.178   3.925   3.237
 2294SOL     OW 7780   3.918   0.302   6.902
 2294SOL    HW1 7781   3.978   0.225   6.924
 2294SOL    HW2 7782   3.919   0.318   6.803
 2295SOL     OW 7783   0.594   1.017   1.719
 2295SOL    HW1 7784   0.603   1.001   1.817
 2295SOL    HW2 7785   0.512   0.970   1.685
 2296SOL     OW 7786   3.426   6.707   6.526
 2296SOL    HW1 7787   3.413   6.613   6.495
 2296SOL    HW2 7788   3.441   6.707   6.625
 2297SOL     OW 7789   4.039   6.088   6.621
 2297SOL    HW1 7790   3.940   6.083   6.629
 2297SOL    HW2 7791   4.081   6.076   6.710
 2298SOL     OW 7792   4.755   2.809   6.452
 2298SOL    HW1 7793   4.784   2.759   6.534
 2298SOL    HW2 7794   4.794   2.767   6.371
 2299SOL     OW 7795   5.336   0.107   1.468
 2299SOL    HW1 7796   5.295   0.167   1.399
 2299SOL    HW2 7797   5.412   0.057   1.428
 2300SOL     OW 7798   0.885   4.295   1.316
 2300SOL    HW1 7799   0.947   4.273   1.241
 2300SOL    HW2 7800   0.824   4.217   1.333
 2301SOL     OW 7801   3.653   2.460   1.441
 2301SOL    HW1 7802   3.743   2.499   1.420
 2301SOL    HW2 7803   3.613   2.509   1.518
 2302SOL     OW 7804   3.266   5.568   2.870
 2302SOL    HW1 7805   3.167   5.578   2.869
 2302SOL    HW2 7806   3.290   5.471   2.877
 2303SOL     OW 7807   0.661   3.540   5.361
 2303SOL    HW1 7808   0.740   3.495   5.403
 2303SOL    HW2 7809   0.608   3.473   5.309
 2304SOL     OW 7810   2.085   1.139   4.440
 2304SOL    HW1 7811   2.064   1.218   4.382
 2304SOL    HW2 7812   2.062   1.055   4.391
 2305SOL     OW 7813   4.583   4.796   1.933
 2305SOL    HW1 7814   4.598   4.697   1.926
 2305SOL    HW2 7815   4.617   4.841   1.850
 2306SOL     OW 7816   6.874   5.088   0.499
 2306SOL    HW1 7817   6.803   5.130   0.555
 2306SOL    HW2 7818   6.877   4.990   0.516
 2307SOL     OW 7819   0.129   1.033   3.035
 2307SOL    HW1 7820   0.138   1.060   3.131
 2307SOL    HW2 7821   0.125   0.933   3.029
 2308SOL     OW 7822   0.709   0.538   0.292
 2308SOL    HW1 7823   0.652   0.534   0.374
 2308SOL    HW2 7824   0.784   0.473   0.301
 2309SOL     OW 7825   1.921   5.011   6.032
 2309SOL    HW1 7826   1.886   4.984   6.122
 2309SOL    HW2 7827   1.850   4.999   5.964
 2310SOL     OW 7828   5.727   1.368   3.539
 2310SOL    HW1 7829   5.673   1.307   3.596
 2310SOL    HW2 7830   5.737   1.329   3.447
 2311SOL     OW 7831   2.945   6.500   2.685
 2311SOL    HW1 7832   2.862   6.449   2.662
 2311SOL    HW2 7833   3.025   6.445   2.663
 2312SOL     OW 7834   2.679   0.047   1.785
 2312SOL    HW1 7835   2.734   0.066   1.704
 2312SOL    HW2 7836   2.735   0.002   1.855
 2313SOL     OW 7837   4.977   4.989   1.649
 2313SOL    HW1 7838   5.033   4.910   1.626
 2313SOL    HW2 7839   4.945   5.033   1.565
 2314SOL     OW 7840   0.408   6.521   2.974
 2314SOL    HW1 7841   0.429   6.433   3.016
 2314SOL    HW2 7842   0.309   6.532   2.967
 2315SOL     OW 7843   5.151   6.830   4.986
 2315SOL    HW1 7844   5.103   6.784   5.061
 2315SOL    HW2 7845   5.117   6.796   4.899
 2316SOL     OW 7846   4.000   2.649   6.553
 2316SOL    HW1 7847   3.924   2.714   6.542
 2316SOL    HW2 7848   4.045   2.635   6.465
 2317SOL     OW 7849   6.983   5.117   1.999
 2317SOL    HW1 7850   0.048   5.139   1.970
 2317SOL    HW2 7851   6.983   5.093   2.096
 2318SOL     OW 7852   1.580   4.893   3.574
 2318SOL    HW1 7853   1.601   4.881   3.477
 2318SOL    HW2 7854   1.614   4.982   3.605
 2319SOL     OW 7855   2.950   4.803   2.780
 2319SOL    HW1 7856   3.019   4.804   2.708
 2319SOL    HW2 7857   2.995   4.817   2.869
 2320SOL     OW 7858   2.041   2.052   5.006
 2320SOL    HW1 7859   1.954   2.008   4.987
 2320SOL    HW2 7860   2.034   2.150   4.986
 2321SOL     OW 7861   2.066   5.461   5.363
 2321SOL    HW1 7862   2.146   5.439   5.418
 2321SOL    HW2 7863   2.092   5.521   5.287
 2322SOL     OW 7864   1.779   3.283   1.819
 2322SOL    HW1 7865   1.863   3.268   1.767
 2322SOL    HW2 7866   1.744   3.195   1.852
 2323SOL     OW 7867   1.875   5.786   6.167
 2323SOL    HW1 7868   1.834   5.696   6.180
 2323SOL    HW2 7869   1.969   5.785   6.202
 2324SOL     OW 7870   6.564   4.605   2.294
 2324SOL    HW1 7871   6.655   4.646   2.291
 2324SOL    HW2 7872   6.495   4.676   2.307
 2325SOL     OW 7873   6.435   3.101   2.441
 2325SOL    HW1 7874   6.466   3.181   2.493
 2325SOL    HW2 7875   6.348   3.122   2.396
 2326SOL     OW 7876   2.132   0.122   0.149
 2326SOL    HW1 7877   2.122   0.102   0.052
 2326SOL    HW2 7878   2.121   0.220   0.165
 2327SOL     OW 7879   6.486   6.082   2.090
 2327SOL    HW1 7880   6.446   6.135   2.164
 2327SOL    HW2 7881   6.482   5.984   2.113
 2328SOL     OW 7882   1.692   3.871   2.421
 2328SOL    HW1 7883   1.687   3.940   2.349
 2328SOL    HW2 7884   1.719   3.783   2.382
 2329SOL     OW 7885   1.114   4.668   1.972
 2329SOL    HW1 7886   1.138   4.630   1.883
 2329SOL    HW2 7887   1.183   4.736   1.998
 2330SOL     OW 7888   5.806   3.568   2.062
 2330SOL    HW1 7889   5.743   3.637   2.027
 2330SOL    HW2 7890   5.801   3.566   2.162
 2331SOL     OW 7891   5.048   5.357   1.472
 2331SOL    HW1 7892   4.995   5.437   1.443
 2331SOL    HW2 7893   5.094   5.378   1.559
 2332SOL     OW 7894   6.167   0.021   6.307
 2332SOL    HW1 7895   6.161   0.048   6.211
 2332SOL    HW2 7896   6.116   0.086   6.363
 2333SOL     OW 7897   1.324   4.283   2.593
 2333SOL    HW1 7898   1.339   4.197   2.544
 2333SOL    HW2 7899   1.349   4.359   2.534
 2334SOL     OW 7900   3.544   1.237   5.694
 2334SOL    HW1 7901   3.479   1.298   5.649
 2334SOL    HW2 7902   3.494   1.161   5.736
 2335SOL     OW 7903   6.005   6.935   3.740
 2335SOL    HW1 7904   5.934   6.886   3.791
 2335SOL    HW2 7905   6.095   6.911   3.778
 2336SOL     OW 7906   2.028   2.334   2.603
 2336SOL    HW1 7907   1.986   2.425   2.597
 2336SOL    HW2 7908   2.125   2.344   2.626
 2337SOL     OW 7909   4.656   0.688   2.548
 2337SOL    HW1 7910   4.576   0.730   2.507
 2337SOL    HW2 7911   4.667   0.595   2.514
 2338SOL     OW 7912   6.672   3.971   4.050
 2338SOL    HW1 7913   6.588   4.011   4.014
 2338SOL    HW2 7914   6.726   3.934   3.974
 2339SOL     OW 7915   3.030   3.216   2.406
 2339SOL    HW1 7916   3.045   3.120   2.427
 2339SOL    HW2 7917   3.114   3.268   2.425
 2340SOL     OW 7918   1.801   4.075   6.416
 2340SOL    HW1 7919   1.865   4.152   6.422
 2340SOL    HW2 7920   1.801   4.039   6.323
 2341SOL     OW 7921   3.260   5.384   4.136
 2341SOL    HW1 7922   3.222   5.313   4.196
 2341SOL    HW2 7923   3.347   5.416   4.175
 2342SOL     OW 7924   3.709   1.550   4.322
 2342SOL    HW1 7925   3.717   1.454   4.294
 2342SOL    HW2 7926   3.745   1.609   4.249
 2343SOL     OW 7927   6.802   6.783   1.127
 2343SOL    HW1 7928   6.781   6.871   1.169
 2343SOL    HW2 7929   6.873   6.737   1.181
 2344SOL     OW 7930   6.117   4.430   6.963
 2344SOL    HW1 7931   6.100   4.474   6.875
 2344SOL    HW2 7932   6.164   4.343   6.949
 2345SOL     OW 7933   4.014   6.631   3.859
 2345SOL    HW1 7934   4.024   6.618   3.761
 2345SOL    HW2 7935   4.104   6.621   3.903
 2346SOL     OW 7936   4.731   3.678   0.420
 2346SOL    HW1 7937   4.770   3.604   0.474
 2346SOL    HW2 7938   4.644   3.649   0.380
 2347SOL     OW 7939   1.601   1.103   1.202
 2347SOL    HW1 7940   1.603   1.065   1.294
 2347SOL    HW2 7941   1.532   1.056   1.148
 2348SOL     OW 7942   0.332   5.781   2.605
 2348SOL    HW1 7943   0.372   5.726   2.678
 2348SOL    HW2 7944   0.232   5.776   2.611
 2349SOL     OW 7945   1.047   4.954   4.668
 2349SOL    HW1 7946   0.986   4.982   4.742
 2349SOL    HW2 7947   1.019   4.864   4.634
 2350SOL     OW 7948   5.547   4.073   0.470
 2350SOL    HW1 7949   5.503   4.163   0.471
 2350SOL    HW2 7950   5.643   4.083   0.495
 2351SOL     OW 7951   2.368   6.207   1.275
 2351SOL    HW1 7952   2.286   6.169   1.231
 2351SOL    HW2 7953   2.346   6.297   1.314
 2352SOL     OW 7954   7.013   2.164   2.870
 2352SOL    HW1 7955   0.004   2.172   2.968
 2352SOL    HW2 7956   6.917   2.186   2.853
 2353SOL     OW 7957   3.023   5.468   4.038
 2353SOL    HW1 7958   3.117   5.449   4.065
 2353SOL    HW2 7959   3.004   5.566   4.051
 2354SOL     OW 7960   3.126   2.147   4.524
 2354SOL    HW1 7961   3.028   2.127   4.536
 2354SOL    HW2 7962   3.178   2.106   4.599
 2355SOL     OW 7963   1.844   5.456   4.564
 2355SOL    HW1 7964   1.939   5.433   4.587
 2355SOL    HW2 7965   1.813   5.396   4.489
 2356SOL     OW 7966   6.960   2.068   0.066
 2356SOL    HW1 7967   6.908   2.126   0.004
 2356SOL    HW2 7968   6.912   2.060   0.153
 2357SOL     OW 7969   2.436   6.559   3.047
 2357SOL    HW1 7970   2.382   6.477   3.064
 2357SOL    HW2 7971   2.430   6.620   3.126
 2358SOL     OW 7972   4.740   5.653   6.272
 2358SOL    HW1 7973   4.713   5.730   6.330
 2358SOL    HW2 7974   4.660   5.622   6.220
 2359SOL     OW 7975   1.486   0.108   5.423
 2359SOL    HW1 7976   1.462   0.173   5.495
 2359SOL    HW2 7977   1.586   0.099   5.419
 2360SOL     OW 7978   0.046   3.536   6.902
 2360SOL    HW1 7979   0.020   3.535   6.805
 2360SOL    HW2 7980   0.048   3.442   6.936
 2361SOL     OW 7981   3.337   1.187   0.238
 2361SOL    HW1 7982   3.289   1.197   0.325
 2361SOL    HW2 7983   3.354   1.278   0.199
 2362SOL     OW 7984   3.325   5.320   2.901
 2362SOL    HW1 7985   3.338   5.294   2.997
 2362SOL    HW2 7986   3.327   5.239   2.843
 2363SOL     OW 7987   3.304   0.860   3.453
 2363SOL    HW1 7988   3.387   0.908   3.484
 2363SOL    HW2 7989   3.318   0.761   3.461
 2364SOL     OW 7990   0.764   2.463   1.452
 2364SOL    HW1 7991   0.780   2.427   1.360
 2364SOL    HW2 7992   0.837   2.528   1.475
 2365SOL     OW 7993   5.793   2.463   0.464
 2365SOL    HW1 7994   5.700   2.472   0.502
 2365SOL    HW2 7995   5.802   2.523   0.385
 2366SOL     OW 7996   4.718   5.646   0.465
 2366SOL    HW1 7997   4.663   5.699   0.529
 2366SOL    HW2 7998   4.756   5.567   0.513
 2367SOL     OW 7999   2.622   3.123   6.113
 2367SOL    HW1 8000   2.548   3.158   6.056
 2367SOL    HW2 8001   2.710   3.152   6.074
 2368SOL     OW 8002   5.283   5.996   2.398
 2368SOL    HW1 8003   5.317   5.995   2.304
 2368SOL    HW2 8004   5.277   6.091   2.430
 2369SOL     OW 8005   2.620   1.495   3.142
 2369SOL    HW1 8006   2.532   1.508   3.096
 2369SOL    HW2 8007   2.643   1.577   3.195
 2370SOL     OW 8008   6.355   2.454   6.194
 2370SOL    HW1 8009   6.297   2.534   6.177
 2370SOL    HW2 8010   6.338   2.419   6.286
 2371SOL     OW 8011   1.069   5.761   1.582
 2371SOL    HW1 8012   1.042   5.762   1.678
 2371SOL    HW2 8013   1.004   5.814   1.528
 2372SOL     OW 8014   6.513   2.076   3.448
 2372SOL    HW1 8015   6.524   2.007   3.377
 2372SOL    HW2 8016   6.554   2.162   3.418
 2373SOL     OW 8017   2.414   3.984   6.670
 2373SOL    HW1 8018   2.484   4.049   6.703
 2373SOL    HW2 8019   2.385   4.010   6.578
 2374SOL     OW 8020   5.065   2.554   4.823
 2374SOL    HW1 8021   5.045   2.566   4.725
 2374SOL    HW2 8022   5.055   2.641   4.870
 2375SOL     OW 8023   1.116   0.520   5.313
 2375SOL    HW1 8024   1.190   0.482   5.258
 2375SOL    HW2 8025   1.103   0.464   5.395
 2376SOL     OW 8026   6.413   1.830   4.240
 2376SOL    HW1 8027   6.390   1.915   4.192
 2376SOL    HW2 8028   6.425   1.756   4.173
 2377SOL     OW 8029   3.544   2.912   4.070
 2377SOL    HW1 8030   3.561   2.834   4.131
 2377SOL    HW2 8031   3.628   2.934   4.021
 2378SOL     OW 8032   5.672   1.642   1.154
 2378SOL    HW1 8033   5.596   1.706   1.164
 2378SOL    HW2 8034   5.649   1.556   1.200
 2379SOL     OW 8035   0.023   0.056   6.092
 2379SOL    HW1 8036   0.042   0.136   6.036
 2379SOL    HW2 8037   6.986   7.025   6.044
 2380SOL     OW 8038   6.047   1.803   3.630
 2380SOL    HW1 8039   5.983   1.876   3.656
 2380SOL    HW2 8040   6.037   1.783   3.532
 2381SOL     OW 8041   1.686   5.922   2.668
 2381SOL    HW1 8042   1.682   5.888   2.574
 2381SOL    HW2 8043   1.619   5.995   2.680
 2382SOL     OW 8044   1.576   2.642   5.675
 2382SOL    HW1 8045   1.573   2.602   5.584
 2382SOL    HW2 8046   1.497   2.701   5.688
 2383SOL     OW 8047   5.360   5.477   1.365
 2383SOL    HW1 8048   5.275   5.529   1.371
 2383SOL    HW2 8049   5.343   5.393   1.312
 2384SOL     OW 8050   4.196   0.992   1.605
 2384SOL    HW1 8051   4.164   1.069   1.661
 2384SOL    HW2 8052   4.282   0.958   1.641
 2385SOL     OW 8053   1.425   3.138   0.544
 2385SOL    HW1 8054   1.386   3.160   0.455
 2385SOL    HW2 8055   1.353   3.138   0.613
 2386SOL     OW 8056   4.388   4.604   2.653
 2386SOL    HW1 8057   4.430   4.607   2.562
 2386SOL    HW2 8058   4.460   4.607   2.722
 2387SOL     OW 8059   1.120   1.756   2.617
 2387SOL    HW1 8060   1.147   1.843   2.577
 2387SOL    HW2 8061   1.096   1.769   2.713
 2388SOL     OW 8062   6.720   1.126   4.446
 2388SOL    HW1 8063   6.795   1.060   4.454
 2388SOL    HW2 8064   6.690   1.155   4.537
 2389SOL     OW 8065   3.475   6.929   1.926
 2389SOL    HW1 8066   3.449   7.022   1.900
 2389SOL    HW2 8067   3.567   6.910   1.893
 2390SOL     OW 8068   2.896   4.964   0.863
 2390SOL    HW1 8069   2.802   4.931   0.872
 2390SOL    HW2 8070   2.960   4.887   0.871
 2391SOL     OW 8071   4.090   5.342   4.682
 2391SOL    HW1 8072   4.022   5.270   4.700
 2391SOL    HW2 8073   4.043   5.429   4.670
 2392SOL     OW 8074   3.666   1.320   6.575
 2392SOL    HW1 8075   3.616   1.389   6.523
 2392SOL    HW2 8076   3.675   1.237   6.521
 2393SOL     OW 8077   3.726   6.110   5.030
 2393SOL    HW1 8078   3.641   6.103   4.979
 2393SOL    HW2 8079   3.772   6.021   5.033
 2394SOL     OW 8080   0.236   5.009   4.985
 2394SOL    HW1 8081   0.231   5.077   4.912
 2394SOL    HW2 8082   0.233   4.917   4.947
 2395SOL     OW 8083   4.491   6.637   6.541
 2395SOL    HW1 8084   4.459   6.562   6.484
 2395SOL    HW2 8085   4.528   6.710   6.483
 2396SOL     OW 8086   2.913   6.579   0.281
 2396SOL    HW1 8087   2.853   6.618   0.210
 2396SOL    HW2 8088   2.870   6.497   0.319
 2397SOL     OW 8089   0.805   3.044   4.612
 2397SOL    HW1 8090   0.861   3.098   4.549
 2397SOL    HW2 8091   0.720   3.016   4.567
 2398SOL     OW 8092   5.174   3.775   5.741
 2398SOL    HW1 8093   5.118   3.707   5.787
 2398SOL    HW2 8094   5.263   3.735   5.719
 2399SOL     OW 8095   5.341   2.944   1.782
 2399SOL    HW1 8096   5.377   2.854   1.810
 2399SOL    HW2 8097   5.324   2.944   1.684
 2400SOL     OW 8098   1.186   4.059   0.213
 2400SOL    HW1 8099   1.226   4.141   0.253
 2400SOL    HW2 8100   1.164   3.994   0.286
 2401SOL     OW 8101   6.194   5.987   0.075
 2401SOL    HW1 8102   6.124   5.992   0.004
 2401SOL    HW2 8103   6.189   5.899   0.121
 2402SOL     OW 8104   6.788   6.758   4.152
 2402SOL    HW1 8105   6.789   6.841   4.097
 2402SOL    HW2 8106   6.855   6.693   4.118
 2403SOL     OW 8107   1.622   0.924   3.303
 2403SOL    HW1 8108   1.588   0.911   3.211
 2403SOL    HW2 8109   1.666   0.840   3.335
 2404SOL     OW 8110   1.154   0.625   0.393
 2404SOL    HW1 8111   1.147   0.557   0.466
 2404SOL    HW2 8112   1.223   0.596   0.327
 2405SOL     OW 8113   3.470   4.576   1.447
 2405SOL    HW1 8114   3.385   4.589   1.396
 2405SOL    HW2 8115   3.450   4.571   1.545
 2406SOL     OW 8116   4.761   1.680   1.343
 2406SOL    HW1 8117   4.704   1.649   1.268
 2406SOL    HW2 8118   4.784   1.777   1.330
 2407SOL     OW 8119   5.095   6.960   3.333
 2407SOL    HW1 8120   5.161   6.913   3.275
 2407SOL    HW2 8121   5.137   6.981   3.421
 2408SOL     OW 8122   4.206   4.664   2.010
 2408SOL    HW1 8123   4.182   4.732   2.079
 2408SOL    HW2 8124   4.126   4.641   1.955
 2409SOL     OW 8125   1.382   4.098   0.982
 2409SOL    HW1 8126   1.433   4.171   0.937
 2409SOL    HW2 8127   1.416   4.009   0.950
 2410SOL     OW 8128   4.056   3.489   2.562
 2410SOL    HW1 8129   4.025   3.566   2.618
 2410SOL    HW2 8130   4.044   3.404   2.614
 2411SOL     OW 8131   3.657   0.583   5.586
 2411SOL    HW1 8132   3.609   0.558   5.670
 2411SOL    HW2 8133   3.756   0.572   5.599
 2412SOL     OW 8134   4.068   3.655   1.086
 2412SOL    HW1 8135   4.068   3.638   1.184
 2412SOL    HW2 8136   4.141   3.602   1.043
 2413SOL     OW 8137   2.989   0.781   2.650
 2413SOL    HW1 8138   3.079   0.737   2.654
 2413SOL    HW2 8139   2.964   0.796   2.555
 2414SOL     OW 8140   4.976   3.012   3.803
 2414SOL    HW1 8141   4.941   3.103   3.827
 2414SOL    HW2 8142   4.921   2.942   3.849
 2415SOL     OW 8143   3.609   0.125   2.818
 2415SOL    HW1 8144   3.535   0.191   2.832
 2415SOL    HW2 8145   3.695   0.174   2.803
 2416SOL     OW 8146   5.314   2.368   6.240
 2416SOL    HW1 8147   5.231   2.353   6.293
 2416SOL    HW2 8148   5.378   2.293   6.256
 2417SOL     OW 8149   3.075   3.658   6.010
 2417SOL    HW1 8150   3.103   3.753   6.008
 2417SOL    HW2 8151   3.067   3.627   6.104
 2418SOL     OW 8152   3.846   2.958   2.269
 2418SOL    HW1 8153   3.866   2.868   2.309
 2418SOL    HW2 8154   3.786   2.947   2.190
 2419SOL     OW 8155   0.043   0.489   4.138
 2419SOL    HW1 8156   0.022   0.582   4.170
 2419SOL    HW2 8157   0.048   0.427   4.216
 2420SOL     OW 8158   1.852   6.954   1.831
 2420SOL    HW1 8159   1.871   0.023   1.844
 2420SOL    HW2 8160   1.825   6.913   1.918
 2421SOL     OW 8161   4.288   2.123   3.246
 2421SOL    HW1 8162   4.189   2.136   3.237
 2421SOL    HW2 8163   4.326   2.092   3.159
 2422SOL     OW 8164   5.991   1.547   1.326
 2422SOL    HW1 8165   5.935   1.473   1.362
 2422SOL    HW2 8166   5.936   1.630   1.315
 2423SOL     OW 8167   1.223   4.753   2.629
 2423SOL    HW1 8168   1.269   4.833   2.592
 2423SOL    HW2 8169   1.234   4.676   2.567
 2424SOL     OW 8170   6.701   6.585   0.256
 2424SOL    HW1 8171   6.777   6.522   0.262
 2424SOL    HW2 8172   6.620   6.537   0.223
 2425SOL     OW 8173   6.904   6.280   4.726
 2425SOL    HW1 8174   6.967   6.248   4.655
 2425SOL    HW2 8175   6.909   6.380   4.732
 2426SOL     OW 8176   1.415   5.557   4.695
 2426SOL    HW1 8177   1.366   5.637   4.661
 2426SOL    HW2 8178   1.513   5.578   4.700
 2427SOL     OW 8179   6.159   0.241   5.561
 2427SOL    HW1 8180   6.239   0.219   5.505
 2427SOL    HW2 8181   6.102   0.159   5.571
 2428SOL     OW 8182   6.162   2.253   0.297
 2428SOL    HW1 8183   6.169   2.352   0.310
 2428SOL    HW2 8184   6.096   2.215   0.362
 2429SOL     OW 8185   4.692   4.198   2.813
 2429SOL    HW1 8186   4.652   4.212   2.904
 2429SOL    HW2 8187   4.635   4.242   2.744
 2430SOL     OW 8188   5.707   0.221   1.992
 2430SOL    HW1 8189   5.717   0.180   2.082
 2430SOL    HW2 8190   5.612   0.249   1.977
 2431SOL     OW 8191   4.444   0.098   2.140
 2431SOL    HW1 8192   4.451   0.052   2.051
 2431SOL    HW2 8193   4.410   0.191   2.127
 2432SOL     OW 8194   2.938   5.884   2.459
 2432SOL    HW1 8195   2.927   5.981   2.482
 2432SOL    HW2 8196   3.035   5.865   2.439
 2433SOL     OW 8197   5.321   6.982   0.731
 2433SOL    HW1 8198   5.244   6.935   0.687
 2433SOL    HW2 8199   5.295   7.009   0.824
 2434SOL     OW 8200   3.383   3.077   4.785
 2434SOL    HW1 8201   3.440   3.158   4.773
 2434SOL    HW2 8202   3.326   3.088   4.867
 2435SOL     OW 8203   5.649   4.920   6.982
 2435SOL    HW1 8204   5.735   4.970   6.986
 2435SOL    HW2 8205   5.577   4.973   7.026
 2436SOL     OW 8206   3.446   4.896   0.211
 2436SOL    HW1 8207   3.374   4.853   0.156
 2436SOL    HW2 8208   3.447   4.994   0.195
 2437SOL     OW 8209   0.191   1.571   5.592
 2437SOL    HW1 8210   0.098   1.546   5.622
 2437SOL    HW2 8211   0.256   1.546   5.664
 2438SOL     OW 8212   3.551   3.968   0.505
 2438SOL    HW1 8213   3.572   3.871   0.521
 2438SOL    HW2 8214   3.576   3.992   0.411
 2439SOL     OW 8215   6.168   3.825   6.105
 2439SOL    HW1 8216   6.237   3.862   6.043
 2439SOL    HW2 8217   6.132   3.739   6.067
 2440SOL     OW 8218   6.577   5.187   6.248
 2440SOL    HW1 8219   6.647   5.174   6.178
 2440SOL    HW2 8220   6.606   5.140   6.332
 2441SOL     OW 8221   6.564   2.202   0.693
 2441SOL    HW1 8222   6.465   2.202   0.710
 2441SOL    HW2 8223   6.583   2.244   0.605
 2442SOL     OW 8224   6.852   1.650   4.997
 2442SOL    HW1 8225   6.763   1.665   5.040
 2442SOL    HW2 8226   6.845   1.665   4.898
 2443SOL     OW 8227   2.976   5.264   7.012
 2443SOL    HW1 8228   2.932   5.329   0.046
 2443SOL    HW2 8229   3.047   5.214   0.033
 2444SOL     OW 8230   3.657   3.126   6.498
 2444SOL    HW1 8231   3.624   3.109   6.405
 2444SOL    HW2 8232   3.755   3.110   6.502
 2445SOL     OW 8233   1.222   1.064   0.978
 2445SOL    HW1 8234   1.185   0.993   0.918
 2445SOL    HW2 8235   1.273   1.130   0.923
 2446SOL     OW 8236   5.360   3.321   6.255
 2446SOL    HW1 8237   5.391   3.333   6.350
 2446SOL    HW2 8238   5.303   3.239   6.250
 2447SOL     OW 8239   0.885   3.749   6.522
 2447SOL    HW1 8240   0.796   3.723   6.484
 2447SOL    HW2 8241   0.935   3.802   6.454
 2448SOL     OW 8242   6.431   0.442   5.135
 2448SOL    HW1 8243   6.483   0.447   5.049
 2448SOL    HW2 8244   6.366   0.518   5.138
 2449SOL     OW 8245   0.129   2.964   5.780
 2449SOL    HW1 8246   0.090   3.055   5.793
 2449SOL    HW2 8247   0.076   2.898   5.833
 2450SOL     OW 8248   3.098   2.847   1.002
 2450SOL    HW1 8249   3.129   2.804   0.917
 2450SOL    HW2 8250   3.166   2.830   1.074
 2451SOL     OW 8251   2.111   5.706   3.545
 2451SOL    HW1 8252   2.078   5.671   3.457
 2451SOL    HW2 8253   2.204   5.673   3.562
 2452SOL     OW 8254   3.487   1.557   3.629
 2452SOL    HW1 8255   3.498   1.655   3.646
 2452SOL    HW2 8256   3.419   1.520   3.692
 2453SOL     OW 8257   0.634   3.547   1.264
 2453SOL    HW1 8258   0.543   3.570   1.230
 2453SOL    HW2 8259   0.703   3.576   1.198
 2454SOL     OW 8260   6.934   6.989   2.104
 2454SOL    HW1 8261   6.895   6.977   2.195
 2454SOL    HW2 8262   6.863   7.020   2.041
 2455SOL     OW 8263   5.336   3.732   1.117
 2455SOL    HW1 8264   5.305   3.795   1.188
 2455SOL    HW2 8265   5.277   3.652   1.116
 2456SOL     OW 8266   2.529   0.187   0.839
 2456SOL    HW1 8267   2.513   0.109   0.778
 2456SOL    HW2 8268   2.531   0.272   0.787
 2457SOL     OW 8269   5.309   5.999   0.883
 2457SOL    HW1 8270   5.331   6.088   0.844
 2457SOL    HW2 8271   5.309   5.930   0.810
 2458SOL     OW 8272   0.226   6.886   1.708
 2458SOL    HW1 8273   0.289   6.883   1.786
 2458SOL    HW2 8274   0.212   6.981   1.680
 2459SOL     OW 8275   1.693   2.357   0.586
 2459SOL    HW1 8276   1.618   2.383   0.647
 2459SOL    HW2 8277   1.679   2.399   0.496
 2460SOL     OW 8278   1.629   4.165   1.357
 2460SOL    HW1 8279   1.635   4.096   1.428
 2460SOL    HW2 8280   1.709   4.158   1.296
 2461SOL     OW 8281   4.738   0.771   2.825
 2461SOL    HW1 8282   4.814   0.711   2.848
 2461SOL    HW2 8283   4.709   0.754   2.731
 2462SOL     OW 8284   2.906   5.363   6.749
 2462SOL    HW1 8285   2.917   5.462   6.746
 2462SOL    HW2 8286   2.932   5.329   6.839
 2463SOL     OW 8287   1.881   3.023   5.940
 2463SOL    HW1 8288   1.860   3.089   5.867
 2463SOL    HW2 8289   1.842   2.934   5.917
 2464SOL     OW 8290   0.885   3.955   1.092
 2464SOL    HW1 8291   0.795   3.969   1.052
 2464SOL    HW2 8292   0.944   4.031   1.068
 2465SOL     OW 8293   5.956   4.277   3.522
 2465SOL    HW1 8294   5.930   4.254   3.428
 2465SOL    HW2 8295   5.912   4.212   3.585
 2466SOL     OW 8296   4.020   1.233   1.670
 2466SOL    HW1 8297   3.982   1.228   1.762
 2466SOL    HW2 8298   4.059   1.324   1.654
 2467SOL     OW 8299   1.726   1.555   4.395
 2467SOL    HW1 8300   1.648   1.615   4.375
 2467SOL    HW2 8301   1.770   1.530   4.309
 2468SOL     OW 8302   6.962   4.537   6.946
 2468SOL    HW1 8303   7.002   4.447   6.930
 2468SOL    HW2 8304   7.014   4.585   7.017
 2469SOL     OW 8305   2.632   1.769   6.744
 2469SOL    HW1 8306   2.693   1.755   6.823
 2469SOL    HW2 8307   2.563   1.837   6.767
 2470SOL     OW 8308   5.440   3.092   0.477
 2470SOL    HW1 8309   5.458   2.996   0.494
 2470SOL    HW2 8310   5.500   3.148   0.534
 2471SOL     OW 8311   0.888   1.877   3.111
 2471SOL    HW1 8312   0.926   1.934   3.183
 2471SOL    HW2 8313   0.831   1.805   3.152
 2472SOL     OW 8314   6.712   0.800   4.734
 2472SOL    HW1 8315   6.663   0.765   4.654
 2472SOL    HW2 8316   6.719   0.728   4.803
 2473SOL     OW 8317   0.360   5.145   4.605
 2473SOL    HW1 8318   0.312   5.191   4.681
 2473SOL    HW2 8319   0.451   5.184   4.596
 2474SOL     OW 8320   5.894   6.622   4.301
 2474SOL    HW1 8321   5.808   6.602   4.347
 2474SOL    HW2 8322   5.920   6.544   4.243
 2475SOL     OW 8323   3.431   2.612   6.905
 2475SOL    HW1 8324   3.522   2.641   6.877
 2475SOL    HW2 8325   3.365   2.636   6.833
 2476SOL     OW 8326   0.727   1.814   3.975
 2476SOL    HW1 8327   0.656   1.868   3.931
 2476SOL    HW2 8328   0.689   1.728   4.008
 2477SOL     OW 8329   4.907   3.936   2.216
 2477SOL    HW1 8330   4.850   4.017   2.227
 2477SOL    HW2 8331   4.960   3.943   2.131
 2478SOL     OW 8332   6.666   0.870   2.083
 2478SOL    HW1 8333   6.762   0.882   2.108
 2478SOL    HW2 8334   6.638   0.775   2.102
 2479SOL     OW 8335   1.309   3.480   0.805
 2479SOL    HW1 8336   1.376   3.554   0.804
 2479SOL    HW2 8337   1.246   3.491   0.728
 2480SOL     OW 8338   6.664   4.729   0.150
 2480SOL    HW1 8339   6.699   4.638   0.129
 2480SOL    HW2 8340   6.565   4.725   0.160
 2481SOL     OW 8341   3.966   5.262   2.651
 2481SOL    HW1 8342   3.873   5.224   2.651
 2481SOL    HW2 8343   4.029   5.194   2.687
 2482SOL     OW 8344   3.943   2.162   4.475
 2482SOL    HW1 8345   4.038   2.191   4.483
 2482SOL    HW2 8346   3.913   2.118   4.560
 2483SOL     OW 8347   0.337   2.902   6.891
 2483SOL    HW1 8348   0.280   2.836   6.841
 2483SOL    HW2 8349   0.405   2.940   6.829
 2484SOL     OW 8350   3.301   3.980   5.388
 2484SOL    HW1 8351   3.325   3.884   5.404
 2484SOL    HW2 8352   3.205   3.995   5.412
 2485SOL     OW 8353   1.023   4.874   0.644
 2485SOL    HW1 8354   1.055   4.904   0.554
 2485SOL    HW2 8355   0.947   4.931   0.674
 2486SOL     OW 8356   0.193   5.492   4.188
 2486SOL    HW1 8357   0.243   5.552   4.125
 2486SOL    HW2 8358   0.141   5.549   4.253
 2487SOL     OW 8359   2.852   1.248   1.135
 2487SOL    HW1 8360   2.852   1.153   1.104
 2487SOL    HW2 8361   2.796   1.257   1.217
 2488SOL     OW 8362   2.236   5.332   6.575
 2488SOL    HW1 8363   2.142   5.355   6.550
 2488SOL    HW2 8364   2.254   5.362   6.669
 2489SOL     OW 8365   6.514   5.330   4.769
 2489SOL    HW1 8366   6.432   5.370   4.809
 2489SOL    HW2 8367   6.593   5.353   4.826
 2490SOL     OW 8368   5.698   2.676   1.569
 2490SOL    HW1 8369   5.693   2.735   1.489
 2490SOL    HW2 8370   5.751   2.721   1.641
 2491SOL     OW 8371   6.873   3.553   2.299
 2491SOL    HW1 8372   6.790   3.497   2.305
 2491SOL    HW2 8373   6.894   3.592   2.388
 2492SOL     OW 8374   4.274   1.668   0.457
 2492SOL    HW1 8375   4.254   1.571   0.469
 2492SOL    HW2 8376   4.343   1.679   0.385
 2493SOL     OW 8377   6.491   0.790   5.791
 2493SOL    HW1 8378   6.443   0.712   5.830
 2493SOL    HW2 8379   6.560   0.823   5.855
 2494SOL     OW 8380   5.730   5.585   1.110
 2494SOL    HW1 8381   5.667   5.617   1.180
 2494SOL    HW2 8382   5.713   5.634   1.025
 2495SOL     OW 8383   7.003   0.950   3.349
 2495SOL    HW1 8384   6.909   0.985   3.353
 2495SOL    HW2 8385   7.001   0.852   3.327
 2496SOL     OW 8386   1.668   4.713   0.468
 2496SOL    HW1 8387   1.737   4.674   0.529
 2496SOL    HW2 8388   1.585   4.732   0.520
 2497SOL     OW 8389   6.009   1.638   6.071
 2497SOL    HW1 8390   6.094   1.588   6.089
 2497SOL    HW2 8391   5.935   1.597   6.123
 2498SOL     OW 8392   1.450   3.207   4.651
 2498SOL    HW1 8393   1.513   3.230   4.725
 2498SOL    HW2 8394   1.384   3.281   4.639
 2499SOL     OW 8395   4.847   0.399   0.245
 2499SOL    HW1 8396   4.940   0.384   0.280
 2499SOL    HW2 8397   4.850   0.464   0.169
 2500SOL     OW 8398   4.988   2.686   6.305
 2500SOL    HW1 8399   4.942   2.764   6.262
 2500SOL    HW2 8400   5.044   2.638   6.237
 2501SOL     OW 8401   5.826   5.333   1.093
 2501SOL    HW1 8402   5.817   5.317   0.995
 2501SOL    HW2 8403   5.799   5.427   1.114
 2502SOL     OW 8404   1.320   6.589   3.019
 2502SOL    HW1 8405   1.268   6.514   3.061
 2502SOL    HW2 8406   1.354   6.560   2.930
 2503SOL     OW 8407   5.630   5.691   3.727
 2503SOL    HW1 8408   5.624   5.654   3.820
 2503SOL    HW2 8409   5.544   5.738   3.705
 2504SOL     OW 8410   3.414   4.936   2.625
 2504SOL    HW1 8411   3.427   5.035   2.614
 2504SOL    HW2 8412   3.317   4.913   2.611
 2505SOL     OW 8413   5.089   3.302   4.456
 2505SOL    HW1 8414   5.176   3.298   4.406
 2505SOL    HW2 8415   5.077   3.394   4.494
 2506SOL     OW 8416   1.109   1.233   0.203
 2506SOL    HW1 8417   1.031   1.295   0.204
 2506SOL    HW2 8418   1.093   1.159   0.137
 2507SOL     OW 8419   6.611   5.203   0.854
 2507SOL    HW1 8420   6.619   5.279   0.918
 2507SOL    HW2 8421   6.586   5.238   0.764
 2508SOL     OW 8422   1.422   1.550   1.767
 2508SOL    HW1 8423   1.416   1.501   1.854
 2508SOL    HW2 8424   1.333   1.591   1.745
 2509SOL     OW 8425   6.295   6.920   3.772
 2509SOL    HW1 8426   6.377   6.944   3.720
 2509SOL    HW2 8427   6.318   6.855   3.844
 2510SOL     OW 8428   3.809   5.986   2.728
 2510SOL    HW1 8429   3.791   5.891   2.705
 2510SOL    HW2 8430   3.728   6.042   2.707
 2511SOL     OW 8431   0.883   5.441   4.478
 2511SOL    HW1 8432   0.926   5.412   4.564
 2511SOL    HW2 8433   0.871   5.540   4.479
 2512SOL     OW 8434   6.171   3.482   4.609
 2512SOL    HW1 8435   6.093   3.543   4.596
 2512SOL    HW2 8436   6.152   3.419   4.684
 2513SOL     OW 8437   1.072   4.216   1.801
 2513SOL    HW1 8438   1.070   4.217   1.701
 2513SOL    HW2 8439   0.980   4.199   1.836
 2514SOL     OW 8440   0.056   2.183   4.682
 2514SOL    HW1 8441   0.051   2.120   4.605
 2514SOL    HW2 8442   7.003   2.242   4.682
 2515SOL     OW 8443   0.081   5.245   6.487
 2515SOL    HW1 8444   0.152   5.227   6.555
 2515SOL    HW2 8445   0.011   5.175   6.493
 2516SOL     OW 8446   4.919   6.326   5.058
 2516SOL    HW1 8447   5.016   6.313   5.082
 2516SOL    HW2 8448   4.862   6.299   5.135
 2517SOL     OW 8449   2.382   5.572   6.556
 2517SOL    HW1 8450   2.370   5.474   6.543
 2517SOL    HW2 8451   2.293   5.618   6.548
 2518SOL     OW 8452   2.207   2.238   0.920
 2518SOL    HW1 8453   2.171   2.254   0.828
 2518SOL    HW2 8454   2.307   2.230   0.916
 2519SOL     OW 8455   5.980   3.914   4.768
 2519SOL    HW1 8456   5.932   4.001   4.764
 2519SOL    HW2 8457   5.954   3.865   4.851
 2520SOL     OW 8458   4.445   5.969   1.494
 2520SOL    HW1 8459   4.507   5.953   1.571
 2520SOL    HW2 8460   4.497   5.976   1.409
 2521SOL     OW 8461   5.627   6.237   6.048
 2521SOL    HW1 8462   5.530   6.246   6.028
 2521SOL    HW2 8463   5.641   6.161   6.112
 2522SOL     OW 8464   3.302   5.895   4.907
 2522SOL    HW1 8465   3.277   5.799   4.894
 2522SOL    HW2 8466   3.325   5.910   5.003
 2523SOL     OW 8467   0.878   1.948   6.728
 2523SOL    HW1 8468   0.963   1.895   6.734
 2523SOL    HW2 8469   0.884   2.028   6.788
 2524SOL     OW 8470   2.066   0.297   4.328
 2524SOL    HW1 8471   2.071   0.197   4.330
 2524SOL    HW2 8472   2.014   0.326   4.248
 2525SOL     OW 8473   3.066   4.850   2.311
 2525SOL    HW1 8474   2.971   4.817   2.313
 2525SOL    HW2 8475   3.127   4.776   2.285
 2526SOL     OW 8476   2.139   3.323   5.392
 2526SOL    HW1 8477   2.040   3.310   5.398
 2526SOL    HW2 8478   2.183   3.235   5.372
 2527SOL     OW 8479   6.610   0.300   4.320
 2527SOL    HW1 8480   6.668   0.261   4.392
 2527SOL    HW2 8481   6.595   0.231   4.249
 2528SOL     OW 8482   5.394   5.137   2.814
 2528SOL    HW1 8483   5.491   5.116   2.828
 2528SOL    HW2 8484   5.338   5.062   2.848
 2529SOL     OW 8485   5.007   5.795   4.714
 2529SOL    HW1 8486   5.075   5.799   4.788
 2529SOL    HW2 8487   4.940   5.723   4.734
 2530SOL     OW 8488   1.447   6.722   3.508
 2530SOL    HW1 8489   1.499   6.668   3.442
 2530SOL    HW2 8490   1.378   6.777   3.460
 2531SOL     OW 8491   5.317   2.636   6.207
 2531SOL    HW1 8492   5.248   2.669   6.142
 2531SOL    HW2 8493   5.315   2.536   6.210
 2532SOL     OW 8494   6.445   5.153   0.087
 2532SOL    HW1 8495   6.532   5.155   0.136
 2532SOL    HW2 8496   6.462   5.156   7.016
 2533SOL     OW 8497   4.745   0.676   4.171
 2533SOL    HW1 8498   4.659   0.726   4.164
 2533SOL    HW2 8499   4.754   0.639   4.264
 2534SOL     OW 8500   6.249   0.251   2.312
 2534SOL    HW1 8501   6.305   0.245   2.230
 2534SOL    HW2 8502   6.277   0.330   2.366
 2535SOL     OW 8503   2.642   1.261   1.350
 2535SOL    HW1 8504   2.660   1.163   1.352
 2535SOL    HW2 8505   2.611   1.291   1.440
 2536SOL     OW 8506   0.408   6.816   2.704
 2536SOL    HW1 8507   0.495   6.855   2.735
 2536SOL    HW2 8508   0.413   6.716   2.708
 2537SOL     OW 8509   2.072   6.615   1.770
 2537SOL    HW1 8510   2.123   6.678   1.829
 2537SOL    HW2 8511   1.976   6.643   1.767
 2538SOL     OW 8512   0.010   5.262   4.874
 2538SOL    HW1 8513   6.962   5.248   4.937
 2538SOL    HW2 8514   0.014   5.185   4.810
 2539SOL     OW 8515   0.837   7.006   4.811
 2539SOL    HW1 8516   0.934   6.980   4.810
 2539SOL    HW2 8517   0.815   0.021   4.898
 2540SOL     OW 8518   5.841   2.906   2.546
 2540SOL    HW1 8519   5.760   2.961   2.525
 2540SOL    HW2 8520   5.865   2.917   2.642
 2541SOL     OW 8521   1.758   0.313   6.908
 2541SOL    HW1 8522   1.731   0.250   6.980
 2541SOL    HW2 8523   1.766   0.264   6.822
 2542SOL     OW 8524   3.811   1.968   3.142
 2542SOL    HW1 8525   3.751   1.998   3.068
 2542SOL    HW2 8526   3.899   1.940   3.105
 2543SOL     OW 8527   5.997   6.485   5.247
 2543SOL    HW1 8528   5.991   6.580   5.218
 2543SOL    HW2 8529   6.009   6.481   5.346
 2544SOL     OW 8530   0.337   0.975   0.550
 2544SOL    HW1 8531   0.375   0.886   0.525
 2544SOL    HW2 8532   0.374   1.046   0.490
 2545SOL     OW 8533   0.973   1.521   0.486
 2545SOL    HW1 8534   0.983   1.538   0.388
 2545SOL    HW2 8535   0.881   1.486   0.504
 2546SOL     OW 8536   6.535   2.817   3.865
 2546SOL    HW1 8537   6.524   2.718   3.850
 2546SOL    HW2 8538   6.631   2.841   3.858
 2547SOL     OW 8539   6.370   3.232   0.710
 2547SOL    HW1 8540   6.462   3.198   0.730
 2547SOL    HW2 8541   6.314   3.157   0.675
 2548SOL     OW 8542   5.507   0.104   5.427
 2548SOL    HW1 8543   5.553   0.073   5.344
 2548SOL    HW2 8544   5.564   0.082   5.506
 2549SOL     OW 8545   3.087   4.253   6.514
 2549SOL    HW1 8546   3.096   4.350   6.536
 2549SOL    HW2 8547   3.163   4.202   6.554
 2550SOL     OW 8548   4.041   0.669   1.683
 2550SOL    HW1 8549   3.989   0.731   1.624
 2550SOL    HW2 8550   4.058   0.583   1.633
 2551SOL     OW 8551   2.461   4.435   0.158
 2551SOL    HW1 8552   2.405   4.456   0.078
 2551SOL    HW2 8553   2.530   4.507   0.171
 2552SOL     OW 8554   2.883   5.384   0.599
 2552SOL    HW1 8555   2.854   5.298   0.643
 2552SOL    HW2 8556   2.983   5.385   0.592
 2553SOL     OW 8557   3.859   1.908   1.452
 2553SOL    HW1 8558   3.936   1.961   1.488
 2553SOL    HW2 8559   3.775   1.939   1.495
 2554SOL     OW 8560   1.357   5.370   0.932
 2554SOL    HW1 8561   1.431   5.384   0.997
 2554SOL    HW2 8562   1.274   5.343   0.982
 2555SOL     OW 8563   0.547   6.053   4.664
 2555SOL    HW1 8564   0.628   6.019   4.711
 2555SOL    HW2 8565   0.475   6.072   4.731
 2556SOL     OW 8566   5.672   0.194   6.449
 2556SOL    HW1 8567   5.722   0.280   6.459
 2556SOL    HW2 8568   5.608   0.184   6.526
 2557SOL     OW 8569   2.716   1.062   0.687
 2557SOL    HW1 8570   2.765   1.139   0.728
 2557SOL    HW2 8571   2.778   0.985   0.675
 2558SOL     OW 8572   5.319   2.843   1.513
 2558SOL    HW1 8573   5.366   2.852   1.425
 2558SOL    HW2 8574   5.222   2.864   1.501
 2559SOL     OW 8575   0.401   6.136   3.327
 2559SOL    HW1 8576   0.348   6.052   3.335
 2559SOL    HW2 8577   0.411   6.178   3.417
 2560SOL     OW 8578   3.686   3.127   1.510
 2560SOL    HW1 8579   3.600   3.126   1.561
 2560SOL    HW2 8580   3.724   3.035   1.506
 2561SOL     OW 8581   3.673   0.720   4.878
 2561SOL    HW1 8582   3.636   0.734   4.786
 2561SOL    HW2 8583   3.678   0.808   4.926
 2562SOL     OW 8584   0.643   6.663   4.523
 2562SOL    HW1 8585   0.558   6.635   4.568
 2562SOL    HW2 8586   0.713   6.679   4.592
 2563SOL     OW 8587   4.723   1.611   0.187
 2563SOL    HW1 8588   4.766   1.664   0.115
 2563SOL    HW2 8589   4.718   1.515   0.160
 2564SOL     OW 8590   1.931   0.147   1.004
 2564SOL    HW1 8591   1.850   0.205   0.993
 2564SOL    HW2 8592   2.012   0.198   0.977
 2565SOL     OW 8593   6.057   0.275   0.038
 2565SOL    HW1 8594   6.119   0.317   7.000
 2565SOL    HW2 8595   6.029   0.344   0.105
 2566SOL     OW 8596   3.176   1.597   0.666
 2566SOL    HW1 8597   3.224   1.620   0.581
 2566SOL    HW2 8598   3.218   1.646   0.743
 2567SOL     OW 8599   2.012   0.737   6.251
 2567SOL    HW1 8600   1.960   0.804   6.199
 2567SOL    HW2 8601   1.955   0.699   6.324
 2568SOL     OW 8602   3.121   6.544   6.712
 2568SOL    HW1 8603   3.155   6.557   6.805
 2568SOL    HW2 8604   3.021   6.545   6.712
 2569SOL     OW 8605   2.990   6.472   6.248
 2569SOL    HW1 8606   2.971   6.457   6.151
 2569SOL    HW2 8607   2.922   6.536   6.285
 2570SOL     OW 8608   0.218   0.452   3.538
 2570SOL    HW1 8609   0.271   0.527   3.579
 2570SOL    HW2 8610   0.121   0.469   3.549
 2571SOL     OW 8611   3.085   3.496   2.147
 2571SOL    HW1 8612   3.184   3.490   2.152
 2571SOL    HW2 8613   3.051   3.552   2.222
 2572SOL     OW 8614   2.046   6.117   2.073
 2572SOL    HW1 8615   2.135   6.094   2.111
 2572SOL    HW2 8616   1.985   6.038   2.080
 2573SOL     OW 8617   6.137   0.012   2.371
 2573SOL    HW1 8618   6.175   0.102   2.396
 2573SOL    HW2 8619   6.159   7.021   2.275
 2574SOL     OW 8620   0.781   4.745   1.690
 2574SOL    HW1 8621   0.684   4.748   1.711
 2574SOL    HW2 8622   0.822   4.665   1.734
 2575SOL     OW 8623   4.158   3.432   4.914
 2575SOL    HW1 8624   4.153   3.450   4.816
 2575SOL    HW2 8625   4.250   3.403   4.939
 2576SOL     OW 8626   1.411   0.686   3.377
 2576SOL    HW1 8627   1.399   0.647   3.285
 2576SOL    HW2 8628   1.509   0.700   3.394
 2577SOL     OW 8629   1.007   4.476   0.070
 2577SOL    HW1 8630   1.006   4.376   0.079
 2577SOL    HW2 8631   1.100   4.506   0.051
 2578SOL     OW 8632   5.535   0.648   5.230
 2578SOL    HW1 8633   5.586   0.625   5.313
 2578SOL    HW2 8634   5.466   0.578   5.213
 2579SOL     OW 8635   0.760   2.579   6.451
 2579SOL    HW1 8636   0.786   2.565   6.355
 2579SOL    HW2 8637   0.688   2.648   6.457
 2580SOL     OW 8638   1.723   2.638   5.064
 2580SOL    HW1 8639   1.696   2.716   5.007
 2580SOL    HW2 8640   1.644   2.607   5.117
 2581SOL     OW 8641   4.620   6.966   4.223
 2581SOL    HW1 8642   4.544   6.991   4.164
 2581SOL    HW2 8643   4.635   6.867   4.218
 2582SOL     OW 8644   6.780   4.759   2.595
 2582SOL    HW1 8645   6.782   4.782   2.498
 2582SOL    HW2 8646   6.855   4.805   2.642
 2583SOL     OW 8647   3.005   0.527   6.953
 2583SOL    HW1 8648   3.074   0.535   6.882
 2583SOL    HW2 8649   3.047   0.492   0.009
 2584SOL     OW 8650   3.404   1.210   4.236
 2584SOL    HW1 8651   3.340   1.151   4.186
 2584SOL    HW2 8652   3.448   1.157   4.309
 2585SOL     OW 8653   3.366   0.577   2.928
 2585SOL    HW1 8654   3.325   0.639   2.861
 2585SOL    HW2 8655   3.465   0.585   2.924
 2586SOL     OW 8656   2.294   1.262   4.703
 2586SOL    HW1 8657   2.301   1.211   4.618
 2586SOL    HW2 8658   2.333   1.208   4.778
 2587SOL     OW 8659   6.302   4.434   3.237
 2587SOL    HW1 8660   6.218   4.464   3.192
 2587SOL    HW2 8661   6.350   4.370   3.177
 2588SOL     OW 8662   2.663   0.032   2.196
 2588SOL    HW1 8663   2.579   0.026   2.142
 2588SOL    HW2 8664   2.737   7.015   2.146
 2589SOL     OW 8665   5.085   6.823   1.680
 2589SOL    HW1 8666   4.994   6.835   1.641
 2589SOL    HW2 8667   5.090   6.737   1.730
 2590SOL     OW 8668   4.177   6.000   3.912
 2590SOL    HW1 8669   4.135   5.945   3.984
 2590SOL    HW2 8670   4.277   5.990   3.917
 2591SOL     OW 8671   5.112   0.585   0.488
 2591SOL    HW1 8672   5.070   0.659   0.541
 2591SOL    HW2 8673   5.162   0.624   0.411
 2592SOL     OW 8674   2.885   6.058   1.796
 2592SOL    HW1 8675   2.903   6.105   1.709
 2592SOL    HW2 8676   2.908   6.118   1.872
 2593SOL     OW 8677   3.009   0.025   4.173
 2593SOL    HW1 8678   3.019   7.026   4.269
 2593SOL    HW2 8679   3.098   0.044   4.133
 2594SOL     OW 8680   1.402   6.209   6.454
 2594SOL    HW1 8681   1.466   6.162   6.393
 2594SOL    HW2 8682   1.389   6.155   6.537
 2595SOL     OW 8683   6.833   3.371   5.689
 2595SOL    HW1 8684   6.831   3.291   5.630
 2595SOL    HW2 8685   6.847   3.453   5.633
 2596SOL     OW 8686   4.382   1.678   1.147
 2596SOL    HW1 8687   4.358   1.622   1.068
 2596SOL    HW2 8688   4.302   1.728   1.179
 2597SOL     OW 8689   2.807   2.336   5.874
 2597SOL    HW1 8690   2.766   2.416   5.830
 2597SOL    HW2 8691   2.893   2.314   5.830
 2598SOL     OW 8692   6.732   1.146   3.351
 2598SOL    HW1 8693   6.673   1.224   3.371
 2598SOL    HW2 8694   6.744   1.138   3.252
 2599SOL     OW 8695   4.816   6.025   6.183
 2599SOL    HW1 8696   4.797   6.029   6.281
 2599SOL    HW2 8697   4.887   6.091   6.160
 2600SOL     OW 8698   6.807   3.317   4.920
 2600SOL    HW1 8699   6.738   3.349   4.856
 2600SOL    HW2 8700   6.768   3.245   4.978
 2601SOL     OW 8701   4.047   4.289   5.283
 2601SOL    HW1 8702   4.129   4.325   5.240
 2601SOL    HW2 8703   4.055   4.189   5.292
 2602SOL     OW 8704   5.798   0.385   6.955
 2602SOL    HW1 8705   5.869   0.447   6.920
 2602SOL    HW2 8706   5.841   0.312   7.007
 2603SOL     OW 8707   2.154   1.508   6.819
 2603SOL    HW1 8708   2.143   1.525   6.721
 2603SOL    HW2 8709   2.109   1.580   6.871
 2604SOL     OW 8710   5.780   0.997   0.413
 2604SOL    HW1 8711   5.734   1.008   0.325
 2604SOL    HW2 8712   5.836   0.915   0.411
 2605SOL     OW 8713   5.724   1.488   5.440
 2605SOL    HW1 8714   5.749   1.571   5.390
 2605SOL    HW2 8715   5.649   1.442   5.393
 2606SOL     OW 8716   5.851   4.553   0.995
 2606SOL    HW1 8717   5.850   4.461   1.033
 2606SOL    HW2 8718   5.928   4.604   1.033
 2607SOL     OW 8719   0.464   0.088   2.857
 2607SOL    HW1 8720   0.491   0.066   2.950
 2607SOL    HW2 8721   0.371   0.056   2.840
 2608SOL     OW 8722   4.477   0.961   0.168
 2608SOL    HW1 8723   4.449   0.866   0.154
 2608SOL    HW2 8724   4.570   0.974   0.135
 2609SOL     OW 8725   0.911   3.854   3.720
 2609SOL    HW1 8726   0.863   3.932   3.761
 2609SOL    HW2 8727   0.972   3.814   3.788
 2610SOL     OW 8728   5.453   4.552   4.955
 2610SOL    HW1 8729   5.534   4.607   4.935
 2610SOL    HW2 8730   5.371   4.602   4.925
 2611SOL     OW 8731   2.841   6.309   1.239
 2611SOL    HW1 8732   2.803   6.392   1.197
 2611SOL    HW2 8733   2.768   6.258   1.284
 2612SOL     OW 8734   0.378   0.186   4.147
 2612SOL    HW1 8735   0.424   0.246   4.211
 2612SOL    HW2 8736   0.307   0.238   4.099
 2613SOL     OW 8737   4.185   1.702   6.844
 2613SOL    HW1 8738   4.261   1.669   6.788
 2613SOL    HW2 8739   4.190   1.661   6.935
 2614SOL     OW 8740   6.188   6.460   6.937
 2614SOL    HW1 8741   6.090   6.454   6.917
 2614SOL    HW2 8742   6.207   6.545   6.986
 2615SOL     OW 8743   6.901   4.894   1.144
 2615SOL    HW1 8744   6.877   4.797   1.142
 2615SOL    HW2 8745   6.844   4.940   1.213
 2616SOL     OW 8746   3.596   3.339   2.005
 2616SOL    HW1 8747   3.657   3.270   1.966
 2616SOL    HW2 8748   3.513   3.295   2.039
 2617SOL     OW 8749   3.248   6.882   0.324
 2617SOL    HW1 8750   3.163   6.932   0.341
 2617SOL    HW2 8751   3.324   6.929   0.370
 2618SOL     OW 8752   1.501   5.891   0.416
 2618SOL    HW1 8753   1.526   5.865   0.322
 2618SOL    HW2 8754   1.529   5.819   0.479
 2619SOL     OW 8755   5.876   0.662   2.518
 2619SOL    HW1 8756   5.852   0.654   2.421
 2619SOL    HW2 8757   5.901   0.757   2.537
 2620SOL     OW 8758   1.727   6.524   4.151
 2620SOL    HW1 8759   1.741   6.456   4.079
 2620SOL    HW2 8760   1.813   6.572   4.169
 2621SOL     OW 8761   1.204   5.981   4.201
 2621SOL    HW1 8762   1.132   5.937   4.254
 2621SOL    HW2 8763   1.256   5.912   4.151
 2622SOL     OW 8764   2.470   2.534   3.925
 2622SOL    HW1 8765   2.446   2.569   3.834
 2622SOL    HW2 8766   2.406   2.462   3.951
 2623SOL     OW 8767   3.198   0.260   5.260
 2623SOL    HW1 8768   3.247   0.184   5.303
 2623SOL    HW2 8769   3.145   0.309   5.330
 2624SOL     OW 8770   4.731   2.110   4.634
 2624SOL    HW1 8771   4.763   2.100   4.540
 2624SOL    HW2 8772   4.632   2.096   4.637
 2625SOL     OW 8773   1.428   0.281   5.647
 2625SOL    HW1 8774   1.438   0.224   5.728
 2625SOL    HW2 8775   1.435   0.378   5.672
 2626SOL     OW 8776   2.557   6.843   3.378
 2626SOL    HW1 8777   2.531   6.755   3.341
 2626SOL    HW2 8778   2.496   6.914   3.342
 2627SOL     OW 8779   1.481   0.212   3.795
 2627SOL    HW1 8780   1.478   0.307   3.825
 2627SOL    HW2 8781   1.576   0.183   3.784
 2628SOL     OW 8782   4.741   5.030   6.584
 2628SOL    HW1 8783   4.766   4.948   6.635
 2628SOL    HW2 8784   4.778   5.024   6.491
 2629SOL     OW 8785   2.951   3.800   1.764
 2629SOL    HW1 8786   2.890   3.725   1.737
 2629SOL    HW2 8787   2.898   3.883   1.778
 2630SOL     OW 8788   3.378   1.389   2.503
 2630SOL    HW1 8789   3.340   1.296   2.503
 2630SOL    HW2 8790   3.304   1.455   2.491
 2631SOL     OW 8791   3.274   6.436   3.167
 2631SOL    HW1 8792   3.303   6.472   3.078
 2631SOL    HW2 8793   3.175   6.445   3.177
 2632SOL     OW 8794   5.456   1.436   0.440
 2632SOL    HW1 8795   5.501   1.388   0.515
 2632SOL    HW2 8796   5.437   1.530   0.468
 2633SOL     OW 8797   0.137   2.266   0.382
 2633SOL    HW1 8798   0.135   2.248   0.481
 2633SOL    HW2 8799   0.158   2.182   0.333
 2634SOL     OW 8800   2.542   4.954   0.160
 2634SOL    HW1 8801   2.494   4.866   0.169
 2634SOL    HW2 8802   2.632   4.948   0.203
 2635SOL     OW 8803   5.917   4.312   3.888
 2635SOL    HW1 8804   5.938   4.292   3.984
 2635SOL    HW2 8805   5.861   4.395   3.883
 2636SOL     OW 8806   5.375   4.862   5.939
 2636SOL    HW1 8807   5.384   4.961   5.951
 2636SOL    HW2 8808   5.343   4.843   5.847
 2637SOL     OW 8809   5.792   5.235   2.278
 2637SOL    HW1 8810   5.753   5.284   2.200
 2637SOL    HW2 8811   5.739   5.257   2.361
 2638SOL     OW 8812   4.374   5.242   0.028
 2638SOL    HW1 8813   4.452   5.237   0.090
 2638SOL    HW2 8814   4.369   5.334   7.017
 2639SOL     OW 8815   6.596   0.544   0.337
 2639SOL    HW1 8816   6.570   0.536   0.240
 2639SOL    HW2 8817   6.568   0.461   0.386
 2640SOL     OW 8818   6.564   6.215   1.531
 2640SOL    HW1 8819   6.624   6.290   1.503
 2640SOL    HW2 8820   6.609   6.127   1.513
 2641SOL     OW 8821   6.534   5.567   1.401
 2641SOL    HW1 8822   6.494   5.509   1.330
 2641SOL    HW2 8823   6.466   5.582   1.473
 2642SOL     OW 8824   0.061   0.097   4.058
 2642SOL    HW1 8825   0.091   0.116   4.152
 2642SOL    HW2 8826   0.119   0.026   4.018
 2643SOL     OW 8827   1.322   0.771   2.125
 2643SOL    HW1 8828   1.264   0.729   2.195
 2643SOL    HW2 8829   1.398   0.819   2.169
 2644SOL     OW 8830   6.060   6.618   4.586
 2644SOL    HW1 8831   5.987   6.657   4.643
 2644SOL    HW2 8832   6.022   6.546   4.528
 2645SOL     OW 8833   6.123   6.126   6.391
 2645SOL    HW1 8834   6.043   6.068   6.401
 2645SOL    HW2 8835   6.189   6.082   6.330
 2646SOL     OW 8836   5.671   4.911   5.944
 2646SOL    HW1 8837   5.648   4.827   5.994
 2646SOL    HW2 8838   5.657   4.896   5.846
 2647SOL     OW 8839   3.032   4.012   0.931
 2647SOL    HW1 8840   3.120   4.013   0.883
 2647SOL    HW2 8841   2.978   3.933   0.900
 2648SOL     OW 8842   4.877   1.208   3.264
 2648SOL    HW1 8843   4.826   1.134   3.309
 2648SOL    HW2 8844   4.822   1.246   3.190
 2649SOL     OW 8845   2.870   3.960   5.159
 2649SOL    HW1 8846   2.900   3.900   5.085
 2649SOL    HW2 8847   2.870   4.055   5.126
 2650SOL     OW 8848   6.962   6.389   2.767
 2650SOL    HW1 8849   6.882   6.448   2.768
 2650SOL    HW2 8850   0.002   6.426   2.703
 2651SOL     OW 8851   1.688   0.446   2.770
 2651SOL    HW1 8852   1.768   0.506   2.768
 2651SOL    HW2 8853   1.663   0.427   2.865
 2652SOL     OW 8854   2.895   2.131   1.514
 2652SOL    HW1 8855   2.887   2.142   1.613
 2652SOL    HW2 8856   2.921   2.218   1.473
 2653SOL     OW 8857   5.723   0.396   0.373
 2653SOL    HW1 8858   5.751   0.321   0.433
 2653SOL    HW2 8859   5.801   0.457   0.357
 2654SOL     OW 8860   0.555   3.683   5.547
 2654SOL    HW1 8861   0.457   3.662   5.550
 2654SOL    HW2 8862   0.598   3.631   5.473
 2655SOL     OW 8863   5.551   4.719   4.247
 2655SOL    HW1 8864   5.488   4.719   4.324
 2655SOL    HW2 8865   5.513   4.776   4.173
 2656SOL     OW 8866   5.714   3.628   5.236
 2656SOL    HW1 8867   5.627   3.608   5.192
 2656SOL    HW2 8868   5.757   3.543   5.265
 2657SOL     OW 8869   4.501   2.076   5.492
 2657SOL    HW1 8870   4.499   1.978   5.474
 2657SOL    HW2 8871   4.590   2.113   5.468
 2658SOL     OW 8872   0.267   4.720   6.128
 2658SOL    HW1 8873   0.315   4.633   6.145
 2658SOL    HW2 8874   0.220   4.748   6.212
 2659SOL     OW 8875   6.185   0.464   3.685
 2659SOL    HW1 8876   6.191   0.401   3.607
 2659SOL    HW2 8877   6.184   0.558   3.652
 2660SOL     OW 8878   1.116   1.377   3.784
 2660SOL    HW1 8879   1.208   1.376   3.745
 2660SOL    HW2 8880   1.077   1.285   3.780
 2661SOL     OW 8881   3.363   6.883   3.618
 2661SOL    HW1 8882   3.337   6.821   3.544
 2661SOL    HW2 8883   3.327   6.975   3.599
 2662SOL     OW 8884   4.337   1.534   5.162
 2662SOL    HW1 8885   4.290   1.455   5.202
 2662SOL    HW2 8886   4.344   1.606   5.231
 2663SOL     OW 8887   1.280   4.186   3.491
 2663SOL    HW1 8888   1.207   4.127   3.528
 2663SOL    HW2 8889   1.276   4.276   3.535
 2664SOL     OW 8890   5.142   4.195   1.831
 2664SOL    HW1 8891   5.210   4.262   1.801
 2664SOL    HW2 8892   5.130   4.125   1.760
 2665SOL     OW 8893   3.684   0.741   5.282
 2665SOL    HW1 8894   3.776   0.716   5.310
 2665SOL    HW2 8895   3.655   0.683   5.206
 2666SOL     OW 8896   4.317   6.215   1.534
 2666SOL    HW1 8897   4.224   6.252   1.533
 2666SOL    HW2 8898   4.313   6.115   1.538
 2667SOL     OW 8899   1.705   5.253   2.529
 2667SOL    HW1 8900   1.719   5.328   2.464
 2667SOL    HW2 8901   1.728   5.166   2.485
 2668SOL     OW 8902   0.342   2.669   5.631
 2668SOL    HW1 8903   0.263   2.664   5.571
 2668SOL    HW2 8904   0.377   2.576   5.647
 2669SOL     OW 8905   3.882   5.178   4.768
 2669SOL    HW1 8906   3.907   5.083   4.749
 2669SOL    HW2 8907   3.784   5.184   4.785
 2670SOL     OW 8908   2.090   7.024   4.352
 2670SOL    HW1 8909   2.161   6.954   4.353
 2670SOL    HW2 8910   2.002   6.981   4.332
 2671SOL     OW 8911   2.858   3.476   6.632
 2671SOL    HW1 8912   2.830   3.434   6.718
 2671SOL    HW2 8913   2.828   3.418   6.556
 2672SOL     OW 8914   0.924   4.429   0.765
 2672SOL    HW1 8915   0.849   4.438   0.830
 2672SOL    HW2 8916   1.006   4.472   0.802
 2673SOL     OW 8917   4.014   2.141   3.269
 2673SOL    HW1 8918   3.949   2.077   3.228
 2673SOL    HW2 8919   4.013   2.131   3.368
 2674SOL     OW 8920   5.162   5.445   5.323
 2674SOL    HW1 8921   5.175   5.446   5.422
 2674SOL    HW2 8922   5.227   5.507   5.279
 2675SOL     OW 8923   0.049   5.482   5.655
 2675SOL    HW1 8924   0.140   5.486   5.697
 2675SOL    HW2 8925   0.007   5.573   5.659
 2676SOL     OW 8926   4.240   0.204   1.738
 2676SOL    HW1 8927   4.211   0.173   1.647
 2676SOL    HW2 8928   4.260   0.302   1.735
 2677SOL     OW 8929   2.272   4.815   2.777
 2677SOL    HW1 8930   2.359   4.852   2.808
 2677SOL    HW2 8931   2.230   4.878   2.712
 2678SOL     OW 8932   1.240   6.455   0.332
 2678SOL    HW1 8933   1.163   6.496   0.283
 2678SOL    HW2 8934   1.228   6.356   0.334
 2679SOL     OW 8935   2.857   4.648   1.216
 2679SOL    HW1 8936   2.760   4.631   1.230
 2679SOL    HW2 8937   2.909   4.566   1.239
 2680SOL     OW 8938   0.152   1.700   1.143
 2680SOL    HW1 8939   0.177   1.691   1.239
 2680SOL    HW2 8940   0.145   1.797   1.120
 2681SOL     OW 8941   1.449   1.519   1.408
 2681SOL    HW1 8942   1.500   1.462   1.345
 2681SOL    HW2 8943   1.432   1.609   1.367
 2682SOL     OW 8944   0.929   2.931   3.665
 2682SOL    HW1 8945   1.019   2.908   3.702
 2682SOL    HW2 8946   0.940   2.988   3.584
 2683SOL     OW 8947   1.728   0.071   0.766
 2683SOL    HW1 8948   1.708   0.106   0.857
 2683SOL    HW2 8949   1.826   0.080   0.748
 2684SOL     OW 8950   3.628   4.892   3.290
 2684SOL    HW1 8951   3.711   4.838   3.282
 2684SOL    HW2 8952   3.643   4.966   3.356
 2685SOL     OW 8953   5.420   4.541   5.736
 2685SOL    HW1 8954   5.395   4.634   5.763
 2685SOL    HW2 8955   5.401   4.528   5.639
 2686SOL     OW 8956   1.428   3.393   3.965
 2686SOL    HW1 8957   1.336   3.405   4.003
 2686SOL    HW2 8958   1.425   3.326   3.891
 2687SOL     OW 8959   4.751   5.190   2.955
 2687SOL    HW1 8960   4.710   5.190   2.864
 2687SOL    HW2 8961   4.845   5.223   2.949
 2688SOL     OW 8962   3.351   4.607   5.604
 2688SOL    HW1 8963   3.415   4.660   5.660
 2688SOL    HW2 8964   3.395   4.583   5.517
 2689SOL     OW 8965   6.709   1.028   3.933
 2689SOL    HW1 8966   6.676   1.121   3.949
 2689SOL    HW2 8967   6.687   0.971   4.011
 2690SOL     OW 8968   3.504   4.176   3.274
 2690SOL    HW1 8969   3.460   4.125   3.200
 2690SOL    HW2 8970   3.479   4.135   3.362
 2691SOL     OW 8971   0.808   6.523   1.095
 2691SOL    HW1 8972   0.750   6.479   1.164
 2691SOL    HW2 8973   0.781   6.618   1.084
 2692SOL     OW 8974   6.932   3.836   4.049
 2692SOL    HW1 8975   6.901   3.742   4.053
 2692SOL    HW2 8976   6.952   3.869   4.141
 2693SOL     OW 8977   2.133   3.407   2.570
 2693SOL    HW1 8978   2.133   3.429   2.473
 2693SOL    HW2 8979   2.097   3.484   2.622
 2694SOL     OW 8980   2.059   1.865   2.697
 2694SOL    HW1 8981   2.144   1.903   2.733
 2694SOL    HW2 8982   2.003   1.938   2.659
 2695SOL     OW 8983   3.914   2.261   1.728
 2695SOL    HW1 8984   3.850   2.313   1.786
 2695SOL    HW2 8985   3.867   2.182   1.689
 2696SOL     OW 8986   3.049   3.299   6.859
 2696SOL    HW1 8987   3.004   3.296   6.948
 2696SOL    HW2 8988   3.021   3.220   6.804
 2697SOL     OW 8989   2.070   1.277   5.101
 2697SOL    HW1 8990   2.158   1.242   5.069
 2697SOL    HW2 8991   2.074   1.293   5.199
 2698SOL     OW 8992   2.163   2.144   0.441
 2698SOL    HW1 8993   2.227   2.192   0.381
 2698SOL    HW2 8994   2.069   2.166   0.415
 2699SOL     OW 8995   1.618   4.332   4.119
 2699SOL    HW1 8996   1.696   4.307   4.061
 2699SOL    HW2 8997   1.533   4.309   4.071
 2700SOL     OW 8998   1.888   4.541   3.424
 2700SOL    HW1 8999   1.813   4.493   3.378
 2700SOL    HW2 9000   1.862   4.558   3.520
 2701SOL     OW 9001   0.954   1.094   4.504
 2701SOL    HW1 9002   1.014   1.055   4.434
 2701SOL    HW2 9003   0.987   1.184   4.530
 2702SOL     OW 9004   6.039   5.356   2.201
 2702SOL    HW1 9005   6.011   5.451   2.185
 2702SOL    HW2 9006   5.967   5.307   2.249
 2703SOL     OW 9007   2.256   2.633   2.362
 2703SOL    HW1 9008   2.278   2.678   2.276
 2703SOL    HW2 9009   2.181   2.682   2.407
 2704SOL     OW 9010   0.465   5.677   0.976
 2704SOL    HW1 9011   0.518   5.738   0.918
 2704SOL    HW2 9012   0.484   5.698   1.072
 2705SOL     OW 9013   0.187   2.625   2.798
 2705SOL    HW1 9014   0.148   2.701   2.849
 2705SOL    HW2 9015   0.287   2.623   2.810
 2706SOL     OW 9016   7.005   2.082   3.161
 2706SOL    HW1 9017   6.909   2.085   3.134
 2706SOL    HW2 9018   7.023   2.000   3.215
 2707SOL     OW 9019   3.650   0.871   0.495
 2707SOL    HW1 9020   3.580   0.799   0.492
 2707SOL    HW2 9021   3.737   0.831   0.525
 2708SOL     OW 9022   1.142   4.462   6.613
 2708SOL    HW1 9023   1.236   4.480   6.583
 2708SOL    HW2 9024   1.086   4.438   6.534
 2709SOL     OW 9025   4.099   0.157   1.966
 2709SOL    HW1 9026   4.179   0.178   1.909
 2709SOL    HW2 9027   4.052   0.241   1.991
 2710SOL     OW 9028   5.721   3.958   3.168
 2710SOL    HW1 9029   5.646   3.961   3.102
 2710SOL    HW2 9030   5.696   3.899   3.245
 2711SOL     OW 9031   6.836   6.982   2.340
 2711SOL    HW1 9032   6.887   0.021   2.394
 2711SOL    HW2 9033   6.738   6.998   2.352
 2712SOL     OW 9034   4.070   5.425   3.142
 2712SOL    HW1 9035   3.990   5.388   3.095
 2712SOL    HW2 9036   4.144   5.358   3.141
 2713SOL     OW 9037   2.711   2.904   5.607
 2713SOL    HW1 9038   2.667   2.868   5.525
 2713SOL    HW2 9039   2.744   2.997   5.589
 2714SOL     OW 9040   5.782   0.428   6.583
 2714SOL    HW1 9041   5.733   0.515   6.589
 2714SOL    HW2 9042   5.867   0.434   6.637
 2715SOL     OW 9043   6.134   6.634   6.011
 2715SOL    HW1 9044   6.159   6.642   5.915
 2715SOL    HW2 9045   6.190   6.564   6.055
 2716SOL     OW 9046   5.887   6.612   1.730
 2716SOL    HW1 9047   5.917   6.641   1.640
 2716SOL    HW2 9048   5.882   6.691   1.791
 2717SOL     OW 9049   6.734   6.986   3.054
 2717SOL    HW1 9050   6.784   6.904   3.026
 2717SOL    HW2 9051   6.664   7.008   2.987
 2718SOL     OW 9052   6.868   3.810   3.381
 2718SOL    HW1 9053   6.958   3.854   3.385
 2718SOL    HW2 9054   6.878   3.717   3.344
 2719SOL     OW 9055   4.831   4.119   3.434
 2719SOL    HW1 9056   4.871   4.122   3.526
 2719SOL    HW2 9057   4.847   4.029   3.394
 2720SOL     OW 9058   0.049   0.070   4.347
 2720SOL    HW1 9059   7.017   0.004   4.392
 2720SOL    HW2 9060   0.144   0.038   4.351
 2721SOL     OW 9061   4.643   6.057   2.190
 2721SOL    HW1 9062   4.562   6.099   2.231
 2721SOL    HW2 9063   4.669   5.976   2.243
 2722SOL     OW 9064   0.662   6.240   2.656
 2722SOL    HW1 9065   0.680   6.327   2.701
 2722SOL    HW2 9066   0.731   6.173   2.684
 2723SOL     OW 9067   3.042   1.611   4.615
 2723SOL    HW1 9068   3.015   1.650   4.527
 2723SOL    HW2 9069   3.139   1.629   4.631
 2724SOL     OW 9070   4.334   5.631   5.954
 2724SOL    HW1 9071   4.294   5.713   5.994
 2724SOL    HW2 9072   4.393   5.657   5.877
 2725SOL     OW 9073   1.754   5.931   2.157
 2725SOL    HW1 9074   1.707   5.925   2.069
 2725SOL    HW2 9075   1.846   5.894   2.149
 2726SOL     OW 9076   4.049   6.310   2.394
 2726SOL    HW1 9077   4.092   6.296   2.483
 2726SOL    HW2 9078   3.952   6.329   2.406
 2727SOL     OW 9079   2.480   5.531   3.843
 2727SOL    HW1 9080   2.511   5.437   3.853
 2727SOL    HW2 9081   2.381   5.535   3.861
 2728SOL     OW 9082   2.324   6.394   5.209
 2728SOL    HW1 9083   2.308   6.492   5.223
 2728SOL    HW2 9084   2.329   6.348   5.298
 2729SOL     OW 9085   6.981   3.688   2.542
 2729SOL    HW1 9086   0.015   3.653   2.612
 2729SOL    HW2 9087   7.018   3.772   2.502
 2730SOL     OW 9088   1.970   2.661   1.656
 2730SOL    HW1 9089   2.069   2.648   1.649
 2730SOL    HW2 9090   1.951   2.730   1.725
 2731SOL     OW 9091   1.673   3.404   6.091
 2731SOL    HW1 9092   1.706   3.479   6.148
 2731SOL    HW2 9093   1.656   3.437   5.998
 2732SOL     OW 9094   4.994   3.035   4.471
 2732SOL    HW1 9095   5.023   3.130   4.458
 2732SOL    HW2 9096   5.022   2.981   4.392
 2733SOL     OW 9097   2.023   0.659   6.846
 2733SOL    HW1 9098   2.042   0.734   6.910
 2733SOL    HW2 9099   1.927   0.632   6.853
 2734SOL     OW 9100   2.694   6.691   3.882
 2734SOL    HW1 9101   2.790   6.693   3.910
 2734SOL    HW2 9102   2.650   6.777   3.908
 2735SOL     OW 9103   1.244   6.298   1.040
 2735SOL    HW1 9104   1.268   6.318   1.135
 2735SOL    HW2 9105   1.151   6.332   1.022
 2736SOL     OW 9106   4.221   0.488   6.848
 2736SOL    HW1 9107   4.254   0.444   6.931
 2736SOL    HW2 9108   4.298   0.513   6.790
 2737SOL     OW 9109   4.191   3.811   5.194
 2737SOL    HW1 9110   4.143   3.819   5.106
 2737SOL    HW2 9111   4.230   3.719   5.203
 2738SOL     OW 9112   0.743   3.907   5.661
 2738SOL    HW1 9113   0.647   3.896   5.635
 2738SOL    HW2 9114   0.763   3.850   5.740
 2739SOL     OW 9115   3.522   4.369   6.726
 2739SOL    HW1 9116   3.483   4.278   6.708
 2739SOL    HW2 9117   3.620   4.366   6.707
 2740SOL     OW 9118   6.376   2.617   4.672
 2740SOL    HW1 9119   6.386   2.713   4.646
 2740SOL    HW2 9120   6.421   2.601   4.760
 2741SOL     OW 9121   2.506   2.830   6.054
 2741SOL    HW1 9122   2.510   2.857   6.151
 2741SOL    HW2 9123   2.454   2.899   6.003
 2742SOL     OW 9124   2.263   6.123   4.528
 2742SOL    HW1 9125   2.347   6.100   4.578
 2742SOL    HW2 9126   2.211   6.190   4.581
 2743SOL     OW 9127   5.711   4.095   6.866
 2743SOL    HW1 9128   5.679   4.015   6.917
 2743SOL    HW2 9129   5.766   4.065   6.788
 2744SOL     OW 9130   4.938   6.329   1.245
 2744SOL    HW1 9131   5.016   6.295   1.297
 2744SOL    HW2 9132   4.970   6.392   1.174
 2745SOL     OW 9133   3.708   5.252   3.160
 2745SOL    HW1 9134   3.749   5.166   3.190
 2745SOL    HW2 9135   3.777   5.306   3.112
 2746SOL     OW 9136   1.240   2.594   0.121
 2746SOL    HW1 9137   1.213   2.690   0.119
 2746SOL    HW2 9138   1.268   2.565   0.029
 2747SOL     OW 9139   4.991   6.367   3.570
 2747SOL    HW1 9140   4.911   6.308   3.581
 2747SOL    HW2 9141   4.965   6.448   3.517
 2748SOL     OW 9142   5.879   0.515   5.148
 2748SOL    HW1 9143   5.900   0.506   5.246
 2748SOL    HW2 9144   5.957   0.557   5.102
 2749SOL     OW 9145   6.429   5.290   2.562
 2749SOL    HW1 9146   6.483   5.330   2.636
 2749SOL    HW2 9147   6.452   5.193   2.553
 2750SOL     OW 9148   0.569   1.097   0.439
 2750SOL    HW1 9149   0.553   1.195   0.457
 2750SOL    HW2 9150   0.595   1.052   0.524
 2751SOL     OW 9151   0.533   0.509   0.053
 2751SOL    HW1 9152   0.475   0.590   0.050
 2751SOL    HW2 9153   0.614   0.527   0.109
 2752SOL     OW 9154   0.553   6.654   5.807
 2752SOL    HW1 9155   0.473   6.678   5.754
 2752SOL    HW2 9156   0.636   6.669   5.753
 2753SOL     OW 9157   3.189   5.676   4.505
 2753SOL    HW1 9158   3.148   5.587   4.484
 2753SOL    HW2 9159   3.289   5.667   4.506
 2754SOL     OW 9160   0.899   5.276   4.080
 2754SOL    HW1 9161   0.998   5.274   4.093
 2754SOL    HW2 9162   0.860   5.188   4.107
 2755SOL     OW 9163   3.993   0.296   2.487
 2755SOL    HW1 9164   3.905   0.261   2.453
 2755SOL    HW2 9165   4.058   0.220   2.491
 2756SOL     OW 9166   0.322   2.445   5.050
 2756SOL    HW1 9167   0.251   2.391   5.005
 2756SOL    HW2 9168   0.411   2.400   5.040
 2757SOL     OW 9169   5.741   3.892   5.333
 2757SOL    HW1 9170   5.680   3.908   5.411
 2757SOL    HW2 9171   5.745   3.794   5.313
 2758SOL     OW 9172   0.452   6.479   1.122
 2758SOL    HW1 9173   0.507   6.522   1.052
 2758SOL    HW2 9174   0.511   6.446   1.196
 2759SOL     OW 9175   3.515   4.161   4.002
 2759SOL    HW1 9176   3.501   4.256   3.977
 2759SOL    HW2 9177   3.603   4.129   3.967
 2760SOL     OW 9178   5.175   5.934   3.085
 2760SOL    HW1 9179   5.116   5.855   3.067
 2760SOL    HW2 9180   5.141   6.013   3.034
 2761SOL     OW 9181   2.151   3.643   4.379
 2761SOL    HW1 9182   2.144   3.625   4.477
 2761SOL    HW2 9183   2.077   3.596   4.331
 2762SOL     OW 9184   4.478   1.954   2.437
 2762SOL    HW1 9185   4.468   1.855   2.431
 2762SOL    HW2 9186   4.465   1.995   2.347
 2763SOL     OW 9187   5.131   0.384   3.150
 2763SOL    HW1 9188   5.131   0.311   3.218
 2763SOL    HW2 9189   5.199   0.365   3.079
 2764SOL     OW 9190   0.054   1.594   2.747
 2764SOL    HW1 9191   0.152   1.595   2.766
 2764SOL    HW2 9192   0.004   1.619   2.830
 2765SOL     OW 9193   6.899   0.294   7.022
 2765SOL    HW1 9194   6.927   0.307   0.089
 2765SOL    HW2 9195   6.880   0.197   7.006
 2766SOL     OW 9196   5.238   6.845   0.242
 2766SOL    HW1 9197   5.328   6.863   0.282
 2766SOL    HW2 9198   5.224   6.907   0.164
 2767SOL     OW 9199   6.876   0.004   7.011
 2767SOL    HW1 9200   6.825   7.009   0.066
 2767SOL    HW2 9201   6.834   6.988   6.932
 2768SOL     OW 9202   4.426   0.446   1.746
 2768SOL    HW1 9203   4.521   0.476   1.748
 2768SOL    HW2 9204   4.396   0.432   1.652
 2769SOL     OW 9205   0.873   5.310   5.909
 2769SOL    HW1 9206   0.892   5.277   5.816
 2769SOL    HW2 9207   0.828   5.238   5.961
 2770SOL     OW 9208   1.551   6.725   6.988
 2770SOL    HW1 9209   1.499   6.730   6.903
 2770SOL    HW2 9210   1.512   6.654   0.019
 2771SOL     OW 9211   4.212   6.327   5.852
 2771SOL    HW1 9212   4.265   6.411   5.863
 2771SOL    HW2 9213   4.239   6.261   5.923
 2772SOL     OW 9214   6.241   2.110   3.509
 2772SOL    HW1 9215   6.205   2.019   3.531
 2772SOL    HW2 9216   6.339   2.103   3.489
 2773SOL     OW 9217   4.271   0.728   5.759
 2773SOL    HW1 9218   4.307   0.659   5.822
 2773SOL    HW2 9219   4.291   0.702   5.665
 2774SOL     OW 9220   6.127   6.837   4.034
 2774SOL    HW1 9221   6.151   6.747   3.996
 2774SOL    HW2 9222   6.047   6.828   4.093
 2775SOL     OW 9223   0.332   2.080   4.688
 2775SOL    HW1 9224   0.414   2.083   4.631
 2775SOL    HW2 9225   0.254   2.115   4.637
 2776SOL     OW 9226   4.980   4.195   6.043
 2776SOL    HW1 9227   4.938   4.108   6.070
 2776SOL    HW2 9228   5.076   4.195   6.069
 2777SOL     OW 9229   1.698   1.779   1.166
 2777SOL    HW1 9230   1.720   1.762   1.071
 2777SOL    HW2 9231   1.776   1.823   1.211
 2778SOL     OW 9232   2.441   6.460   4.744
 2778SOL    HW1 9233   2.522   6.442   4.800
 2778SOL    HW2 9234   2.370   6.393   4.767
 2779SOL     OW 9235   5.455   1.250   3.632
 2779SOL    HW1 9236   5.522   1.184   3.669
 2779SOL    HW2 9237   5.441   1.323   3.698
 2780SOL     OW 9238   0.722   0.075   5.679
 2780SOL    HW1 9239   0.805   0.050   5.627
 2780SOL    HW2 9240   0.668   0.139   5.625
 2781SOL     OW 9241   6.710   0.020   2.689
 2781SOL    HW1 9242   6.795   7.013   2.728
 2781SOL    HW2 9243   6.667   0.084   2.754
 2782SOL     OW 9244   5.469   6.321   5.090
 2782SOL    HW1 9245   5.513   6.355   5.007
 2782SOL    HW2 9246   5.495   6.378   5.168
 2783SOL     OW 9247   0.467   2.073   2.375
 2783SOL    HW1 9248   0.527   2.143   2.334
 2783SOL    HW2 9249   0.523   1.999   2.412
 2784SOL     OW 9250   0.645   1.870   2.475
 2784SOL    HW1 9251   0.598   1.787   2.506
 2784SOL    HW2 9252   0.743   1.859   2.489
 2785SOL     OW 9253   5.775   3.323   3.558
 2785SOL    HW1 9254   5.825   3.377   3.625
 2785SOL    HW2 9255   5.720   3.254   3.605
 2786SOL     OW 9256   0.659   6.386   1.307
 2786SOL    HW1 9257   0.600   6.382   1.388
 2786SOL    HW2 9258   0.752   6.411   1.335
 2787SOL     OW 9259   6.993   6.678   5.264
 2787SOL    HW1 9260   6.972   6.737   5.342
 2787SOL    HW2 9261   0.028   6.606   5.292
 2788SOL     OW 9262   2.747   6.311   5.647
 2788SOL    HW1 9263   2.655   6.348   5.641
 2788SOL    HW2 9264   2.808   6.359   5.584
 2789SOL     OW 9265   2.726   2.172   4.214
 2789SOL    HW1 9266   2.768   2.233   4.147
 2789SOL    HW2 9267   2.696   2.088   4.170
 2790SOL     OW 9268   1.131   4.547   0.290
 2790SOL    HW1 9269   1.111   4.534   0.387
 2790SOL    HW2 9270   1.054   4.514   0.235
 2791SOL     OW 9271   0.799   4.508   5.870
 2791SOL    HW1 9272   0.854   4.534   5.790
 2791SOL    HW2 9273   0.718   4.565   5.875
 2792SOL     OW 9274   2.446   2.890   0.332
 2792SOL    HW1 9275   2.516   2.852   0.392
 2792SOL    HW2 9276   2.377   2.820   0.313
 2793SOL     OW 9277   3.951   3.741   5.772
 2793SOL    HW1 9278   4.032   3.688   5.794
 2793SOL    HW2 9279   3.910   3.776   5.856
 2794SOL     OW 9280   1.669   1.534   0.389
 2794SOL    HW1 9281   1.702   1.497   0.302
 2794SOL    HW2 9282   1.747   1.564   0.444
 2795SOL     OW 9283   0.930   0.798   0.422
 2795SOL    HW1 9284   0.891   0.800   0.330
 2795SOL    HW2 9285   1.023   0.760   0.418
 2796SOL     OW 9286   2.800   6.110   6.377
 2796SOL    HW1 9287   2.707   6.091   6.409
 2796SOL    HW2 9288   2.831   6.033   6.321
 2797SOL     OW 9289   5.060   3.526   5.487
 2797SOL    HW1 9290   5.047   3.584   5.407
 2797SOL    HW2 9291   5.079   3.583   5.567
 2798SOL     OW 9292   5.954   2.520   2.505
 2798SOL    HW1 9293   5.926   2.554   2.595
 2798SOL    HW2 9294   5.967   2.596   2.443
 2799SOL     OW 9295   3.640   0.484   3.947
 2799SOL    HW1 9296   3.601   0.432   3.871
 2799SOL    HW2 9297   3.668   0.422   4.019
 2800SOL     OW 9298   4.838   1.563   0.903
 2800SOL    HW1 9299   4.772   1.636   0.922
 2800SOL    HW2 9300   4.864   1.519   0.989
 2801SOL     OW 9301   0.288   4.043   3.302
 2801SOL    HW1 9302   0.368   4.046   3.361
 2801SOL    HW2 9303   0.314   4.009   3.211
 2802SOL     OW 9304   2.110   4.376   4.464
 2802SOL    HW1 9305   2.154   4.465   4.472
 2802SOL    HW2 9306   2.013   4.385   4.484
 2803SOL     OW 9307   2.735   2.582   0.385
 2803SOL    HW1 9308   2.806   2.540   0.329
 2803SOL    HW2 9309   2.722   2.528   0.468
 2804SOL     OW 9310   5.482   2.514   3.438
 2804SOL    HW1 9311   5.473   2.451   3.361
 2804SOL    HW2 9312   5.424   2.483   3.514
 2805SOL     OW 9313   3.638   5.750   6.980
 2805SOL    HW1 9314   3.733   5.771   6.956
 2805SOL    HW2 9315   3.580   5.829   6.961
 2806SOL     OW 9316   1.264   3.223   5.310
 2806SOL    HW1 9317   1.200   3.296   5.288
 2806SOL    HW2 9318   1.294   3.178   5.226
 2807SOL     OW 9319   5.255   0.681   3.781
 2807SOL    HW1 9320   5.173   0.653   3.732
 2807SOL    HW2 9321   5.229   0.733   3.863
 2808SOL     OW 9322   0.482   6.878   6.829
 2808SOL    HW1 9323   0.566   6.917   6.866
 2808SOL    HW2 9324   0.416   6.866   6.903
 2809SOL     OW 9325   0.778   6.045   0.692
 2809SOL    HW1 9326   0.861   6.051   0.747
 2809SOL    HW2 9327   0.803   6.028   0.596
 2810SOL     OW 9328   6.948   6.146   2.341
 2810SOL    HW1 9329   0.016   6.120   2.347
 2810SOL    HW2 9330   6.894   6.089   2.403
 2811SOL     OW 9331   0.386   7.016   0.322
 2811SOL    HW1 9332   0.447   6.968   0.259
 2811SOL    HW2 9333   0.319   0.041   0.270
 2812SOL     OW 9334   1.692   0.402   0.545
 2812SOL    HW1 9335   1.685   0.419   0.447
 2812SOL    HW2 9336   1.766   0.338   0.562
 2813SOL     OW 9337   5.357   2.221   2.188
 2813SOL    HW1 9338   5.326   2.307   2.228
 2813SOL    HW2 9339   5.290   2.149   2.207
 2814SOL     OW 9340   2.594   4.468   6.602
 2814SOL    HW1 9341   2.538   4.410   6.543
 2814SOL    HW2 9342   2.612   4.420   6.688
 2815SOL     OW 9343   6.274   6.235   4.706
 2815SOL    HW1 9344   6.309   6.310   4.762
 2815SOL    HW2 9345   6.331   6.154   4.719
 2816SOL     OW 9346   0.903   5.256   5.346
 2816SOL    HW1 9347   0.803   5.257   5.349
 2816SOL    HW2 9348   0.933   5.265   5.251
 2817SOL     OW 9349   2.858   0.675   0.746
 2817SOL    HW1 9350   2.934   0.617   0.776
 2817SOL    HW2 9351   2.805   0.703   0.826
 2818SOL     OW 9352   1.834   0.196   0.222
 2818SOL    HW1 9353   1.744   0.213   0.263
 2818SOL    HW2 9354   1.828   0.117   0.160
 2819SOL     OW 9355   6.233   0.502   6.898
 2819SOL    HW1 9356   6.289   0.428   6.862
 2819SOL    HW2 9357   6.293   0.574   6.934
 2820SOL     OW 9358   1.498   1.917   0.212
 2820SOL    HW1 9359   1.417   1.938   0.157
 2820SOL    HW2 9360   1.555   1.999   0.219
 2821SOL     OW 9361   4.136   3.242   6.199
 2821SOL    HW1 9362   4.067   3.274   6.135
 2821SOL    HW2 9363   4.219   3.217   6.150
 2822SOL     OW 9364   4.208   3.945   1.467
 2822SOL    HW1 9365   4.172   4.014   1.404
 2822SOL    HW2 9366   4.137   3.876   1.485
 2823SOL     OW 9367   5.304   3.911   4.110
 2823SOL    HW1 9368   5.347   3.846   4.047
 2823SOL    HW2 9369   5.326   4.004   4.082
 2824SOL     OW 9370   0.978   4.874   5.753
 2824SOL    HW1 9371   1.052   4.934   5.724
 2824SOL    HW2 9372   0.977   4.869   5.853
 2825SOL     OW 9373   4.627   2.317   5.693
 2825SOL    HW1 9374   4.610   2.277   5.782
 2825SOL    HW2 9375   4.587   2.259   5.622
 2826SOL     OW 9376   2.922   2.398   6.151
 2826SOL    HW1 9377   2.877   2.399   6.062
 2826SOL    HW2 9378   3.018   2.373   6.140
 2827SOL     OW 9379   6.821   1.999   0.591
 2827SOL    HW1 9380   6.851   2.081   0.640
 2827SOL    HW2 9381   6.750   1.952   0.644
 2828SOL     OW 9382   2.072   3.814   0.026
 2828SOL    HW1 9383   2.062   3.835   6.957
 2828SOL    HW2 9384   2.164   3.836   0.056
 2829SOL     OW 9385   3.324   4.746   1.089
 2829SOL    HW1 9386   3.398   4.802   1.127
 2829SOL    HW2 9387   3.362   4.662   1.050
 2830SOL     OW 9388   2.861   5.259   4.641
 2830SOL    HW1 9389   2.772   5.298   4.663
 2830SOL    HW2 9390   2.900   5.216   4.722
 2831SOL     OW 9391   5.627   2.223   2.204
 2831SOL    HW1 9392   5.530   2.201   2.209
 2831SOL    HW2 9393   5.642   2.316   2.238
 2832SOL     OW 9394   1.600   2.797   1.365
 2832SOL    HW1 9395   1.623   2.787   1.268
 2832SOL    HW2 9396   1.575   2.892   1.383
 2833SOL     OW 9397   6.744   2.183   2.895
 2833SOL    HW1 9398   6.657   2.135   2.906
 2833SOL    HW2 9399   6.740   2.271   2.940
 2834SOL     OW 9400   3.031   0.054   3.795
 2834SOL    HW1 9401   2.954   0.116   3.810
 2834SOL    HW2 9402   3.111   0.106   3.764
 2835SOL     OW 9403   6.364   1.267   0.188
 2835SOL    HW1 9404   6.392   1.211   0.110
 2835SOL    HW2 9405   6.430   1.256   0.262
 2836SOL     OW 9406   2.881   6.247   1.958
 2836SOL    HW1 9407   2.802   6.243   2.020
 2836SOL    HW2 9408   2.887   6.338   1.918
 2837SOL     OW 9409   4.887   4.698   3.538
 2837SOL    HW1 9410   4.789   4.696   3.562
 2837SOL    HW2 9411   4.930   4.612   3.566
 2838SOL     OW 9412   0.404   5.689   6.288
 2838SOL    HW1 9413   0.353   5.771   6.260
 2838SOL    HW2 9414   0.340   5.617   6.314
 2839SOL     OW 9415   5.792   1.991   6.533
 2839SOL    HW1 9416   5.761   2.085   6.515
 2839SOL    HW2 9417   5.712   1.931   6.538
 2840SOL     OW 9418   6.405   5.606   4.694
 2840SOL    HW1 9419   6.404   5.596   4.794
 2840SOL    HW2 9420   6.464   5.537   4.654
 2841SOL     OW 9421   5.593   3.529   3.056
 2841SOL    HW1 9422   5.526   3.526   2.981
 2841SOL    HW2 9423   5.595   3.441   3.102
 2842SOL     OW 9424   1.394   5.934   3.807
 2842SOL    HW1 9425   1.400   5.973   3.899
 2842SOL    HW2 9426   1.401   6.007   3.740
 2843SOL     OW 9427   0.903   2.688   3.933
 2843SOL    HW1 9428   0.948   2.629   3.866
 2843SOL    HW2 9429   0.834   2.635   3.982
 2844SOL     OW 9430   5.447   3.927   0.864
 2844SOL    HW1 9431   5.524   3.989   0.848
 2844SOL    HW2 9432   5.402   3.908   0.777
 2845SOL     OW 9433   2.984   1.927   1.307
 2845SOL    HW1 9434   2.981   1.998   1.377
 2845SOL    HW2 9435   3.005   1.839   1.349
 2846SOL     OW 9436   5.607   0.798   5.947
 2846SOL    HW1 9437   5.617   0.855   6.028
 2846SOL    HW2 9438   5.568   0.710   5.973
 2847SOL     OW 9439   6.267   4.554   2.523
 2847SOL    HW1 9440   6.358   4.571   2.561
 2847SOL    HW2 9441   6.274   4.492   2.445
 2848SOL     OW 9442   6.890   3.739   7.016
 2848SOL    HW1 9443   6.957   3.789   0.042
 2848SOL    HW2 9444   6.934   3.660   6.973
 2849SOL     OW 9445   5.335   1.038   0.561
 2849SOL    HW1 9446   5.431   1.063   0.549
 2849SOL    HW2 9447   5.327   0.972   0.636
 2850SOL     OW 9448   0.005   1.036   1.003
 2850SOL    HW1 9449   0.036   1.097   0.930
 2850SOL    HW2 9450   0.039   0.944   0.987
 2851SOL     OW 9451   3.297   2.844   2.309
 2851SOL    HW1 9452   3.236   2.906   2.260
 2851SOL    HW2 9453   3.274   2.844   2.407
 2852SOL     OW 9454   1.529   5.035   4.883
 2852SOL    HW1 9455   1.609   4.986   4.917
 2852SOL    HW2 9456   1.557   5.120   4.839
 2853SOL     OW 9457   6.462   5.100   5.403
 2853SOL    HW1 9458   6.527   5.056   5.341
 2853SOL    HW2 9459   6.495   5.092   5.497
 2854SOL     OW 9460   3.380   0.773   6.947
 2854SOL    HW1 9461   3.365   0.785   6.848
 2854SOL    HW2 9462   3.375   0.862   6.992
 2855SOL     OW 9463   3.049   1.770   4.099
 2855SOL    HW1 9464   3.089   1.720   4.022
 2855SOL    HW2 9465   3.092   1.860   4.107
 2856SOL     OW 9466   1.016   5.384   4.708
 2856SOL    HW1 9467   1.105   5.339   4.706
 2856SOL    HW2 9468   0.989   5.401   4.803
 2857SOL     OW 9469   0.784   4.153   6.876
 2857SOL    HW1 9470   0.740   4.152   6.966
 2857SOL    HW2 9471   0.869   4.101   6.881
 2858SOL     OW 9472   5.365   4.657   4.432
 2858SOL    HW1 9473   5.295   4.588   4.413
 2858SOL    HW2 9474   5.323   4.734   4.480
 2859SOL     OW 9475   0.406   4.953   2.181
 2859SOL    HW1 9476   0.441   5.046   2.191
 2859SOL    HW2 9477   0.482   4.889   2.171
 2860SOL     OW 9478   1.415   6.487   1.910
 2860SOL    HW1 9479   1.467   6.518   1.989
 2860SOL    HW2 9480   1.349   6.558   1.883
 2861SOL     OW 9481   6.034   2.716   4.817
 2861SOL    HW1 9482   6.081   2.681   4.735
 2861SOL    HW2 9483   5.946   2.670   4.826
 2862SOL     OW 9484   4.191   1.381   1.320
 2862SOL    HW1 9485   4.113   1.432   1.282
 2862SOL    HW2 9486   4.259   1.446   1.356
 2863SOL     OW 9487   5.281   1.762   6.184
 2863SOL    HW1 9488   5.215   1.736   6.113
 2863SOL    HW2 9489   5.304   1.859   6.173
 2864SOL     OW 9490   4.736   4.201   0.180
 2864SOL    HW1 9491   4.653   4.153   0.208
 2864SOL    HW2 9492   4.783   4.237   0.260
 2865SOL     OW 9493   5.408   4.475   6.726
 2865SOL    HW1 9494   5.392   4.545   6.795
 2865SOL    HW2 9495   5.390   4.513   6.635
 2866SOL     OW 9496   5.320   6.054   0.345
 2866SOL    HW1 9497   5.233   6.103   0.356
 2866SOL    HW2 9498   5.395   6.119   0.346
 2867SOL     OW 9499   0.992   6.120   3.659
 2867SOL    HW1 9500   1.048   6.077   3.588
 2867SOL    HW2 9501   0.897   6.124   3.628
 2868SOL     OW 9502   6.254   6.337   5.346
 2868SOL    HW1 9503   6.297   6.355   5.434
 2868SOL    HW2 9504   6.157   6.364   5.350
 2869SOL     OW 9505   6.037   4.579   5.335
 2869SOL    HW1 9506   6.006   4.645   5.403
 2869SOL    HW2 9507   6.019   4.487   5.368
 2870SOL     OW 9508   0.331   1.175   1.872
 2870SOL    HW1 9509   0.364   1.259   1.829
 2870SOL    HW2 9510   0.252   1.140   1.821
 2871SOL     OW 9511   4.951   1.619   3.175
 2871SOL    HW1 9512   5.034   1.618   3.230
 2871SOL    HW2 9513   4.922   1.525   3.157
 2872SOL     OW 9514   3.209   1.157   2.260
 2872SOL    HW1 9515   3.120   1.194   2.287
 2872SOL    HW2 9516   3.225   1.071   2.307
 2873SOL     OW 9517   0.090   0.468   2.441
 2873SOL    HW1 9518   0.080   0.404   2.365
 2873SOL    HW2 9519   0.187   0.488   2.455
 2874SOL     OW 9520   1.001   0.272   2.133
 2874SOL    HW1 9521   1.018   0.368   2.109
 2874SOL    HW2 9522   0.957   0.225   2.056
 2875SOL     OW 9523   3.317   0.905   2.345
 2875SOL    HW1 9524   3.394   0.903   2.281
 2875SOL    HW2 9525   3.269   0.817   2.343
 2876SOL     OW 9526   0.981   0.428   0.234
 2876SOL    HW1 9527   0.948   0.477   0.153
 2876SOL    HW2 9528   1.046   0.485   0.284
 2877SOL     OW 9529   1.161   2.951   6.453
 2877SOL    HW1 9530   1.163   2.956   6.353
 2877SOL    HW2 9531   1.079   2.903   6.483
 2878SOL     OW 9532   3.779   3.928   4.380
 2878SOL    HW1 9533   3.782   4.009   4.438
 2878SOL    HW2 9534   3.726   3.948   4.298
 2879SOL     OW 9535   0.025   0.059   0.672
 2879SOL    HW1 9536   0.113   0.061   0.624
 2879SOL    HW2 9537   0.038   0.093   0.766
 2880SOL     OW 9538   1.492   0.917   2.278
 2880SOL    HW1 9539   1.532   0.830   2.307
 2880SOL    HW2 9540   1.556   0.991   2.297
 2881SOL     OW 9541   5.339   5.494   0.128
 2881SOL    HW1 9542   5.279   5.565   0.164
 2881SOL    HW2 9543   5.303   5.463   0.039
 2882SOL     OW 9544   4.381   6.153   0.053
 2882SOL    HW1 9545   4.406   6.056   0.056
 2882SOL    HW2 9546   4.371   6.187   0.147
 2883SOL     OW 9547   5.265   5.627   3.029
 2883SOL    HW1 9548   5.352   5.612   3.075
 2883SOL    HW2 9549   5.282   5.653   2.934
 2884SOL     OW 9550   5.610   4.993   3.365
 2884SOL    HW1 9551   5.678   4.954   3.427
 2884SOL    HW2 9552   5.626   4.960   3.272
 2885SOL     OW 9553   0.150   5.149   3.805
 2885SOL    HW1 9554   0.099   5.211   3.865
 2885SOL    HW2 9555   0.090   5.116   3.733
 2886SOL     OW 9556   1.645   4.731   5.333
 2886SOL    HW1 9557   1.582   4.665   5.294
 2886SOL    HW2 9558   1.649   4.812   5.274
 2887SOL     OW 9559   0.234   4.566   2.582
 2887SOL    HW1 9560   0.237   4.648   2.524
 2887SOL    HW2 9561   0.279   4.491   2.533
 2888SOL     OW 9562   4.297   6.018   6.829
 2888SOL    HW1 9563   4.319   6.078   6.752
 2888SOL    HW2 9564   4.295   6.072   6.913
 2889SOL     OW 9565   4.096   4.963   3.537
 2889SOL    HW1 9566   4.166   4.899   3.569
 2889SOL    HW2 9567   4.136   5.054   3.526
 2890SOL     OW 9568   1.736   1.732   0.891
 2890SOL    HW1 9569   1.711   1.647   0.844
 2890SOL    HW2 9570   1.780   1.794   0.827
 2891SOL     OW 9571   1.721   1.765   5.455
 2891SOL    HW1 9572   1.742   1.861   5.435
 2891SOL    HW2 9573   1.806   1.713   5.463
 2892SOL     OW 9574   6.118   4.627   2.148
 2892SOL    HW1 9575   6.189   4.696   2.164
 2892SOL    HW2 9576   6.031   4.660   2.185
 2893SOL     OW 9577   6.444   6.033   4.791
 2893SOL    HW1 9578   6.498   6.115   4.808
 2893SOL    HW2 9579   6.423   5.989   4.878
 2894SOL     OW 9580   1.397   5.274   1.311
 2894SOL    HW1 9581   1.383   5.176   1.297
 2894SOL    HW2 9582   1.345   5.304   1.391
 2895SOL     OW 9583   4.559   6.229   6.306
 2895SOL    HW1 9584   4.620   6.151   6.297
 2895SOL    HW2 9585   4.609   6.314   6.288
 2896SOL     OW 9586   0.030   0.606   6.772
 2896SOL    HW1 9587   0.044   0.507   6.774
 2896SOL    HW2 9588   0.030   0.638   6.677
 2897SOL     OW 9589   3.220   5.979   3.459
 2897SOL    HW1 9590   3.228   5.939   3.367
 2897SOL    HW2 9591   3.165   6.062   3.454
 2898SOL     OW 9592   5.385   3.086   2.787
 2898SOL    HW1 9593   5.368   3.095   2.689
 2898SOL    HW2 9594   5.436   3.002   2.804
 2899SOL     OW 9595   5.795   2.846   1.138
 2899SOL    HW1 9596   5.722   2.784   1.167
 2899SOL    HW2 9597   5.874   2.793   1.108
 2900SOL     OW 9598   3.526   3.310   4.652
 2900SOL    HW1 9599   3.619   3.345   4.654
 2900SOL    HW2 9600   3.511   3.258   4.567
 2901SOL     OW 9601   1.478   2.087   1.749
 2901SOL    HW1 9602   1.567   2.059   1.787
 2901SOL    HW2 9603   1.452   2.175   1.788
 2902SOL     OW 9604   5.195   6.463   3.249
 2902SOL    HW1 9605   5.228   6.554   3.276
 2902SOL    HW2 9606   5.098   6.470   3.224
 2903SOL     OW 9607   0.708   5.003   2.385
 2903SOL    HW1 9608   0.802   4.994   2.352
 2903SOL    HW2 9609   0.681   5.099   2.384
 2904SOL     OW 9610   3.760   4.890   4.478
 2904SOL    HW1 9611   3.807   4.837   4.407
 2904SOL    HW2 9612   3.809   4.975   4.495
 2905SOL     OW 9613   1.943   3.837   1.288
 2905SOL    HW1 9614   2.040   3.860   1.279
 2905SOL    HW2 9615   1.904   3.887   1.366
 2906SOL     OW 9616   6.447   6.754   5.995
 2906SOL    HW1 9617   6.545   6.741   5.981
 2906SOL    HW2 9618   6.404   6.778   5.908
 2907SOL     OW 9619   0.541   1.665   6.411
 2907SOL    HW1 9620   0.571   1.731   6.480
 2907SOL    HW2 9621   0.612   1.653   6.342
 2908SOL     OW 9622   3.142   5.567   3.748
 2908SOL    HW1 9623   3.173   5.473   3.737
 2908SOL    HW2 9624   3.135   5.589   3.845
 2909SOL     OW 9625   6.735   5.979   0.782
 2909SOL    HW1 9626   6.716   5.991   0.685
 2909SOL    HW2 9627   6.830   6.006   0.800
 2910SOL     OW 9628   1.759   6.977   3.430
 2910SOL    HW1 9629   1.849   6.961   3.470
 2910SOL    HW2 9630   1.692   6.995   3.503
 2911SOL     OW 9631   6.599   3.709   3.523
 2911SOL    HW1 9632   6.562   3.741   3.610
 2911SOL    HW2 9633   6.698   3.727   3.520
 2912SOL     OW 9634   0.309   1.201   2.890
 2912SOL    HW1 9635   0.364   1.140   2.832
 2912SOL    HW2 9636   0.231   1.150   2.927
 2913SOL     OW 9637   0.444   6.757   4.178
 2913SOL    HW1 9638   0.453   6.856   4.165
 2913SOL    HW2 9639   0.535   6.715   4.173
 2914SOL     OW 9640   3.745   4.752   0.504
 2914SOL    HW1 9641   3.727   4.654   0.496
 2914SOL    HW2 9642   3.828   4.775   0.453
 2915SOL     OW 9643   2.093   6.537   3.185
 2915SOL    HW1 9644   2.149   6.488   3.117
 2915SOL    HW2 9645   2.015   6.579   3.139
 2916SOL     OW 9646   6.976   6.589   7.012
 2916SOL    HW1 9647   7.010   6.540   0.064
 2916SOL    HW2 9648   0.025   6.636   6.968
 2917SOL     OW 9649   2.550   1.863   4.207
 2917SOL    HW1 9650   2.616   1.800   4.166
 2917SOL    HW2 9651   2.537   1.942   4.147
 2918SOL     OW 9652   5.330   0.870   1.173
 2918SOL    HW1 9653   5.401   0.876   1.243
 2918SOL    HW2 9654   5.372   0.874   1.083
 2919SOL     OW 9655   1.164   5.050   5.668
 2919SOL    HW1 9656   1.210   5.133   5.701
 2919SOL    HW2 9657   1.232   4.982   5.643
 2920SOL     OW 9658   2.696   2.658   1.532
 2920SOL    HW1 9659   2.727   2.746   1.568
 2920SOL    HW2 9660   2.724   2.584   1.593
 2921SOL     OW 9661   6.951   4.672   3.103
 2921SOL    HW1 9662   7.009   4.751   3.084
 2921SOL    HW2 9663   6.897   4.650   3.021
 2922SOL     OW 9664   3.747   5.585   4.313
 2922SOL    HW1 9665   3.729   5.678   4.347
 2922SOL    HW2 9666   3.734   5.520   4.387
 2923SOL     OW 9667   1.625   4.858   3.911
 2923SOL    HW1 9668   1.626   4.839   3.813
 2923SOL    HW2 9669   1.630   4.772   3.962
 2924SOL     OW 9670   4.296   2.309   0.182
 2924SOL    HW1 9671   4.382   2.318   0.232
 2924SOL    HW2 9672   4.224   2.280   0.246
 2925SOL     OW 9673   5.273   6.188   4.682
 2925SOL    HW1 9674   5.220   6.185   4.598
 2925SOL    HW2 9675   5.258   6.276   4.728
 2926SOL     OW 9676   6.860   2.826   5.239
 2926SOL    HW1 9677   6.907   2.802   5.324
 2926SOL    HW2 9678   6.925   2.820   5.163
 2927SOL     OW 9679   1.594   2.506   3.293
 2927SOL    HW1 9680   1.650   2.571   3.242
 2927SOL    HW2 9681   1.632   2.414   3.282
 2928SOL     OW 9682   5.092   4.800   6.818
 2928SOL    HW1 9683   5.103   4.714   6.868
 2928SOL    HW2 9684   5.117   4.876   6.877
 2929SOL     OW 9685   1.868   1.122   2.181
 2929SOL    HW1 9686   1.951   1.172   2.156
 2929SOL    HW2 9687   1.802   1.126   2.106
 2930SOL     OW 9688   1.067   3.261   3.749
 2930SOL    HW1 9689   1.071   3.201   3.669
 2930SOL    HW2 9690   1.022   3.214   3.825
 2931SOL     OW 9691   5.176   4.419   5.914
 2931SOL    HW1 9692   5.084   4.410   5.875
 2931SOL    HW2 9693   5.237   4.354   5.869
 2932SOL     OW 9694   6.332   6.823   0.402
 2932SOL    HW1 9695   6.332   6.889   0.327
 2932SOL    HW2 9696   6.373   6.737   0.370
 2933SOL     OW 9697   0.708   0.985   6.448
 2933SOL    HW1 9698   0.677   1.080   6.451
 2933SOL    HW2 9699   0.718   0.950   6.542
 2934SOL     OW 9700   4.926   5.525   2.878
 2934SOL    HW1 9701   4.963   5.550   2.789
 2934SOL    HW2 9702   4.971   5.441   2.911
 2935SOL     OW 9703   0.188   4.943   6.307
 2935SOL    HW1 9704   0.228   5.035   6.298
 2935SOL    HW2 9705   0.092   4.951   6.332
 2936SOL     OW 9706   5.002   6.426   2.597
 2936SOL    HW1 9707   4.944   6.508   2.601
 2936SOL    HW2 9708   5.083   6.446   2.542
 2937SOL     OW 9709   6.317   3.710   4.320
 2937SOL    HW1 9710   6.394   3.742   4.376
 2937SOL    HW2 9711   6.288   3.782   4.258
 2938SOL     OW 9712   6.952   5.972   1.306
 2938SOL    HW1 9713   6.879   6.013   1.250
 2938SOL    HW2 9714   6.921   5.884   1.342
 2939SOL     OW 9715   6.944   5.671   2.147
 2939SOL    HW1 9716   7.006   5.708   2.217
 2939SOL    HW2 9717   6.901   5.747   2.098
 2940SOL     OW 9718   4.848   6.104   3.215
 2940SOL    HW1 9719   4.892   6.138   3.132
 2940SOL    HW2 9720   4.916   6.054   3.269
 2941SOL     OW 9721   3.035   5.038   1.797
 2941SOL    HW1 9722   3.040   4.972   1.871
 2941SOL    HW2 9723   3.009   4.992   1.712
 2942SOL     OW 9724   2.606   1.591   0.371
 2942SOL    HW1 9725   2.599   1.532   0.451
 2942SOL    HW2 9726   2.635   1.683   0.399
 2943SOL     OW 9727   0.159   4.883   3.436
 2943SOL    HW1 9728   0.126   4.902   3.528
 2943SOL    HW2 9729   0.188   4.968   3.392
 2944SOL     OW 9730   0.414   5.167   3.981
 2944SOL    HW1 9731   0.318   5.194   3.990
 2944SOL    HW2 9732   0.441   5.171   3.885
 2945SOL     OW 9733   5.710   3.337   0.108
 2945SOL    HW1 9734   5.648   3.407   0.142
 2945SOL    HW2 9735   5.660   3.276   0.046
 2946SOL     OW 9736   3.079   3.928   4.317
 2946SOL    HW1 9737   3.109   3.947   4.223
 2946SOL    HW2 9738   3.014   3.852   4.316
 2947SOL     OW 9739   0.108   6.791   0.679
 2947SOL    HW1 9740   0.177   6.773   0.609
 2947SOL    HW2 9741   0.083   6.888   0.677
 2948SOL     OW 9742   6.132   5.482   1.042
 2948SOL    HW1 9743   6.108   5.386   1.032
 2948SOL    HW2 9744   6.069   5.538   0.988
 2949SOL     OW 9745   1.234   5.617   0.496
 2949SOL    HW1 9746   1.139   5.610   0.465
 2949SOL    HW2 9747   1.241   5.684   0.570
 2950SOL     OW 9748   5.153   4.460   2.681
 2950SOL    HW1 9749   5.154   4.549   2.726
 2950SOL    HW2 9750   5.059   4.428   2.673
 2951SOL     OW 9751   1.173   4.140   0.772
 2951SOL    HW1 9752   1.163   4.219   0.711
 2951SOL    HW2 9753   1.265   4.138   0.811
 2952SOL     OW 9754   1.553   1.295   4.039
 2952SOL    HW1 9755   1.525   1.277   3.945
 2952SOL    HW2 9756   1.489   1.251   4.102
 2953SOL     OW 9757   0.928   5.482   3.062
 2953SOL    HW1 9758   0.985   5.431   2.998
 2953SOL    HW2 9759   0.985   5.515   3.137
 2954SOL     OW 9760   6.989   4.828   5.551
 2954SOL    HW1 9761   0.022   4.756   5.519
 2954SOL    HW2 9762   6.975   4.819   5.649
 2955SOL     OW 9763   0.958   4.877   6.035
 2955SOL    HW1 9764   0.885   4.911   6.096
 2955SOL    HW2 9765   0.999   4.795   6.076
 2956SOL     OW 9766   6.355   3.723   4.977
 2956SOL    HW1 9767   6.335   3.644   5.035
 2956SOL    HW2 9768   6.358   3.694   4.881
 2957SOL     OW 9769   1.593   4.626   1.847
 2957SOL    HW1 9770   1.568   4.531   1.865
 2957SOL    HW2 9771   1.597   4.677   1.934
 2958SOL     OW 9772   1.858   3.343   1.197
 2958SOL    HW1 9773   1.799   3.341   1.116
 2958SOL    HW2 9774   1.816   3.287   1.269
 2959SOL     OW 9775   1.160   4.117   4.171
 2959SOL    HW1 9776   1.133   4.035   4.121
 2959SOL    HW2 9777   1.091   4.188   4.157
 2960SOL     OW 9778   5.231   5.144   0.636
 2960SOL    HW1 9779   5.168   5.216   0.609
 2960SOL    HW2 9780   5.178   5.064   0.667
 2961SOL     OW 9781   5.858   1.773   0.965
 2961SOL    HW1 9782   5.797   1.762   1.043
 2961SOL    HW2 9783   5.951   1.749   0.991
 2962SOL     OW 9784   6.991   0.658   3.892
 2962SOL    HW1 9785   0.036   0.636   3.956
 2962SOL    HW2 9786   6.954   0.748   3.913
 2963SOL     OW 9787   1.617   0.847   6.020
 2963SOL    HW1 9788   1.537   0.835   5.961
 2963SOL    HW2 9789   1.616   0.778   6.093
 2964SOL     OW 9790   1.075   1.526   5.826
 2964SOL    HW1 9791   1.149   1.487   5.771
 2964SOL    HW2 9792   1.057   1.466   5.904
 2965SOL     OW 9793   6.513   1.276   6.474
 2965SOL    HW1 9794   6.604   1.315   6.457
 2965SOL    HW2 9795   6.515   1.178   6.450
 2966SOL     OW 9796   3.883   0.604   2.855
 2966SOL    HW1 9797   3.930   0.653   2.929
 2966SOL    HW2 9798   3.950   0.573   2.788
 2967SOL     OW 9799   4.722   6.317   5.271
 2967SOL    HW1 9800   4.768   6.244   5.321
 2967SOL    HW2 9801   4.635   6.339   5.316
 2968SOL     OW 9802   2.179   4.014   1.538
 2968SOL    HW1 9803   2.214   3.965   1.458
 2968SOL    HW2 9804   2.182   4.112   1.521
 2969SOL     OW 9805   4.045   1.916   4.848
 2969SOL    HW1 9806   4.093   1.840   4.805
 2969SOL    HW2 9807   4.111   1.986   4.877
 2970SOL     OW 9808   2.278   2.637   6.508
 2970SOL    HW1 9809   2.356   2.586   6.472
 2970SOL    HW2 9810   2.300   2.673   6.598
 2971SOL     OW 9811   4.078   4.564   5.756
 2971SOL    HW1 9812   3.986   4.529   5.771
 2971SOL    HW2 9813   4.145   4.501   5.794
 2972SOL     OW 9814   0.515   6.179   0.742
 2972SOL    HW1 9815   0.611   6.163   0.766
 2972SOL    HW2 9816   0.483   6.106   0.682
 2973SOL     OW 9817   4.647   0.523   4.978
 2973SOL    HW1 9818   4.690   0.433   4.988
 2973SOL    HW2 9819   4.548   0.511   4.970
 2974SOL     OW 9820   5.284   4.753   2.684
 2974SOL    HW1 9821   5.215   4.825   2.684
 2974SOL    HW2 9822   5.339   4.760   2.767
 2975SOL     OW 9823   0.944   4.035   5.269
 2975SOL    HW1 9824   0.974   4.108   5.207
 2975SOL    HW2 9825   1.017   3.968   5.278
 2976SOL     OW 9826   4.114   0.070   1.502
 2976SOL    HW1 9827   4.173   7.023   1.471
 2976SOL    HW2 9828   4.085   0.124   1.423
 2977SOL     OW 9829   1.103   1.962   2.364
 2977SOL    HW1 9830   1.020   2.010   2.392
 2977SOL    HW2 9831   1.112   1.967   2.264
 2978SOL     OW 9832   3.553   5.573   0.628
 2978SOL    HW1 9833   3.646   5.608   0.627
 2978SOL    HW2 9834   3.490   5.644   0.659
 2979SOL     OW 9835   2.272   1.396   5.724
 2979SOL    HW1 9836   2.344   1.334   5.692
 2979SOL    HW2 9837   2.301   1.437   5.811
 2980SOL     OW 9838   3.577   3.222   2.943
 2980SOL    HW1 9839   3.649   3.292   2.940
 2980SOL    HW2 9840   3.560   3.188   2.851
 2981SOL     OW 9841   1.943   1.190   1.122
 2981SOL    HW1 9842   1.869   1.256   1.129
 2981SOL    HW2 9843   2.030   1.235   1.145
 2982SOL     OW 9844   0.253   0.636   2.090
 2982SOL    HW1 9845   0.198   0.647   2.172
 2982SOL    HW2 9846   0.341   0.682   2.102
 2983SOL     OW 9847   6.928   2.555   6.190
 2983SOL    HW1 9848   6.873   2.472   6.200
 2983SOL    HW2 9849   6.868   2.635   6.185
 2984SOL     OW 9850   1.047   5.964   0.752
 2984SOL    HW1 9851   1.086   5.925   0.669
 2984SOL    HW2 9852   1.084   5.916   0.832
 2985SOL     OW 9853   0.203   6.935   5.784
 2985SOL    HW1 9854   0.279   6.917   5.722
 2985SOL    HW2 9855   0.234   6.993   5.859
 2986SOL     OW 9856   4.116   3.726   2.213
 2986SOL    HW1 9857   4.150   3.734   2.119
 2986SOL    HW2 9858   4.120   3.630   2.241
 2987SOL     OW 9859   2.563   6.988   6.042
 2987SOL    HW1 9860   2.599   0.052   6.023
 2987SOL    HW2 9861   2.550   6.939   5.956
 2988SOL     OW 9862   1.036   1.552   6.594
 2988SOL    HW1 9863   1.114   1.564   6.532
 2988SOL    HW2 9864   1.059   1.484   6.663
 2989SOL     OW 9865   5.417   3.449   6.041
 2989SOL    HW1 9866   5.392   3.545   6.054
 2989SOL    HW2 9867   5.391   3.397   6.122
 2990SOL     OW 9868   5.261   1.750   4.680
 2990SOL    HW1 9869   5.295   1.694   4.755
 2990SOL    HW2 9870   5.273   1.701   4.593
 2991SOL     OW 9871   5.932   3.267   0.418
 2991SOL    HW1 9872   5.950   3.180   0.373
 2991SOL    HW2 9873   5.906   3.335   0.349
 2992SOL     OW 9874   2.052   4.269   4.778
 2992SOL    HW1 9875   2.099   4.221   4.705
 2992SOL    HW2 9876   1.991   4.205   4.825
 2993SOL     OW 9877   3.865   5.946   6.969
 2993SOL    HW1 9878   3.856   6.042   6.939
 2993SOL    HW2 9879   3.962   5.920   6.967
 2994SOL     OW 9880   3.449   5.480   5.260
 2994SOL    HW1 9881   3.381   5.531   5.208
 2994SOL    HW2 9882   3.510   5.432   5.197
 2995SOL     OW 9883   5.784   7.025   2.496
 2995SOL    HW1 9884   5.821   7.016   2.588
 2995SOL    HW2 9885   5.689   6.994   2.495
 2996SOL     OW 9886   6.377   0.438   4.663
 2996SOL    HW1 9887   6.469   0.435   4.624
 2996SOL    HW2 9888   6.354   0.533   4.686
 2997SOL     OW 9889   4.922   6.629   4.025
 2997SOL    HW1 9890   4.917   6.543   3.974
 2997SOL    HW2 9891   4.951   6.702   3.963
 2998SOL     OW 9892   2.924   0.377   1.043
 2998SOL    HW1 9893   2.954   0.394   0.949
 2998SOL    HW2 9894   2.977   0.303   1.083
 2999SOL     OW 9895   2.110   5.470   6.819
 2999SOL    HW1 9896   2.186   5.427   6.867
 2999SOL    HW2 9897   2.025   5.420   6.837
 3000SOL     OW 9898   2.485   4.271   6.482
 3000SOL    HW1 9899   2.530   4.222   6.557
 3000SOL    HW2 9900   2.430   4.206   6.429
 3001SOL     OW 9901   2.414   0.266   5.904
 3001SOL    HW1 9902   2.367   0.286   5.989
 3001SOL    HW2 9903   2.386   0.177   5.870
 3002SOL     OW 9904   1.790   1.640   1.576
 3002SOL    HW1 9905   1.746   1.580   1.643
 3002SOL    HW2 9906   1.732   1.720   1.560
 3003SOL     OW 9907   0.964   5.932   0.012
 3003SOL    HW1 9908   0.895   5.986   0.060
 3003SOL    HW2 9909   0.926   5.900   6.953
 3004SOL     OW 9910   3.019   1.110   4.635
 3004SOL    HW1 9911   2.967   1.190   4.666
 3004SOL    HW2 9912   2.979   1.027   4.674
 3005SOL     OW 9913   2.903   1.777   6.344
 3005SOL    HW1 9914   2.982   1.839   6.340
 3005SOL    HW2 9915   2.824   1.820   6.301
 3006SOL     OW 9916   5.301   1.217   5.977
 3006SOL    HW1 9917   5.348   1.188   5.894
 3006SOL    HW2 9918   5.279   1.137   6.033
 3007SOL     OW 9919   6.615   5.411   6.412
 3007SOL    HW1 9920   6.634   5.389   6.316
 3007SOL    HW2 9921   6.700   5.403   6.465
 3008SOL     OW 9922   5.598   3.904   5.566
 3008SOL    HW1 9923   5.661   3.897   5.643
 3008SOL    HW2 9924   5.542   3.821   5.561
 3009SOL     OW 9925   6.029   3.967   1.544
 3009SOL    HW1 9926   6.061   4.004   1.631
 3009SOL    HW2 9927   6.047   4.032   1.470
 3010SOL     OW 9928   4.853   4.090   1.875
 3010SOL    HW1 9929   4.869   4.161   1.807
 3010SOL    HW2 9930   4.762   4.052   1.862
 3011SOL     OW 9931   5.086   0.741   1.196
 3011SOL    HW1 9932   5.161   0.803   1.220
 3011SOL    HW2 9933   5.110   0.691   1.112
 3012SOL     OW 9934   2.077   2.742   4.675
 3012SOL    HW1 9935   2.064   2.725   4.773
 3012SOL    HW2 9936   2.168   2.779   4.659
 3013SOL     OW 9937   0.591   6.006   5.928
 3013SOL    HW1 9938   0.520   6.035   5.863
 3013SOL    HW2 9939   0.596   6.072   6.003
 3014SOL     OW 9940   3.941   6.915   1.218
 3014SOL    HW1 9941   3.935   6.869   1.307
 3014SOL    HW2 9942   3.921   6.849   1.145
 3015SOL     OW 9943   2.225   6.846   5.944
 3015SOL    HW1 9944   2.272   6.757   5.944
 3015SOL    HW2 9945   2.221   6.881   5.850
 3016SOL     OW 9946   3.477   1.178   4.527
 3016SOL    HW1 9947   3.427   1.177   4.614
 3016SOL    HW2 9948   3.492   1.273   4.499
 3017SOL     OW 9949   1.575   6.606   6.392
 3017SOL    HW1 9950   1.487   6.566   6.415
 3017SOL    HW2 9951   1.614   6.652   6.472
 3018SOL     OW 9952   2.253   2.999   1.729
 3018SOL    HW1 9953   2.285   3.093   1.740
 3018SOL    HW2 9954   2.259   2.973   1.633
 3019SOL     OW 9955   0.958   1.015   5.507
 3019SOL    HW1 9956   0.893   1.073   5.558
 3019SOL    HW2 9957   0.916   0.927   5.488
 3020SOL     OW 9958   5.375   4.213   6.775
 3020SOL    HW1 9959   5.411   4.207   6.869
 3020SOL    HW2 9960   5.338   4.305   6.760
 3021SOL     OW 9961   3.846   6.038   4.618
 3021SOL    HW1 9962   3.768   6.022   4.558
 3021SOL    HW2 9963   3.834   6.124   4.667
 3022SOL     OW 9964   3.590   6.268   2.044
 3022SOL    HW1 9965   3.538   6.184   2.029
 3022SOL    HW2 9966   3.546   6.344   1.997
 3023SOL     OW 9967   6.777   4.387   5.871
 3023SOL    HW1 9968   6.868   4.428   5.877
 3023SOL    HW2 9969   6.716   4.434   5.935
 3024SOL     OW 9970   5.891   2.074   5.839
 3024SOL    HW1 9971   5.937   2.162   5.843
 3024SOL    HW2 9972   5.890   2.033   5.931
 3025SOL     OW 9973   3.713   5.017   0.911
 3025SOL    HW1 9974   3.732   4.943   0.846
 3025SOL    HW2 9975   3.704   4.980   1.003
 3026SOL     OW 9976   6.805   5.374   2.499
 3026SOL    HW1 9977   6.764   5.444   2.441
 3026SOL    HW2 9978   6.749   5.362   2.581
 3027SOL     OW 9979   4.370   0.666   0.988
 3027SOL    HW1 9980   4.402   0.649   0.895
 3027SOL    HW2 9981   4.449   0.682   1.048
 3028SOL     OW 9982   3.515   3.481   3.783
 3028SOL    HW1 9983   3.436   3.510   3.729
 3028SOL    HW2 9984   3.484   3.446   3.872
 3029SOL     OW 9985   6.942   2.330   5.353
 3029SOL    HW1 9986   6.987   2.265   5.291
 3029SOL    HW2 9987   6.865   2.286   5.399
 3030SOL     OW 9988   0.972   3.929   6.315
 3030SOL    HW1 9989   0.896   3.989   6.292
 3030SOL    HW2 9990   1.058   3.973   6.292
 3031SOL     OW 9991   0.284   4.431   6.888
 3031SOL    HW1 9992   0.225   4.492   6.835
 3031SOL    HW2 9993   0.288   4.341   6.844
 3032SOL     OW 9994   3.118   0.314   3.630
 3032SOL    HW1 9995   3.156   0.372   3.702
 3032SOL    HW2 9996   3.125   0.360   3.542
 3033SOL     OW 9997   1.767   0.529   5.982
 3033SOL    HW1 9998   1.855   0.545   6.026
 3033SOL    HW2 9999   1.782   0.483   5.894
 3034SOL     OW10000   4.856   3.883   3.268
 3034SOL    HW110001   4.803   3.823   3.207
 3034SOL    HW210002   4.899   3.955   3.214
 3035SOL     OW10003   5.651   4.665   0.004
 3035SOL    HW110004   5.557   4.633   7.023
 3035SOL    HW210005   5.655   4.763   7.015
 3036SOL     OW10006   2.166   2.598   6.844
 3036SOL    HW110007   2.101   2.667   6.875
 3036SOL    HW210008   2.252   2.642   6.818
 3037SOL     OW10009   1.194   5.924   6.313
 3037SOL    HW110010   1.254   5.844   6.323
 3037SOL    HW210011   1.105   5.894   6.281
 3038SOL     OW10012   6.126   5.324   6.559
 3038SOL    HW110013   6.216   5.282   6.569
 3038SOL    HW210014   6.085   5.338   6.649
 3039SOL     OW10015   6.577   3.278   6.259
 3039SOL    HW110016   6.579   3.341   6.181
 3039SOL    HW210017   6.634   3.314   6.332
 3040SOL     OW10018   3.493   6.906   6.349
 3040SOL    HW110019   3.474   6.861   6.436
 3040SOL    HW210020   3.586   6.884   6.319
 3041SOL     OW10021   1.887   5.817   5.429
 3041SOL    HW110022   1.914   5.728   5.393
 3041SOL    HW210023   1.854   5.806   5.523
 3042SOL     OW10024   6.457   5.857   4.596
 3042SOL    HW110025   6.398   5.776   4.605
 3042SOL    HW210026   6.446   5.915   4.677
 3043SOL     OW10027   2.379   3.546   1.583
 3043SOL    HW110028   2.341   3.494   1.660
 3043SOL    HW210029   2.394   3.641   1.611
 3044SOL     OW10030   3.776   4.071   3.900
 3044SOL    HW110031   3.815   4.094   3.811
 3044SOL    HW210032   3.845   4.026   3.956
 3045SOL     OW10033   5.992   6.540   3.546
 3045SOL    HW110034   5.933   6.478   3.495
 3045SOL    HW210035   5.980   6.634   3.512
 3046SOL     OW10036   6.502   6.212   1.801
 3046SOL    HW110037   6.547   6.213   1.711
 3046SOL    HW210038   6.565   6.177   1.870
 3047SOL     OW10039   4.486   1.258   3.924
 3047SOL    HW110040   4.563   1.303   3.969
 3047SOL    HW210041   4.431   1.326   3.876
 3048SOL     OW10042   4.378   4.674   0.777
 3048SOL    HW110043   4.311   4.603   0.754
 3048SOL    HW210044   4.350   4.719   0.862
 3049SOL     OW10045   6.777   0.465   1.134
 3049SOL    HW110046   6.859   0.522   1.136
 3049SOL    HW210047   6.743   0.452   1.227
 3050SOL     OW10048   4.410   3.360   5.825
 3050SOL    HW110049   4.338   3.345   5.757
 3050SOL    HW210050   4.496   3.381   5.778
 3051SOL     OW10051   2.621   4.323   5.751
 3051SOL    HW110052   2.721   4.326   5.754
 3051SOL    HW210053   2.584   4.397   5.807
 3052SOL     OW10054   6.465   7.021   4.382
 3052SOL    HW110055   6.479   0.047   4.299
 3052SOL    HW210056   6.547   7.027   4.439
 3053SOL     OW10057   0.675   5.758   5.905
 3053SOL    HW110058   0.686   5.767   5.806
 3053SOL    HW210059   0.608   5.825   5.936
 3054SOL     OW10060   6.238   6.128   3.395
 3054SOL    HW110061   6.262   6.216   3.354
 3054SOL    HW210062   6.261   6.130   3.493
 3055SOL     OW10063   5.357   5.704   1.045
 3055SOL    HW110064   5.419   5.713   1.122
 3055SOL    HW210065   5.365   5.783   0.985
 3056SOL     OW10066   4.931   2.681   1.407
 3056SOL    HW110067   4.941   2.617   1.484
 3056SOL    HW210068   5.001   2.752   1.414
 3057SOL     OW10069   0.211   1.805   2.603
 3057SOL    HW110070   0.241   1.899   2.614
 3057SOL    HW210071   0.121   1.793   2.644
 3058SOL     OW10072   4.908   4.394   6.593
 3058SOL    HW110073   4.977   4.350   6.536
 3058SOL    HW210074   4.832   4.425   6.535
 3059SOL     OW10075   1.186   2.956   3.184
 3059SOL    HW110076   1.159   3.037   3.133
 3059SOL    HW210077   1.282   2.966   3.213
 3060SOL     OW10078   6.739   2.398   3.684
 3060SOL    HW110079   6.759   2.467   3.614
 3060SOL    HW210080   6.641   2.378   3.684
 3061SOL     OW10081   5.060   5.800   2.336
 3061SOL    HW110082   4.983   5.863   2.322
 3061SOL    HW210083   5.132   5.847   2.387
 3062SOL     OW10084   3.711   5.205   6.677
 3062SOL    HW110085   3.637   5.178   6.615
 3062SOL    HW210086   3.704   5.152   6.762
 3063SOL     OW10087   5.666   6.170   1.411
 3063SOL    HW110088   5.736   6.122   1.359
 3063SOL    HW210089   5.703   6.199   1.499
 3064SOL     OW10090   4.592   0.815   5.995
 3064SOL    HW110091   4.588   0.912   6.018
 3064SOL    HW210092   4.501   0.784   5.968
 3065SOL     OW10093   4.746   1.787   6.414
 3065SOL    HW110094   4.845   1.796   6.405
 3065SOL    HW210095   4.710   1.744   6.331
 3066SOL     OW10096   4.811   0.540   7.007
 3066SOL    HW110097   4.850   0.449   6.992
 3066SOL    HW210098   4.814   0.592   6.922
 3067SOL     OW10099   1.526   2.092   4.918
 3067SOL    HW110100   1.439   2.048   4.896
 3067SOL    HW210101   1.536   2.175   4.862
 3068SOL     OW10102   6.772   0.434   0.651
 3068SOL    HW110103   6.751   0.362   0.716
 3068SOL    HW210104   6.843   0.494   0.688
 3069SOL     OW10105   4.608   5.764   4.240
 3069SOL    HW110106   4.699   5.804   4.231
 3069SOL    HW210107   4.607   5.673   4.199
 3070SOL     OW10108   2.472   1.135   0.567
 3070SOL    HW110109   2.558   1.114   0.614
 3070SOL    HW210110   2.460   1.234   0.561
 3071SOL     OW10111   6.198   4.124   4.936
 3071SOL    HW110112   6.132   4.175   4.881
 3071SOL    HW210113   6.281   4.110   4.883
 3072SOL     OW10114   2.107   6.385   4.106
 3072SOL    HW110115   2.089   6.287   4.117
 3072SOL    HW210116   2.060   6.435   4.179
 3073SOL     OW10117   0.873   4.621   3.189
 3073SOL    HW110118   0.955   4.640   3.242
 3073SOL    HW210119   0.795   4.612   3.250
 3074SOL     OW10120   2.592   3.609   1.305
 3074SOL    HW110121   2.621   3.702   1.324
 3074SOL    HW210122   2.492   3.603   1.312
 3075SOL     OW10123   4.049   4.662   0.751
 3075SOL    HW110124   4.002   4.751   0.754
 3075SOL    HW210125   4.070   4.633   0.844
 3076SOL     OW10126   2.974   0.781   4.256
 3076SOL    HW110127   2.909   0.769   4.331
 3076SOL    HW210128   3.040   0.853   4.281
 3077SOL     OW10129   0.195   3.046   2.711
 3077SOL    HW110130   0.273   3.108   2.709
 3077SOL    HW210131   0.111   3.100   2.717
 3078SOL     OW10132   6.192   4.939   1.404
 3078SOL    HW110133   6.282   4.965   1.370
 3078SOL    HW210134   6.199   4.914   1.501
 3079SOL     OW10135   7.014   3.907   2.382
 3079SOL    HW110136   0.062   3.954   2.336
 3079SOL    HW210137   6.948   3.875   2.314
 3080SOL     OW10138   3.402   5.025   1.609
 3080SOL    HW110139   3.467   4.964   1.564
 3080SOL    HW210140   3.347   4.973   1.675
 3081SOL     OW10141   2.816   2.112   6.148
 3081SOL    HW110142   2.900   2.061   6.127
 3081SOL    HW210143   2.820   2.203   6.107
 3082SOL     OW10144   5.964   2.792   4.107
 3082SOL    HW110145   5.914   2.722   4.055
 3082SOL    HW210146   6.045   2.820   4.056
 3083SOL     OW10147   4.821   5.278   2.185
 3083SOL    HW110148   4.721   5.280   2.189
 3083SOL    HW210149   4.857   5.221   2.260
 3084SOL     OW10150   0.255   5.764   4.532
 3084SOL    HW110151   0.180   5.761   4.466
 3084SOL    HW210152   0.315   5.841   4.511
 3085SOL     OW10153   6.632   5.653   5.789
 3085SOL    HW110154   6.540   5.617   5.775
 3085SOL    HW210155   6.696   5.577   5.806
 3086SOL     OW10156   6.154   5.682   6.215
 3086SOL    HW110157   6.134   5.778   6.196
 3086SOL    HW210158   6.169   5.633   6.130
 3087SOL     OW10159   2.343   0.066   1.018
 3087SOL    HW110160   2.418   0.027   0.964
 3087SOL    HW210161   2.306   0.146   0.972
 3088SOL     OW10162   1.936   3.044   5.342
 3088SOL    HW110163   2.022   3.048   5.292
 3088SOL    HW210164   1.860   3.040   5.276
 3089SOL     OW10165   3.909   6.923   0.882
 3089SOL    HW110166   3.949   6.928   0.973
 3089SOL    HW210167   3.847   7.000   0.868
 3090SOL     OW10168   0.429   1.754   3.463
 3090SOL    HW110169   0.525   1.735   3.484
 3090SOL    HW210170   0.380   1.780   3.546
 3091SOL     OW10171   2.057   1.979   5.793
 3091SOL    HW110172   2.077   1.883   5.776
 3091SOL    HW210173   2.008   2.017   5.714
 3092SOL     OW10174   4.888   1.721   4.159
 3092SOL    HW110175   4.828   1.719   4.079
 3092SOL    HW210176   4.832   1.728   4.242
 3093SOL     OW10177   6.743   6.329   0.600
 3093SOL    HW110178   6.723   6.422   0.570
 3093SOL    HW210179   6.658   6.285   0.631
 3094SOL     OW10180   1.201   0.905   6.246
 3094SOL    HW110181   1.294   0.881   6.275
 3094SOL    HW210182   1.135   0.868   6.312
 3095SOL     OW10183   2.192   3.753   5.812
 3095SOL    HW110184   2.279   3.752   5.861
 3095SOL    HW210185   2.127   3.692   5.857
 3096SOL     OW10186   1.807   3.736   3.955
 3096SOL    HW110187   1.717   3.701   3.928
 3096SOL    HW210188   1.857   3.664   4.003
 3097SOL     OW10189   4.754   2.531   6.282
 3097SOL    HW110190   4.744   2.450   6.339
 3097SOL    HW210191   4.844   2.572   6.297
 3098SOL     OW10192   2.201   4.562   2.811
 3098SOL    HW110193   2.202   4.551   2.911
 3098SOL    HW210194   2.233   4.653   2.787
 3099SOL     OW10195   1.004   1.359   5.395
 3099SOL    HW110196   0.950   1.284   5.434
 3099SOL    HW210197   0.949   1.409   5.328
 3100SOL     OW10198   6.057   4.441   3.095
 3100SOL    HW110199   6.007   4.525   3.115
 3100SOL    HW210200   6.014   4.394   3.018
 3101SOL     OW10201   4.625   6.682   5.240
 3101SOL    HW110202   4.683   6.635   5.174
 3101SOL    HW210203   4.594   6.770   5.202
 3102SOL     OW10204   5.568   2.841   3.254
 3102SOL    HW110205   5.510   2.863   3.177
 3102SOL    HW210206   5.521   2.864   3.339
 3103SOL     OW10207   0.979   0.846   2.435
 3103SOL    HW110208   1.015   0.938   2.450
 3103SOL    HW210209   0.894   0.852   2.384
 3104SOL     OW10210   5.718   2.300   6.154
 3104SOL    HW110211   5.700   2.381   6.098
 3104SOL    HW210212   5.815   2.275   6.147
 3105SOL     OW10213   5.578   4.940   1.101
 3105SOL    HW110214   5.489   4.908   1.131
 3105SOL    HW210215   5.569   5.031   1.060
 3106SOL     OW10216   5.653   1.625   4.961
 3106SOL    HW110217   5.700   1.564   5.025
 3106SOL    HW210218   5.704   1.630   4.876
 3107SOL     OW10219   5.134   1.473   4.976
 3107SOL    HW110220   5.223   1.519   4.985
 3107SOL    HW210221   5.087   1.508   4.895
 3108SOL     OW10222   3.112   5.297   4.877
 3108SOL    HW110223   3.143   5.335   4.790
 3108SOL    HW210224   3.191   5.276   4.935
 3109SOL     OW10225   7.012   4.792   3.885
 3109SOL    HW110226   7.021   4.889   3.905
 3109SOL    HW210227   6.939   4.779   3.817
 3110SOL     OW10228   2.707   5.017   3.886
 3110SOL    HW110229   2.803   5.005   3.861
 3110SOL    HW210230   2.669   4.930   3.917
 3111SOL     OW10231   0.577   3.661   4.397
 3111SOL    HW110232   0.613   3.737   4.343
 3111SOL    HW210233   0.564   3.690   4.492
 3112SOL     OW10234   4.842   0.836   0.788
 3112SOL    HW110235   4.779   0.912   0.770
 3112SOL    HW210236   4.824   0.762   0.724
 3113SOL     OW10237   1.306   6.757   3.832
 3113SOL    HW110238   1.363   6.812   3.770
 3113SOL    HW210239   1.364   6.694   3.883
 3114SOL     OW10240   5.371   5.406   5.141
 3114SOL    HW110241   5.278   5.382   5.113
 3114SOL    HW210242   5.436   5.374   5.071
 3115SOL     OW10243   5.907   4.889   4.594
 3115SOL    HW110244   5.880   4.824   4.665
 3115SOL    HW210245   5.838   4.889   4.521
 3116SOL     OW10246   0.704   2.824   6.139
 3116SOL    HW110247   0.801   2.799   6.133
 3116SOL    HW210248   0.648   2.746   6.111
 3117SOL     OW10249   4.042   0.543   2.650
 3117SOL    HW110250   4.139   0.523   2.658
 3117SOL    HW210251   3.998   0.472   2.594
 3118SOL     OW10252   1.285   1.701   3.761
 3118SOL    HW110253   1.193   1.741   3.752
 3118SOL    HW210254   1.280   1.602   3.747
 3119SOL     OW10255   4.360   7.011   3.119
 3119SOL    HW110256   4.391   7.017   3.024
 3119SOL    HW210257   4.360   6.915   3.147
 3120SOL     OW10258   3.712   6.617   6.211
 3120SOL    HW110259   3.682   6.689   6.274
 3120SOL    HW210260   3.635   6.590   6.153
 3121SOL     OW10261   4.021   1.521   3.137
 3121SOL    HW110262   4.018   1.608   3.186
 3121SOL    HW210263   4.114   1.503   3.105
 3122SOL     OW10264   4.449   3.616   6.304
 3122SOL    HW110265   4.540   3.631   6.342
 3122SOL    HW210266   4.408   3.535   6.347
 3123SOL     OW10267   2.170   2.958   2.816
 3123SOL    HW110268   2.090   2.910   2.852
 3123SOL    HW210269   2.151   2.988   2.723
 3124SOL     OW10270   5.654   5.960   5.754
 3124SOL    HW110271   5.604   5.921   5.832
 3124SOL    HW210272   5.689   5.885   5.697
 3125SOL     OW10273   2.668   1.291   4.639
 3125SOL    HW110274   2.587   1.320   4.689
 3125SOL    HW210275   2.742   1.357   4.654
 3126SOL     OW10276   5.034   3.659   5.231
 3126SOL    HW110277   5.114   3.697   5.184
 3126SOL    HW210278   4.955   3.659   5.170
 3127SOL     OW10279   0.447   2.241   6.411
 3127SOL    HW110280   0.357   2.237   6.367
 3127SOL    HW210281   0.458   2.161   6.471
 3128SOL     OW10282   3.922   1.674   1.774
 3128SOL    HW110283   3.942   1.767   1.806
 3128SOL    HW210284   3.913   1.675   1.674
 3129SOL     OW10285   4.167   4.916   0.201
 3129SOL    HW110286   4.172   5.015   0.214
 3129SOL    HW210287   4.162   4.896   0.103
 3130SOL     OW10288   6.465   5.928   3.158
 3130SOL    HW110289   6.377   5.951   3.200
 3130SOL    HW210290   6.450   5.899   3.063
 3131SOL     OW10291   0.745   1.665   3.259
 3131SOL    HW110292   0.672   1.606   3.222
 3131SOL    HW210293   0.726   1.685   3.355
 3132SOL     OW10294   3.849   3.830   6.027
 3132SOL    HW110295   3.887   3.880   6.104
 3132SOL    HW210296   3.772   3.774   6.058
 3133SOL     OW10297   4.958   5.971   4.516
 3133SOL    HW110298   4.981   5.906   4.588
 3133SOL    HW210299   4.869   6.012   4.536
 3134SOL     OW10300   3.981   5.123   3.288
 3134SOL    HW110301   3.956   5.057   3.358
 3134SOL    HW210302   4.078   5.115   3.267
 3135SOL     OW10303   4.069   0.498   6.011
 3135SOL    HW110304   4.070   0.594   5.984
 3135SOL    HW210305   4.118   0.487   6.098
 3136SOL     OW10306   6.227   6.148   1.909
 3136SOL    HW110307   6.322   6.155   1.881
 3136SOL    HW210308   6.183   6.238   1.903
 3137SOL     OW10309   4.804   3.920   6.754
 3137SOL    HW110310   4.757   3.853   6.696
 3137SOL    HW210311   4.878   3.963   6.702
 3138SOL     OW10312   6.712   6.403   5.459
 3138SOL    HW110313   6.744   6.478   5.518
 3138SOL    HW210314   6.741   6.316   5.498
 3139SOL     OW10315   1.554   4.805   2.075
 3139SOL    HW110316   1.459   4.801   2.105
 3139SOL    HW210317   1.566   4.883   2.013
 3140SOL     OW10318   4.121   5.597   6.829
 3140SOL    HW110319   4.039   5.540   6.834
 3140SOL    HW210320   4.099   5.689   6.859
 3141SOL     OW10321   5.925   2.222   0.936
 3141SOL    HW110322   5.868   2.190   1.012
 3141SOL    HW210323   5.865   2.249   0.860
 3142SOL     OW10324   4.386   0.525   4.023
 3142SOL    HW110325   4.384   0.575   4.109
 3142SOL    HW210326   4.305   0.466   4.017
 3143SOL     OW10327   5.728   1.386   6.615
 3143SOL    HW110328   5.637   1.344   6.604
 3143SOL    HW210329   5.736   1.464   6.554
 3144SOL     OW10330   3.428   5.199   6.564
 3144SOL    HW110331   3.355   5.248   6.517
 3144SOL    HW210332   3.417   5.209   6.663
 3145SOL     OW10333   1.592   6.231   5.168
 3145SOL    HW110334   1.554   6.180   5.245
 3145SOL    HW210335   1.609   6.325   5.196
 3146SOL     OW10336   6.637   1.363   5.200
 3146SOL    HW110337   6.637   1.463   5.188
 3146SOL    HW210338   6.663   1.320   5.114
 3147SOL     OW10339   4.951   0.412   0.861
 3147SOL    HW110340   4.998   0.433   0.775
 3147SOL    HW210341   4.885   0.339   0.845
 3148SOL     OW10342   5.555   4.742   0.747
 3148SOL    HW110343   5.573   4.666   0.684
 3148SOL    HW210344   5.638   4.762   0.800
 3149SOL     OW10345   4.168   3.347   6.822
 3149SOL    HW110346   4.179   3.403   6.904
 3149SOL    HW210347   4.078   3.303   6.823
 3150SOL     OW10348   0.077   1.037   5.064
 3150SOL    HW110349   7.013   1.062   5.094
 3150SOL    HW210350   0.142   1.054   5.138
 3151SOL     OW10351   1.352   1.383   0.181
 3151SOL    HW110352   1.283   1.312   0.184
 3151SOL    HW210353   1.413   1.374   0.260
 3152SOL     OW10354   3.182   1.221   5.356
 3152SOL    HW110355   3.168   1.185   5.264
 3152SOL    HW210356   3.094   1.230   5.403
 3153SOL     OW10357   5.228   5.723   1.415
 3153SOL    HW110358   5.263   5.816   1.405
 3153SOL    HW210359   5.136   5.719   1.377
 3154SOL     OW10360   4.179   2.920   0.872
 3154SOL    HW110361   4.085   2.926   0.907
 3154SOL    HW210362   4.217   3.012   0.863
 3155SOL     OW10363   6.985   6.321   6.268
 3155SOL    HW110364   0.054   6.331   6.290
 3155SOL    HW210365   6.936   6.287   6.348
 3156SOL     OW10366   2.689   4.716   0.707
 3156SOL    HW110367   2.752   4.734   0.632
 3156SOL    HW210368   2.653   4.623   0.698
 3157SOL     OW10369   1.327   1.995   3.374
 3157SOL    HW110370   1.377   1.974   3.459
 3157SOL    HW210371   1.331   1.916   3.314
 3158SOL     OW10372   1.630   0.646   6.193
 3158SOL    HW110373   1.669   0.603   6.112
 3158SOL    HW210374   1.610   0.575   6.261
 3159SOL     OW10375   4.847   4.975   0.685
 3159SOL    HW110376   4.944   4.970   0.707
 3159SOL    HW210377   4.818   4.889   0.641
 3160SOL     OW10378   2.278   0.752   5.992
 3160SOL    HW110379   2.316   0.821   5.931
 3160SOL    HW210380   2.220   0.690   5.940
 3161SOL     OW10381   2.130   2.134   1.948
 3161SOL    HW110382   2.108   2.044   1.985
 3161SOL    HW210383   2.046   2.188   1.939
 3162SOL     OW10384   1.367   5.602   2.011
 3162SOL    HW110385   1.292   5.542   1.983
 3162SOL    HW210386   1.388   5.587   2.108
 3163SOL     OW10387   4.890   4.819   0.979
 3163SOL    HW110388   4.932   4.790   1.065
 3163SOL    HW210389   4.941   4.779   0.902
 3164SOL     OW10390   2.291   0.089   2.203
 3164SOL    HW110391   2.371   0.115   2.147
 3164SOL    HW210392   2.291   0.143   2.287
 3165SOL     OW10393   6.112   5.336   0.480
 3165SOL    HW110394   6.095   5.249   0.527
 3165SOL    HW210395   6.170   5.393   0.538
 3166SOL     OW10396   3.590   1.972   4.703
 3166SOL    HW110397   3.534   2.045   4.743
 3166SOL    HW210398   3.625   1.914   4.776
 3167SOL     OW10399   6.628   2.300   2.553
 3167SOL    HW110400   6.579   2.213   2.560
 3167SOL    HW210401   6.618   2.350   2.639
 3168SOL     OW10402   6.186   1.500   0.870
 3168SOL    HW110403   6.258   1.517   0.802
 3168SOL    HW210404   6.130   1.423   0.839
 3169SOL     OW10405   1.288   2.165   2.404
 3169SOL    HW110406   1.235   2.080   2.398
 3169SOL    HW210407   1.355   2.157   2.477
 3170SOL     OW10408   2.639   4.793   4.024
 3170SOL    HW110409   2.557   4.737   4.032
 3170SOL    HW210410   2.705   4.766   4.095
 3171SOL     OW10411   6.796   2.350   4.356
 3171SOL    HW110412   6.833   2.295   4.281
 3171SOL    HW210413   6.775   2.442   4.323
 3172SOL     OW10414   6.385   4.317   0.648
 3172SOL    HW110415   6.412   4.368   0.566
 3172SOL    HW210416   6.293   4.280   0.636
 3173SOL     OW10417   5.172   4.456   0.688
 3173SOL    HW110418   5.109   4.379   0.677
 3173SOL    HW210419   5.257   4.424   0.730
 3174SOL     OW10420   2.883   3.827   6.244
 3174SOL    HW110421   2.889   3.827   6.144
 3174SOL    HW210422   2.885   3.921   6.278
 3175SOL     OW10423   6.091   5.764   4.543
 3175SOL    HW110424   6.014   5.701   4.548
 3175SOL    HW210425   6.172   5.715   4.509
 3176SOL     OW10426   6.469   4.959   4.221
 3176SOL    HW110427   6.459   5.050   4.180
 3176SOL    HW210428   6.517   4.898   4.158
 3177SOL     OW10429   5.402   2.231   1.841
 3177SOL    HW110430   5.314   2.278   1.827
 3177SOL    HW210431   5.404   2.194   1.934
 3178SOL     OW10432   1.655   0.683   2.361
 3178SOL    HW110433   1.748   0.649   2.376
 3178SOL    HW210434   1.593   0.607   2.346
 3179SOL     OW10435   0.411   4.164   2.944
 3179SOL    HW110436   0.471   4.140   2.868
 3179SOL    HW210437   0.376   4.080   2.986
 3180SOL     OW10438   6.379   0.118   5.898
 3180SOL    HW110439   6.449   0.049   5.880
 3180SOL    HW210440   6.403   0.203   5.850
 3181SOL     OW10441   6.301   6.647   4.696
 3181SOL    HW110442   6.221   6.654   4.636
 3181SOL    HW210443   6.360   6.573   4.664
 3182SOL     OW10444   1.075   6.874   1.748
 3182SOL    HW110445   1.129   6.806   1.699
 3182SOL    HW210446   0.984   6.880   1.708
 3183SOL     OW10447   4.143   4.211   0.082
 3183SOL    HW110448   4.080   4.285   0.061
 3183SOL    HW210449   4.147   4.198   0.181
 3184SOL     OW10450   6.065   0.503   4.862
 3184SOL    HW110451   6.037   0.453   4.780
 3184SOL    HW210452   6.003   0.580   4.877
 3185SOL     OW10453   0.993   0.257   6.448
 3185SOL    HW110454   1.022   0.299   6.362
 3185SOL    HW210455   0.906   0.297   6.477
 3186SOL     OW10456   0.838   2.489   6.093
 3186SOL    HW110457   0.741   2.510   6.094
 3186SOL    HW210458   0.888   2.561   6.142
 3187SOL     OW10459   5.399   6.829   3.075
 3187SOL    HW110460   5.341   6.909   3.058
 3187SOL    HW210461   5.494   6.858   3.087
 3188SOL     OW10462   0.686   7.006   1.500
 3188SOL    HW110463   0.592   7.002   1.464
 3188SOL    HW210464   0.738   0.047   1.449
 3189SOL     OW10465   3.053   2.152   5.758
 3189SOL    HW110466   3.089   2.245   5.746
 3189SOL    HW210467   2.994   2.128   5.682
 3190SOL     OW10468   6.287   5.587   4.378
 3190SOL    HW110469   6.348   5.664   4.360
 3190SOL    HW210470   6.339   5.501   4.375
 3191SOL     OW10471   4.485   4.920   0.096
 3191SOL    HW110472   4.409   4.856   0.111
 3191SOL    HW210473   4.456   4.990   0.031
 3192SOL     OW10474   4.859   0.408   3.417
 3192SOL    HW110475   4.883   0.430   3.512
 3192SOL    HW210476   4.854   0.309   3.406
 3193SOL     OW10477   4.504   5.360   5.402
 3193SOL    HW110478   4.452   5.300   5.341
 3193SOL    HW210479   4.470   5.349   5.496
 3194SOL     OW10480   2.381   0.050   5.762
 3194SOL    HW110481   2.296   7.027   5.748
 3194SOL    HW210482   2.442   0.035   5.684
 3195SOL     OW10483   0.055   6.143   1.705
 3195SOL    HW110484   0.079   6.148   1.608
 3195SOL    HW210485   0.139   6.134   1.759
 3196SOL     OW10486   5.870   0.833   3.409
 3196SOL    HW110487   5.843   0.915   3.359
 3196SOL    HW210488   5.789   0.788   3.446
 3197SOL     OW10489   3.343   0.798   0.367
 3197SOL    HW110490   3.367   0.893   0.346
 3197SOL    HW210491   3.295   0.758   0.289
 3198SOL     OW10492   5.974   4.570   4.137
 3198SOL    HW110493   6.019   4.545   4.223
 3198SOL    HW210494   6.036   4.554   4.060
 3199SOL     OW10495   5.329   3.208   4.881
 3199SOL    HW110496   5.424   3.176   4.883
 3199SOL    HW210497   5.284   3.172   4.799
 3200SOL     OW10498   6.406   3.333   4.852
 3200SOL    HW110499   6.404   3.244   4.807
 3200SOL    HW210500   6.433   3.321   4.948
 3201SOL     OW10501   6.139   2.927   2.486
 3201SOL    HW110502   6.145   2.998   2.416
 3201SOL    HW210503   6.044   2.902   2.500
 3202SOL     OW10504   3.752   2.893   6.216
 3202SOL    HW110505   3.772   2.858   6.124
 3202SOL    HW210506   3.838   2.911   6.264
 3203SOL     OW10507   3.010   6.718   1.460
 3203SOL    HW110508   3.088   6.778   1.445
 3203SOL    HW210509   3.035   6.646   1.525
 3204SOL     OW10510   5.596   0.260   3.187
 3204SOL    HW110511   5.682   0.210   3.174
 3204SOL    HW210512   5.575   0.312   3.104
 3205SOL     OW10513   5.367   2.725   0.622
 3205SOL    HW110514   5.353   2.817   0.659
 3205SOL    HW210515   5.295   2.664   0.655
 3206SOL     OW10516   3.974   5.668   0.405
 3206SOL    HW110517   4.046   5.601   0.422
 3206SOL    HW210518   3.931   5.650   0.316
 3207SOL     OW10519   2.118   5.716   2.631
 3207SOL    HW110520   2.062   5.800   2.628
 3207SOL    HW210521   2.073   5.649   2.689
 3208SOL     OW10522   0.578   3.864   6.856
 3208SOL    HW110523   0.538   3.875   6.765
 3208SOL    HW210524   0.677   3.853   6.848
 3209SOL     OW10525   4.850   6.886   5.173
 3209SOL    HW110526   4.885   6.979   5.164
 3209SOL    HW210527   4.785   6.868   5.099
 3210SOL     OW10528   5.118   4.994   2.775
 3210SOL    HW110529   5.028   4.954   2.793
 3210SOL    HW210530   5.115   5.092   2.790
 3211SOL     OW10531   2.234   0.744   6.665
 3211SOL    HW110532   2.177   0.691   6.727
 3211SOL    HW210533   2.325   0.756   6.704
 3212SOL     OW10534   3.604   0.203   3.492
 3212SOL    HW110535   3.638   0.183   3.400
 3212SOL    HW210536   3.625   0.298   3.516
 3213SOL     OW10537   1.355   0.313   6.014
 3213SOL    HW110538   1.311   0.232   5.975
 3213SOL    HW210539   1.331   0.321   6.111
 3214SOL     OW10540   1.968   0.054   2.720
 3214SOL    HW110541   1.871   0.064   2.745
 3214SOL    HW210542   2.011   0.144   2.719
 3215SOL     OW10543   2.043   3.285   1.642
 3215SOL    HW110544   2.142   3.284   1.651
 3215SOL    HW210545   2.013   3.201   1.596
 3216SOL     OW10546   0.116   4.163   1.605
 3216SOL    HW110547   0.155   4.253   1.624
 3216SOL    HW210548   0.078   4.162   1.512
 3217SOL     OW10549   5.852   5.464   4.147
 3217SOL    HW110550   5.861   5.369   4.174
 3217SOL    HW210551   5.913   5.521   4.202
 3218SOL     OW10552   5.849   1.377   3.238
 3218SOL    HW110553   5.753   1.350   3.230
 3218SOL    HW210554   5.861   1.468   3.199
 3219SOL     OW10555   4.332   1.610   4.380
 3219SOL    HW110556   4.304   1.694   4.428
 3219SOL    HW210557   4.372   1.546   4.446
 3220SOL     OW10558   0.377   4.263   6.031
 3220SOL    HW110559   0.286   4.237   5.999
 3220SOL    HW210560   0.447   4.218   5.975
 3221SOL     OW10561   3.959   1.822   2.639
 3221SOL    HW110562   3.943   1.789   2.732
 3221SOL    HW210563   3.898   1.774   2.576
 3222SOL     OW10564   2.640   0.661   2.977
 3222SOL    HW110565   2.547   0.627   2.981
 3222SOL    HW210566   2.648   0.732   2.907
 3223SOL     OW10567   2.234   4.959   0.428
 3223SOL    HW110568   2.281   5.009   0.354
 3223SOL    HW210569   2.301   4.928   0.495
 3224SOL     OW10570   4.872   2.527   4.196
 3224SOL    HW110571   4.803   2.587   4.236
 3224SOL    HW210572   4.835   2.434   4.186
 3225SOL     OW10573   2.798   0.979   4.962
 3225SOL    HW110574   2.878   0.940   4.916
 3225SOL    HW210575   2.823   1.065   5.005
 3226SOL     OW10576   5.087   1.158   0.175
 3226SOL    HW110577   5.160   1.225   0.187
 3226SOL    HW210578   5.030   1.155   0.256
 3227SOL     OW10579   6.047   4.098   5.828
 3227SOL    HW110580   6.082   4.109   5.922
 3227SOL    HW210581   6.002   4.183   5.800
 3228SOL     OW10582   1.135   4.239   1.538
 3228SOL    HW110583   1.154   4.336   1.526
 3228SOL    HW210584   1.218   4.186   1.516
 3229SOL     OW10585   0.780   1.026   6.956
 3229SOL    HW110586   0.762   1.030   0.026
 3229SOL    HW210587   0.695   1.007   6.907
 3230SOL     OW10588   3.741   0.242   5.076
 3230SOL    HW110589   3.783   0.159   5.114
 3230SOL    HW210590   3.808   0.291   5.021
 3231SOL     OW10591   2.750   2.140   3.216
 3231SOL    HW110592   2.844   2.148   3.251
 3231SOL    HW210593   2.731   2.217   3.155
 3232SOL     OW10594   3.115   5.156   3.226
 3232SOL    HW110595   3.174   5.106   3.163
 3232SOL    HW210596   3.142   5.137   3.320
 3233SOL     OW10597   2.255   6.775   4.944
 3233SOL    HW110598   2.231   6.704   5.010
 3233SOL    HW210599   2.258   6.864   4.990
 3234SOL     OW10600   3.389   3.707   0.333
 3234SOL    HW110601   3.429   3.671   0.417
 3234SOL    HW210602   3.307   3.653   0.310
 3235SOL     OW10603   0.395   1.387   3.103
 3235SOL    HW110604   0.421   1.291   3.109
 3235SOL    HW210605   0.309   1.402   3.152
 3236SOL     OW10606   6.102   6.278   0.235
 3236SOL    HW110607   6.080   6.358   0.292
 3236SOL    HW210608   6.183   6.233   0.271
 3237SOL     OW10609   5.863   2.970   5.326
 3237SOL    HW110610   5.812   3.049   5.359
 3237SOL    HW210611   5.804   2.917   5.265
 3238SOL     OW10612   0.752   4.357   0.965
 3238SOL    HW110613   0.684   4.352   0.892
 3238SOL    HW210614   0.706   4.375   1.052
 3239SOL     OW10615   6.343   1.322   4.289
 3239SOL    HW110616   6.327   1.311   4.191
 3239SOL    HW210617   6.268   1.375   4.329
 3240SOL     OW10618   1.004   1.629   1.923
 3240SOL    HW110619   0.966   1.660   2.010
 3240SOL    HW210620   0.993   1.530   1.915
 3241SOL     OW10621   6.717   2.390   6.226
 3241SOL    HW110622   6.715   2.420   6.131
 3241SOL    HW210623   6.732   2.291   6.230
 3242SOL     OW10624   6.651   5.381   5.265
 3242SOL    HW110625   6.687   5.471   5.241
 3242SOL    HW210626   6.727   5.319   5.285
 3243SOL     OW10627   6.616   5.012   5.203
 3243SOL    HW110628   6.604   5.070   5.122
 3243SOL    HW210629   6.711   4.980   5.208
 3244SOL     OW10630   5.073   0.092   0.375
 3244SOL    HW110631   4.983   0.094   0.420
 3244SOL    HW210632   5.061   0.095   0.276
 3245SOL     OW10633   1.594   6.544   4.607
 3245SOL    HW110634   1.607   6.446   4.623
 3245SOL    HW210635   1.618   6.566   4.513
 3246SOL     OW10636   6.455   4.664   1.876
 3246SOL    HW110637   6.389   4.609   1.825
 3246SOL    HW210638   6.526   4.605   1.913
 3247SOL     OW10639   2.117   3.906   4.934
 3247SOL    HW110640   2.116   3.831   5.000
 3247SOL    HW210641   2.189   3.971   4.958
 3248SOL     OW10642   6.072   2.011   4.218
 3248SOL    HW110643   6.022   1.941   4.269
 3248SOL    HW210644   6.014   2.049   4.147
 3249SOL     OW10645   3.404   4.058   3.730
 3249SOL    HW110646   3.384   4.111   3.812
 3249SOL    HW210647   3.370   3.964   3.742
 3250SOL     OW10648   4.448   5.233   3.487
 3250SOL    HW110649   4.466   5.139   3.458
 3250SOL    HW210650   4.525   5.267   3.541
 3251SOL     OW10651   2.502   2.502   2.123
 3251SOL    HW110652   2.449   2.418   2.108
 3251SOL    HW210653   2.455   2.559   2.190
 3252SOL     OW10654   1.508   2.215   2.892
 3252SOL    HW110655   1.458   2.168   2.965
 3252SOL    HW210656   1.508   2.314   2.910
 3253SOL     OW10657   6.593   3.571   1.350
 3253SOL    HW110658   6.596   3.633   1.271
 3253SOL    HW210659   6.665   3.595   1.414
 3254SOL     OW10660   5.554   7.001   0.601
 3254SOL    HW110661   5.633   6.969   0.653
 3254SOL    HW210662   5.471   6.988   0.655
 3255SOL     OW10663   3.609   4.919   2.179
 3255SOL    HW110664   3.608   4.885   2.085
 3255SOL    HW210665   3.530   4.881   2.228
 3256SOL     OW10666   5.259   2.521   2.550
 3256SOL    HW110667   5.296   2.612   2.565
 3256SOL    HW210668   5.250   2.504   2.452
 3257SOL     OW10669   2.940   1.286   2.216
 3257SOL    HW110670   3.008   1.340   2.166
 3257SOL    HW210671   2.925   1.199   2.170
 3258SOL     OW10672   6.928   5.865   4.762
 3258SOL    HW110673   6.843   5.830   4.800
 3258SOL    HW210674   6.918   5.879   4.663
 3259SOL     OW10675   6.389   5.535   2.350
 3259SOL    HW110676   6.422   5.476   2.423
 3259SOL    HW210677   6.422   5.501   2.262
 3260SOL     OW10678   2.588   4.858   3.571
 3260SOL    HW110679   2.638   4.942   3.548
 3260SOL    HW210680   2.640   4.806   3.640
 3261SOL     OW10681   6.554   0.861   4.126
 3261SOL    HW110682   6.488   0.797   4.088
 3261SOL    HW210683   6.508   0.924   4.188
 3262SOL     OW10684   3.522   2.079   2.358
 3262SOL    HW110685   3.535   1.980   2.358
 3262SOL    HW210686   3.586   2.120   2.293
 3263SOL     OW10687   5.577   0.399   0.735
 3263SOL    HW110688   5.551   0.419   0.640
 3263SOL    HW210689   5.498   0.415   0.795
 3264SOL     OW10690   1.174   5.594   0.135
 3264SOL    HW110691   1.210   5.687   0.126
 3264SOL    HW210692   1.119   5.572   0.054
 3265SOL     OW10693   6.804   5.742   5.584
 3265SOL    HW110694   6.754   5.705   5.662
 3265SOL    HW210695   6.803   5.842   5.588
 3266SOL     OW10696   3.138   4.474   6.714
 3266SOL    HW110697   3.140   4.552   6.651
 3266SOL    HW210698   3.230   4.457   6.748
 3267SOL     OW10699   2.823   0.388   6.759
 3267SOL    HW110700   2.894   0.422   6.820
 3267SOL    HW210701   2.827   0.289   6.754
 3268SOL     OW10702   5.664   3.918   2.761
 3268SOL    HW110703   5.580   3.911   2.706
 3268SOL    HW210704   5.743   3.901   2.702
 3269SOL     OW10705   2.402   5.576   0.094
 3269SOL    HW110706   2.410   5.517   0.013
 3269SOL    HW210707   2.311   5.616   0.097
 3270SOL     OW10708   1.998   3.615   5.925
 3270SOL    HW110709   1.932   3.668   5.871
 3270SOL    HW210710   1.957   3.527   5.950
 3271SOL     OW10711   1.661   3.816   1.842
 3271SOL    HW110712   1.732   3.779   1.782
 3271SOL    HW210713   1.702   3.846   1.928
 3272SOL     OW10714   3.248   0.277   0.388
 3272SOL    HW110715   3.182   0.340   0.429
 3272SOL    HW210716   3.331   0.276   0.443
 3273SOL     OW10717   4.382   3.917   6.760
 3273SOL    HW110718   4.475   3.880   6.763
 3273SOL    HW210719   4.369   3.981   6.835
 3274SOL     OW10720   4.740   0.403   1.935
 3274SOL    HW110721   4.721   0.475   1.869
 3274SOL    HW210722   4.832   0.366   1.919
 3275SOL     OW10723   4.969   0.418   1.524
 3275SOL    HW110724   4.911   0.451   1.450
 3275SOL    HW210725   4.972   0.318   1.522
 3276SOL     OW10726   6.743   6.412   1.455
 3276SOL    HW110727   6.831   6.446   1.489
 3276SOL    HW210728   6.753   6.385   1.359
 3277SOL     OW10729   5.497   0.851   2.058
 3277SOL    HW110730   5.591   0.818   2.069
 3277SOL    HW210731   5.433   0.779   2.086
 3278SOL     OW10732   4.961   1.297   6.816
 3278SOL    HW110733   5.054   1.284   6.851
 3278SOL    HW210734   4.914   1.209   6.814
 3279SOL     OW10735   3.761   0.199   2.403
 3279SOL    HW110736   3.674   0.242   2.428
 3279SOL    HW210737   3.754   0.162   2.310
 3280SOL     OW10738   0.561   1.975   4.452
 3280SOL    HW110739   0.661   1.976   4.452
 3280SOL    HW210740   0.529   1.898   4.508
 3281SOL     OW10741   5.518   2.771   1.868
 3281SOL    HW110742   5.592   2.814   1.921
 3281SOL    HW210743   5.555   2.695   1.815
 3282SOL     OW10744   6.790   5.171   6.066
 3282SOL    HW110745   6.887   5.150   6.055
 3282SOL    HW210746   6.767   5.253   6.013
 3283SOL     OW10747   3.581   1.791   0.104
 3283SOL    HW110748   3.626   1.742   0.178
 3283SOL    HW210749   3.644   1.860   0.067
 3284SOL     OW10750   2.128   1.000   5.449
 3284SOL    HW110751   2.225   0.992   5.429
 3284SOL    HW210752   2.083   0.912   5.435
 3285SOL     OW10753   4.535   1.685   4.728
 3285SOL    HW110754   4.629   1.705   4.702
 3285SOL    HW210755   4.523   1.586   4.736
 3286SOL     OW10756   1.787   4.196   3.916
 3286SOL    HW110757   1.805   4.220   3.821
 3286SOL    HW210758   1.857   4.133   3.949
 3287SOL     OW10759   3.169   1.714   0.932
 3287SOL    HW110760   3.072   1.704   0.910
 3287SOL    HW210761   3.182   1.706   1.031
 3288SOL     OW10762   3.300   5.574   1.109
 3288SOL    HW110763   3.230   5.634   1.069
 3288SOL    HW210764   3.272   5.546   1.200
 3289SOL     OW10765   5.722   7.004   0.024
 3289SOL    HW110766   5.759   0.017   6.969
 3289SOL    HW210767   5.644   0.030   0.057
 3290SOL     OW10768   0.418   4.045   7.015
 3290SOL    HW110769   0.478   3.987   6.960
 3290SOL    HW210770   0.451   4.047   0.082
 3291SOL     OW10771   5.525   6.605   6.053
 3291SOL    HW110772   5.490   6.672   5.988
 3291SOL    HW210773   5.450   6.574   6.112
 3292SOL     OW10774   0.413   3.044   0.700
 3292SOL    HW110775   0.404   3.122   0.638
 3292SOL    HW210776   0.415   3.077   0.795
 3293SOL     OW10777   0.090   4.909   1.611
 3293SOL    HW110778   0.162   4.956   1.560
 3293SOL    HW210779   0.118   4.814   1.628
 3294SOL     OW10780   4.002   3.013   5.478
 3294SOL    HW110781   4.097   3.012   5.448
 3294SOL    HW210782   3.949   2.950   5.421
 3295SOL     OW10783   1.472   3.623   3.096
 3295SOL    HW110784   1.408   3.690   3.058
 3295SOL    HW210785   1.563   3.640   3.058
 3296SOL     OW10786   2.116   0.871   6.993
 3296SOL    HW110787   2.146   0.955   6.948
 3296SOL    HW210788   2.079   0.893   0.055
 3297SOL     OW10789   2.628   1.254   5.979
 3297SOL    HW110790   2.606   1.169   6.026
 3297SOL    HW210791   2.726   1.270   5.983
 3298SOL     OW10792   3.478   3.896   6.091
 3298SOL    HW110793   3.440   3.822   6.147
 3298SOL    HW210794   3.468   3.873   5.994
 3299SOL     OW10795   2.671   6.430   4.056
 3299SOL    HW110796   2.690   6.521   4.021
 3299SOL    HW210797   2.585   6.431   4.109
 3300SOL     OW10798   2.260   1.370   2.447
 3300SOL    HW110799   2.213   1.374   2.536
 3300SOL    HW210800   2.219   1.298   2.391
 3301SOL     OW10801   1.038   0.712   1.932
 3301SOL    HW110802   0.950   0.710   1.885
 3301SOL    HW210803   1.105   0.759   1.874
 3302SOL     OW10804   1.900   5.633   4.891
 3302SOL    HW110805   1.890   5.701   4.964
 3302SOL    HW210806   1.819   5.636   4.832
 3303SOL     OW10807   4.465   4.576   0.011
 3303SOL    HW110808   4.535   4.506   0.000
 3303SOL    HW210809   4.444   4.587   0.108
 3304SOL     OW10810   2.445   3.613   0.781
 3304SOL    HW110811   2.450   3.546   0.854
 3304SOL    HW210812   2.538   3.643   0.756
 3305SOL     OW10813   3.142   2.712   0.180
 3305SOL    HW110814   3.077   2.751   0.246
 3305SOL    HW210815   3.104   2.717   0.088
 3306SOL     OW10816   3.081   0.528   0.804
 3306SOL    HW110817   3.152   0.483   0.857
 3306SOL    HW210818   3.104   0.524   0.707
 3307SOL     OW10819   1.956   6.248   5.086
 3307SOL    HW110820   1.959   6.173   5.151
 3307SOL    HW210821   1.971   6.335   5.133
 3308SOL     OW10822   5.475   5.267   1.635
 3308SOL    HW110823   5.425   5.300   1.555
 3308SOL    HW210824   5.536   5.192   1.608
 3309SOL     OW10825   5.628   3.055   4.281
 3309SOL    HW110826   5.619   3.149   4.315
 3309SOL    HW210827   5.697   3.052   4.209
 3310SOL     OW10828   6.247   4.071   0.125
 3310SOL    HW110829   6.217   4.101   0.034
 3310SOL    HW210830   6.181   4.104   0.193
 3311SOL     OW10831   0.680   3.249   1.656
 3311SOL    HW110832   0.767   3.278   1.615
 3311SOL    HW210833   0.605   3.275   1.596
 3312SOL     OW10834   5.167   3.674   7.010
 3312SOL    HW110835   5.140   3.770   6.998
 3312SOL    HW210836   5.246   3.656   6.951
 3313SOL     OW10837   0.744   6.059   4.088
 3313SOL    HW110838   0.772   6.103   4.003
 3313SOL    HW210839   0.769   6.117   4.166
 3314SOL     OW10840   3.771   6.084   3.731
 3314SOL    HW110841   3.779   5.997   3.684
 3314SOL    HW210842   3.862   6.117   3.757
 3315SOL     OW10843   0.831   6.839   3.759
 3315SOL    HW110844   0.915   6.785   3.756
 3315SOL    HW210845   0.756   6.781   3.792
 3316SOL     OW10846   3.982   1.970   0.865
 3316SOL    HW110847   4.080   1.989   0.871
 3316SOL    HW210848   3.958   1.895   0.927
 3317SOL     OW10849   5.362   2.420   1.153
 3317SOL    HW110850   5.457   2.397   1.172
 3317SOL    HW210851   5.309   2.336   1.141
 3318SOL     OW10852   3.898   2.744   0.290
 3318SOL    HW110853   3.946   2.796   0.220
 3318SOL    HW210854   3.854   2.807   0.354
 3319SOL     OW10855   6.619   6.594   3.694
 3319SOL    HW110856   6.554   6.540   3.640
 3319SOL    HW210857   6.601   6.692   3.679
 3320SOL     OW10858   5.582   0.344   2.902
 3320SOL    HW110859   5.665   0.328   2.849
 3320SOL    HW210860   5.586   0.434   2.944
 3321SOL     OW10861   4.476   1.480   6.308
 3321SOL    HW110862   4.419   1.561   6.298
 3321SOL    HW210863   4.489   1.460   6.405
 3322SOL     OW10864   5.816   3.542   2.338
 3322SOL    HW110865   5.748   3.607   2.372
 3322SOL    HW210866   5.816   3.460   2.395
 3323SOL     OW10867   6.657   0.734   2.495
 3323SOL    HW110868   6.638   0.763   2.401
 3323SOL    HW210869   6.752   0.704   2.502
 3324SOL     OW10870   6.304   5.727   6.754
 3324SOL    HW110871   6.273   5.697   6.663
 3324SOL    HW210872   6.237   5.698   6.823
 3325SOL     OW10873   2.494   5.191   6.612
 3325SOL    HW110874   2.498   5.281   6.570
 3325SOL    HW210875   2.573   5.179   6.672
 3326SOL     OW10876   3.672   1.373   1.621
 3326SOL    HW110877   3.631   1.316   1.551
 3326SOL    HW210878   3.657   1.332   1.711
 3327SOL     OW10879   1.632   6.190   5.636
 3327SOL    HW110880   1.549   6.134   5.643
 3327SOL    HW210881   1.645   6.240   5.721
 3328SOL     OW10882   4.064   2.601   5.606
 3328SOL    HW110883   4.041   2.622   5.511
 3328SOL    HW210884   4.046   2.682   5.663
 3329SOL     OW10885   0.318   6.586   5.258
 3329SOL    HW110886   0.380   6.509   5.270
 3329SOL    HW210887   0.318   6.615   5.162
 3330SOL     OW10888   6.808   3.205   3.202
 3330SOL    HW110889   6.829   3.152   3.120
 3330SOL    HW210890   6.738   3.157   3.256
 3331SOL     OW10891   1.616   3.709   0.630
 3331SOL    HW110892   1.605   3.644   0.555
 3331SOL    HW210893   1.548   3.689   0.701
 3332SOL     OW10894   6.510   3.424   1.987
 3332SOL    HW110895   6.574   3.437   2.063
 3332SOL    HW210896   6.430   3.482   2.001
 3333SOL     OW10897   2.679   6.576   5.086
 3333SOL    HW110898   2.678   6.523   5.002
 3333SOL    HW210899   2.652   6.670   5.066
 3334SOL     OW10900   1.728   2.870   1.121
 3334SOL    HW110901   1.697   2.895   1.029
 3334SOL    HW210902   1.804   2.930   1.148
 3335SOL     OW10903   5.438   4.096   5.483
 3335SOL    HW110904   5.467   4.164   5.416
 3335SOL    HW210905   5.518   4.046   5.517
 3336SOL     OW10906   3.631   5.994   5.663
 3336SOL    HW110907   3.590   5.993   5.754
 3336SOL    HW210908   3.720   6.040   5.667
 3337SOL     OW10909   4.028   1.348   1.019
 3337SOL    HW110910   3.942   1.348   1.071
 3337SOL    HW210911   4.011   1.384   0.927
 3338SOL     OW10912   6.373   6.008   0.541
 3338SOL    HW110913   6.317   5.935   0.581
 3338SOL    HW210914   6.341   6.028   0.449
 3339SOL     OW10915   0.462   5.167   0.262
 3339SOL    HW110916   0.542   5.122   0.222
 3339SOL    HW210917   0.456   5.144   0.359
 3340SOL     OW10918   4.389   0.801   1.903
 3340SOL    HW110919   4.489   0.803   1.906
 3340SOL    HW210920   4.355   0.893   1.883
 3341SOL     OW10921   0.947   0.464   6.742
 3341SOL    HW110922   1.023   0.528   6.742
 3341SOL    HW210923   0.913   0.452   6.649
 3342SOL     OW10924   1.350   6.862   4.993
 3342SOL    HW110925   1.397   6.940   5.035
 3342SOL    HW210926   1.418   6.792   4.968
 3343SOL     OW10927   0.109   2.087   1.411
 3343SOL    HW110928   0.098   2.055   1.317
 3343SOL    HW210929   0.201   2.123   1.424
 3344SOL     OW10930   1.584   2.117   6.974
 3344SOL    HW110931   1.602   2.214   6.955
 3344SOL    HW210932   1.526   2.110   0.028
 3345SOL     OW10933   3.186   3.080   0.139
 3345SOL    HW110934   3.092   3.103   0.163
 3345SOL    HW210935   3.190   2.984   0.111
 3346SOL     OW10936   2.956   5.550   2.728
 3346SOL    HW110937   2.965   5.544   2.628
 3346SOL    HW210938   2.888   5.619   2.751
 3347SOL     OW10939   5.651   3.924   3.991
 3347SOL    HW110940   5.658   3.977   4.075
 3347SOL    HW210941   5.637   3.828   4.013
 3348SOL     OW10942   3.955   3.955   3.324
 3348SOL    HW110943   3.871   3.970   3.272
 3348SOL    HW210944   4.015   3.893   3.274
 3349SOL     OW10945   5.583   2.152   0.735
 3349SOL    HW110946   5.505   2.179   0.679
 3349SOL    HW210947   5.662   2.209   0.711
 3350SOL     OW10948   2.022   2.499   1.297
 3350SOL    HW110949   2.021   2.505   1.197
 3350SOL    HW210950   1.932   2.523   1.332
 3351SOL     OW10951   6.190   2.664   1.186
 3351SOL    HW110952   6.140   2.686   1.269
 3351SOL    HW210953   6.159   2.576   1.150
 3352SOL     OW10954   0.123   3.725   0.541
 3352SOL    HW110955   0.159   3.633   0.527
 3352SOL    HW210956   0.094   3.763   0.453
 3353SOL     OW10957   0.905   6.289   6.425
 3353SOL    HW110958   0.963   6.208   6.424
 3353SOL    HW210959   0.917   6.341   6.341
 3354SOL     OW10960   0.302   6.056   2.531
 3354SOL    HW110961   0.342   6.124   2.592
 3354SOL    HW210962   0.337   5.965   2.555
 3355SOL     OW10963   5.640   1.138   3.002
 3355SOL    HW110964   5.547   1.109   3.022
 3355SOL    HW210965   5.653   1.142   2.903
 3356SOL     OW10966   2.154   3.345   6.550
 3356SOL    HW110967   2.059   3.377   6.543
 3356SOL    HW210968   2.211   3.419   6.584
 3357SOL     OW10969   2.873   6.074   2.766
 3357SOL    HW110970   2.778   6.104   2.760
 3357SOL    HW210971   2.876   5.976   2.787
 3358SOL     OW10972   0.251   3.402   3.410
 3358SOL    HW110973   0.164   3.388   3.364
 3358SOL    HW210974   0.245   3.369   3.505
 3359SOL     OW10975   2.538   1.617   1.982
 3359SOL    HW110976   2.448   1.636   2.020
 3359SOL    HW210977   2.563   1.691   1.919
 3360SOL     OW10978   2.213   0.818   6.410
 3360SOL    HW110979   2.126   0.796   6.365
 3360SOL    HW210980   2.205   0.802   6.508
 3361SOL     OW10981   2.371   0.920   2.528
 3361SOL    HW110982   2.459   0.959   2.555
 3361SOL    HW210983   2.310   0.918   2.607
 3362SOL     OW10984   3.297   2.107   4.289
 3362SOL    HW110985   3.226   2.166   4.329
 3362SOL    HW210986   3.321   2.036   4.355
 3363SOL     OW10987   6.766   0.277   0.410
 3363SOL    HW110988   6.672   0.273   0.377
 3363SOL    HW210989   6.771   0.335   0.491
 3364SOL     OW10990   1.907   5.815   5.108
 3364SOL    HW110991   1.896   5.910   5.079
 3364SOL    HW210992   1.992   5.806   5.160
 3365SOL     OW10993   6.068   2.435   5.595
 3365SOL    HW110994   6.096   2.342   5.576
 3365SOL    HW210995   5.981   2.434   5.645
 3366SOL     OW10996   4.643   1.677   0.631
 3366SOL    HW110997   4.662   1.605   0.698
 3366SOL    HW210998   4.728   1.723   0.607
 3367SOL     OW10999   1.740   6.777   2.028
 3367SOL    HW111000   1.650   6.817   2.014
 3367SOL    HW211001   1.735   6.678   2.015
 3368SOL     OW11002   6.081   1.376   4.824
 3368SOL    HW111003   5.987   1.387   4.792
 3368SOL    HW211004   6.081   1.335   4.915
 3369SOL     OW11005   3.489   5.498   6.605
 3369SOL    HW111006   3.479   5.415   6.659
 3369SOL    HW211007   3.571   5.547   6.633
 3370SOL     OW11008   5.531   0.921   5.671
 3370SOL    HW111009   5.591   0.906   5.750
 3370SOL    HW211010   5.479   0.837   5.652
 3371SOL     OW11011   6.518   5.249   1.407
 3371SOL    HW111012   6.470   5.169   1.370
 3371SOL    HW211013   6.476   5.276   1.493
 3372SOL     OW11014   1.727   3.094   2.884
 3372SOL    HW111015   1.700   3.012   2.833
 3372SOL    HW211016   1.810   3.132   2.843
 3373SOL     OW11017   1.574   3.000   6.280
 3373SOL    HW111018   1.606   3.092   6.258
 3373SOL    HW211019   1.647   2.934   6.265
 3374SOL     OW11020   3.294   6.106   5.104
 3374SOL    HW111021   3.369   6.165   5.076
 3374SOL    HW211022   3.209   6.159   5.110
 3375SOL     OW11023   3.103   4.305   5.356
 3375SOL    HW111024   3.129   4.223   5.406
 3375SOL    HW211025   3.005   4.302   5.336
 3376SOL     OW11026   3.458   3.110   1.690
 3376SOL    HW111027   3.400   3.047   1.740
 3376SOL    HW211028   3.422   3.203   1.698
 3377SOL     OW11029   2.721   4.963   5.771
 3377SOL    HW111030   2.750   5.046   5.819
 3377SOL    HW211031   2.801   4.909   5.745
 3378SOL     OW11032   6.678   0.985   0.428
 3378SOL    HW111033   6.623   0.906   0.455
 3378SOL    HW211034   6.770   0.975   0.468
 3379SOL     OW11035   6.142   5.405   6.291
 3379SOL    HW111036   6.129   5.393   6.389
 3379SOL    HW211037   6.101   5.491   6.262
 3380SOL     OW11038   0.486   3.632   4.974
 3380SOL    HW111039   0.554   3.680   5.030
 3380SOL    HW211040   0.396   3.638   5.018
 3381SOL     OW11041   3.466   2.386   1.250
 3381SOL    HW111042   3.496   2.379   1.155
 3381SOL    HW211043   3.544   2.412   1.307
 3382SOL     OW11044   0.446   5.974   0.174
 3382SOL    HW111045   0.443   5.950   0.077
 3382SOL    HW211046   0.384   5.915   0.226
 3383SOL     OW11047   0.567   4.309   1.884
 3383SOL    HW111048   0.566   4.280   1.788
 3383SOL    HW211049   0.481   4.281   1.928
 3384SOL     OW11050   2.911   3.675   3.190
 3384SOL    HW111051   2.900   3.761   3.139
 3384SOL    HW211052   2.967   3.612   3.137
 3385SOL     OW11053   7.023   4.062   3.606
 3385SOL    HW111054   6.993   4.146   3.561
 3385SOL    HW211055   0.032   3.999   3.538
 3386SOL     OW11056   5.757   4.408   4.262
 3386SOL    HW111057   5.828   4.469   4.227
 3386SOL    HW211058   5.670   4.431   4.219
 3387SOL     OW11059   3.640   1.458   2.534
 3387SOL    HW111060   3.683   1.444   2.445
 3387SOL    HW211061   3.540   1.457   2.522
 3388SOL     OW11062   6.340   1.780   1.118
 3388SOL    HW111063   6.367   1.684   1.116
 3388SOL    HW211064   6.259   1.791   1.176
 3389SOL     OW11065   3.821   5.396   1.928
 3389SOL    HW111066   3.847   5.492   1.924
 3389SOL    HW211067   3.901   5.341   1.953
 3390SOL     OW11068   4.377   2.138   5.723
 3390SOL    HW111069   4.320   2.065   5.761
 3390SOL    HW211070   4.435   2.101   5.651
 3391SOL     OW11071   3.409   1.444   4.048
 3391SOL    HW111072   3.412   1.393   4.134
 3391SOL    HW211073   3.435   1.539   4.066
 3392SOL     OW11074   5.858   6.094   4.319
 3392SOL    HW111075   5.770   6.103   4.273
 3392SOL    HW211076   5.844   6.075   4.416
 3393SOL     OW11077   0.511   0.415   5.812
 3393SOL    HW111078   0.425   0.444   5.855
 3393SOL    HW211079   0.560   0.495   5.779
 3394SOL     OW11080   5.047   1.276   2.294
 3394SOL    HW111081   5.000   1.309   2.375
 3394SOL    HW211082   5.009   1.188   2.266
 3395SOL     OW11083   2.169   3.551   5.210
 3395SOL    HW111084   2.209   3.642   5.204
 3395SOL    HW211085   2.190   3.511   5.298
 3396SOL     OW11086   6.058   3.454   4.150
 3396SOL    HW111087   6.029   3.516   4.223
 3396SOL    HW211088   6.094   3.506   4.073
 3397SOL     OW11089   2.535   5.769   6.211
 3397SOL    HW111090   2.494   5.792   6.299
 3397SOL    HW211091   2.586   5.848   6.176
 3398SOL     OW11092   0.193   2.067   4.185
 3398SOL    HW111093   0.221   1.985   4.134
 3398SOL    HW211094   0.224   2.149   4.136
 3399SOL     OW11095   3.930   5.534   4.588
 3399SOL    HW111096   3.851   5.475   4.573
 3399SOL    HW211097   3.902   5.618   4.635
 3400SOL     OW11098   5.864   2.009   0.675
 3400SOL    HW111099   5.851   2.072   0.598
 3400SOL    HW211100   5.960   1.981   0.680
 3401SOL     OW11101   6.701   4.964   6.804
 3401SOL    HW111102   6.754   4.897   6.752
 3401SOL    HW211103   6.697   5.050   6.753
 3402SOL     OW11104   4.149   4.569   1.597
 3402SOL    HW111105   4.238   4.548   1.637
 3402SOL    HW211106   4.085   4.595   1.669
 3403SOL     OW11107   4.270   1.919   5.829
 3403SOL    HW111108   4.180   1.895   5.793
 3403SOL    HW211109   4.338   1.853   5.796
 3404SOL     OW11110   4.045   6.139   2.618
 3404SOL    HW111111   4.121   6.121   2.681
 3404SOL    HW211112   3.960   6.147   2.670
 3405SOL     OW11113   6.146   3.920   0.453
 3405SOL    HW111114   6.102   3.949   0.369
 3405SOL    HW211115   6.133   3.822   0.466
 3406SOL     OW11116   0.036   2.325   1.874
 3406SOL    HW111117   0.122   2.318   1.925
 3406SOL    HW211118   6.989   2.288   1.930
 3407SOL     OW11119   0.961   5.433   2.211
 3407SOL    HW111120   0.959   5.337   2.181
 3407SOL    HW211121   0.956   5.437   2.310
 3408SOL     OW11122   5.093   3.588   2.072
 3408SOL    HW111123   5.033   3.668   2.063
 3408SOL    HW211124   5.188   3.620   2.080
 3409SOL     OW11125   3.092   1.808   6.600
 3409SOL    HW111126   2.999   1.809   6.561
 3409SOL    HW211127   3.111   1.717   6.636
 3410SOL     OW11128   0.996   1.902   0.799
 3410SOL    HW111129   0.973   1.876   0.705
 3410SOL    HW211130   0.918   1.949   0.840
 3411SOL     OW11131   5.012   2.087   2.522
 3411SOL    HW111132   5.040   2.057   2.431
 3411SOL    HW211133   4.912   2.089   2.527
 3412SOL     OW11134   4.323   5.242   6.459
 3412SOL    HW111135   4.249   5.307   6.476
 3412SOL    HW211136   4.387   5.243   6.536
 3413SOL     OW11137   5.082   0.840   2.708
 3413SOL    HW111138   5.005   0.868   2.650
 3413SOL    HW211139   5.088   0.901   2.787
 3414SOL     OW11140   4.047   0.752   5.917
 3414SOL    HW111141   4.119   0.776   5.852
 3414SOL    HW211142   3.971   0.816   5.908
 3415SOL     OW11143   1.740   6.282   5.882
 3415SOL    HW111144   1.695   6.371   5.882
 3415SOL    HW211145   1.835   6.293   5.852
 3416SOL     OW11146   1.334   4.841   5.349
 3416SOL    HW111147   1.411   4.905   5.341
 3416SOL    HW211148   1.338   4.775   5.273
 3417SOL     OW11149   6.096   1.266   0.794
 3417SOL    HW111150   6.057   1.226   0.877
 3417SOL    HW211151   6.027   1.270   0.722
 3418SOL     OW11152   2.264   2.407   4.984
 3418SOL    HW111153   2.327   2.332   5.002
 3418SOL    HW211154   2.310   2.476   4.927
 3419SOL     OW11155   4.081   3.755   6.450
 3419SOL    HW111156   4.176   3.729   6.466
 3419SOL    HW211157   4.036   3.686   6.394
 3420SOL     OW11158   3.067   0.473   4.894
 3420SOL    HW111159   3.005   0.521   4.956
 3420SOL    HW211160   3.073   0.524   4.808
 3421SOL     OW11161   1.208   6.357   3.152
 3421SOL    HW111162   1.290   6.303   3.170
 3421SOL    HW211163   1.183   6.408   3.235
 3422SOL     OW11164   3.564   2.083   2.883
 3422SOL    HW111165   3.606   2.108   2.795
 3422SOL    HW211166   3.509   2.000   2.871
 3423SOL     OW11167   3.668   0.580   1.757
 3423SOL    HW111168   3.634   0.500   1.708
 3423SOL    HW211169   3.749   0.556   1.810
 3424SOL     OW11170   4.731   2.063   0.440
 3424SOL    HW111171   4.798   2.101   0.376
 3424SOL    HW211172   4.748   1.965   0.452
 3425SOL     OW11173   3.785   3.543   1.396
 3425SOL    HW111174   3.805   3.454   1.436
 3425SOL    HW211175   3.805   3.540   1.298
 3426SOL     OW11176   5.024   4.030   0.900
 3426SOL    HW111177   5.040   4.068   0.991
 3426SOL    HW211178   5.032   4.102   0.832
 3427SOL     OW11179   0.895   2.053   0.359
 3427SOL    HW111180   0.876   2.141   0.315
 3427SOL    HW211181   0.891   2.063   0.458
 3428SOL     OW11182   4.584   4.644   2.870
 3428SOL    HW111183   4.678   4.657   2.841
 3428SOL    HW211184   4.574   4.671   2.966
 3429SOL     OW11185   0.403   3.180   0.459
 3429SOL    HW111186   0.342   3.161   0.382
 3429SOL    HW211187   0.461   3.258   0.437
 3430SOL     OW11188   0.702   5.400   0.376
 3430SOL    HW111189   0.641   5.349   0.437
 3430SOL    HW211190   0.648   5.456   0.314
 3431SOL     OW11191   1.019   6.054   6.501
 3431SOL    HW111192   0.943   5.996   6.472
 3431SOL    HW211193   1.100   6.031   6.447
 3432SOL     OW11194   3.956   2.254   6.157
 3432SOL    HW111195   4.023   2.275   6.228
 3432SOL    HW211196   3.967   2.159   6.127
 3433SOL     OW11197   4.192   1.349   5.283
 3433SOL    HW111198   4.118   1.416   5.288
 3433SOL    HW211199   4.163   1.264   5.328
 3434SOL     OW11200   4.753   1.020   3.427
 3434SOL    HW111201   4.805   0.975   3.500
 3434SOL    HW211202   4.681   0.960   3.395
 3435SOL     OW11203   0.390   0.867   6.442
 3435SOL    HW111204   0.462   0.813   6.484
 3435SOL    HW211205   0.365   0.942   6.503
 3436SOL     OW11206   4.042   6.737   1.756
 3436SOL    HW111207   4.016   6.823   1.712
 3436SOL    HW211208   4.010   6.737   1.851
 3437SOL     OW11209   4.170   0.267   0.446
 3437SOL    HW111210   4.106   0.337   0.475
 3437SOL    HW211211   4.120   0.183   0.422
 3438SOL     OW11212   0.606   5.514   6.276
 3438SOL    HW111213   0.657   5.571   6.212
 3438SOL    HW211214   0.516   5.555   6.292
 3439SOL     OW11215   2.671   0.732   3.800
 3439SOL    HW111216   2.705   0.724   3.894
 3439SOL    HW211217   2.585   0.783   3.799
 3440SOL     OW11218   3.915   2.248   0.633
 3440SOL    HW111219   4.009   2.276   0.611
 3440SOL    HW211220   3.872   2.319   0.689
 3441SOL     OW11221   4.302   0.420   4.657
 3441SOL    HW111222   4.335   0.497   4.713
 3441SOL    HW211223   4.374   0.393   4.593
 3442SOL     OW11224   0.388   5.647   3.225
 3442SOL    HW111225   0.467   5.593   3.254
 3442SOL    HW211226   0.344   5.603   3.146
 3443SOL     OW11227   6.500   6.622   4.137
 3443SOL    HW111228   6.534   6.688   4.204
 3443SOL    HW211229   6.411   6.587   4.167
 3444SOL     OW11230   3.481   5.945   6.888
 3444SOL    HW111231   3.465   5.964   6.791
 3444SOL    HW211232   3.395   5.918   6.931
 3445SOL     OW11233   6.131   5.105   5.909
 3445SOL    HW111234   6.192   5.150   5.844
 3445SOL    HW211235   6.148   5.139   6.001
 3446SOL     OW11236   2.095   5.647   1.544
 3446SOL    HW111237   2.106   5.638   1.445
 3446SOL    HW211238   2.159   5.715   1.578
 3447SOL     OW11239   5.749   4.438   5.187
 3447SOL    HW111240   5.830   4.385   5.211
 3447SOL    HW211241   5.736   4.435   5.088
 3448SOL     OW11242   3.857   3.081   0.217
 3448SOL    HW111243   3.783   3.015   0.206
 3448SOL    HW211244   3.944   3.040   0.191
 3449SOL     OW11245   6.069   5.905   2.760
 3449SOL    HW111246   5.975   5.904   2.725
 3449SOL    HW211247   6.112   5.993   2.736
 3450SOL     OW11248   0.446   1.842   1.254
 3450SOL    HW111249   0.492   1.758   1.282
 3450SOL    HW211250   0.374   1.866   1.320
 3451SOL     OW11251   1.815   5.564   4.153
 3451SOL    HW111252   1.912   5.586   4.161
 3451SOL    HW211253   1.788   5.567   4.057
 3452SOL     OW11254   6.305   1.812   0.288
 3452SOL    HW111255   6.298   1.840   0.384
 3452SOL    HW211256   6.355   1.726   0.281
 3453SOL     OW11257   6.320   4.704   5.068
 3453SOL    HW111258   6.242   4.763   5.090
 3453SOL    HW211259   6.331   4.700   4.968
 3454SOL     OW11260   6.973   1.175   0.063
 3454SOL    HW111261   6.947   1.265   0.098
 3454SOL    HW211262   0.042   1.175   0.039
 3455SOL     OW11263   1.152   2.669   3.228
 3455SOL    HW111264   1.063   2.646   3.268
 3455SOL    HW211265   1.172   2.766   3.244
 3456SOL     OW11266   6.279   0.008   0.092
 3456SOL    HW111267   6.375   7.015   0.073
 3456SOL    HW211268   6.225   7.022   0.010
 3457SOL     OW11269   2.239   6.606   3.664
 3457SOL    HW111270   2.180   6.604   3.745
 3457SOL    HW211271   2.189   6.568   3.586
 3458SOL     OW11272   4.184   4.850   6.952
 3458SOL    HW111273   4.156   4.922   6.889
 3458SOL    HW211274   4.206   4.766   6.901
 3459SOL     OW11275   6.366   0.036   3.353
 3459SOL    HW111276   6.307   7.008   3.296
 3459SOL    HW211277   6.454   0.049   3.307
 3460SOL     OW11278   5.395   2.678   0.334
 3460SOL    HW111279   5.371   2.663   0.430
 3460SOL    HW211280   5.448   2.599   0.301
 3461SOL     OW11281   2.678   5.687   2.452
 3461SOL    HW111282   2.597   5.745   2.444
 3461SOL    HW211283   2.749   5.720   2.390
 3462SOL     OW11284   4.995   2.266   2.964
 3462SOL    HW111285   5.036   2.317   2.888
 3462SOL    HW211286   5.046   2.286   3.048
 3463SOL     OW11287   1.111   3.005   1.464
 3463SOL    HW111288   1.138   2.910   1.478
 3463SOL    HW211289   1.012   3.011   1.450
 3464SOL     OW11290   5.085   1.614   6.648
 3464SOL    HW111291   5.131   1.537   6.605
 3464SOL    HW211292   5.102   1.612   6.747
 3465SOL     OW11293   1.940   4.465   1.716
 3465SOL    HW111294   1.909   4.381   1.672
 3465SOL    HW211295   2.013   4.445   1.781
 3466SOL     OW11296   6.978   3.602   4.542
 3466SOL    HW111297   0.010   3.531   4.504
 3466SOL    HW211298   6.952   3.577   4.635
 3467SOL     OW11299   3.230   4.171   0.311
 3467SOL    HW111300   3.250   4.081   0.272
 3467SOL    HW211301   3.286   4.240   0.266
 3468SOL     OW11302   4.422   1.523   1.450
 3468SOL    HW111303   4.438   1.510   1.547
 3468SOL    HW211304   4.495   1.480   1.397
 3469SOL     OW11305   3.179   6.417   4.997
 3469SOL    HW111306   3.248   6.451   5.061
 3469SOL    HW211307   3.112   6.489   4.979
 3470SOL     OW11308   1.288   2.367   0.547
 3470SOL    HW111309   1.344   2.392   0.626
 3470SOL    HW211310   1.217   2.302   0.575
 3471SOL     OW11311   5.531   3.078   5.167
 3471SOL    HW111312   5.565   3.167   5.198
 3471SOL    HW211313   5.451   3.052   5.220
 3472SOL     OW11314   4.722   1.807   2.051
 3472SOL    HW111315   4.772   1.761   2.124
 3472SOL    HW211316   4.742   1.905   2.054
 3473SOL     OW11317   6.313   3.847   1.683
 3473SOL    HW111318   6.232   3.888   1.725
 3473SOL    HW211319   6.291   3.755   1.652
 3474SOL     OW11320   4.480   4.477   3.500
 3474SOL    HW111321   4.538   4.408   3.456
 3474SOL    HW211322   4.440   4.536   3.430
 3475SOL     OW11323   6.416   4.100   4.008
 3475SOL    HW111324   6.358   4.019   4.005
 3475SOL    HW211325   6.358   4.182   4.011
 3476SOL     OW11326   1.706   3.275   3.617
 3476SOL    HW111327   1.691   3.226   3.703
 3476SOL    HW211328   1.623   3.269   3.561
 3477SOL     OW11329   1.515   4.028   2.731
 3477SOL    HW111330   1.461   4.012   2.648
 3477SOL    HW211331   1.544   4.124   2.733
 3478SOL     OW11332   2.385   0.832   0.847
 3478SOL    HW111333   2.381   0.807   0.750
 3478SOL    HW211334   2.349   0.924   0.858
 3479SOL     OW11335   0.949   4.040   5.565
 3479SOL    HW111336   0.872   3.986   5.598
 3479SOL    HW211337   0.941   4.052   5.466
 3480SOL     OW11338   0.841   5.889   6.807
 3480SOL    HW111339   0.749   5.854   6.795
 3480SOL    HW211340   0.850   5.977   6.760
 3481SOL     OW11341   5.798   1.274   4.918
 3481SOL    HW111342   5.788   1.329   5.001
 3481SOL    HW211343   5.770   1.180   4.937
 3482SOL     OW11344   6.624   2.850   6.433
 3482SOL    HW111345   6.653   2.909   6.508
 3482SOL    HW211346   6.547   2.793   6.462
 3483SOL     OW11347   5.296   1.971   4.448
 3483SOL    HW111348   5.377   2.030   4.449
 3483SOL    HW211349   5.214   2.027   4.441
 3484SOL     OW11350   1.515   2.983   4.513
 3484SOL    HW111351   1.491   3.054   4.579
 3484SOL    HW211352   1.608   2.998   4.479
 3485SOL     OW11353   6.999   4.451   6.218
 3485SOL    HW111354   0.035   4.485   6.287
 3485SOL    HW211355   6.986   4.352   6.230
 3486SOL     OW11356   1.328   6.427   4.506
 3486SOL    HW111357   1.410   6.480   4.526
 3486SOL    HW211358   1.304   6.370   4.585
 3487SOL     OW11359   3.955   1.539   6.384
 3487SOL    HW111360   4.008   1.617   6.350
 3487SOL    HW211361   3.970   1.529   6.483
 3488SOL     OW11362   5.235   5.873   5.787
 3488SOL    HW111363   5.285   5.861   5.701
 3488SOL    HW211364   5.175   5.953   5.779
 3489SOL     OW11365   3.475   6.027   1.082
 3489SOL    HW111366   3.377   6.049   1.081
 3489SOL    HW211367   3.489   5.942   1.131
 3490SOL     OW11368   4.477   0.244   0.687
 3490SOL    HW111369   4.534   0.172   0.648
 3490SOL    HW211370   4.381   0.221   0.674
 3491SOL     OW11371   4.812   4.565   5.300
 3491SOL    HW111372   4.812   4.478   5.349
 3491SOL    HW211373   4.887   4.565   5.233
 3492SOL     OW11374   5.271   3.637   3.183
 3492SOL    HW111375   5.319   3.719   3.154
 3492SOL    HW211376   5.313   3.601   3.267
 3493SOL     OW11377   0.382   4.023   6.294
 3493SOL    HW111378   0.372   4.058   6.200
 3493SOL    HW211379   0.478   4.027   6.321
 3494SOL     OW11380   4.742   1.144   2.567
 3494SOL    HW111381   4.721   1.117   2.661
 3494SOL    HW211382   4.791   1.231   2.567
 3495SOL     OW11383   2.271   4.209   3.690
 3495SOL    HW111384   2.261   4.110   3.682
 3495SOL    HW211385   2.186   4.249   3.723
 3496SOL     OW11386   6.379   5.455   1.190
 3496SOL    HW111387   6.353   5.385   1.257
 3496SOL    HW211388   6.300   5.477   1.133
 3497SOL     OW11389   3.159   0.553   1.116
 3497SOL    HW111390   3.060   0.552   1.099
 3497SOL    HW211391   3.200   0.633   1.072
 3498SOL     OW11392   2.622   2.104   1.212
 3498SOL    HW111393   2.651   2.197   1.190
 3498SOL    HW211394   2.645   2.084   1.307
 3499SOL     OW11395   5.946   0.058   4.726
 3499SOL    HW111396   6.009   0.033   4.800
 3499SOL    HW211397   5.954   7.020   4.651
 3500SOL     OW11398   3.040   2.088   3.626
 3500SOL    HW111399   3.048   2.111   3.723
 3500SOL    HW211400   3.131   2.076   3.587
 3501SOL     OW11401   1.405   6.923   6.077
 3501SOL    HW111402   1.306   6.930   6.091
 3501SOL    HW211403   1.451   6.993   6.132
 3502SOL     OW11404   5.456   2.602   2.102
 3502SOL    HW111405   5.481   2.666   2.030
 3502SOL    HW211406   5.536   2.584   2.159
 3503SOL     OW11407   0.678   6.238   6.557
 3503SOL    HW111408   0.622   6.321   6.561
 3503SOL    HW211409   0.775   6.262   6.558
 3504SOL     OW11410   1.730   1.260   6.611
 3504SOL    HW111411   1.823   1.296   6.615
 3504SOL    HW211412   1.670   1.313   6.671
 3505SOL     OW11413   5.408   2.478   4.675
 3505SOL    HW111414   5.382   2.524   4.760
 3505SOL    HW211415   5.486   2.418   4.692
 3506SOL     OW11416   4.062   5.042   5.004
 3506SOL    HW111417   4.093   4.972   5.070
 3506SOL    HW211418   4.020   4.997   4.926
 3507SOL     OW11419   2.608   1.692   1.495
 3507SOL    HW111420   2.532   1.675   1.558
 3507SOL    HW211421   2.619   1.791   1.483
 3508SOL     OW11422   3.362   1.010   6.756
 3508SOL    HW111423   3.388   1.037   6.849
 3508SOL    HW211424   3.441   0.970   6.710
 3509SOL     OW11425   4.604   6.306   6.723
 3509SOL    HW111426   4.543   6.257   6.661
 3509SOL    HW211427   4.699   6.286   6.699
 3510SOL     OW11428   1.957   0.583   1.386
 3510SOL    HW111429   1.974   0.598   1.289
 3510SOL    HW211430   1.879   0.521   1.397
 3511SOL     OW11431   3.081   5.258   1.621
 3511SOL    HW111432   3.011   5.243   1.551
 3511SOL    HW211433   3.075   5.187   1.691
 3512SOL     OW11434   0.142   6.007   6.503
 3512SOL    HW111435   0.120   5.977   6.410
 3512SOL    HW211436   0.239   6.029   6.509
 3513SOL     OW11437   5.056   1.996   0.572
 3513SOL    HW111438   5.068   2.003   0.473
 3513SOL    HW211439   5.132   2.043   0.618
 3514SOL     OW11440   3.420   2.061   1.999
 3514SOL    HW111441   3.507   2.109   2.000
 3514SOL    HW211442   3.370   2.081   2.083
 3515SOL     OW11443   0.667   4.535   3.936
 3515SOL    HW111444   0.569   4.536   3.918
 3515SOL    HW211445   0.684   4.562   4.031
 3516SOL     OW11446   4.331   0.593   1.258
 3516SOL    HW111447   4.293   0.616   1.168
 3516SOL    HW211448   4.336   0.676   1.314
 3517SOL     OW11449   5.289   1.547   2.645
 3517SOL    HW111450   5.376   1.595   2.661
 3517SOL    HW211451   5.262   1.560   2.549
 3518SOL     OW11452   6.498   1.231   5.794
 3518SOL    HW111453   6.438   1.151   5.788
 3518SOL    HW211454   6.587   1.204   5.830
 3519SOL     OW11455   3.252   1.134   1.085
 3519SOL    HW111456   3.193   1.064   1.045
 3519SOL    HW211457   3.195   1.207   1.123
 3520SOL     OW11458   2.691   5.689   3.714
 3520SOL    HW111459   2.761   5.689   3.786
 3520SOL    HW211460   2.617   5.626   3.741
 3521SOL     OW11461   2.295   2.598   5.437
 3521SOL    HW111462   2.309   2.609   5.535
 3521SOL    HW211463   2.203   2.630   5.413
 3522SOL     OW11464   1.306   6.323   6.926
 3522SOL    HW111465   1.283   6.392   6.857
 3522SOL    HW211466   1.402   6.333   6.952
 3523SOL     OW11467   3.695   5.590   6.749
 3523SOL    HW111468   3.766   5.528   6.783
 3523SOL    HW211469   3.647   5.631   6.826
 3524SOL     OW11470   4.598   1.406   4.726
 3524SOL    HW111471   4.683   1.355   4.740
 3524SOL    HW211472   4.546   1.362   4.653
 3525SOL     OW11473   0.596   2.871   3.904
 3525SOL    HW111474   0.638   2.790   3.863
 3525SOL    HW211475   0.569   2.934   3.831
 3526SOL     OW11476   6.426   6.910   1.530
 3526SOL    HW111477   6.495   6.977   1.501
 3526SOL    HW211478   6.382   6.942   1.614
 3527SOL     OW11479   6.627   2.757   0.525
 3527SOL    HW111480   6.546   2.803   0.563
 3527SOL    HW211481   6.633   2.665   0.563
 3528SOL     OW11482   2.209   5.866   4.964
 3528SOL    HW111483   2.303   5.877   4.932
 3528SOL    HW211484   2.155   5.946   4.938
 3529SOL     OW11485   4.587   4.310   6.678
 3529SOL    HW111486   4.627   4.258   6.754
 3529SOL    HW211487   4.656   4.374   6.642
 3530SOL     OW11488   6.405   0.265   0.143
 3530SOL    HW111489   6.319   0.220   0.117
 3530SOL    HW211490   6.479   0.228   0.087
 3531SOL     OW11491   4.703   2.160   0.893
 3531SOL    HW111492   4.621   2.122   0.935
 3531SOL    HW211493   4.691   2.259   0.880
 3532SOL     OW11494   2.385   0.483   1.294
 3532SOL    HW111495   2.317   0.520   1.357
 3532SOL    HW211496   2.377   0.527   1.205
 3533SOL     OW11497   1.988   2.873   3.172
 3533SOL    HW111498   2.077   2.913   3.192
 3533SOL    HW211499   1.916   2.937   3.199
 3534SOL     OW11500   0.433   1.268   0.794
 3534SOL    HW111501   0.408   1.172   0.785
 3534SOL    HW211502   0.368   1.324   0.743
 3535SOL     OW11503   3.921   0.055   3.227
 3535SOL    HW111504   3.823   0.077   3.222
 3535SOL    HW211505   3.934   7.002   3.285
 3536SOL     OW11506   4.032   1.675   4.075
 3536SOL    HW111507   4.022   1.679   3.976
 3536SOL    HW211508   4.092   1.749   4.106
 3537SOL     OW11509   1.239   6.082   2.278
 3537SOL    HW111510   1.272   6.171   2.245
 3537SOL    HW211511   1.159   6.097   2.336
 3538SOL     OW11512   3.664   5.492   1.295
 3538SOL    HW111513   3.587   5.502   1.232
 3538SOL    HW211514   3.635   5.442   1.376
 3539SOL     OW11515   3.454   4.157   4.540
 3539SOL    HW111516   3.412   4.150   4.630
 3539SOL    HW211517   3.386   4.138   4.470
 3540SOL     OW11518   2.103   3.178   3.419
 3540SOL    HW111519   2.100   3.092   3.469
 3540SOL    HW211520   2.097   3.254   3.483
 3541SOL     OW11521   3.722   4.239   5.026
 3541SOL    HW111522   3.788   4.174   4.988
 3541SOL    HW211523   3.769   4.324   5.048
 3542SOL     OW11524   6.787   5.727   1.423
 3542SOL    HW111525   6.699   5.680   1.428
 3542SOL    HW211526   6.843   5.699   1.501
 3543SOL     OW11527   5.028   1.885   4.624
 3543SOL    HW111528   5.050   1.953   4.553
 3543SOL    HW211529   5.106   1.825   4.637
 3544SOL     OW11530   3.237   6.991   6.409
 3544SOL    HW111531   3.327   6.996   6.367
 3544SOL    HW211532   3.201   6.898   6.402
 3545SOL     OW11533   2.572   5.101   0.666
 3545SOL    HW111534   2.524   5.184   0.637
 3545SOL    HW211535   2.550   5.027   0.604
 3546SOL     OW11536   0.989   4.392   3.024
 3546SOL    HW111537   0.930   4.311   3.020
 3546SOL    HW211538   0.940   4.467   3.068
 3547SOL     OW11539   4.794   4.587   4.556
 3547SOL    HW111540   4.794   4.535   4.471
 3547SOL    HW211541   4.741   4.671   4.543
 3548SOL     OW11542   6.142   3.403   5.384
 3548SOL    HW111543   6.177   3.483   5.433
 3548SOL    HW211544   6.156   3.321   5.440
 3549SOL     OW11545   5.282   3.640   1.805
 3549SOL    HW111546   5.280   3.544   1.777
 3549SOL    HW211547   5.191   3.679   1.799
 3550SOL     OW11548   5.049   1.790   3.831
 3550SOL    HW111549   5.086   1.701   3.856
 3550SOL    HW211550   5.049   1.800   3.731
 3551SOL     OW11551   1.699   0.291   2.546
 3551SOL    HW111552   1.708   0.348   2.628
 3551SOL    HW211553   1.672   0.199   2.573
 3552SOL     OW11554   6.711   4.082   2.963
 3552SOL    HW111555   6.679   4.163   2.914
 3552SOL    HW211556   6.798   4.102   3.008
 3553SOL     OW11557   5.724   1.616   3.473
 3553SOL    HW111558   5.720   1.521   3.505
 3553SOL    HW211559   5.808   1.629   3.420
 3554SOL     OW11560   3.518   6.260   6.578
 3554SOL    HW111561   3.615   6.280   6.593
 3554SOL    HW211562   3.462   6.317   6.638
 3555SOL     OW11563   0.698   2.754   3.665
 3555SOL    HW111564   0.764   2.830   3.663
 3555SOL    HW211565   0.748   2.667   3.668
 3556SOL     OW11566   4.149   1.873   6.302
 3556SOL    HW111567   4.198   1.788   6.326
 3556SOL    HW211568   4.190   1.913   6.220
 3557SOL     OW11569   1.492   1.108   3.461
 3557SOL    HW111570   1.537   1.035   3.409
 3557SOL    HW211571   1.542   1.125   3.545
 3558SOL     OW11572   0.188   0.141   1.633
 3558SOL    HW111573   0.166   0.218   1.573
 3558SOL    HW211574   0.119   0.135   1.706
 3559SOL     OW11575   0.884   1.036   5.937
 3559SOL    HW111576   0.826   1.012   6.015
 3559SOL    HW211577   0.980   1.035   5.967
 3560SOL     OW11578   6.700   0.553   1.398
 3560SOL    HW111579   6.755   0.514   1.471
 3560SOL    HW211580   6.680   0.649   1.419
 3561SOL     OW11581   5.973   5.171   3.541
 3561SOL    HW111582   5.890   5.202   3.494
 3561SOL    HW211583   6.023   5.109   3.481
 3562SOL     OW11584   4.239   2.066   2.955
 3562SOL    HW111585   4.300   2.017   2.893
 3562SOL    HW211586   4.186   2.134   2.903
 3563SOL     OW11587   3.343   6.256   1.590
 3563SOL    HW111588   3.411   6.316   1.549
 3563SOL    HW211589   3.310   6.190   1.522
 3564SOL     OW11590   6.535   4.144   2.071
 3564SOL    HW111591   6.551   4.186   2.161
 3564SOL    HW211592   6.543   4.213   2.000
 3565SOL     OW11593   0.584   1.069   5.401
 3565SOL    HW111594   0.635   1.020   5.330
 3565SOL    HW211595   0.552   1.004   5.470
 3566SOL     OW11596   0.334   4.969   5.977
 3566SOL    HW111597   0.261   4.901   5.971
 3566SOL    HW211598   0.384   4.972   5.891
 3567SOL     OW11599   6.220   2.091   1.216
 3567SOL    HW111600   6.306   2.141   1.219
 3567SOL    HW211601   6.225   2.012   1.277
 3568SOL     OW11602   5.183   4.220   3.616
 3568SOL    HW111603   5.215   4.174   3.699
 3568SOL    HW211604   5.250   4.208   3.543
 3569SOL     OW11605   4.017   3.467   3.467
 3569SOL    HW111606   3.975   3.377   3.478
 3569SOL    HW211607   3.968   3.518   3.396
 3570SOL     OW11608   0.251   2.627   5.894
 3570SOL    HW111609   0.167   2.645   5.946
 3570SOL    HW211610   0.234   2.644   5.797
 3571SOL     OW11611   3.527   0.143   4.183
 3571SOL    HW111612   3.565   0.221   4.233
 3571SOL    HW211613   3.595   0.069   4.180
 3572SOL     OW11614   4.599   4.381   3.046
 3572SOL    HW111615   4.572   4.477   3.036
 3572SOL    HW211616   4.608   4.359   3.143
 3573SOL     OW11617   0.661   5.012   3.630
 3573SOL    HW111618   0.674   4.938   3.696
 3573SOL    HW211619   0.699   4.984   3.541
 3574SOL     OW11620   2.478   1.608   6.396
 3574SOL    HW111621   2.415   1.552   6.342
 3574SOL    HW211622   2.444   1.615   6.490
 3575SOL     OW11623   4.833   0.308   6.599
 3575SOL    HW111624   4.884   0.223   6.597
 3575SOL    HW211625   4.775   0.309   6.681
 3576SOL     OW11626   1.282   2.771   0.627
 3576SOL    HW111627   1.281   2.698   0.559
 3576SOL    HW211628   1.190   2.807   0.639
 3577SOL     OW11629   1.986   4.005   4.264
 3577SOL    HW111630   1.957   4.101   4.263
 3577SOL    HW211631   1.905   3.946   4.259
 3578SOL     OW11632   5.107   2.337   0.824
 3578SOL    HW111633   5.099   2.246   0.864
 3578SOL    HW211634   5.025   2.391   0.846
 3579SOL     OW11635   0.405   3.340   2.247
 3579SOL    HW111636   0.460   3.421   2.225
 3579SOL    HW211637   0.320   3.342   2.194
 3580SOL     OW11638   6.998   4.180   2.086
 3580SOL    HW111639   6.920   4.118   2.095
 3580SOL    HW211640   0.012   4.167   1.996
 3581SOL     OW11641   1.587   1.030   2.804
 3581SOL    HW111642   1.670   1.049   2.751
 3581SOL    HW211643   1.533   0.961   2.756
 3582SOL     OW11644   4.542   6.548   6.821
 3582SOL    HW111645   4.528   6.602   6.738
 3582SOL    HW211646   4.563   6.453   6.797
 3583SOL     OW11647   1.715   6.170   0.319
 3583SOL    HW111648   1.677   6.132   0.234
 3583SOL    HW211649   1.640   6.198   0.379
 3584SOL     OW11650   5.609   5.418   4.977
 3584SOL    HW111651   5.696   5.437   5.023
 3584SOL    HW211652   5.626   5.362   4.896
 3585SOL     OW11653   4.647   1.938   3.435
 3585SOL    HW111654   4.667   1.890   3.521
 3585SOL    HW211655   4.652   1.873   3.359
 3586SOL     OW11656   7.011   3.059   5.427
 3586SOL    HW111657   0.058   3.003   5.462
 3586SOL    HW211658   6.924   3.015   5.448
 3587SOL     OW11659   2.012   0.632   5.414
 3587SOL    HW111660   1.997   0.657   5.318
 3587SOL    HW211661   2.105   0.598   5.426
 3588SOL     OW11662   6.043   3.674   4.313
 3588SOL    HW111663   6.143   3.664   4.313
 3588SOL    HW211664   6.012   3.697   4.405
 3589SOL     OW11665   0.413   1.661   5.945
 3589SOL    HW111666   0.504   1.689   5.975
 3589SOL    HW211667   0.400   1.688   5.849
 3590SOL     OW11668   6.226   5.191   6.159
 3590SOL    HW111669   6.196   5.271   6.211
 3590SOL    HW211670   6.325   5.179   6.170
 3591SOL     OW11671   5.137   1.197   0.883
 3591SOL    HW111672   5.090   1.252   0.952
 3591SOL    HW211673   5.231   1.182   0.911
 3592SOL     OW11674   0.572   6.101   1.211
 3592SOL    HW111675   0.528   6.158   1.142
 3592SOL    HW211676   0.626   6.159   1.272
 3593SOL     OW11677   3.929   3.271   5.830
 3593SOL    HW111678   3.949   3.207   5.904
 3593SOL    HW211679   3.838   3.309   5.843
 3594SOL     OW11680   4.361   4.360   5.405
 3594SOL    HW111681   4.337   4.265   5.422
 3594SOL    HW211682   4.323   4.389   5.317
 3595SOL     OW11683   4.919   6.506   5.365
 3595SOL    HW111684   4.847   6.460   5.312
 3595SOL    HW211685   4.980   6.438   5.405
 3596SOL     OW11686   3.592   1.353   1.921
 3596SOL    HW111687   3.497   1.348   1.890
 3596SOL    HW211688   3.596   1.332   2.019
 3597SOL     OW11689   4.082   4.613   5.315
 3597SOL    HW111690   4.139   4.672   5.257
 3597SOL    HW211691   4.111   4.518   5.304
 3598SOL     OW11692   6.183   5.249   4.230
 3598SOL    HW111693   6.111   5.182   4.211
 3598SOL    HW211694   6.176   5.325   4.166
 3599SOL     OW11695   2.608   1.384   5.561
 3599SOL    HW111696   2.610   1.467   5.505
 3599SOL    HW211697   2.687   1.385   5.623
 3600SOL     OW11698   2.422   4.188   0.920
 3600SOL    HW111699   2.350   4.257   0.924
 3600SOL    HW211700   2.490   4.215   0.851
 3601SOL     OW11701   2.757   0.256   5.160
 3601SOL    HW111702   2.812   0.268   5.077
 3601SOL    HW211703   2.797   0.182   5.215
 3602SOL     OW11704   1.492   1.969   1.005
 3602SOL    HW111705   1.574   1.961   1.063
 3602SOL    HW211706   1.410   1.961   1.062
 3603SOL     OW11707   1.690   6.574   5.547
 3603SOL    HW111708   1.767   6.562   5.609
 3603SOL    HW211709   1.611   6.608   5.598
 3604SOL     OW11710   6.866   1.482   4.499
 3604SOL    HW111711   6.904   1.421   4.430
 3604SOL    HW211712   6.915   1.570   4.496
 3605SOL     OW11713   0.893   0.298   5.021
 3605SOL    HW111714   0.895   0.354   5.103
 3605SOL    HW211715   0.986   0.270   4.997
 3606SOL     OW11716   1.940   0.888   2.721
 3606SOL    HW111717   1.894   0.976   2.713
 3606SOL    HW211718   2.033   0.901   2.753
 3607SOL     OW11719   5.872   1.536   4.517
 3607SOL    HW111720   5.816   1.473   4.570
 3607SOL    HW211721   5.814   1.609   4.479
 3608SOL     OW11722   4.435   1.765   5.413
 3608SOL    HW111723   4.528   1.739   5.385
 3608SOL    HW211724   4.393   1.820   5.340
 3609SOL     OW11725   3.302   6.991   4.188
 3609SOL    HW111726   3.387   0.013   4.200
 3609SOL    HW211727   3.245   7.002   4.270
 3610SOL     OW11728   0.825   0.458   6.128
 3610SOL    HW111729   0.825   0.396   6.050
 3610SOL    HW211730   0.734   0.499   6.138
 3611SOL     OW11731   5.873   2.639   2.735
 3611SOL    HW111732   5.773   2.641   2.728
 3611SOL    HW211733   5.905   2.726   2.771
 3612SOL     OW11734   5.593   1.365   1.305
 3612SOL    HW111735   5.687   1.342   1.330
 3612SOL    HW211736   5.533   1.287   1.323
 3613SOL     OW11737   4.401   1.229   2.233
 3613SOL    HW111738   4.412   1.145   2.180
 3613SOL    HW211739   4.304   1.246   2.250
 3614SOL     OW11740   3.390   5.878   0.301
 3614SOL    HW111741   3.469   5.818   0.285
 3614SOL    HW211742   3.361   5.870   0.396
 3615SOL     OW11743   5.206   2.683   5.643
 3615SOL    HW111744   5.281   2.623   5.669
 3615SOL    HW211745   5.120   2.632   5.646
 3616SOL     OW11746   2.030   0.541   0.400
 3616SOL    HW111747   1.991   0.471   0.460
 3616SOL    HW211748   1.986   0.629   0.419
 3617SOL     OW11749   4.109   5.613   5.655
 3617SOL    HW111750   4.016   5.631   5.688
 3617SOL    HW211751   4.105   5.560   5.571
 3618SOL     OW11752   1.005   5.566   4.240
 3618SOL    HW111753   1.095   5.542   4.276
 3618SOL    HW211754   0.936   5.510   4.285
 3619SOL     OW11755   6.980   1.591   2.332
 3619SOL    HW111756   6.969   1.688   2.309
 3619SOL    HW211757   0.010   1.548   2.264
 3620SOL     OW11758   4.991   6.418   5.866
 3620SOL    HW111759   4.903   6.452   5.832
 3620SOL    HW211760   5.064   6.443   5.802
 3621SOL     OW11761   3.335   3.384   3.019
 3621SOL    HW111762   3.370   3.362   3.110
 3621SOL    HW211763   3.392   3.339   2.950
 3622SOL     OW11764   1.872   6.247   6.178
 3622SOL    HW111765   1.865   6.338   6.218
 3622SOL    HW211766   1.781   6.208   6.166
 3623SOL     OW11767   2.289   6.409   5.773
 3623SOL    HW111768   2.199   6.380   5.739
 3623SOL    HW211769   2.328   6.336   5.828
 3624SOL     OW11770   2.694   1.427   1.842
 3624SOL    HW111771   2.757   1.484   1.790
 3624SOL    HW211772   2.633   1.486   1.896
 3625SOL     OW11773   6.188   2.436   2.012
 3625SOL    HW111774   6.130   2.359   2.035
 3625SOL    HW211775   6.271   2.403   1.966
 3626SOL     OW11776   0.352   3.259   5.567
 3626SOL    HW111777   0.358   3.269   5.666
 3626SOL    HW211778   0.440   3.225   5.532
 3627SOL     OW11779   2.953   1.559   2.368
 3627SOL    HW111780   2.870   1.609   2.344
 3627SOL    HW211781   2.939   1.461   2.353
 3628SOL     OW11782   6.911   1.231   1.167
 3628SOL    HW111783   6.959   1.318   1.159
 3628SOL    HW211784   6.932   1.174   1.087
 3629SOL     OW11785   1.675   0.813   4.252
 3629SOL    HW111786   1.607   0.741   4.260
 3629SOL    HW211787   1.680   0.864   4.338
 3630SOL     OW11788   6.723   1.451   2.716
 3630SOL    HW111789   6.656   1.377   2.718
 3630SOL    HW211790   6.753   1.467   2.622
 3631SOL     OW11791   2.221   5.427   2.264
 3631SOL    HW111792   2.200   5.358   2.334
 3631SOL    HW211793   2.283   5.387   2.197
 3632SOL     OW11794   4.905   2.911   2.886
 3632SOL    HW111795   4.919   2.855   2.804
 3632SOL    HW211796   4.867   3.000   2.859
 3633SOL     OW11797   4.869   4.848   5.579
 3633SOL    HW111798   4.874   4.753   5.610
 3633SOL    HW211799   4.916   4.907   5.644
 3634SOL     OW11800   2.754   4.971   6.976
 3634SOL    HW111801   2.693   4.898   6.948
 3634SOL    HW211802   2.706   5.033   0.010
 3635SOL     OW11803   1.480   6.237   3.188
 3635SOL    HW111804   1.480   6.314   3.252
 3635SOL    HW211805   1.573   6.223   3.153
 3636SOL     OW11806   6.820   6.198   3.823
 3636SOL    HW111807   6.916   6.177   3.840
 3636SOL    HW211808   6.813   6.262   3.746
 3637SOL     OW11809   5.131   2.057   0.299
 3637SOL    HW111810   5.052   2.022   0.250
 3637SOL    HW211811   5.214   2.017   0.262
 3638SOL     OW11812   0.698   2.862   4.168
 3638SOL    HW111813   0.760   2.935   4.196
 3638SOL    HW211814   0.695   2.857   4.069
 3639SOL     OW11815   3.637   2.892   3.645
 3639SOL    HW111816   3.582   2.936   3.716
 3639SOL    HW211817   3.707   2.835   3.688
 3640SOL     OW11818   4.619   1.679   2.566
 3640SOL    HW111819   4.559   1.642   2.495
 3640SOL    HW211820   4.602   1.630   2.652
 3641SOL     OW11821   6.765   3.328   1.140
 3641SOL    HW111822   6.765   3.228   1.139
 3641SOL    HW211823   6.689   3.362   1.084
 3642SOL     OW11824   3.749   4.440   0.075
 3642SOL    HW111825   3.843   4.462   0.051
 3642SOL    HW211826   3.741   4.343   0.098
 3643SOL     OW11827   4.859   4.862   4.771
 3643SOL    HW111828   4.904   4.901   4.852
 3643SOL    HW211829   4.821   4.773   4.794
 3644SOL     OW11830   3.004   1.095   1.850
 3644SOL    HW111831   2.962   1.015   1.807
 3644SOL    HW211832   3.068   1.064   1.920
 3645SOL     OW11833   1.032   3.845   4.116
 3645SOL    HW111834   1.066   3.820   4.026
 3645SOL    HW211835   0.956   3.784   4.141
 3646SOL     OW11836   2.661   5.921   4.636
 3646SOL    HW111837   2.713   5.938   4.720
 3646SOL    HW211838   2.636   5.825   4.631
 3647SOL     OW11839   3.567   0.647   1.234
 3647SOL    HW111840   3.644   0.660   1.170
 3647SOL    HW211841   3.515   0.732   1.241
 3648SOL     OW11842   5.656   5.485   3.951
 3648SOL    HW111843   5.743   5.476   4.000
 3648SOL    HW211844   5.584   5.439   4.003
 3649SOL     OW11845   5.066   3.114   6.928
 3649SOL    HW111846   5.013   3.053   6.987
 3649SOL    HW211847   5.142   3.063   6.887
 3650SOL     OW11848   5.672   6.062   0.157
 3650SOL    HW111849   5.744   6.107   0.105
 3650SOL    HW211850   5.702   5.969   0.181
 3651SOL     OW11851   1.041   1.880   5.581
 3651SOL    HW111852   1.057   1.789   5.543
 3651SOL    HW211853   1.109   1.900   5.651
 3652SOL     OW11854   6.201   1.976   3.172
 3652SOL    HW111855   6.197   2.012   3.079
 3652SOL    HW211856   6.295   1.946   3.193
 3653SOL     OW11857   2.395   1.303   0.999
 3653SOL    HW111858   2.480   1.351   1.020
 3653SOL    HW211859   2.347   1.281   1.084
 3654SOL     OW11860   4.978   5.596   1.313
 3654SOL    HW111861   4.997   5.538   1.234
 3654SOL    HW211862   4.921   5.673   1.284
 3655SOL     OW11863   1.754   0.107   3.780
 3655SOL    HW111864   1.711   0.027   3.737
 3655SOL    HW211865   1.833   0.135   3.725
 3656SOL     OW11866   1.083   0.740   1.029
 3656SOL    HW111867   1.161   0.752   1.090
 3656SOL    HW211868   1.091   0.803   0.952
 3657SOL     OW11869   0.174   4.785   6.995
 3657SOL    HW111870   0.146   4.880   7.000
 3657SOL    HW211871   0.127   4.732   0.037
 3658SOL     OW11872   2.448   4.230   6.059
 3658SOL    HW111873   2.529   4.171   6.068
 3658SOL    HW211874   2.473   4.324   6.084
 3659SOL     OW11875   0.784   2.416   0.516
 3659SOL    HW111876   0.796   2.492   0.580
 3659SOL    HW211877   0.780   2.330   0.567
 3660SOL     OW11878   4.513   5.002   3.799
 3660SOL    HW111879   4.598   5.046   3.829
 3660SOL    HW211880   4.528   4.904   3.788
 3661SOL     OW11881   0.650   0.980   4.948
 3661SOL    HW111882   0.716   0.996   4.875
 3661SOL    HW211883   0.566   1.031   4.928
 3662SOL     OW11884   3.560   3.404   5.022
 3662SOL    HW111885   3.610   3.333   4.972
 3662SOL    HW211886   3.575   3.492   4.978
 3663SOL     OW11887   1.438   2.428   6.002
 3663SOL    HW111888   1.339   2.428   5.990
 3663SOL    HW211889   1.481   2.386   5.921
 3664SOL     OW11890   2.298   2.696   1.126
 3664SOL    HW111891   2.225   2.722   1.189
 3664SOL    HW211892   2.356   2.776   1.108
 3665SOL     OW11893   6.706   5.860   5.215
 3665SOL    HW111894   6.649   5.917   5.275
 3665SOL    HW211895   6.797   5.899   5.208
 3666SOL     OW11896   1.854   3.672   4.597
 3666SOL    HW111897   1.906   3.587   4.602
 3666SOL    HW211898   1.909   3.748   4.632
 3667SOL     OW11899   1.456   5.846   1.251
 3667SOL    HW111900   1.412   5.785   1.184
 3667SOL    HW211901   1.402   5.848   1.335
 3668SOL     OW11902   5.239   0.830   0.731
 3668SOL    HW111903   5.295   0.785   0.661
 3668SOL    HW211904   5.145   0.835   0.699
 3669SOL     OW11905   6.539   1.333   3.362
 3669SOL    HW111906   6.518   1.396   3.437
 3669SOL    HW211907   6.455   1.291   3.329
 3670SOL     OW11908   1.831   5.931   1.763
 3670SOL    HW111909   1.871   6.018   1.792
 3670SOL    HW211910   1.901   5.861   1.763
 3671SOL     OW11911   0.687   1.341   5.179
 3671SOL    HW111912   0.692   1.292   5.266
 3671SOL    HW211913   0.727   1.432   5.190
 3672SOL     OW11914   2.307   6.896   2.965
 3672SOL    HW111915   2.332   6.802   2.941
 3672SOL    HW211916   2.351   6.922   3.051
 3673SOL     OW11917   3.676   1.485   2.250
 3673SOL    HW111918   3.655   1.580   2.226
 3673SOL    HW211919   3.595   1.429   2.236
 3674SOL     OW11920   0.277   6.124   6.032
 3674SOL    HW111921   0.354   6.175   6.069
 3674SOL    HW211922   0.299   6.091   5.940
 3675SOL     OW11923   5.954   0.271   5.875
 3675SOL    HW111924   5.987   0.256   5.969
 3675SOL    HW211925   6.009   0.342   5.832
 3676SOL     OW11926   2.377   0.686   6.224
 3676SOL    HW111927   2.335   0.697   6.134
 3676SOL    HW211928   2.312   0.714   6.294
 3677SOL     OW11929   0.775   0.005   5.113
 3677SOL    HW111930   0.719   0.088   5.108
 3677SOL    HW211931   0.867   0.028   5.142
 3678SOL     OW11932   2.393   0.821   3.723
 3678SOL    HW111933   2.345   0.734   3.737
 3678SOL    HW211934   2.327   0.893   3.705
 3679SOL     OW11935   3.454   0.933   1.110
 3679SOL    HW111936   3.423   0.866   1.043
 3679SOL    HW211937   3.398   1.015   1.104
 3680SOL     OW11938   4.924   0.916   4.228
 3680SOL    HW111939   4.958   0.879   4.314
 3680SOL    HW211940   4.901   0.841   4.166
 3681SOL     OW11941   1.384   4.946   3.330
 3681SOL    HW111942   1.344   4.987   3.247
 3681SOL    HW211943   1.311   4.928   3.396
 3682SOL     OW11944   5.494   1.030   1.659
 3682SOL    HW111945   5.438   0.952   1.687
 3682SOL    HW211946   5.504   1.093   1.736
 3683SOL     OW11947   5.838   2.462   1.758
 3683SOL    HW111948   5.868   2.389   1.697
 3683SOL    HW211949   5.739   2.460   1.766
 3684SOL     OW11950   1.886   6.648   5.381
 3684SOL    HW111951   1.944   6.577   5.341
 3684SOL    HW211952   1.803   6.606   5.418
 3685SOL     OW11953   1.176   6.102   2.826
 3685SOL    HW111954   1.202   6.194   2.799
 3685SOL    HW211955   1.194   6.039   2.750
 3686SOL     OW11956   1.495   5.513   1.159
 3686SOL    HW111957   1.456   5.443   1.220
 3686SOL    HW211958   1.565   5.564   1.208
 3687SOL     OW11959   6.885   5.058   3.906
 3687SOL    HW111960   6.812   4.996   3.934
 3687SOL    HW211961   6.888   5.136   3.968
 3688SOL     OW11962   0.478   2.031   1.703
 3688SOL    HW111963   0.415   2.109   1.708
 3688SOL    HW211964   0.570   2.065   1.683
 3689SOL     OW11965   3.380   2.606   5.447
 3689SOL    HW111966   3.382   2.639   5.541
 3689SOL    HW211967   3.286   2.599   5.416
 3690SOL     OW11968   0.066   5.878   2.294
 3690SOL    HW111969   0.153   5.928   2.292
 3690SOL    HW211970   0.052   5.840   2.386
 3691SOL     OW11971   3.242   2.033   6.537
 3691SOL    HW111972   3.201   2.105   6.481
 3691SOL    HW211973   3.170   1.975   6.575
 3692SOL     OW11974   0.961   2.728   6.145
 3692SOL    HW111975   0.987   2.666   6.219
 3692SOL    HW211976   1.018   2.711   6.065
 3693SOL     OW11977   1.318   1.100   2.940
 3693SOL    HW111978   1.300   1.081   3.036
 3693SOL    HW211979   1.415   1.088   2.921
 3694SOL     OW11980   6.995   5.438   2.016
 3694SOL    HW111981   6.969   5.531   2.044
 3694SOL    HW211982   0.016   5.442   1.929
 3695SOL     OW11983   5.944   4.075   4.386
 3695SOL    HW111984   5.956   4.129   4.469
 3695SOL    HW211985   5.849   4.079   4.357
 3696SOL     OW11986   4.049   6.723   4.389
 3696SOL    HW111987   4.059   6.822   4.393
 3696SOL    HW211988   4.138   6.679   4.402
 3697SOL     OW11989   0.279   4.523   2.853
 3697SOL    HW111990   0.364   4.570   2.876
 3697SOL    HW211991   0.261   4.533   2.756
 3698SOL     OW11992   1.356   0.160   3.389
 3698SOL    HW111993   1.406   0.235   3.432
 3698SOL    HW211994   1.298   0.196   3.315
 3699SOL     OW11995   2.976   1.338   2.642
 3699SOL    HW111996   3.045   1.266   2.646
 3699SOL    HW211997   3.014   1.423   2.678
 3700SOL     OW11998   1.080   4.972   5.070
 3700SOL    HW111999   1.104   4.876   5.055
 3700SOL    HW212000   1.071   4.989   5.168
 3701SOL     OW12001   6.600   0.389   2.369
 3701SOL    HW112002   6.605   0.414   2.466
 3701SOL    HW212003   6.686   0.347   2.340
 3702SOL     OW12004   6.643   4.664   3.449
 3702SOL    HW112005   6.562   4.613   3.478
 3702SOL    HW212006   6.718   4.601   3.431
 3703SOL     OW12007   2.048   1.592   3.241
 3703SOL    HW112008   2.130   1.645   3.263
 3703SOL    HW212009   2.011   1.623   3.153
 3704SOL     OW12010   6.474   6.779   0.903
 3704SOL    HW112011   6.445   6.815   0.814
 3704SOL    HW212012   6.440   6.686   0.913
 3705SOL     OW12013   0.206   4.257   3.704
 3705SOL    HW112014   0.140   4.183   3.687
 3705SOL    HW212015   0.193   4.329   3.637
 3706SOL     OW12016   0.168   6.734   6.279
 3706SOL    HW112017   0.086   6.678   6.293
 3706SOL    HW212018   0.168   6.771   6.187
 3707SOL     OW12019   5.540   4.373   3.798
 3707SOL    HW112020   5.626   4.348   3.843
 3707SOL    HW212021   5.551   4.460   3.750
 3708SOL     OW12022   0.977   5.462   0.602
 3708SOL    HW112023   1.019   5.530   0.662
 3708SOL    HW212024   0.966   5.500   0.510
 3709SOL     OW12025   0.339   1.385   1.679
 3709SOL    HW112026   0.265   1.338   1.630
 3709SOL    HW212027   0.400   1.429   1.614
 3710SOL     OW12028   1.897   3.755   5.481
 3710SOL    HW112029   1.914   3.843   5.437
 3710SOL    HW212030   1.890   3.684   5.411
 3711SOL     OW12031   0.918   4.615   5.642
 3711SOL    HW112032   0.910   4.704   5.688
 3711SOL    HW212033   0.864   4.615   5.558
 3712SOL     OW12034   4.206   4.665   3.456
 3712SOL    HW112035   4.249   4.673   3.545
 3712SOL    HW212036   4.273   4.632   3.389
 3713SOL     OW12037   5.868   1.091   6.113
 3713SOL    HW112038   5.885   1.115   6.018
 3713SOL    HW212039   5.931   1.018   6.141
 3714SOL     OW12040   0.298   4.580   0.578
 3714SOL    HW112041   0.273   4.652   0.513
 3714SOL    HW212042   0.310   4.620   0.669
 3715SOL     OW12043   5.764   4.617   1.915
 3715SOL    HW112044   5.859   4.585   1.922
 3715SOL    HW212045   5.710   4.578   1.990
 3716SOL     OW12046   5.341   5.936   5.517
 3716SOL    HW112047   5.394   6.017   5.543
 3716SOL    HW212048   5.403   5.862   5.490
 3717SOL     OW12049   4.334   0.017   1.064
 3717SOL    HW112050   4.266   0.082   1.029
 3717SOL    HW212051   4.312   7.020   1.158
 3718SOL     OW12052   4.490   5.893   6.532
 3718SOL    HW112053   4.503   5.888   6.632
 3718SOL    HW212054   4.418   5.960   6.511
 3719SOL     OW12055   2.884   3.307   0.056
 3719SOL    HW112056   2.894   3.381   0.123
 3719SOL    HW212057   2.883   3.219   0.103
 3720SOL     OW12058   0.493   1.903   0.223
 3720SOL    HW112059   0.544   1.985   0.197
 3720SOL    HW212060   0.489   1.841   0.145
 3721SOL     OW12061   6.924   0.340   5.718
 3721SOL    HW112062   6.916   0.403   5.641
 3721SOL    HW212063   6.853   0.270   5.712
 3722SOL     OW12064   4.188   6.362   1.855
 3722SOL    HW112065   4.116   6.376   1.787
 3722SOL    HW212066   4.158   6.396   1.944
 3723SOL     OW12067   3.916   3.941   6.296
 3723SOL    HW112068   3.968   3.860   6.322
 3723SOL    HW212069   3.834   3.948   6.354
 3724SOL     OW12070   5.900   3.770   5.050
 3724SOL    HW112071   5.854   3.727   5.127
 3724SOL    HW212072   5.960   3.843   5.083
 3725SOL     OW12073   0.583   6.066   1.889
 3725SOL    HW112074   0.679   6.091   1.875
 3725SOL    HW212075   0.548   6.112   1.970
 3726SOL     OW12076   6.267   3.566   5.559
 3726SOL    HW112077   6.341   3.515   5.602
 3726SOL    HW212078   6.220   3.621   5.628
 3727SOL     OW12079   5.774   1.725   4.066
 3727SOL    HW112080   5.726   1.809   4.043
 3727SOL    HW212081   5.825   1.693   3.986
 3728SOL     OW12082   1.434   3.901   0.284
 3728SOL    HW112083   1.433   3.996   0.251
 3728SOL    HW212084   1.521   3.859   0.258
 3729SOL     OW12085   0.014   0.027   5.625
 3729SOL    HW112086   0.069   7.001   5.689
 3729SOL    HW212087   7.022   0.116   5.666
 3730SOL     OW12088   5.974   4.290   5.228
 3730SOL    HW112089   6.000   4.232   5.151
 3730SOL    HW212090   6.008   4.249   5.313
 3731SOL     OW12091   5.774   1.787   2.708
 3731SOL    HW112092   5.804   1.856   2.774
 3731SOL    HW212093   5.825   1.798   2.623
 3732SOL     OW12094   4.763   2.242   0.142
 3732SOL    HW112095   4.721   2.248   0.051
 3732SOL    HW212096   4.782   2.334   0.176
 3733SOL     OW12097   1.915   1.409   3.403
 3733SOL    HW112098   1.816   1.424   3.410
 3733SOL    HW212099   1.950   1.455   3.321
 3734SOL     OW12100   5.125   1.424   2.081
 3734SOL    HW112101   5.076   1.505   2.112
 3734SOL    HW212102   5.097   1.344   2.135
 3735SOL     OW12103   3.846   1.103   3.125
 3735SOL    HW112104   3.801   1.139   3.207
 3735SOL    HW212105   3.867   1.179   3.063
 3736SOL     OW12106   1.286   1.339   6.378
 3736SOL    HW112107   1.284   1.438   6.385
 3736SOL    HW212108   1.326   1.311   6.291
 3737SOL     OW12109   5.274   1.723   4.169
 3737SOL    HW112110   5.212   1.791   4.131
 3737SOL    HW212111   5.309   1.755   4.257
 3738SOL     OW12112   0.273   1.029   0.809
 3738SOL    HW112113   0.305   1.011   0.716
 3738SOL    HW212114   0.174   1.018   0.813
 3739SOL     OW12115   3.034   6.263   0.177
 3739SOL    HW112116   3.076   6.173   0.184
 3739SOL    HW212117   3.043   6.312   0.264
 3740SOL     OW12118   6.503   0.373   6.549
 3740SOL    HW112119   6.555   0.290   6.571
 3740SOL    HW212120   6.537   0.448   6.605
 3741SOL     OW12121   5.615   4.455   0.708
 3741SOL    HW112122   5.533   4.425   0.756
 3741SOL    HW212123   5.665   4.375   0.675
 3742SOL     OW12124   4.750   5.320   1.421
 3742SOL    HW112125   4.844   5.305   1.452
 3742SOL    HW212126   4.749   5.322   1.321
 3743SOL     OW12127   2.328   3.838   1.663
 3743SOL    HW112128   2.416   3.882   1.648
 3743SOL    HW212129   2.256   3.894   1.622
 3744SOL     OW12130   6.525   5.075   2.310
 3744SOL    HW112131   6.430   5.104   2.297
 3744SOL    HW212132   6.569   5.066   2.221
 3745SOL     OW12133   6.330   0.871   3.211
 3745SOL    HW112134   6.237   0.836   3.194
 3745SOL    HW212135   6.396   0.797   3.200
 3746SOL     OW12136   5.430   6.606   5.673
 3746SOL    HW112137   5.372   6.639   5.598
 3746SOL    HW212138   5.408   6.655   5.757
 3747SOL     OW12139   1.978   4.597   5.377
 3747SOL    HW112140   1.971   4.680   5.321
 3747SOL    HW212141   2.046   4.536   5.337
 3748SOL     OW12142   4.872   0.621   3.273
 3748SOL    HW112143   4.939   0.599   3.203
 3748SOL    HW212144   4.865   0.545   3.338
 3749SOL     OW12145   6.048   5.627   1.265
 3749SOL    HW112146   5.978   5.567   1.305
 3749SOL    HW212147   6.095   5.579   1.192
 3750SOL     OW12148   0.168   4.649   1.609
 3750SOL    HW112149   0.162   4.638   1.509
 3750SOL    HW212150   0.198   4.563   1.650
 3751SOL     OW12151   1.970   4.561   0.759
 3751SOL    HW112152   1.988   4.658   0.771
 3751SOL    HW212153   1.919   4.526   0.838
 3752SOL     OW12154   1.387   6.855   6.389
 3752SOL    HW112155   1.467   6.905   6.354
 3752SOL    HW212156   1.364   6.781   6.326
 3753SOL     OW12157   0.672   1.919   5.219
 3753SOL    HW112158   0.754   1.932   5.274
 3753SOL    HW212159   0.593   1.956   5.267
 3754SOL     OW12160   6.798   6.786   1.507
 3754SOL    HW112161   6.834   6.704   1.464
 3754SOL    HW212162   6.785   6.770   1.605
 3755SOL     OW12163   4.453   2.334   2.835
 3755SOL    HW112164   4.447   2.258   2.770
 3755SOL    HW212165   4.476   2.418   2.785
 3756SOL     OW12166   3.154   0.181   6.954
 3756SOL    HW112167   3.155   0.093   7.002
 3756SOL    HW212168   3.101   0.173   6.870
 3757SOL     OW12169   2.994   3.445   6.285
 3757SOL    HW112170   2.905   3.446   6.238
 3757SOL    HW212171   3.001   3.362   6.340
 3758SOL     OW12172   0.578   1.567   1.216
 3758SOL    HW112173   0.676   1.587   1.211
 3758SOL    HW212174   0.553   1.505   1.142
 3759SOL     OW12175   5.468   4.298   1.162
 3759SOL    HW112176   5.510   4.385   1.136
 3759SOL    HW212177   5.375   4.294   1.125
 3760SOL     OW12178   2.050   1.515   6.289
 3760SOL    HW112179   2.011   1.545   6.376
 3760SOL    HW212180   1.983   1.526   6.216
 3761SOL     OW12181   6.911   6.964   4.548
 3761SOL    HW112182   6.920   6.970   4.648
 3761SOL    HW212183   6.859   6.882   4.524
 3762SOL     OW12184   0.330   4.039   1.405
 3762SOL    HW112185   0.365   4.133   1.405
 3762SOL    HW212186   0.275   4.025   1.487
 3763SOL     OW12187   0.543   2.725   5.213
 3763SOL    HW112188   0.547   2.743   5.115
 3763SOL    HW212189   0.475   2.785   5.255
 3764SOL     OW12190   2.138   1.344   2.704
 3764SOL    HW112191   2.051   1.376   2.742
 3764SOL    HW212192   2.127   1.251   2.668
 3765SOL     OW12193   6.180   1.427   3.578
 3765SOL    HW112194   6.180   1.519   3.540
 3765SOL    HW212195   6.108   1.419   3.647
 3766SOL     OW12196   2.465   0.634   4.472
 3766SOL    HW112197   2.491   0.718   4.518
 3766SOL    HW212198   2.440   0.565   4.540
 3767SOL     OW12199   6.539   4.582   1.554
 3767SOL    HW112200   6.524   4.621   1.644
 3767SOL    HW212201   6.617   4.519   1.558
 3768SOL     OW12202   3.933   6.734   1.465
 3768SOL    HW112203   4.008   6.700   1.520
 3768SOL    HW212204   3.880   6.657   1.429
 3769SOL     OW12205   3.788   6.509   4.594
 3769SOL    HW112206   3.706   6.541   4.547
 3769SOL    HW212207   3.820   6.579   4.658
 3770SOL     OW12208   1.562   3.114   0.876
 3770SOL    HW112209   1.493   3.045   0.855
 3770SOL    HW212210   1.594   3.156   0.791
 3771SOL     OW12211   5.105   1.696   5.173
 3771SOL    HW112212   5.103   1.758   5.095
 3771SOL    HW212213   5.057   1.611   5.150
 3772SOL     OW12214   4.903   1.372   2.515
 3772SOL    HW112215   4.931   1.421   2.597
 3772SOL    HW212216   4.860   1.436   2.451
 3773SOL     OW12217   6.063   2.714   1.420
 3773SOL    HW112218   6.069   2.657   1.502
 3773SOL    HW212219   6.035   2.807   1.446
 3774SOL     OW12220   2.024   0.655   1.769
 3774SOL    HW112221   2.007   0.695   1.859
 3774SOL    HW212222   2.032   0.727   1.701
 3775SOL     OW12223   5.421   3.072   3.404
 3775SOL    HW112224   5.357   3.001   3.432
 3775SOL    HW212225   5.373   3.141   3.350
 3776SOL     OW12226   2.806   2.286   0.603
 3776SOL    HW112227   2.893   2.322   0.638
 3776SOL    HW212228   2.801   2.300   0.504
 3777SOL     OW12229   1.760   4.208   3.625
 3777SOL    HW112230   1.752   4.307   3.637
 3777SOL    HW212231   1.692   4.177   3.559
 3778SOL     OW12232   1.998   0.068   0.700
 3778SOL    HW112233   2.064   0.126   0.653
 3778SOL    HW212234   2.006   7.002   0.666
 3779SOL     OW12235   1.551   3.460   0.322
 3779SOL    HW112236   1.604   3.386   0.364
 3779SOL    HW212237   1.500   3.509   0.393
 3780SOL     OW12238   2.522   6.896   4.019
 3780SOL    HW112239   2.570   6.904   4.107
 3780SOL    HW212240   2.516   6.985   3.976
 3781SOL     OW12241   3.605   5.067   5.268
 3781SOL    HW112242   3.578   5.041   5.361
 3781SOL    HW212243   3.689   5.121   5.270
 3782SOL     OW12244   2.996   0.613   2.075
 3782SOL    HW112245   3.070   0.546   2.074
 3782SOL    HW212246   2.980   0.643   2.169
 3783SOL     OW12247   5.007   4.601   5.714
 3783SOL    HW112248   4.977   4.551   5.794
 3783SOL    HW212249   5.048   4.538   5.648
 3784SOL     OW12250   5.499   2.807   4.766
 3784SOL    HW112251   5.598   2.800   4.764
 3784SOL    HW212252   5.462   2.783   4.677
 3785SOL     OW12253   6.847   0.203   1.414
 3785SOL    HW112254   6.923   0.139   1.425
 3785SOL    HW212255   6.866   0.287   1.465
 3786SOL     OW12256   2.745   5.766   1.662
 3786SOL    HW112257   2.694   5.843   1.701
 3786SOL    HW212258   2.795   5.719   1.735
 3787SOL     OW12259   3.739   1.390   3.724
 3787SOL    HW112260   3.661   1.442   3.689
 3787SOL    HW212261   3.718   1.356   3.815
 3788SOL     OW12262   6.473   2.836   2.690
 3788SOL    HW112263   6.443   2.922   2.731
 3788SOL    HW212264   6.414   2.814   2.612
 3789SOL     OW12265   1.656   4.554   2.233
 3789SOL    HW112266   1.558   4.554   2.212
 3789SOL    HW212267   1.708   4.543   2.149
 3790SOL     OW12268   2.038   3.671   2.766
 3790SOL    HW112269   1.971   3.717   2.708
 3790SOL    HW212270   2.082   3.738   2.826
 3791SOL     OW12271   6.324   0.684   1.966
 3791SOL    HW112272   6.345   0.778   1.993
 3791SOL    HW212273   6.399   0.649   1.909
 3792SOL     OW12274   0.966   5.781   5.860
 3792SOL    HW112275   0.923   5.718   5.795
 3792SOL    HW212276   0.959   5.874   5.824
 3793SOL     OW12277   6.420   6.051   2.491
 3793SOL    HW112278   6.518   6.034   2.501
 3793SOL    HW212279   6.373   5.963   2.478
 3794SOL     OW12280   4.590   0.283   5.162
 3794SOL    HW112281   4.520   0.330   5.108
 3794SOL    HW212282   4.546   0.219   5.225
 3795SOL     OW12283   5.802   0.737   0.335
 3795SOL    HW112284   5.873   0.730   0.266
 3795SOL    HW212285   5.712   0.731   0.292
 3796SOL     OW12286   0.299   1.896   1.492
 3796SOL    HW112287   0.363   1.927   1.562
 3796SOL    HW212288   0.216   1.953   1.496
 3797SOL     OW12289   6.509   6.404   2.283
 3797SOL    HW112290   6.606   6.380   2.277
 3797SOL    HW212291   6.454   6.321   2.279
 3798SOL     OW12292   1.872   4.440   6.778
 3798SOL    HW112293   1.957   4.395   6.749
 3798SOL    HW212294   1.844   4.404   6.867
 3799SOL     OW12295   1.046   0.756   5.844
 3799SOL    HW112296   1.064   0.853   5.827
 3799SOL    HW212297   1.074   0.703   5.765
 3800SOL     OW12298   4.636   2.741   5.249
 3800SOL    HW112299   4.600   2.663   5.301
 3800SOL    HW212300   4.561   2.805   5.229
 3801SOL     OW12301   0.138   0.883   5.460
 3801SOL    HW112302   0.085   0.933   5.529
 3801SOL    HW212303   0.175   0.947   5.393
 3802SOL     OW12304   1.870   2.272   4.677
 3802SOL    HW112305   1.911   2.337   4.613
 3802SOL    HW212306   1.898   2.293   4.770
 3803SOL     OW12307   4.930   1.311   1.065
 3803SOL    HW112308   4.958   1.228   1.113
 3803SOL    HW212309   4.982   1.389   1.100
 3804SOL     OW12310   4.851   4.052   5.300
 3804SOL    HW112311   4.804   3.964   5.307
 3804SOL    HW212312   4.945   4.043   5.332
 3805SOL     OW12313   2.216   2.913   1.470
 3805SOL    HW112314   2.297   2.951   1.426
 3805SOL    HW212315   2.170   2.851   1.406
 3806SOL     OW12316   4.867   0.343   1.164
 3806SOL    HW112317   4.841   0.254   1.199
 3806SOL    HW212318   4.812   0.365   1.083
 3807SOL     OW12319   1.476   0.221   2.992
 3807SOL    HW112320   1.418   0.140   2.999
 3807SOL    HW212321   1.445   0.277   2.915
 3808SOL     OW12322   3.988   0.985   0.466
 3808SOL    HW112323   4.064   1.047   0.449
 3808SOL    HW212324   3.957   0.944   0.380
 3809SOL     OW12325   3.895   0.870   0.220
 3809SOL    HW112326   3.917   0.938   0.150
 3809SOL    HW212327   3.829   0.805   0.183
 3810SOL     OW12328   0.803   3.364   6.597
 3810SOL    HW112329   0.871   3.300   6.561
 3810SOL    HW212330   0.813   3.372   6.696
 3811SOL     OW12331   0.076   1.420   5.208
 3811SOL    HW112332   0.168   1.407   5.173
 3811SOL    HW212333   0.009   1.388   5.140
 3812SOL     OW12334   3.841   6.989   5.779
 3812SOL    HW112335   3.815   0.035   5.717
 3812SOL    HW212336   3.941   6.986   5.786
 3813SOL     OW12337   4.011   5.111   1.766
 3813SOL    HW112338   3.916   5.129   1.740
 3813SOL    HW212339   4.045   5.031   1.716
 3814SOL     OW12340   1.183   0.275   1.244
 3814SOL    HW112341   1.248   0.199   1.242
 3814SOL    HW212342   1.158   0.300   1.151
 3815SOL     OW12343   4.840   2.087   1.956
 3815SOL    HW112344   4.758   2.117   1.908
 3815SOL    HW212345   4.919   2.138   1.923
 3816SOL     OW12346   0.003   6.274   0.677
 3816SOL    HW112347   7.026   6.185   0.720
 3816SOL    HW212348   6.942   6.296   0.636
 3817SOL     OW12349   5.450   1.640   5.168
 3817SOL    HW112350   5.527   1.595   5.124
 3817SOL    HW212351   5.428   1.725   5.119
 3818SOL     OW12352   3.716   0.288   3.072
 3818SOL    HW112353   3.626   0.290   3.029
 3818SOL    HW212354   3.786   0.276   3.002
 3819SOL     OW12355   5.865   3.272   6.331
 3819SOL    HW112356   5.823   3.321   6.254
 3819SOL    HW212357   5.820   3.299   6.416
 3820SOL     OW12358   4.340   6.829   3.743
 3820SOL    HW112359   4.409   6.795   3.679
 3820SOL    HW212360   4.329   6.928   3.732
 3821SOL     OW12361   1.520   4.081   1.621
 3821SOL    HW112362   1.471   4.090   1.708
 3821SOL    HW212363   1.585   4.005   1.627
 3822SOL     OW12364   0.418   3.289   1.546
 3822SOL    HW112365   0.451   3.367   1.598
 3822SOL    HW212366   0.331   3.313   1.502
 3823SOL     OW12367   1.871   3.557   5.253
 3823SOL    HW112368   1.963   3.577   5.219
 3823SOL    HW212369   1.852   3.459   5.240
 3824SOL     OW12370   0.125   3.535   5.833
 3824SOL    HW112371   0.196   3.542   5.763
 3824SOL    HW212372   0.109   3.438   5.853
 3825SOL     OW12373   0.913   6.146   6.740
 3825SOL    HW112374   0.939   6.121   6.647
 3825SOL    HW212375   0.992   6.133   6.801
 3826SOL     OW12376   0.004   0.781   1.657
 3826SOL    HW112377   0.023   0.844   1.581
 3826SOL    HW212378   0.069   0.705   1.654
 3827SOL     OW12379   4.256   1.294   1.969
 3827SOL    HW112380   4.318   1.345   2.029
 3827SOL    HW212381   4.208   1.358   1.909
 3828SOL     OW12382   3.603   1.440   0.683
 3828SOL    HW112383   3.617   1.538   0.671
 3828SOL    HW212384   3.617   1.416   0.779
 3829SOL     OW12385   1.125   5.089   3.551
 3829SOL    HW112386   1.174   5.106   3.636
 3829SOL    HW212387   1.027   5.091   3.568
 3830SOL     OW12388   1.633   0.158   5.833
 3830SOL    HW112389   1.720   0.143   5.880
 3830SOL    HW212390   1.624   0.255   5.811
 3831SOL     OW12391   4.599   2.239   2.260
 3831SOL    HW112392   4.608   2.253   2.358
 3831SOL    HW212393   4.647   2.312   2.211
 3832SOL     OW12394   5.856   6.738   2.671
 3832SOL    HW112395   5.890   6.779   2.586
 3832SOL    HW212396   5.872   6.639   2.669
 3833SOL     OW12397   0.926   6.461   2.205
 3833SOL    HW112398   0.876   6.522   2.267
 3833SOL    HW212399   0.907   6.486   2.111
 3834SOL     OW12400   2.624   2.029   6.812
 3834SOL    HW112401   2.723   2.032   6.826
 3834SOL    HW212402   2.605   2.024   6.714
 3835SOL     OW12403   4.177   4.740   2.909
 3835SOL    HW112404   4.228   4.694   2.837
 3835SOL    HW212405   4.140   4.826   2.874
 3836SOL     OW12406   1.865   2.525   6.169
 3836SOL    HW112407   1.772   2.489   6.169
 3836SOL    HW212408   1.931   2.450   6.180
 3837SOL     OW12409   3.543   4.524   6.942
 3837SOL    HW112410   3.615   4.480   6.996
 3837SOL    HW212411   3.506   4.457   6.877
 3838SOL     OW12412   0.611   3.999   5.353
 3838SOL    HW112413   0.591   4.096   5.359
 3838SOL    HW212414   0.560   3.950   5.424
 3839SOL     OW12415   0.127   6.714   6.837
 3839SOL    HW112416   0.205   6.748   6.888
 3839SOL    HW212417   0.136   6.740   6.740
 3840SOL     OW12418   3.731   1.247   3.321
 3840SOL    HW112419   3.642   1.285   3.346
 3840SOL    HW212420   3.789   1.241   3.403
 3841SOL     OW12421   1.411   3.148   3.829
 3841SOL    HW112422   1.379   3.090   3.904
 3841SOL    HW212423   1.396   3.101   3.742
 3842SOL     OW12424   1.479   5.213   0.041
 3842SOL    HW112425   1.439   5.231   6.979
 3842SOL    HW212426   1.506   5.117   0.047
 3843SOL     OW12427   0.058   5.188   0.292
 3843SOL    HW112428   0.115   5.267   0.313
 3843SOL    HW212429   0.005   5.163   0.372
 3844SOL     OW12430   2.283   4.127   5.517
 3844SOL    HW112431   2.356   4.094   5.577
 3844SOL    HW212432   2.221   4.051   5.497
 3845SOL     OW12433   3.517   3.860   4.913
 3845SOL    HW112434   3.462   3.922   4.970
 3845SOL    HW212435   3.519   3.895   4.820
 3846SOL     OW12436   0.173   4.479   3.511
 3846SOL    HW112437   0.112   4.527   3.448
 3846SOL    HW212438   0.265   4.476   3.473
 3847SOL     OW12439   0.968   6.687   1.489
 3847SOL    HW112440   0.869   6.692   1.487
 3847SOL    HW212441   1.006   6.760   1.431
 3848SOL     OW12442   2.260   5.737   2.086
 3848SOL    HW112443   2.237   5.751   2.182
 3848SOL    HW212444   2.357   5.714   2.078
 3849SOL     OW12445   2.442   0.847   4.630
 3849SOL    HW112446   2.528   0.879   4.670
 3849SOL    HW212447   2.397   0.924   4.584
 3850SOL     OW12448   1.829   2.496   2.078
 3850SOL    HW112449   1.877   2.459   2.157
 3850SOL    HW212450   1.752   2.552   2.108
 3851SOL     OW12451   1.954   3.092   0.220
 3851SOL    HW112452   2.027   3.081   0.152
 3851SOL    HW212453   1.866   3.103   0.174
 3852SOL     OW12454   4.347   0.984   5.830
 3852SOL    HW112455   4.286   1.054   5.794
 3852SOL    HW212456   4.315   0.893   5.802
 3853SOL     OW12457   0.343   3.038   1.661
 3853SOL    HW112458   0.364   3.131   1.631
 3853SOL    HW212459   0.345   2.976   1.582
 3854SOL     OW12460   1.346   4.447   3.868
 3854SOL    HW112461   1.392   4.365   3.900
 3854SOL    HW212462   1.386   4.527   3.912
 3855SOL     OW12463   6.688   2.472   5.967
 3855SOL    HW112464   6.614   2.537   5.951
 3855SOL    HW212465   6.705   2.418   5.884
 3856SOL     OW12466   1.049   6.754   5.391
 3856SOL    HW112467   1.049   6.766   5.291
 3856SOL    HW212468   0.969   6.800   5.429
 3857SOL     OW12469   6.802   0.675   6.378
 3857SOL    HW112470   6.782   0.584   6.341
 3857SOL    HW212471   6.829   0.735   6.303
 3858SOL     OW12472   3.437   5.509   6.920
 3858SOL    HW112473   3.338   5.493   6.928
 3858SOL    HW212474   3.479   5.433   6.870
 3859SOL     OW12475   0.651   2.243   2.712
 3859SOL    HW112476   0.714   2.167   2.723
 3859SOL    HW212477   0.570   2.213   2.661
 3860SOL     OW12478   2.286   5.805   3.825
 3860SOL    HW112479   2.223   5.876   3.792
 3860SOL    HW212480   2.235   5.723   3.849
 3861SOL     OW12481   3.817   4.002   0.284
 3861SOL    HW112482   3.806   4.062   0.363
 3861SOL    HW212483   3.832   4.057   0.202
 3862SOL     OW12484   0.663   6.766   5.148
 3862SOL    HW112485   0.707   6.753   5.237
 3862SOL    HW212486   0.699   6.850   5.106
 3863SOL     OW12487   2.160   3.290   0.482
 3863SOL    HW112488   2.218   3.322   0.556
 3863SOL    HW212489   2.146   3.191   0.490
 3864SOL     OW12490   3.671   1.617   1.889
 3864SOL    HW112491   3.647   1.520   1.894
 3864SOL    HW212492   3.758   1.627   1.840
 3865SOL     OW12493   5.014   1.066   1.883
 3865SOL    HW112494   5.059   1.155   1.875
 3865SOL    HW212495   5.011   1.021   1.794
 3866SOL     OW12496   4.397   6.656   6.226
 3866SOL    HW112497   4.440   6.728   6.281
 3866SOL    HW212498   4.439   6.568   6.248
 3867SOL     OW12499   2.249   5.425   2.563
 3867SOL    HW112500   2.318   5.369   2.517
 3867SOL    HW212501   2.292   5.475   2.639
 3868SOL     OW12502   2.403   4.875   2.245
 3868SOL    HW112503   2.466   4.934   2.194
 3868SOL    HW212504   2.455   4.813   2.303
 3869SOL     OW12505   1.663   2.259   3.282
 3869SOL    HW112506   1.670   2.219   3.374
 3869SOL    HW212507   1.629   2.190   3.218
 3870SOL     OW12508   3.977   3.684   0.539
 3870SOL    HW112509   4.062   3.734   0.559
 3870SOL    HW212510   3.985   3.590   0.573
 3871SOL     OW12511   2.401   0.439   4.917
 3871SOL    HW112512   2.476   0.406   4.859
 3871SOL    HW212513   2.349   0.508   4.867
 3872SOL     OW12514   4.134   4.340   6.114
 3872SOL    HW112515   4.197   4.385   6.178
 3872SOL    HW212516   4.095   4.259   6.158
 3873SOL     OW12517   6.425   5.278   1.688
 3873SOL    HW112518   6.392   5.217   1.760
 3873SOL    HW212519   6.517   5.310   1.711
 3874SOL     OW12520   5.911   6.205   5.431
 3874SOL    HW112521   5.907   6.254   5.343
 3874SOL    HW212522   5.900   6.270   5.506
 3875SOL     OW12523   3.428   3.293   0.583
 3875SOL    HW112524   3.437   3.221   0.514
 3875SOL    HW212525   3.489   3.368   0.560
 3876SOL     OW12526   5.107   4.665   2.976
 3876SOL    HW112527   5.152   4.581   2.948
 3876SOL    HW212528   5.170   4.720   3.031
 3877SOL     OW12529   4.641   2.653   2.438
 3877SOL    HW112530   4.634   2.660   2.338
 3877SOL    HW212531   4.714   2.712   2.471
 3878SOL     OW12532   6.585   4.646   5.073
 3878SOL    HW112533   6.608   4.557   5.112
 3878SOL    HW212534   6.486   4.655   5.069
 3879SOL     OW12535   2.315   6.656   0.550
 3879SOL    HW112536   2.364   6.669   0.636
 3879SOL    HW212537   2.219   6.684   0.561
 3880SOL     OW12538   5.637   1.948   3.987
 3880SOL    HW112539   5.665   2.020   3.923
 3880SOL    HW212540   5.560   1.897   3.949
 3881SOL     OW12541   0.377   6.964   5.585
 3881SOL    HW112542   0.358   0.002   5.513
 3881SOL    HW212543   0.431   6.888   5.549
 3882SOL     OW12544   0.172   4.955   0.585
 3882SOL    HW112545   0.099   4.940   0.652
 3882SOL    HW212546   0.134   4.946   0.493
 3883SOL     OW12547   4.133   2.253   0.935
 3883SOL    HW112548   4.033   2.258   0.939
 3883SOL    HW212549   4.163   2.163   0.967
 3884SOL     OW12550   3.117   6.220   5.750
 3884SOL    HW112551   3.201   6.211   5.803
 3884SOL    HW212552   3.086   6.315   5.753
 3885SOL     OW12553   1.431   1.200   4.309
 3885SOL    HW112554   1.507   1.230   4.367
 3885SOL    HW212555   1.428   1.101   4.306
 3886SOL     OW12556   6.332   5.866   4.184
 3886SOL    HW112557   6.237   5.877   4.212
 3886SOL    HW212558   6.335   5.819   4.095
 3887SOL     OW12559   0.276   2.608   5.313
 3887SOL    HW112560   0.299   2.705   5.302
 3887SOL    HW212561   0.336   2.553   5.256
 3888SOL     OW12562   4.591   2.111   2.993
 3888SOL    HW112563   4.542   2.064   2.919
 3888SOL    HW212564   4.530   2.179   3.035
 3889SOL     OW12565   6.274   5.081   0.347
 3889SOL    HW112566   6.231   5.161   0.305
 3889SOL    HW212567   6.216   5.001   0.336
 3890SOL     OW12568   5.653   2.996   3.871
 3890SOL    HW112569   5.623   3.002   3.776
 3890SOL    HW212570   5.686   2.903   3.890
 3891SOL     OW12571   3.291   4.671   6.036
 3891SOL    HW112572   3.304   4.754   5.982
 3891SOL    HW212573   3.292   4.591   5.975
 3892SOL     OW12574   5.103   5.607   4.298
 3892SOL    HW112575   5.081   5.586   4.202
 3892SOL    HW212576   5.202   5.622   4.306
 3893SOL     OW12577   3.310   6.749   4.887
 3893SOL    HW112578   3.395   6.738   4.939
 3893SOL    HW212579   3.240   6.687   4.923
 3894SOL     OW12580   5.506   4.372   6.217
 3894SOL    HW112581   5.536   4.467   6.206
 3894SOL    HW212582   5.410   4.364   6.190
 3895SOL     OW12583   1.782   1.967   4.923
 3895SOL    HW112584   1.754   1.911   5.001
 3895SOL    HW212585   1.703   2.020   4.890
 3896SOL     OW12586   5.986   3.348   1.720
 3896SOL    HW112587   6.038   3.340   1.635
 3896SOL    HW212588   6.025   3.420   1.777
 3897SOL     OW12589   2.643   0.310   2.586
 3897SOL    HW112590   2.633   0.253   2.667
 3897SOL    HW212591   2.606   0.401   2.604
 3898SOL     OW12592   3.728   3.951   2.311
 3898SOL    HW112593   3.786   4.001   2.376
 3898SOL    HW212594   3.783   3.884   2.262
 3899SOL     OW12595   3.682   0.822   6.260
 3899SOL    HW112596   3.655   0.755   6.329
 3899SOL    HW212597   3.687   0.778   6.171
 3900SOL     OW12598   1.438   1.861   3.904
 3900SOL    HW112599   1.371   1.932   3.927
 3900SOL    HW212600   1.393   1.788   3.853
 3901SOL     OW12601   3.882   6.558   4.228
 3901SOL    HW112602   3.856   6.631   4.164
 3901SOL    HW212603   3.913   6.599   4.314
 3902SOL     OW12604   3.369   4.962   3.293
 3902SOL    HW112605   3.347   4.946   3.389
 3902SOL    HW212606   3.464   4.936   3.275
 3903SOL     OW12607   2.838   3.773   5.967
 3903SOL    HW112608   2.786   3.755   5.884
 3903SOL    HW212609   2.920   3.716   5.969
 3904SOL     OW12610   1.715   5.391   0.605
 3904SOL    HW112611   1.617   5.412   0.605
 3904SOL    HW212612   1.754   5.415   0.517
 3905SOL     OW12613   4.463   6.340   5.438
 3905SOL    HW112614   4.459   6.308   5.533
 3905SOL    HW212615   4.374   6.377   5.412
 3906SOL     OW12616   6.588   5.610   4.233
 3906SOL    HW112617   6.619   5.622   4.138
 3906SOL    HW212618   6.582   5.699   4.277
 3907SOL     OW12619   2.183   0.550   4.336
 3907SOL    HW112620   2.283   0.547   4.339
 3907SOL    HW212621   2.147   0.458   4.320
 3908SOL     OW12622   2.696   1.848   4.442
 3908SOL    HW112623   2.627   1.871   4.373
 3908SOL    HW212624   2.655   1.850   4.533
 3909SOL     OW12625   6.598   3.181   2.899
 3909SOL    HW112626   6.664   3.154   2.829
 3909SOL    HW212627   6.585   3.280   2.896
 3910SOL     OW12628   1.951   2.389   6.994
 3910SOL    HW112629   1.969   2.357   0.060
 3910SOL    HW212630   2.038   2.392   6.944
 3911SOL     OW12631   6.372   0.951   1.562
 3911SOL    HW112632   6.272   0.952   1.570
 3911SOL    HW212633   6.406   0.858   1.569
 3912SOL     OW12634   4.991   4.621   0.479
 3912SOL    HW112635   5.037   4.687   0.421
 3912SOL    HW212636   5.059   4.561   0.522
 3913SOL     OW12637   3.549   4.506   0.566
 3913SOL    HW112638   3.635   4.515   0.617
 3913SOL    HW212639   3.498   4.591   0.572
 3914SOL     OW12640   0.725   1.097   0.199
 3914SOL    HW112641   0.698   1.189   0.173
 3914SOL    HW212642   0.684   1.074   0.288
 3915SOL     OW12643   4.556   0.040   4.471
 3915SOL    HW112644   4.554   7.021   4.383
 3915SOL    HW212645   4.639   0.015   4.521
 3916SOL     OW12646   1.775   2.829   2.077
 3916SOL    HW112647   1.847   2.787   2.021
 3916SOL    HW212648   1.689   2.780   2.063
 3917SOL     OW12649   2.375   5.518   1.784
 3917SOL    HW112650   2.404   5.553   1.873
 3917SOL    HW212651   2.287   5.471   1.794
 3918SOL     OW12652   3.609   0.227   6.639
 3918SOL    HW112653   3.581   0.198   6.730
 3918SOL    HW212654   3.690   0.175   6.611
 3919SOL     OW12655   4.595   5.001   3.522
 3919SOL    HW112656   4.549   5.042   3.601
 3919SOL    HW212657   4.597   4.901   3.532
 3920SOL     OW12658   5.416   6.782   5.889
 3920SOL    HW112659   5.412   6.831   5.803
 3920SOL    HW212660   5.367   6.834   5.960
 3921SOL     OW12661   1.278   4.151   5.642
 3921SOL    HW112662   1.191   4.201   5.644
 3921SOL    HW212663   1.312   4.140   5.735
 3922SOL     OW12664   5.661   1.188   3.825
 3922SOL    HW112665   5.687   1.099   3.861
 3922SOL    HW212666   5.668   1.257   3.897
 3923SOL     OW12667   5.671   1.476   1.656
 3923SOL    HW112668   5.647   1.534   1.578
 3923SOL    HW212669   5.714   1.533   1.727
 3924SOL     OW12670   6.087   4.831   3.776
 3924SOL    HW112671   6.024   4.887   3.830
 3924SOL    HW212672   6.105   4.745   3.824
 3925SOL     OW12673   3.804   4.510   1.656
 3925SOL    HW112674   3.750   4.579   1.705
 3925SOL    HW212675   3.803   4.532   1.558
 3926SOL     OW12676   0.826   6.207   4.955
 3926SOL    HW112677   0.817   6.141   5.030
 3926SOL    HW212678   0.897   6.273   4.978
 3927SOL     OW12679   6.583   6.002   5.405
 3927SOL    HW112680   6.599   6.017   5.502
 3927SOL    HW212681   6.498   6.047   5.377
 3928SOL     OW12682   4.359   5.351   1.742
 3928SOL    HW112683   4.309   5.298   1.673
 3928SOL    HW212684   4.456   5.354   1.716
 3929SOL     OW12685   1.906   0.655   5.128
 3929SOL    HW112686   1.808   0.663   5.109
 3929SOL    HW212687   1.957   0.663   5.042
 3930SOL     OW12688   1.644   5.770   5.187
 3930SOL    HW112689   1.733   5.786   5.144
 3930SOL    HW212690   1.630   5.837   5.260
 3931SOL     OW12691   6.882   2.243   0.720
 3931SOL    HW112692   6.804   2.288   0.677
 3931SOL    HW212693   6.896   2.280   0.812
 3932SOL     OW12694   1.948   4.637   2.861
 3932SOL    HW112695   1.922   4.704   2.791
 3932SOL    HW212696   2.046   4.618   2.856
 3933SOL     OW12697   0.547   0.279   1.263
 3933SOL    HW112698   0.451   0.256   1.246
 3933SOL    HW212699   0.553   0.334   1.346
 3934SOL     OW12700   0.724   6.945   1.773
 3934SOL    HW112701   0.696   6.953   1.678
 3934SOL    HW212702   0.767   0.002   1.803
 3935SOL     OW12703   6.812   1.431   5.427
 3935SOL    HW112704   6.782   1.371   5.352
 3935SOL    HW212705   6.776   1.523   5.412
 3936SOL     OW12706   6.054   4.307   4.786
 3936SOL    HW112707   5.984   4.276   4.722
 3936SOL    HW212708   6.122   4.362   4.738
 3937SOL     OW12709   1.459   5.715   6.597
 3937SOL    HW112710   1.416   5.706   6.507
 3937SOL    HW212711   1.400   5.675   6.667
 3938SOL     OW12712   1.136   4.194   6.738
 3938SOL    HW112713   1.123   4.279   6.686
 3938SOL    HW212714   1.229   4.161   6.724
 3939SOL     OW12715   1.685   5.120   3.939
 3939SOL    HW112716   1.630   5.183   3.884
 3939SOL    HW212717   1.663   5.026   3.914
 3940SOL     OW12718   2.538   6.511   0.051
 3940SOL    HW112719   2.514   6.528   6.983
 3940SOL    HW212720   2.599   6.584   0.083
 3941SOL     OW12721   5.929   4.695   3.125
 3941SOL    HW112722   5.848   4.749   3.146
 3941SOL    HW212723   5.962   4.717   3.033
 3942SOL     OW12724   0.938   7.013   6.741
 3942SOL    HW112725   0.893   6.954   6.675
 3942SOL    HW212726   1.017   6.966   6.781
 3943SOL     OW12727   1.258   4.575   1.277
 3943SOL    HW112728   1.166   4.572   1.238
 3943SOL    HW212729   1.305   4.489   1.261
 3944SOL     OW12730   6.013   2.810   0.464
 3944SOL    HW112731   6.030   2.858   0.550
 3944SOL    HW212732   5.996   2.713   0.482
 3945SOL     OW12733   0.783   0.701   2.817
 3945SOL    HW112734   0.710   0.704   2.748
 3945SOL    HW212735   0.872   0.711   2.773
 3946SOL     OW12736   4.639   1.710   1.024
 3946SOL    HW112737   4.558   1.670   1.066
 3946SOL    HW212738   4.611   1.772   0.950
 3947SOL     OW12739   5.573   0.688   0.873
 3947SOL    HW112740   5.519   0.605   0.868
 3947SOL    HW212741   5.631   0.695   0.792
 3948SOL     OW12742   1.894   1.190   3.238
 3948SOL    HW112743   1.801   1.173   3.204
 3948SOL    HW212744   1.891   1.263   3.306
 3949SOL     OW12745   5.831   6.517   2.102
 3949SOL    HW112746   5.918   6.537   2.058
 3949SOL    HW212747   5.808   6.590   2.166
 3950SOL     OW12748   2.410   4.336   1.773
 3950SOL    HW112749   2.362   4.251   1.794
 3950SOL    HW212750   2.408   4.396   1.852
 3951SOL     OW12751   0.283   3.674   3.056
 3951SOL    HW112752   0.318   3.607   2.992
 3951SOL    HW212753   0.325   3.660   3.146
 3952SOL     OW12754   6.076   5.517   0.176
 3952SOL    HW112755   5.976   5.515   0.186
 3952SOL    HW212756   6.113   5.430   0.207
 3953SOL     OW12757   3.131   3.013   4.972
 3953SOL    HW112758   3.104   3.043   5.064
 3953SOL    HW212759   3.191   2.933   4.979
 3954SOL     OW12760   0.829   5.846   6.460
 3954SOL    HW112761   0.732   5.823   6.462
 3954SOL    HW212762   0.881   5.767   6.430
 3955SOL     OW12763   6.216   3.173   0.228
 3955SOL    HW112764   6.174   3.233   0.160
 3955SOL    HW212765   6.148   3.109   0.263
 3956SOL     OW12766   0.258   3.765   4.519
 3956SOL    HW112767   0.171   3.815   4.528
 3956SOL    HW212768   0.239   3.671   4.492
 3957SOL     OW12769   1.507   2.488   1.411
 3957SOL    HW112770   1.516   2.529   1.502
 3957SOL    HW212771   1.587   2.431   1.392
 3958SOL     OW12772   4.697   4.693   1.109
 3958SOL    HW112773   4.630   4.759   1.142
 3958SOL    HW212774   4.764   4.739   1.051
 3959SOL     OW12775   2.217   5.049   6.596
 3959SOL    HW112776   2.235   5.147   6.601
 3959SOL    HW212777   2.281   5.007   6.531
 3960SOL     OW12778   5.391   3.634   2.088
 3960SOL    HW112779   5.406   3.593   2.178
 3960SOL    HW212780   5.439   3.580   2.019
 3961SOL     OW12781   0.952   2.444   2.069
 3961SOL    HW112782   0.902   2.529   2.089
 3961SOL    HW212783   0.997   2.412   2.153
 3962SOL     OW12784   0.189   0.165   0.217
 3962SOL    HW112785   0.180   0.223   0.136
 3962SOL    HW212786   0.128   0.198   0.289
 3963SOL     OW12787   5.958   2.895   4.337
 3963SOL    HW112788   5.961   2.849   4.249
 3963SOL    HW212789   5.881   2.860   4.391
 3964SOL     OW12790   6.347   4.637   6.163
 3964SOL    HW112791   6.323   4.706   6.095
 3964SOL    HW212792   6.268   4.619   6.221
 3965SOL     OW12793   2.649   4.709   1.844
 3965SOL    HW112794   2.686   4.680   1.756
 3965SOL    HW212795   2.710   4.680   1.917
 3966SOL     OW12796   0.161   4.778   5.906
 3966SOL    HW112797   0.207   4.740   5.986
 3966SOL    HW212798   0.200   4.739   5.822
 3967SOL     OW12799   3.110   0.901   1.014
 3967SOL    HW112800   3.180   0.835   0.985
 3967SOL    HW212801   3.072   0.871   1.102
 3968SOL     OW12802   5.353   2.346   0.396
 3968SOL    HW112803   5.268   2.373   0.351
 3968SOL    HW212804   5.430   2.359   0.334
 3969SOL     OW12805   6.221   6.879   1.332
 3969SOL    HW112806   6.300   6.883   1.394
 3969SOL    HW212807   6.145   6.930   1.372
 3970SOL     OW12808   5.961   3.697   3.629
 3970SOL    HW112809   5.996   3.781   3.670
 3970SOL    HW212810   5.877   3.717   3.579
 3971SOL     OW12811   6.802   5.409   3.987
 3971SOL    HW112812   6.832   5.385   4.080
 3971SOL    HW212813   6.732   5.344   3.958
 3972SOL     OW12814   0.815   1.648   6.423
 3972SOL    HW112815   0.881   1.641   6.498
 3972SOL    HW212816   0.797   1.745   6.403
 3973SOL     OW12817   3.935   2.966   0.988
 3973SOL    HW112818   3.941   3.013   1.077
 3973SOL    HW212819   3.840   2.942   0.970
 3974SOL     OW12820   5.887   0.481   6.324
 3974SOL    HW112821   5.873   0.450   6.418
 3974SOL    HW212822   5.821   0.553   6.302
 3975SOL     OW12823   0.780   6.092   3.512
 3975SOL    HW112824   0.737   6.006   3.483
 3975SOL    HW212825   0.778   6.158   3.437
 3976SOL     OW12826   0.757   2.843   5.327
 3976SOL    HW112827   0.776   2.752   5.364
 3976SOL    HW212828   0.685   2.836   5.257
 3977SOL     OW12829   2.391   4.614   5.714
 3977SOL    HW112830   2.384   4.714   5.707
 3977SOL    HW212831   2.462   4.590   5.780
 3978SOL     OW12832   4.426   3.303   6.790
 3978SOL    HW112833   4.326   3.297   6.790
 3978SOL    HW212834   4.454   3.399   6.784
 3979SOL     OW12835   0.141   6.028   3.053
 3979SOL    HW112836   0.054   5.987   3.026
 3979SOL    HW212837   0.172   5.990   3.140
 3980SOL     OW12838   5.691   4.104   4.291
 3980SOL    HW112839   5.670   4.198   4.262
 3980SOL    HW212840   5.621   4.073   4.356
 3981SOL     OW12841   5.875   1.193   6.704
 3981SOL    HW112842   5.932   1.161   6.628
 3981SOL    HW212843   5.840   1.284   6.682
 3982SOL     OW12844   1.603   2.829   3.966
 3982SOL    HW112845   1.569   2.738   3.942
 3982SOL    HW212846   1.555   2.863   4.046
 3983SOL     OW12847   2.326   1.458   3.382
 3983SOL    HW112848   2.326   1.541   3.325
 3983SOL    HW212849   2.236   1.448   3.425
 3984SOL     OW12850   1.044   5.931   2.513
 3984SOL    HW112851   0.976   5.967   2.577
 3984SOL    HW212852   1.136   5.945   2.550
 3985SOL     OW12853   1.418   2.035   1.347
 3985SOL    HW112854   1.489   2.035   1.418
 3985SOL    HW212855   1.356   2.112   1.362
 3986SOL     OW12856   0.731   6.760   3.154
 3986SOL    HW112857   0.640   6.756   3.196
 3986SOL    HW212858   0.746   6.852   3.116
 3987SOL     OW12859   1.704   4.672   5.595
 3987SOL    HW112860   1.722   4.718   5.509
 3987SOL    HW212861   1.616   4.625   5.591
 3988SOL     OW12862   4.999   4.844   2.385
 3988SOL    HW112863   4.979   4.780   2.460
 3988SOL    HW212864   4.992   4.796   2.298
 3989SOL     OW12865   4.198   1.329   6.686
 3989SOL    HW112866   4.270   1.301   6.623
 3989SOL    HW212867   4.113   1.284   6.661
 3990SOL     OW12868   5.910   5.469   3.562
 3990SOL    HW112869   5.860   5.479   3.476
 3990SOL    HW212870   5.942   5.375   3.572
 3991SOL     OW12871   0.514   2.193   5.313
 3991SOL    HW112872   0.503   2.291   5.297
 3991SOL    HW212873   0.571   2.180   5.394
 3992SOL     OW12874   5.786   3.849   5.779
 3992SOL    HW112875   5.857   3.891   5.836
 3992SOL    HW212876   5.828   3.785   5.715
 3993SOL     OW12877   1.327   1.108   3.913
 3993SOL    HW112878   1.260   1.039   3.886
 3993SOL    HW212879   1.411   1.096   3.861
 3994SOL     OW12880   2.885   1.821   3.044
 3994SOL    HW112881   2.814   1.805   3.113
 3994SOL    HW212882   2.974   1.824   3.088
 3995SOL     OW12883   2.118   4.285   1.576
 3995SOL    HW112884   2.138   4.350   1.650
 3995SOL    HW212885   2.057   4.328   1.510
 3996SOL     OW12886   0.677   5.472   5.667
 3996SOL    HW112887   0.703   5.398   5.605
 3996SOL    HW212888   0.633   5.433   5.748
 3997SOL     OW12889   5.996   3.086   4.922
 3997SOL    HW112890   5.901   3.066   4.896
 3997SOL    HW212891   6.021   3.029   5.001
 3998SOL     OW12892   4.064   1.889   3.062
 3998SOL    HW112893   4.083   1.849   3.152
 3998SOL    HW212894   4.126   1.966   3.046
 3999SOL     OW12895   4.436   3.540   1.340
 3999SOL    HW112896   4.472   3.482   1.267
 3999SOL    HW212897   4.505   3.607   1.365
 4000SOL     OW12898   3.126   4.928   2.576
 4000SOL    HW112899   3.107   4.896   2.483
 4000SOL    HW212900   3.143   5.027   2.574
 4001SOL     OW12901   0.456   5.491   4.277
 4001SOL    HW112902   0.362   5.477   4.244
 4001SOL    HW212903   0.520   5.465   4.205
 4002SOL     OW12904   3.158   3.907   4.691
 4002SOL    HW112905   3.180   4.003   4.710
 4002SOL    HW212906   3.059   3.896   4.685
 4003SOL     OW12907   3.515   1.453   4.481
 4003SOL    HW112908   3.591   1.505   4.442
 4003SOL    HW212909   3.432   1.469   4.427
 4004SOL     OW12910   1.758   3.893   5.062
 4004SOL    HW112911   1.778   3.814   5.003
 4004SOL    HW212912   1.700   3.864   5.138
 4005SOL     OW12913   6.006   2.241   2.061
 4005SOL    HW112914   5.943   2.188   2.005
 4005SOL    HW212915   6.031   2.188   2.142
 4006SOL     OW12916   6.651   5.945   1.550
 4006SOL    HW112917   6.676   5.871   1.487
 4006SOL    HW212918   6.577   5.915   1.609
 4007SOL     OW12919   0.552   1.467   1.506
 4007SOL    HW112920   0.591   1.533   1.571
 4007SOL    HW212921   0.581   1.491   1.413
 4008SOL     OW12922   4.124   0.413   2.073
 4008SOL    HW112923   4.148   0.483   2.006
 4008SOL    HW212924   4.050   0.446   2.132
 4009SOL     OW12925   3.718   2.182   1.476
 4009SOL    HW112926   3.696   2.279   1.474
 4009SOL    HW212927   3.699   2.145   1.568
 4010SOL     OW12928   1.230   5.508   1.572
 4010SOL    HW112929   1.186   5.595   1.594
 4010SOL    HW212930   1.323   5.525   1.539
 4011SOL     OW12931   6.230   6.675   5.718
 4011SOL    HW112932   6.272   6.594   5.758
 4011SOL    HW212933   6.238   6.672   5.619
 4012SOL     OW12934   6.212   4.348   2.190
 4012SOL    HW112935   6.285   4.349   2.259
 4012SOL    HW212936   6.178   4.441   2.176
 4013SOL     OW12937   0.256   1.901   6.929
 4013SOL    HW112938   0.343   1.951   6.924
 4013SOL    HW212939   0.201   1.938   7.004
 4014SOL     OW12940   4.448   7.022   2.816
 4014SOL    HW112941   4.542   7.010   2.783
 4014SOL    HW212942   4.413   0.083   2.784
 4015SOL     OW12943   3.243   6.438   5.297
 4015SOL    HW112944   3.323   6.399   5.343
 4015SOL    HW212945   3.164   6.378   5.311
 4016SOL     OW12946   4.247   5.038   3.882
 4016SOL    HW112947   4.221   5.114   3.941
 4016SOL    HW212948   4.341   5.051   3.851
 4017SOL     OW12949   1.555   6.079   5.955
 4017SOL    HW112950   1.541   6.056   6.051
 4017SOL    HW212951   1.622   6.153   5.948
 4018SOL     OW12952   5.630   5.438   0.485
 4018SOL    HW112953   5.542   5.424   0.440
 4018SOL    HW212954   5.615   5.488   0.571
 4019SOL     OW12955   0.796   2.387   3.455
 4019SOL    HW112956   0.701   2.416   3.443
 4019SOL    HW212957   0.801   2.287   3.448
 4020SOL     OW12958   6.620   6.220   4.765
 4020SOL    HW112959   6.613   6.179   4.674
 4020SOL    HW212960   6.715   6.244   4.784
 4021SOL     OW12961   4.736   5.567   5.936
 4021SOL    HW112962   4.803   5.632   5.972
 4021SOL    HW212963   4.663   5.554   6.004
 4022SOL     OW12964   4.310   0.732   1.559
 4022SOL    HW112965   4.344   0.675   1.633
 4022SOL    HW212966   4.210   0.737   1.564
 4023SOL     OW12967   1.877   1.622   3.651
 4023SOL    HW112968   1.818   1.548   3.618
 4023SOL    HW212969   1.905   1.604   3.745
 4024SOL     OW12970   1.141   6.942   6.473
 4024SOL    HW112971   1.165   7.024   6.526
 4024SOL    HW212972   1.222   6.909   6.424
 4025SOL     OW12973   0.924   4.711   4.670
 4025SOL    HW112974   0.915   4.620   4.711
 4025SOL    HW212975   0.833   4.749   4.651
 4026SOL     OW12976   0.345   6.402   4.210
 4026SOL    HW112977   0.337   6.466   4.133
 4026SOL    HW212978   0.442   6.391   4.233
 4027SOL     OW12979   3.234   5.620   4.855
 4027SOL    HW112980   3.253   5.600   4.759
 4027SOL    HW212981   3.135   5.631   4.868
 4028SOL     OW12982   4.787   1.750   4.689
 4028SOL    HW112983   4.796   1.746   4.788
 4028SOL    HW212984   4.864   1.800   4.650
 4029SOL     OW12985   1.837   6.700   0.597
 4029SOL    HW112986   1.828   6.670   0.502
 4029SOL    HW212987   1.797   6.631   0.658
 4030SOL     OW12988   6.796   1.456   1.597
 4030SOL    HW112989   6.864   1.527   1.583
 4030SOL    HW212990   6.813   1.381   1.533
 4031SOL     OW12991   6.097   6.395   0.777
 4031SOL    HW112992   6.176   6.374   0.835
 4031SOL    HW212993   6.111   6.354   0.686
 4032SOL     OW12994   5.023   2.447   2.066
 4032SOL    HW112995   5.030   2.515   1.993
 4032SOL    HW212996   5.048   2.357   2.029
 4033SOL     OW12997   1.551   4.114   3.502
 4033SOL    HW112998   1.560   4.015   3.501
 4033SOL    HW212999   1.455   4.140   3.510
 4034SOL     OW13000   3.085   1.525   3.905
 4034SOL    HW113001   3.058   1.590   3.834
 4034SOL    HW213002   3.181   1.502   3.895
 4035SOL     OW13003   3.255   2.060   0.996
 4035SOL    HW113004   3.248   2.069   0.896
 4035SOL    HW213005   3.188   2.121   1.039
 4036SOL     OW13006   4.018   0.197   2.945
 4036SOL    HW113007   4.107   0.239   2.925
 4036SOL    HW213008   4.003   0.195   3.043
 4037SOL     OW13009   1.403   0.919   5.846
 4037SOL    HW113010   1.304   0.930   5.832
 4037SOL    HW213011   1.449   0.917   5.758
 4038SOL     OW13012   3.721   5.751   5.968
 4038SOL    HW113013   3.809   5.746   6.015
 4038SOL    HW213014   3.713   5.675   5.904
 4039SOL     OW13015   6.416   4.376   2.352
 4039SOL    HW113016   6.481   4.440   2.310
 4039SOL    HW213017   6.462   4.290   2.371
 4040SOL     OW13018   1.480   6.955   5.820
 4040SOL    HW113019   1.455   6.940   5.916
 4040SOL    HW213020   1.534   0.010   5.812
 4041SOL     OW13021   0.894   6.439   1.417
 4041SOL    HW113022   0.988   6.444   1.385
 4041SOL    HW213023   0.867   6.527   1.456
 4042SOL     OW13024   1.885   1.094   4.664
 4042SOL    HW113025   1.938   1.117   4.583
 4042SOL    HW213026   1.913   1.153   4.740
 4043SOL     OW13027   4.249   2.991   5.324
 4043SOL    HW113028   4.234   2.892   5.316
 4043SOL    HW213029   4.343   3.008   5.352
 4044SOL     OW13030   4.540   4.448   3.776
 4044SOL    HW113031   4.510   4.437   3.681
 4044SOL    HW213032   4.639   4.464   3.777
 4045SOL     OW13033   4.571   1.431   5.018
 4045SOL    HW113034   4.487   1.474   5.051
 4045SOL    HW213035   4.564   1.417   4.919
 4046SOL     OW13036   5.224   0.560   4.831
 4046SOL    HW113037   5.153   0.513   4.884
 4046SOL    HW213038   5.270   0.626   4.890
 4047SOL     OW13039   2.610   2.855   6.905
 4047SOL    HW113040   2.642   2.856   6.811
 4047SOL    HW213041   2.563   2.941   6.926
 4048SOL     OW13042   4.850   2.509   3.243
 4048SOL    HW113043   4.773   2.572   3.235
 4048SOL    HW213044   4.816   2.416   3.256
 4049SOL     OW13045   3.879   3.180   2.085
 4049SOL    HW113046   3.812   3.167   2.012
 4049SOL    HW213047   3.900   3.092   2.128
 4050SOL     OW13048   6.686   5.036   2.701
 4050SOL    HW113049   6.617   4.965   2.705
 4050SOL    HW213050   6.727   5.038   2.610
 4051SOL     OW13051   5.862   0.312   3.532
 4051SOL    HW113052   5.820   0.353   3.612
 4051SOL    HW213053   5.943   0.259   3.560
 4052SOL     OW13054   4.475   0.852   5.128
 4052SOL    HW113055   4.387   0.852   5.080
 4052SOL    HW213056   4.527   0.932   5.100
 4053SOL     OW13057   0.579   4.842   3.149
 4053SOL    HW113058   0.602   4.825   3.245
 4053SOL    HW213059   0.573   4.755   3.100
 4054SOL     OW13060   5.025   3.701   1.216
 4054SOL    HW113061   5.083   3.620   1.222
 4054SOL    HW213062   5.031   3.753   1.301
 4055SOL     OW13063   0.178   3.949   6.452
 4055SOL    HW113064   0.262   3.966   6.400
 4055SOL    HW213065   0.145   3.857   6.434
 4056SOL     OW13066   4.846   4.517   6.810
 4056SOL    HW113067   4.835   4.611   6.777
 4056SOL    HW213068   4.883   4.460   6.737
 4057SOL     OW13069   6.685   5.443   4.931
 4057SOL    HW113070   6.715   5.519   4.988
 4057SOL    HW213071   6.717   5.357   4.970
 4058SOL     OW13072   3.125   0.873   3.665
 4058SOL    HW113073   3.182   0.867   3.583
 4058SOL    HW213074   3.030   0.851   3.642
 4059SOL     OW13075   2.075   0.901   3.521
 4059SOL    HW113076   2.018   0.926   3.443
 4059SOL    HW213077   2.123   0.983   3.554
 4060SOL     OW13078   0.055   6.688   3.695
 4060SOL    HW113079   0.013   6.619   3.637
 4060SOL    HW213080   0.143   6.715   3.656
 4061SOL     OW13081   1.427   3.828   2.488
 4061SOL    HW113082   1.526   3.843   2.489
 4061SOL    HW213083   1.396   3.806   2.580
 4062SOL     OW13084   2.561   3.592   0.364
 4062SOL    HW113085   2.578   3.674   0.418
 4062SOL    HW213086   2.553   3.618   0.267
 4063SOL     OW13087   3.814   0.963   1.706
 4063SOL    HW113088   3.820   0.984   1.608
 4063SOL    HW213089   3.834   1.046   1.758
 4064SOL     OW13090   2.511   0.066   4.707
 4064SOL    HW113091   2.526   0.111   4.795
 4064SOL    HW213092   2.421   0.092   4.672
 4065SOL     OW13093   2.297   0.694   2.000
 4065SOL    HW113094   2.276   0.654   1.911
 4065SOL    HW213095   2.215   0.692   2.058
 4066SOL     OW13096   0.204   3.700   5.048
 4066SOL    HW113097   0.205   3.797   5.073
 4066SOL    HW213098   0.151   3.648   5.115
 4067SOL     OW13099   5.927   4.314   2.089
 4067SOL    HW113100   5.954   4.376   2.016
 4067SOL    HW213101   5.966   4.345   2.176
 4068SOL     OW13102   2.288   2.745   5.722
 4068SOL    HW113103   2.325   2.811   5.788
 4068SOL    HW213104   2.213   2.694   5.764
 4069SOL     OW13105   4.658   1.180   6.440
 4069SOL    HW113106   4.717   1.100   6.441
 4069SOL    HW213107   4.676   1.234   6.358
 4070SOL     OW13108   2.216   4.641   4.559
 4070SOL    HW113109   2.309   4.604   4.555
 4070SOL    HW213110   2.184   4.641   4.653
 4071SOL     OW13111   1.321   0.488   4.648
 4071SOL    HW113112   1.245   0.434   4.686
 4071SOL    HW213113   1.323   0.477   4.549
 4072SOL     OW13114   3.190   5.830   2.051
 4072SOL    HW113115   3.233   5.744   2.025
 4072SOL    HW213116   3.240   5.870   2.129
 4073SOL     OW13117   4.934   5.191   6.699
 4073SOL    HW113118   4.939   5.285   6.665
 4073SOL    HW213119   4.874   5.137   6.640
 4074SOL     OW13120   1.628   5.377   2.014
 4074SOL    HW113121   1.557   5.358   1.946
 4074SOL    HW213122   1.607   5.462   2.062
 4075SOL     OW13123   5.826   7.024   6.123
 4075SOL    HW113124   5.805   0.093   6.134
 4075SOL    HW213125   5.883   6.993   6.199
 4076SOL     OW13126   2.100   5.421   3.015
 4076SOL    HW113127   2.022   5.374   3.056
 4076SOL    HW213128   2.076   5.456   2.925
 4077SOL     OW13129   2.595   2.033   0.899
 4077SOL    HW113130   2.539   2.116   0.891
 4077SOL    HW213131   2.587   1.996   0.991
 4078SOL     OW13132   4.454   4.560   2.098
 4078SOL    HW113133   4.360   4.585   2.074
 4078SOL    HW213134   4.466   4.461   2.089
 4079SOL     OW13135   0.841   3.119   4.162
 4079SOL    HW113136   0.862   3.125   4.260
 4079SOL    HW213137   0.764   3.179   4.141
 4080SOL     OW13138   6.595   2.131   4.797
 4080SOL    HW113139   6.528   2.187   4.846
 4080SOL    HW213140   6.646   2.076   4.862
 4081SOL     OW13141   6.150   3.860   2.003
 4081SOL    HW113142   6.187   3.878   2.094
 4081SOL    HW213143   6.144   3.946   1.952
 4082SOL     OW13144   0.152   3.384   1.438
 4082SOL    HW113145   0.173   3.478   1.467
 4082SOL    HW213146   0.053   3.369   1.442
 4083SOL     OW13147   6.784   3.773   5.970
 4083SOL    HW113148   6.708   3.783   6.033
 4083SOL    HW213149   6.827   3.683   5.982
 4084SOL     OW13150   4.188   0.210   4.230
 4084SOL    HW113151   4.164   0.294   4.279
 4084SOL    HW213152   4.122   0.194   4.156
 4085SOL     OW13153   2.385   4.863   6.104
 4085SOL    HW113154   2.476   4.847   6.140
 4085SOL    HW213155   2.317   4.838   6.173
 4086SOL     OW13156   0.144   2.216   2.310
 4086SOL    HW113157   0.178   2.310   2.305
 4086SOL    HW213158   0.171   2.175   2.397
 4087SOL     OW13159   1.324   0.352   2.806
 4087SOL    HW113160   1.349   0.385   2.715
 4087SOL    HW213161   1.226   0.334   2.809
 4088SOL     OW13162   0.638   3.500   6.105
 4088SOL    HW113163   0.621   3.567   6.033
 4088SOL    HW213164   0.715   3.532   6.161
 4089SOL     OW13165   0.722   2.579   5.771
 4089SOL    HW113166   0.730   2.554   5.674
 4089SOL    HW213167   0.648   2.526   5.812
 4090SOL     OW13168   3.145   5.978   6.232
 4090SOL    HW113169   3.158   5.907   6.162
 4090SOL    HW213170   3.144   6.068   6.188
 4091SOL     OW13171   4.352   5.680   1.295
 4091SOL    HW113172   4.261   5.658   1.262
 4091SOL    HW213173   4.352   5.773   1.333
 4092SOL     OW13174   0.940   0.674   3.406
 4092SOL    HW113175   0.902   0.716   3.489
 4092SOL    HW213176   0.917   0.577   3.404
 4093SOL     OW13177   4.428   6.924   3.991
 4093SOL    HW113178   4.430   6.850   3.923
 4093SOL    HW213179   4.397   7.009   3.947
 4094SOL     OW13180   3.196   3.112   5.941
 4094SOL    HW113181   3.251   3.038   5.900
 4094SOL    HW213182   3.103   3.107   5.906
 4095SOL     OW13183   1.975   4.237   6.035
 4095SOL    HW113184   2.041   4.283   6.095
 4095SOL    HW213185   2.023   4.198   5.956
 4096SOL     OW13186   4.453   4.593   1.386
 4096SOL    HW113187   4.473   4.661   1.457
 4096SOL    HW213188   4.539   4.555   1.352
 4097SOL     OW13189   3.450   3.688   3.030
 4097SOL    HW113190   3.434   3.615   2.964
 4097SOL    HW213191   3.365   3.710   3.078
 4098SOL     OW13192   1.869   3.226   2.175
 4098SOL    HW113193   1.910   3.186   2.257
 4098SOL    HW213194   1.936   3.226   2.101
 4099SOL     OW13195   2.380   6.016   1.014
 4099SOL    HW113196   2.372   5.983   1.108
 4099SOL    HW213197   2.316   6.091   1.000
 4100SOL     OW13198   3.532   0.684   2.665
 4100SOL    HW113199   3.602   0.716   2.601
 4100SOL    HW213200   3.556   0.710   2.758
 4101SOL     OW13201   4.880   1.462   7.011
 4101SOL    HW113202   4.925   1.411   6.937
 4101SOL    HW213203   4.808   1.405   0.023
 4102SOL     OW13204   5.266   1.563   5.795
 4102SOL    HW113205   5.335   1.635   5.786
 4102SOL    HW213206   5.282   1.511   5.879
 4103SOL     OW13207   6.469   0.652   1.724
 4103SOL    HW113208   6.549   0.711   1.713
 4103SOL    HW213209   6.389   0.708   1.743
 4104SOL     OW13210   2.124   4.088   2.207
 4104SOL    HW113211   2.215   4.128   2.193
 4104SOL    HW213212   2.056   4.162   2.210
 4105SOL     OW13213   5.958   4.592   0.161
 4105SOL    HW113214   5.866   4.599   0.200
 4105SOL    HW213215   5.954   4.536   0.077
 4106SOL     OW13216   0.452   3.041   3.721
 4106SOL    HW113217   0.358   3.029   3.753
 4106SOL    HW213218   0.451   3.066   3.624
 4107SOL     OW13219   0.053   0.540   1.292
 4107SOL    HW113220   0.053   0.494   1.203
 4107SOL    HW213221   0.061   0.639   1.278
 4108SOL     OW13222   6.527   2.570   4.905
 4108SOL    HW113223   6.621   2.536   4.902
 4108SOL    HW213224   6.464   2.494   4.921
 4109SOL     OW13225   2.004   6.447   4.349
 4109SOL    HW113226   2.086   6.489   4.389
 4109SOL    HW213227   2.004   6.349   4.369
 4110SOL     OW13228   4.740   3.116   5.259
 4110SOL    HW113229   4.749   3.210   5.290
 4110SOL    HW213230   4.754   3.112   5.160
 4111SOL     OW13231   4.188   3.764   6.934
 4111SOL    HW113232   4.114   3.810   6.983
 4111SOL    HW213233   4.234   3.829   6.874
 4112SOL     OW13234   3.693   1.022   6.014
 4112SOL    HW113235   3.627   1.059   5.948
 4112SOL    HW213236   3.702   0.924   6.001
 4113SOL     OW13237   3.181   5.735   4.001
 4113SOL    HW113238   3.172   5.757   4.098
 4113SOL    HW213239   3.275   5.707   3.981
 4114SOL     OW13240   3.192   0.924   3.201
 4114SOL    HW113241   3.093   0.915   3.196
 4114SOL    HW213242   3.224   0.900   3.293
 4115SOL     OW13243   5.295   3.858   3.002
 4115SOL    HW113244   5.236   3.932   3.033
 4115SOL    HW213245   5.258   3.821   2.916
 4116SOL     OW13246   2.486   0.964   1.740
 4116SOL    HW113247   2.490   0.873   1.700
 4116SOL    HW213248   2.548   1.025   1.690
 4117SOL     OW13249   1.089   5.551   1.970
 4117SOL    HW113250   1.048   5.524   2.057
 4117SOL    HW213251   1.033   5.518   1.894
 4118SOL     OW13252   1.416   0.588   5.677
 4118SOL    HW113253   1.373   0.654   5.616
 4118SOL    HW213254   1.357   0.574   5.757
 4119SOL     OW13255   4.963   1.268   3.525
 4119SOL    HW113256   4.938   1.246   3.431
 4119SOL    HW213257   5.014   1.192   3.565
 4120SOL     OW13258   5.667   0.744   1.548
 4120SOL    HW113259   5.678   0.815   1.618
 4120SOL    HW213260   5.616   0.667   1.585
 4121SOL     OW13261   5.162   2.590   3.597
 4121SOL    HW113262   5.105   2.559   3.522
 4121SOL    HW213263   5.238   2.527   3.610
 4122SOL     OW13264   2.032   4.827   6.721
 4122SOL    HW113265   2.047   4.906   6.661
 4122SOL    HW213266   1.944   4.837   6.767
 4123SOL     OW13267   3.341   3.587   5.206
 4123SOL    HW113268   3.342   3.630   5.297
 4123SOL    HW213269   3.431   3.550   5.185
 4124SOL     OW13270   4.597   6.737   2.600
 4124SOL    HW113271   4.565   6.684   2.678
 4124SOL    HW213272   4.519   6.765   2.544
 4125SOL     OW13273   3.944   1.941   1.880
 4125SOL    HW113274   3.941   1.880   1.960
 4125SOL    HW213275   3.977   2.031   1.909
 4126SOL     OW13276   1.802   4.011   4.614
 4126SOL    HW113277   1.894   3.973   4.611
 4126SOL    HW213278   1.739   3.950   4.565
 4127SOL     OW13279   5.515   5.170   3.713
 4127SOL    HW113280   5.484   5.114   3.636
 4127SOL    HW213281   5.583   5.236   3.681
 4128SOL     OW13282   6.452   1.955   1.864
 4128SOL    HW113283   6.382   1.990   1.800
 4128SOL    HW213284   6.416   1.958   1.957
 4129SOL     OW13285   0.247   2.598   0.030
 4129SOL    HW113286   0.243   2.641   0.120
 4129SOL    HW213287   0.167   2.626   7.005
 4130SOL     OW13288   5.932   2.908   0.769
 4130SOL    HW113289   5.907   2.942   0.860
 4130SOL    HW213290   5.918   2.809   0.765
 4131SOL     OW13291   6.587   3.851   3.773
 4131SOL    HW113292   6.632   3.923   3.721
 4131SOL    HW213293   6.656   3.786   3.806
 4132SOL     OW13294   4.975   1.464   4.364
 4132SOL    HW113295   4.929   1.543   4.325
 4132SOL    HW213296   4.906   1.398   4.396
 4133SOL     OW13297   2.287   2.774   0.586
 4133SOL    HW113298   2.373   2.826   0.588
 4133SOL    HW213299   2.276   2.733   0.495
 4134SOL     OW13300   2.022   1.653   6.571
 4134SOL    HW113301   2.091   1.720   6.545
 4134SOL    HW213302   1.957   1.695   6.634
 4135SOL     OW13303   1.431   0.939   1.101
 4135SOL    HW113304   1.376   0.870   1.148
 4135SOL    HW213305   1.370   1.001   1.051
 4136SOL     OW13306   1.945   1.984   3.225
 4136SOL    HW113307   1.863   2.002   3.172
 4136SOL    HW213308   1.921   1.932   3.307
 4137SOL     OW13309   3.965   3.119   4.753
 4137SOL    HW113310   3.903   3.048   4.720
 4137SOL    HW213311   3.986   3.102   4.849
 4138SOL     OW13312   4.636   5.558   1.104
 4138SOL    HW113313   4.539   5.535   1.111
 4138SOL    HW213314   4.665   5.607   1.186
 4139SOL     OW13315   3.922   1.864   0.093
 4139SOL    HW113316   3.970   1.882   0.007
 4139SOL    HW213317   3.850   1.933   0.106
 4140SOL     OW13318   4.496   2.129   4.851
 4140SOL    HW113319   4.572   2.110   4.913
 4140SOL    HW213320   4.472   2.226   4.855
 4141SOL     OW13321   5.006   6.120   0.855
 4141SOL    HW113322   4.963   6.112   0.765
 4141SOL    HW213323   5.103   6.140   0.845
 4142SOL     OW13324   6.032   2.897   2.129
 4142SOL    HW113325   6.124   2.933   2.145
 4142SOL    HW213326   5.984   2.957   2.064
 4143SOL     OW13327   1.914   2.296   1.912
 4143SOL    HW113328   1.950   2.323   1.822
 4143SOL    HW213329   1.896   2.377   1.967
 4144SOL     OW13330   4.358   0.594   2.763
 4144SOL    HW113331   4.364   0.608   2.862
 4144SOL    HW213332   4.359   0.496   2.744
 4145SOL     OW13333   2.924   0.514   2.769
 4145SOL    HW113334   2.846   0.523   2.831
 4145SOL    HW213335   2.942   0.603   2.726
 4146SOL     OW13336   4.767   4.732   0.513
 4146SOL    HW113337   4.724   4.739   0.423
 4146SOL    HW213338   4.856   4.687   0.504
 4147SOL     OW13339   2.543   1.034   6.133
 4147SOL    HW113340   2.443   1.023   6.136
 4147SOL    HW213341   2.584   0.982   6.208
 4148SOL     OW13342   0.249   6.406   2.335
 4148SOL    HW113343   0.204   6.447   2.256
 4148SOL    HW213344   0.196   6.426   2.418
 4149SOL     OW13345   4.235   4.806   2.519
 4149SOL    HW113346   4.262   4.732   2.581
 4149SOL    HW213347   4.136   4.817   2.521
 4150SOL     OW13348   3.631   0.380   4.323
 4150SOL    HW113349   3.648   0.388   4.422
 4150SOL    HW213350   3.712   0.410   4.273
 4151SOL     OW13351   0.270   5.294   1.065
 4151SOL    HW113352   0.358   5.331   1.036
 4151SOL    HW213353   0.267   5.289   1.165
 4152SOL     OW13354   3.630   4.571   0.911
 4152SOL    HW113355   3.675   4.492   0.953
 4152SOL    HW213356   3.534   4.548   0.892
 4153SOL     OW13357   6.477   6.088   6.712
 4153SOL    HW113358   6.433   6.099   6.801
 4153SOL    HW213359   6.576   6.099   6.723
 4154SOL     OW13360   4.190   2.281   4.607
 4154SOL    HW113361   4.138   2.366   4.599
 4154SOL    HW213362   4.283   2.296   4.573
 4155SOL     OW13363   0.871   3.440   1.009
 4155SOL    HW113364   0.963   3.400   1.020
 4155SOL    HW213365   0.869   3.530   1.051
 4156SOL     OW13366   5.849   0.737   5.357
 4156SOL    HW113367   5.884   0.800   5.288
 4156SOL    HW213368   5.926   0.689   5.399
 4157SOL     OW13369   4.059   1.092   4.097
 4157SOL    HW113370   4.031   1.096   4.001
 4157SOL    HW213371   4.123   1.166   4.116
 4158SOL     OW13372   0.891   6.737   3.392
 4158SOL    HW113373   0.855   6.818   3.439
 4158SOL    HW213374   0.855   6.734   3.299
 4159SOL     OW13375   0.821   4.852   5.272
 4159SOL    HW113376   0.900   4.863   5.333
 4159SOL    HW213377   0.740   4.891   5.314
 4160SOL     OW13378   6.258   1.488   1.393
 4160SOL    HW113379   6.182   1.533   1.347
 4160SOL    HW213380   6.232   1.466   1.487
 4161SOL     OW13381   5.862   1.713   2.453
 4161SOL    HW113382   5.865   1.776   2.374
 4161SOL    HW213383   5.955   1.686   2.476
 4162SOL     OW13384   0.458   0.402   4.593
 4162SOL    HW113385   0.447   0.383   4.495
 4162SOL    HW213386   0.372   0.383   4.640
 4163SOL     OW13387   0.691   2.158   5.551
 4163SOL    HW113388   0.736   2.084   5.600
 4163SOL    HW213389   0.760   2.221   5.514
 4164SOL     OW13390   2.122   0.028   5.427
 4164SOL    HW113391   2.197   0.060   5.370
 4164SOL    HW213392   2.067   6.990   5.377
 4165SOL     OW13393   0.786   5.590   2.067
 4165SOL    HW113394   0.779   5.684   2.101
 4165SOL    HW213395   0.815   5.530   2.140
 4166SOL     OW13396   6.526   1.775   2.873
 4166SOL    HW113397   6.561   1.866   2.898
 4166SOL    HW213398   6.591   1.705   2.903
 4167SOL     OW13399   1.357   2.767   1.091
 4167SOL    HW113400   1.344   2.719   1.178
 4167SOL    HW213401   1.365   2.866   1.108
 4168SOL     OW13402   2.284   5.898   0.621
 4168SOL    HW113403   2.307   5.822   0.682
 4168SOL    HW213404   2.190   5.886   0.588
 4169SOL     OW13405   6.276   3.384   6.970
 4169SOL    HW113406   6.258   3.381   0.040
 4169SOL    HW213407   6.220   3.455   6.928
 4170SOL     OW13408   2.808   1.168   5.319
 4170SOL    HW113409   2.778   1.079   5.286
 4170SOL    HW213410   2.866   1.155   5.399
 4171SOL     OW13411   6.739   2.710   1.519
 4171SOL    HW113412   6.781   2.693   1.430
 4171SOL    HW213413   6.645   2.676   1.518
 4172SOL     OW13414   2.698   0.248   0.458
 4172SOL    HW113415   2.631   0.310   0.417
 4172SOL    HW213416   2.657   0.158   0.470
 4173SOL     OW13417   4.020   3.996   5.347
 4173SOL    HW113418   3.920   3.991   5.345
 4173SOL    HW213419   4.059   3.927   5.286
 4174SOL     OW13420   4.536   0.987   3.657
 4174SOL    HW113421   4.539   1.074   3.609
 4174SOL    HW213422   4.483   0.997   3.741
 4175SOL     OW13423   2.759   0.610   1.735
 4175SOL    HW113424   2.728   0.531   1.788
 4175SOL    HW213425   2.685   0.641   1.675
 4176SOL     OW13426   5.742   4.936   3.126
 4176SOL    HW113427   5.790   5.024   3.133
 4176SOL    HW213428   5.707   4.925   3.033
 4177SOL     OW13429   0.755   5.867   3.192
 4177SOL    HW113430   0.692   5.855   3.268
 4177SOL    HW213431   0.704   5.893   3.110
 4178SOL     OW13432   3.922   2.669   5.348
 4178SOL    HW113433   3.831   2.629   5.347
 4178SOL    HW213434   3.986   2.608   5.300
 4179SOL     OW13435   0.595   1.541   0.448
 4179SOL    HW113436   0.623   1.555   0.353
 4179SOL    HW213437   0.595   1.628   0.496
 4180SOL     OW13438   5.989   4.009   2.176
 4180SOL    HW113439   6.029   3.946   2.109
 4180SOL    HW213440   5.955   4.090   2.128
 4181SOL     OW13441   5.429   1.273   6.723
 4181SOL    HW113442   5.493   1.208   6.765
 4181SOL    HW213443   5.367   1.308   6.793
 4182SOL     OW13444   6.253   0.041   4.087
 4182SOL    HW113445   6.215   6.986   4.045
 4182SOL    HW213446   6.178   0.101   4.114
 4183SOL     OW13447   0.353   0.895   1.749
 4183SOL    HW113448   0.270   0.946   1.725
 4183SOL    HW213449   0.382   0.919   1.841
 4184SOL     OW13450   3.892   4.738   6.255
 4184SOL    HW113451   3.864   4.752   6.350
 4184SOL    HW213452   3.813   4.754   6.195
 4185SOL     OW13453   0.300   1.658   4.862
 4185SOL    HW113454   0.394   1.692   4.872
 4185SOL    HW213455   0.238   1.736   4.849
 4186SOL     OW13456   2.725   3.616   1.594
 4186SOL    HW113457   2.653   3.549   1.609
 4186SOL    HW213458   2.813   3.569   1.581
 4187SOL     OW13459   4.681   5.091   5.678
 4187SOL    HW113460   4.700   5.189   5.692
 4187SOL    HW213461   4.610   5.062   5.743
 4188SOL     OW13462   5.663   6.240   2.523
 4188SOL    HW113463   5.700   6.332   2.508
 4188SOL    HW213464   5.644   6.197   2.435
 4189SOL     OW13465   0.983   3.522   3.163
 4189SOL    HW113466   0.926   3.442   3.180
 4189SOL    HW213467   1.080   3.497   3.172
 4190SOL     OW13468   2.037   6.031   1.494
 4190SOL    HW113469   1.998   6.116   1.459
 4190SOL    HW213470   2.056   6.042   1.592
 4191SOL     OW13471   0.287   2.263   4.022
 4191SOL    HW113472   0.381   2.281   3.996
 4191SOL    HW213473   0.232   2.346   4.010
 4192SOL     OW13474   5.974   5.989   3.668
 4192SOL    HW113475   5.904   5.934   3.623
 4192SOL    HW213476   5.940   6.082   3.681
 4193SOL     OW13477   1.866   6.683   3.697
 4193SOL    HW113478   1.951   6.664   3.746
 4193SOL    HW213479   1.792   6.700   3.762
 4194SOL     OW13480   4.832   0.096   3.475
 4194SOL    HW113481   4.908   0.056   3.424
 4194SOL    HW213482   4.851   0.087   3.573
 4195SOL     OW13483   4.646   0.395   3.261
 4195SOL    HW113484   4.721   0.414   3.324
 4195SOL    HW213485   4.684   0.376   3.170
 4196SOL     OW13486   5.012   2.196   3.618
 4196SOL    HW113487   4.993   2.162   3.710
 4196SOL    HW213488   4.956   2.147   3.551
 4197SOL     OW13489   5.600   4.581   4.602
 4197SOL    HW113490   5.542   4.633   4.540
 4197SOL    HW213491   5.593   4.620   4.694
 4198SOL     OW13492   6.102   3.438   5.841
 4198SOL    HW113493   6.107   3.345   5.805
 4198SOL    HW213494   6.195   3.473   5.855
 4199SOL     OW13495   2.652   4.026   6.088
 4199SOL    HW113496   2.680   3.936   6.052
 4199SOL    HW213497   2.712   4.096   6.052
 4200SOL     OW13498   2.535   0.130   4.975
 4200SOL    HW113499   2.444   0.094   4.996
 4200SOL    HW213500   2.551   0.214   5.028
 4201SOL     OW13501   6.522   6.804   4.734
 4201SOL    HW113502   6.580   6.742   4.679
 4201SOL    HW213503   6.428   6.771   4.732
 4202SOL     OW13504   5.706   3.374   4.920
 4202SOL    HW113505   5.793   3.404   4.958
 4202SOL    HW213506   5.631   3.412   4.975
 4203SOL     OW13507   3.052   5.391   4.426
 4203SOL    HW113508   2.972   5.366   4.480
 4203SOL    HW213509   3.052   5.340   4.340
 4204SOL     OW13510   1.682   3.693   0.268
 4204SOL    HW113511   1.632   3.606   0.264
 4204SOL    HW213512   1.781   3.674   0.270
 4205SOL     OW13513   2.112   6.906   3.819
 4205SOL    HW113514   2.194   6.848   3.827
 4205SOL    HW213515   2.103   6.962   3.901
 4206SOL     OW13516   4.619   6.624   2.859
 4206SOL    HW113517   4.573   6.603   2.945
 4206SOL    HW213518   4.603   6.549   2.794
 4207SOL     OW13519   2.528   6.508   6.794
 4207SOL    HW113520   2.558   6.534   6.702
 4207SOL    HW213521   2.537   6.409   6.805
 4208SOL     OW13522   0.728   1.797   2.154
 4208SOL    HW113523   0.715   1.893   2.179
 4208SOL    HW213524   0.823   1.770   2.172
 4209SOL     OW13525   2.015   0.900   5.803
 4209SOL    HW113526   1.994   0.815   5.753
 4209SOL    HW213527   2.113   0.917   5.799
 4210SOL     OW13528   3.629   4.048   6.886
 4210SOL    HW113529   3.644   3.957   6.925
 4210SOL    HW213530   3.674   4.054   6.797
 4211SOL     OW13531   6.579   3.390   4.494
 4211SOL    HW113532   6.629   3.303   4.496
 4211SOL    HW213533   6.623   3.452   4.429
 4212SOL     OW13534   5.426   6.394   0.975
 4212SOL    HW113535   5.487   6.471   0.990
 4212SOL    HW213536   5.347   6.423   0.920
 4213SOL     OW13537   1.044   0.973   1.417
 4213SOL    HW113538   1.028   1.069   1.440
 4213SOL    HW213539   1.097   0.967   1.332
 4214SOL     OW13540   3.679   5.343   3.557
 4214SOL    HW113541   3.683   5.335   3.656
 4214SOL    HW213542   3.593   5.386   3.530
 4215SOL     OW13543   1.638   5.616   6.852
 4215SOL    HW113544   1.544   5.630   6.821
 4215SOL    HW213545   1.682   5.704   6.868
 4216SOL     OW13546   2.144   2.805   5.291
 4216SOL    HW113547   2.081   2.868   5.335
 4216SOL    HW213548   2.205   2.856   5.230
 4217SOL     OW13549   6.334   1.045   4.583
 4217SOL    HW113550   6.290   1.135   4.583
 4217SOL    HW213551   6.375   1.028   4.494
 4218SOL     OW13552   3.026   5.489   1.749
 4218SOL    HW113553   3.034   5.394   1.719
 4218SOL    HW213554   3.026   5.549   1.669
 4219SOL     OW13555   5.051   0.624   2.169
 4219SOL    HW113556   5.056   0.609   2.268
 4219SOL    HW213557   5.097   0.548   2.122
 4220SOL     OW13558   1.254   4.554   3.205
 4220SOL    HW113559   1.187   4.608   3.256
 4220SOL    HW213560   1.339   4.547   3.258
 4221SOL     OW13561   5.649   6.193   5.614
 4221SOL    HW113562   5.650   6.119   5.682
 4221SOL    HW213563   5.728   6.252   5.629
 4222SOL     OW13564   2.045   3.053   0.480
 4222SOL    HW113565   1.983   2.996   0.534
 4222SOL    HW213566   2.001   3.076   0.393
 4223SOL     OW13567   3.867   4.007   2.570
 4223SOL    HW113568   3.861   3.975   2.664
 4223SOL    HW213569   3.931   3.949   2.519
 4224SOL     OW13570   3.496   2.357   5.369
 4224SOL    HW113571   3.452   2.446   5.381
 4224SOL    HW213572   3.425   2.286   5.362
 4225SOL     OW13573   4.904   5.840   4.267
 4225SOL    HW113574   4.964   5.760   4.267
 4225SOL    HW213575   4.923   5.897   4.347
 4226SOL     OW13576   2.544   2.041   2.003
 4226SOL    HW113577   2.595   2.127   2.015
 4226SOL    HW213578   2.500   2.017   2.090
 4227SOL     OW13579   5.790   3.754   0.296
 4227SOL    HW113580   5.857   3.714   0.234
 4227SOL    HW213581   5.711   3.692   0.304
 4228SOL     OW13582   4.394   6.220   3.297
 4228SOL    HW113583   4.393   6.120   3.302
 4228SOL    HW213584   4.485   6.251   3.271
 4229SOL     OW13585   4.414   4.647   4.568
 4229SOL    HW113586   4.435   4.585   4.644
 4229SOL    HW213587   4.448   4.739   4.590
 4230SOL     OW13588   2.159   0.810   4.339
 4230SOL    HW113589   2.182   0.713   4.336
 4230SOL    HW213590   2.241   0.863   4.362
 4231SOL     OW13591   3.638   6.784   6.971
 4231SOL    HW113592   3.602   6.801   0.035
 4231SOL    HW213593   3.700   6.858   6.945
 4232SOL     OW13594   2.144   3.865   1.890
 4232SOL    HW113595   2.139   3.782   1.945
 4232SOL    HW213596   2.209   3.850   1.815
 4233SOL     OW13597   4.375   4.332   1.207
 4233SOL    HW113598   4.406   4.286   1.291
 4233SOL    HW213599   4.293   4.385   1.227
 4234SOL     OW13600   3.570   4.113   6.236
 4234SOL    HW113601   3.610   4.059   6.309
 4234SOL    HW213602   3.526   4.051   6.170
 4235SOL     OW13603   0.577   3.321   4.864
 4235SOL    HW113604   0.630   3.398   4.830
 4235SOL    HW213605   0.520   3.284   4.791
 4236SOL     OW13606   0.983   3.088   3.943
 4236SOL    HW113607   0.945   3.011   3.893
 4236SOL    HW213608   0.926   3.109   4.022
 4237SOL     OW13609   5.417   3.419   5.506
 4237SOL    HW113610   5.330   3.387   5.468
 4237SOL    HW213611   5.415   3.409   5.605
 4238SOL     OW13612   4.806   4.592   4.924
 4238SOL    HW113613   4.724   4.595   4.982
 4238SOL    HW213614   4.887   4.585   4.982
 4239SOL     OW13615   5.907   4.964   5.359
 4239SOL    HW113616   5.967   5.042   5.377
 4239SOL    HW213617   5.953   4.902   5.295
 4240SOL     OW13618   2.453   4.477   5.470
 4240SOL    HW113619   2.475   4.379   5.472
 4240SOL    HW213620   2.447   4.511   5.564
 4241SOL     OW13621   3.421   2.185   0.124
 4241SOL    HW113622   3.391   2.104   0.074
 4241SOL    HW213623   3.452   2.254   0.058
 4242SOL     OW13624   2.691   0.098   1.281
 4242SOL    HW113625   2.747   0.061   1.207
 4242SOL    HW213626   2.595   0.096   1.254
 4243SOL     OW13627   2.142   1.271   1.531
 4243SOL    HW113628   2.044   1.275   1.515
 4243SOL    HW213629   2.165   1.187   1.581
 4244SOL     OW13630   2.742   0.250   0.030
 4244SOL    HW113631   2.644   0.272   0.035
 4244SOL    HW213632   2.763   0.216   6.966
 4245SOL     OW13633   6.853   2.037   1.900
 4245SOL    HW113634   6.884   1.943   1.910
 4245SOL    HW213635   6.894   2.094   1.971
 4246SOL     OW13636   3.165   1.990   3.073
 4246SOL    HW113637   3.199   1.930   3.000
 4246SOL    HW213638   3.165   1.940   3.159
 4247SOL     OW13639   2.370   4.623   6.334
 4247SOL    HW113640   2.282   4.602   6.290
 4247SOL    HW213641   2.357   4.626   6.433
 4248SOL     OW13642   2.610   6.095   1.300
 4248SOL    HW113643   2.612   6.008   1.250
 4248SOL    HW213644   2.529   6.147   1.274
 4249SOL     OW13645   6.388   0.980   5.127
 4249SOL    HW113646   6.453   0.917   5.169
 4249SOL    HW213647   6.399   0.978   5.027
 4250SOL     OW13648   1.007   5.813   4.641
 4250SOL    HW113649   0.995   5.781   4.735
 4250SOL    HW213650   0.926   5.789   4.588
 4251SOL     OW13651   4.663   1.714   6.172
 4251SOL    HW113652   4.699   1.771   6.099
 4251SOL    HW213653   4.569   1.685   6.149
 4252SOL     OW13654   0.914   6.611   6.730
 4252SOL    HW113655   0.974   6.690   6.715
 4252SOL    HW213656   0.819   6.638   6.715
 4253SOL     OW13657   2.829   6.885   2.660
 4253SOL    HW113658   2.822   6.797   2.614
 4253SOL    HW213659   2.773   6.953   2.613
 4254SOL     OW13660   1.040   1.013   4.067
 4254SOL    HW113661   0.976   1.079   4.107
 4254SOL    HW213662   1.117   1.000   4.129
 4255SOL     OW13663   2.066   3.135   4.631
 4255SOL    HW113664   2.143   3.093   4.678
 4255SOL    HW213665   2.099   3.206   4.568
 4256SOL     OW13666   5.907   6.140   1.266
 4256SOL    HW113667   5.874   6.052   1.235
 4256SOL    HW213668   5.995   6.161   1.222
 4257SOL     OW13669   0.305   1.482   2.799
 4257SOL    HW113670   0.331   1.408   2.861
 4257SOL    HW213671   0.272   1.444   2.713
 4258SOL     OW13672   2.366   6.724   0.161
 4258SOL    HW113673   2.458   6.691   0.181
 4258SOL    HW213674   2.299   6.657   0.193
 4259SOL     OW13675   1.645   0.871   0.920
 4259SOL    HW113676   1.724   0.928   0.941
 4259SOL    HW213677   1.570   0.893   0.983
 4260SOL     OW13678   0.162   0.618   5.646
 4260SOL    HW113679   0.144   0.539   5.588
 4260SOL    HW213680   0.197   0.693   5.590
 4261SOL     OW13681   1.788   6.929   3.135
 4261SOL    HW113682   1.788   6.915   3.234
 4261SOL    HW213683   1.708   6.983   3.109
 4262SOL     OW13684   0.915   3.593   5.059
 4262SOL    HW113685   0.932   3.690   5.079
 4262SOL    HW213686   0.842   3.586   4.990
 4263SOL     OW13687   2.963   0.446   2.425
 4263SOL    HW113688   2.898   0.371   2.421
 4263SOL    HW213689   3.049   0.414   2.466
 4264SOL     OW13690   4.503   2.111   6.751
 4264SOL    HW113691   4.582   2.075   6.701
 4264SOL    HW213692   4.450   2.036   6.789
 4265SOL     OW13693   3.310   5.715   6.197
 4265SOL    HW113694   3.389   5.771   6.175
 4265SOL    HW213695   3.286   5.728   6.293
 4266SOL     OW13696   1.826   3.430   2.501
 4266SOL    HW113697   1.853   3.517   2.458
 4266SOL    HW213698   1.736   3.403   2.467
 4267SOL     OW13699   1.273   3.779   3.008
 4267SOL    HW113700   1.294   3.855   3.070
 4267SOL    HW213701   1.174   3.763   3.007
 4268SOL     OW13702   0.839   4.478   4.745
 4268SOL    HW113703   0.913   4.454   4.808
 4268SOL    HW213704   0.797   4.395   4.709
 4269SOL     OW13705   2.914   1.696   4.358
 4269SOL    HW113706   2.839   1.747   4.401
 4269SOL    HW213707   2.944   1.745   4.276
 4270SOL     OW13708   3.820   4.409   1.033
 4270SOL    HW113709   3.830   4.333   1.097
 4270SOL    HW213710   3.897   4.472   1.044
 4271SOL     OW13711   5.908   6.344   6.818
 4271SOL    HW113712   5.933   6.262   6.870
 4271SOL    HW213713   5.809   6.356   6.821
 4272SOL     OW13714   6.268   1.716   5.873
 4272SOL    HW113715   6.202   1.670   5.814
 4272SOL    HW213716   6.222   1.750   5.955
 4273SOL     OW13717   3.739   6.288   3.539
 4273SOL    HW113718   3.697   6.221   3.478
 4273SOL    HW213719   3.737   6.254   3.633
 4274SOL     OW13720   6.138   1.018   1.713
 4274SOL    HW113721   6.080   1.098   1.734
 4274SOL    HW213722   6.114   0.943   1.775
 4275SOL     OW13723   6.146   1.567   4.117
 4275SOL    HW113724   6.109   1.618   4.039
 4275SOL    HW213725   6.102   1.477   4.122
 4276SOL     OW13726   2.244   0.209   3.067
 4276SOL    HW113727   2.223   0.120   3.107
 4276SOL    HW213728   2.291   0.197   2.980
 4277SOL     OW13729   6.173   4.922   2.777
 4277SOL    HW113730   6.104   4.863   2.819
 4277SOL    HW213731   6.211   4.984   2.846
 4278SOL     OW13732   7.025   0.084   1.826
 4278SOL    HW113733   0.034   0.105   1.916
 4278SOL    HW213734   6.929   0.059   1.834
 4279SOL     OW13735   0.581   2.975   3.077
 4279SOL    HW113736   0.665   2.999   3.027
 4279SOL    HW213737   0.606   2.944   3.169
 4280SOL     OW13738   2.255   0.615   5.544
 4280SOL    HW113739   2.252   0.693   5.606
 4280SOL    HW213740   2.327   0.552   5.573
 4281SOL     OW13741   6.559   6.823   2.744
 4281SOL    HW113742   6.621   6.901   2.731
 4281SOL    HW213743   6.510   6.834   2.831
 4282SOL     OW13744   5.464   5.063   2.191
 4282SOL    HW113745   5.558   5.038   2.169
 4282SOL    HW213746   5.432   5.008   2.268
 4283SOL     OW13747   0.353   2.141   5.555
 4283SOL    HW113748   0.419   2.067   5.546
 4283SOL    HW213749   0.265   2.112   5.519
 4284SOL     OW13750   4.847   6.235   6.678
 4284SOL    HW113751   4.856   6.307   6.609
 4284SOL    HW213752   4.935   6.221   6.723
 4285SOL     OW13753   3.194   1.750   5.865
 4285SOL    HW113754   3.116   1.762   5.927
 4285SOL    HW213755   3.224   1.839   5.832
 4286SOL     OW13756   5.101   6.735   6.716
 4286SOL    HW113757   5.084   6.788   6.800
 4286SOL    HW213758   5.014   6.719   6.669
 4287SOL     OW13759   5.285   0.153   0.557
 4287SOL    HW113760   5.325   0.082   0.616
 4287SOL    HW213761   5.232   0.110   0.484
 4288SOL     OW13762   6.217   6.581   2.612
 4288SOL    HW113763   6.225   6.662   2.553
 4288SOL    HW213764   6.239   6.607   2.707
 4289SOL     OW13765   0.248   5.441   5.851
 4289SOL    HW113766   0.251   5.533   5.890
 4289SOL    HW213767   0.326   5.388   5.885
 4290SOL     OW13768   6.898   0.345   2.989
 4290SOL    HW113769   6.908   0.323   2.892
 4290SOL    HW213770   6.870   0.441   2.999
 4291SOL     OW13771   4.855   4.942   5.309
 4291SOL    HW113772   4.855   4.894   5.397
 4291SOL    HW213773   4.877   5.038   5.323
 4292SOL     OW13774   6.052   0.364   6.645
 4292SOL    HW113775   6.080   0.304   6.721
 4292SOL    HW213776   6.125   0.430   6.627
 4293SOL     OW13777   4.369   2.233   6.393
 4293SOL    HW113778   4.286   2.285   6.373
 4293SOL    HW213779   4.344   2.141   6.425
 4294SOL     OW13780   2.433   1.648   6.917
 4294SOL    HW113781   2.375   1.573   6.948
 4294SOL    HW213782   2.508   1.661   6.982
 4295SOL     OW13783   3.837   6.889   2.716
 4295SOL    HW113784   3.863   6.972   2.765
 4295SOL    HW213785   3.856   6.809   2.773
 4296SOL     OW13786   1.853   5.161   1.960
 4296SOL    HW113787   1.910   5.150   1.879
 4296SOL    HW213788   1.800   5.246   1.953
 4297SOL     OW13789   5.011   4.008   6.590
 4297SOL    HW113790   5.024   4.099   6.551
 4297SOL    HW213791   5.057   3.940   6.533
 4298SOL     OW13792   1.571   6.100   0.095
 4298SOL    HW113793   1.608   6.165   0.029
 4298SOL    HW213794   1.591   6.006   0.066
 4299SOL     OW13795   0.151   4.054   6.947
 4299SOL    HW113796   0.245   4.057   6.980
 4299SOL    HW213797   0.152   4.045   6.847
 4300SOL     OW13798   3.500   0.787   2.177
 4300SOL    HW113799   3.497   0.778   2.078
 4300SOL    HW213800   3.551   0.710   2.217
 4301SOL     OW13801   2.361   5.643   3.579
 4301SOL    HW113802   2.446   5.595   3.558
 4301SOL    HW213803   2.359   5.669   3.676
 4302SOL     OW13804   3.456   5.234   6.819
 4302SOL    HW113805   3.495   5.148   6.852
 4302SOL    HW213806   3.361   5.241   6.849
 4303SOL     OW13807   4.769   5.317   3.194
 4303SOL    HW113808   4.750   5.244   3.260
 4303SOL    HW213809   4.763   5.282   3.101
 4304SOL     OW13810   2.600   4.583   1.147
 4304SOL    HW113811   2.526   4.631   1.100
 4304SOL    HW213812   2.561   4.514   1.208
 4305SOL     OW13813   0.941   6.679   6.017
 4305SOL    HW113814   1.001   6.754   6.046
 4305SOL    HW213815   0.900   6.703   5.929
 4306SOL     OW13816   6.836   4.712   5.112
 4306SOL    HW113817   6.736   4.713   5.107
 4306SOL    HW213818   6.867   4.627   5.155
 4307SOL     OW13819   6.843   1.869   4.779
 4307SOL    HW113820   6.817   1.933   4.852
 4307SOL    HW213821   6.938   1.841   4.792
 4308SOL     OW13822   4.666   5.958   6.803
 4308SOL    HW113823   4.766   5.958   6.807
 4308SOL    HW213824   4.632   6.047   6.833
 4309SOL     OW13825   2.050   1.451   0.610
 4309SOL    HW113826   2.027   1.389   0.685
 4309SOL    HW213827   2.126   1.414   0.557
 4310SOL     OW13828   5.719   1.019   4.905
 4310SOL    HW113829   5.710   0.961   4.985
 4310SOL    HW213830   5.705   0.964   4.822
 4311SOL     OW13831   0.794   0.251   0.388
 4311SOL    HW113832   0.782   0.270   0.290
 4311SOL    HW213833   0.786   0.153   0.404
 4312SOL     OW13834   0.121   3.128   3.093
 4312SOL    HW113835   0.215   3.161   3.084
 4312SOL    HW213836   0.085   3.156   3.182
 4313SOL     OW13837   1.068   2.948   0.736
 4313SOL    HW113838   1.146   3.009   0.724
 4313SOL    HW213839   1.076   2.900   0.824
 4314SOL     OW13840   2.313   1.503   6.218
 4314SOL    HW113841   2.217   1.503   6.245
 4314SOL    HW213842   2.323   1.454   6.131
 4315SOL     OW13843   3.115   2.422   5.685
 4315SOL    HW113844   3.161   2.457   5.766
 4315SOL    HW213845   3.151   2.468   5.604
 4316SOL     OW13846   4.861   4.303   1.215
 4316SOL    HW113847   4.913   4.370   1.162
 4316SOL    HW213848   4.909   4.215   1.214
 4317SOL     OW13849   4.997   0.222   2.687
 4317SOL    HW113850   5.003   0.317   2.718
 4317SOL    HW213851   4.968   0.165   2.763
 4318SOL     OW13852   1.921   5.761   3.731
 4318SOL    HW113853   1.952   5.799   3.819
 4318SOL    HW213854   2.001   5.737   3.676
 4319SOL     OW13855   2.361   4.773   0.168
 4319SOL    HW113856   2.290   4.797   0.101
 4319SOL    HW213857   2.319   4.728   0.246
 4320SOL     OW13858   4.774   1.186   1.783
 4320SOL    HW113859   4.852   1.128   1.805
 4320SOL    HW213860   4.761   1.254   1.855
 4321SOL     OW13861   0.115   6.275   3.512
 4321SOL    HW113862   0.211   6.271   3.484
 4321SOL    HW213863   0.082   6.369   3.505
 4322SOL     OW13864   2.704   2.341   2.989
 4322SOL    HW113865   2.614   2.320   2.952
 4322SOL    HW213866   2.756   2.394   2.922
 4323SOL     OW13867   5.867   4.046   2.413
 4323SOL    HW113868   5.775   4.051   2.375
 4323SOL    HW213869   5.933   4.026   2.340
 4324SOL     OW13870   6.543   3.943   4.966
 4324SOL    HW113871   6.577   3.936   5.060
 4324SOL    HW213872   6.480   3.868   4.948
 4325SOL     OW13873   1.421   0.198   0.151
 4325SOL    HW113874   1.425   0.114   0.098
 4325SOL    HW213875   1.363   0.265   0.104
 4326SOL     OW13876   5.554   2.595   2.733
 4326SOL    HW113877   5.510   2.597   2.822
 4326SOL    HW213878   5.522   2.516   2.681
 4327SOL     OW13879   3.450   6.500   3.727
 4327SOL    HW113880   3.521   6.546   3.674
 4327SOL    HW213881   3.488   6.471   3.815
 4328SOL     OW13882   5.363   0.433   1.424
 4328SOL    HW113883   5.352   0.350   1.480
 4328SOL    HW213884   5.371   0.407   1.328
 4329SOL     OW13885   6.519   3.563   0.789
 4329SOL    HW113886   6.504   3.506   0.870
 4329SOL    HW213887   6.615   3.587   0.781
 4330SOL     OW13888   2.439   6.862   5.205
 4330SOL    HW113889   2.525   6.863   5.155
 4330SOL    HW213890   2.415   6.955   5.232
 4331SOL     OW13891   5.817   1.249   2.756
 4331SOL    HW113892   5.874   1.263   2.837
 4331SOL    HW213893   5.859   1.294   2.678
 4332SOL     OW13894   6.980   6.507   1.511
 4332SOL    HW113895   0.039   6.553   1.491
 4332SOL    HW213896   6.986   6.463   1.601
 4333SOL     OW13897   3.007   3.192   5.622
 4333SOL    HW113898   3.046   3.273   5.665
 4333SOL    HW213899   3.081   3.132   5.591
 4334SOL     OW13900   1.134   2.330   3.972
 4334SOL    HW113901   1.046   2.288   3.995
 4334SOL    HW213902   1.151   2.408   4.033
 4335SOL     OW13903   2.578   2.263   1.627
 4335SOL    HW113904   2.550   2.346   1.579
 4335SOL    HW213905   2.533   2.184   1.585
 4336SOL     OW13906   2.067   5.843   4.690
 4336SOL    HW113907   2.080   5.830   4.789
 4336SOL    HW213908   1.981   5.892   4.675
 4337SOL     OW13909   0.217   4.701   3.792
 4337SOL    HW113910   0.119   4.709   3.812
 4337SOL    HW213911   0.256   4.792   3.779
 4338SOL     OW13912   3.008   3.126   4.759
 4338SOL    HW113913   3.021   3.047   4.818
 4338SOL    HW213914   2.990   3.207   4.814
 4339SOL     OW13915   3.968   3.444   5.113
 4339SOL    HW113916   4.024   3.440   5.031
 4339SOL    HW213917   3.903   3.368   5.113
 4340SOL     OW13918   6.583   3.863   0.369
 4340SOL    HW113919   6.551   3.936   0.309
 4340SOL    HW213920   6.620   3.903   0.453
 4341SOL     OW13921   5.515   0.047   1.260
 4341SOL    HW113922   5.559   7.022   1.187
 4341SOL    HW213923   5.582   0.109   1.301
 4342SOL     OW13924   5.014   3.562   2.450
 4342SOL    HW113925   4.991   3.516   2.365
 4342SOL    HW213926   5.043   3.656   2.430
 4343SOL     OW13927   4.835   6.736   6.639
 4343SOL    HW113928   4.763   6.804   6.626
 4343SOL    HW213929   4.822   6.690   6.727
 4344SOL     OW13930   1.628   4.092   2.258
 4344SOL    HW113931   1.531   4.099   2.282
 4344SOL    HW213932   1.677   4.172   2.292
 4345SOL     OW13933   3.670   3.528   2.173
 4345SOL    HW113934   3.654   3.452   2.110
 4345SOL    HW213935   3.726   3.497   2.250
 4346SOL     OW13936   1.328   3.161   1.465
 4346SOL    HW113937   1.328   3.216   1.548
 4346SOL    HW213938   1.256   3.092   1.471
 4347SOL     OW13939   5.916   5.959   0.622
 4347SOL    HW113940   5.937   5.916   0.710
 4347SOL    HW213941   5.843   6.026   0.635
 4348SOL     OW13942   6.800   4.631   6.313
 4348SOL    HW113943   6.848   4.559   6.262
 4348SOL    HW213944   6.720   4.661   6.262
 4349SOL     OW13945   0.472   4.207   3.671
 4349SOL    HW113946   0.375   4.215   3.693
 4349SOL    HW213947   0.526   4.215   3.755
 4350SOL     OW13948   5.453   0.172   4.225
 4350SOL    HW113949   5.405   0.167   4.137
 4350SOL    HW213950   5.396   0.219   4.292
 4351SOL     OW13951   0.409   6.684   2.095
 4351SOL    HW113952   0.502   6.706   2.125
 4351SOL    HW213953   0.407   6.592   2.057
 4352SOL     OW13954   4.718   4.504   1.304
 4352SOL    HW113955   4.734   4.569   1.230
 4352SOL    HW213956   4.770   4.420   1.287
 4353SOL     OW13957   1.954   3.910   0.400
 4353SOL    HW113958   1.935   3.838   0.333
 4353SOL    HW213959   2.008   3.983   0.356
 4354SOL     OW13960   6.253   4.156   2.817
 4354SOL    HW113961   6.277   4.208   2.735
 4354SOL    HW213962   6.207   4.072   2.791
 4355SOL     OW13963   2.015   5.150   4.404
 4355SOL    HW113964   2.006   5.153   4.503
 4355SOL    HW213965   2.107   5.179   4.378
 4356SOL     OW13966   5.988   1.214   5.344
 4356SOL    HW113967   5.920   1.214   5.417
 4356SOL    HW213968   6.079   1.232   5.383
 4357SOL     OW13969   4.722   5.937   2.472
 4357SOL    HW113970   4.740   5.865   2.539
 4357SOL    HW213971   4.738   5.901   2.380
 4358SOL     OW13972   3.271   0.497   1.361
 4358SOL    HW113973   3.351   0.440   1.341
 4358SOL    HW213974   3.218   0.511   1.278
 4359SOL     OW13975   3.063   4.159   1.325
 4359SOL    HW113976   3.051   4.070   1.369
 4359SOL    HW213977   2.998   4.168   1.250
 4360SOL     OW13978   3.153   6.717   3.497
 4360SOL    HW113979   3.093   6.643   3.526
 4360SOL    HW213980   3.098   6.799   3.479
 4361SOL     OW13981   1.849   7.013   6.226
 4361SOL    HW113982   1.911   0.003   6.303
 4361SOL    HW213983   1.896   6.955   6.159
 4362SOL     OW13984   6.660   4.875   1.387
 4362SOL    HW113985   6.673   4.847   1.482
 4362SOL    HW213986   6.649   4.793   1.329
 4363SOL     OW13987   4.872   0.889   2.536
 4363SOL    HW113988   4.830   0.979   2.533
 4363SOL    HW213989   4.802   0.818   2.525
 4364SOL     OW13990   3.785   3.421   3.046
 4364SOL    HW113991   3.741   3.495   3.097
 4364SOL    HW213992   3.823   3.355   3.111
 4365SOL     OW13993   2.297   0.643   1.038
 4365SOL    HW113994   2.322   0.711   0.969
 4365SOL    HW213995   2.344   0.557   1.018
 4366SOL     OW13996   5.375   4.860   4.975
 4366SOL    HW113997   5.318   4.784   4.941
 4366SOL    HW213998   5.344   4.945   4.932
 4367SOL     OW13999   1.492   6.849   1.314
 4367SOL    HW114000   1.490   6.778   1.243
 4367SOL    HW214001   1.586   6.878   1.329
 4368SOL     OW14002   5.090   4.856   4.282
 4368SOL    HW114003   5.073   4.848   4.380
 4368SOL    HW214004   5.125   4.947   4.261
 4369SOL     OW14005   6.449   4.273   3.614
 4369SOL    HW114006   6.362   4.227   3.594
 4369SOL    HW214007   6.450   4.301   3.710
 4370SOL     OW14008   5.283   4.377   1.675
 4370SOL    HW114009   5.330   4.330   1.600
 4370SOL    HW214010   5.344   4.445   1.715
 4371SOL     OW14011   3.173   0.400   3.310
 4371SOL    HW114012   3.170   0.487   3.262
 4371SOL    HW214013   3.199   0.327   3.246
 4372SOL     OW14014   2.017   4.648   5.653
 4372SOL    HW114015   1.926   4.667   5.691
 4372SOL    HW214016   2.007   4.595   5.568
 4373SOL     OW14017   3.906   0.935   1.097
 4373SOL    HW114018   3.845   0.999   1.143
 4373SOL    HW214019   4.000   0.970   1.100
 4374SOL     OW14020   1.748   6.454   0.143
 4374SOL    HW114021   1.676   6.472   0.210
 4374SOL    HW214022   1.831   6.504   0.168
 4375SOL     OW14023   4.432   0.640   5.531
 4375SOL    HW114024   4.466   0.633   5.437
 4375SOL    HW214025   4.492   0.698   5.585
 4376SOL     OW14026   2.197   4.609   6.758
 4376SOL    HW114027   2.155   4.692   6.722
 4376SOL    HW214028   2.166   4.530   6.705
 4377SOL     OW14029   5.198   5.720   0.254
 4377SOL    HW114030   5.099   5.714   0.258
 4377SOL    HW214031   5.237   5.692   0.342
 4378SOL     OW14032   2.949   5.210   1.399
 4378SOL    HW114033   2.976   5.130   1.346
 4378SOL    HW214034   2.924   5.285   1.337
 4379SOL     OW14035   5.276   6.304   1.205
 4379SOL    HW114036   5.341   6.342   1.141
 4379SOL    HW214037   5.274   6.359   1.288
 4380SOL     OW14038   1.318   6.066   4.489
 4380SOL    HW114039   1.271   6.075   4.401
 4380SOL    HW214040   1.303   6.149   4.543
 4381SOL     OW14041   3.872   6.324   5.046
 4381SOL    HW114042   3.864   6.358   5.140
 4381SOL    HW214043   3.832   6.233   5.040
 4382SOL     OW14044   5.947   3.126   3.347
 4382SOL    HW114045   5.948   3.034   3.309
 4382SOL    HW214046   5.861   3.141   3.395
 4383SOL     OW14047   0.883   6.864   6.471
 4383SOL    HW114048   0.978   6.889   6.455
 4383SOL    HW214049   0.843   6.826   6.388
 4384SOL     OW14050   3.536   0.315   1.736
 4384SOL    HW114051   3.510   0.246   1.803
 4384SOL    HW214052   3.464   0.384   1.728
 4385SOL     OW14053   5.754   2.750   4.645
 4385SOL    HW114054   5.770   2.705   4.557
 4385SOL    HW214055   5.756   2.849   4.633
 4386SOL     OW14056   2.082   5.206   0.430
 4386SOL    HW114057   2.096   5.189   0.527
 4386SOL    HW214058   2.170   5.221   0.385
 4387SOL     OW14059   6.515   2.824   0.868
 4387SOL    HW114060   6.530   2.790   0.961
 4387SOL    HW214061   6.595   2.876   0.838
 4388SOL     OW14062   3.428   1.086   5.368
 4388SOL    HW114063   3.342   1.132   5.390
 4388SOL    HW214064   3.409   0.993   5.337
 4389SOL     OW14065   1.555   3.423   2.418
 4389SOL    HW114066   1.578   3.415   2.321
 4389SOL    HW214067   1.516   3.337   2.450
 4390SOL     OW14068   5.072   3.739   0.881
 4390SOL    HW114069   5.090   3.838   0.883
 4390SOL    HW214070   5.157   3.691   0.859
 4391SOL     OW14071   0.420   5.828   1.575
 4391SOL    HW114072   0.515   5.795   1.572
 4391SOL    HW214073   0.400   5.859   1.668
 4392SOL     OW14074   5.332   6.019   4.311
 4392SOL    HW114075   5.323   5.991   4.215
 4392SOL    HW214076   5.350   5.939   4.367
 4393SOL     OW14077   5.438   6.773   2.623
 4393SOL    HW114078   5.347   6.779   2.662
 4393SOL    HW214079   5.490   6.701   2.669
 4394SOL     OW14080   4.575   1.588   2.830
 4394SOL    HW114081   4.565   1.489   2.841
 4394SOL    HW214082   4.652   1.620   2.885
 4395SOL     OW14083   5.414   2.978   1.209
 4395SOL    HW114084   5.510   2.962   1.230
 4395SOL    HW214085   5.363   2.893   1.223
 4396SOL     OW14086   2.196   0.283   1.603
 4396SOL    HW114087   2.273   0.226   1.576
 4396SOL    HW214088   2.111   0.231   1.594
 4397SOL     OW14089   4.419   2.599   0.633
 4397SOL    HW114090   4.345   2.651   0.592
 4397SOL    HW214091   4.382   2.528   0.693
 4398SOL     OW14092   0.440   5.548   5.079
 4398SOL    HW114093   0.422   5.624   5.017
 4398SOL    HW214094   0.395   5.565   5.167
 4399SOL     OW14095   2.324   6.865   1.180
 4399SOL    HW114096   2.415   6.822   1.175
 4399SOL    HW214097   2.319   6.940   1.114
 4400SOL     OW14098   3.607   5.413   2.809
 4400SOL    HW114099   3.631   5.348   2.737
 4400SOL    HW214100   3.509   5.406   2.828
 4401SOL     OW14101   4.498   6.463   4.929
 4401SOL    HW114102   4.466   6.369   4.931
 4401SOL    HW214103   4.436   6.521   4.981
 4402SOL     OW14104   0.416   6.426   0.789
 4402SOL    HW114105   0.446   6.331   0.777
 4402SOL    HW214106   0.316   6.429   0.789
 4403SOL     OW14107   6.601   1.591   3.501
 4403SOL    HW114108   6.623   1.626   3.592
 4403SOL    HW214109   6.682   1.552   3.459
 4404SOL     OW14110   1.342   3.748   2.737
 4404SOL    HW114111   1.418   3.687   2.718
 4404SOL    HW214112   1.321   3.746   2.834
 4405SOL     OW14113   3.633   3.714   6.730
 4405SOL    HW114114   3.557   3.650   6.741
 4405SOL    HW214115   3.718   3.671   6.759
 4406SOL     OW14116   6.577   2.313   3.316
 4406SOL    HW114117   6.548   2.390   3.372
 4406SOL    HW214118   6.674   2.321   3.296
 4407SOL     OW14119   0.670   0.973   0.658
 4407SOL    HW114120   0.767   0.949   0.654
 4407SOL    HW214121   0.652   1.028   0.740
 4408SOL     OW14122   4.824   6.145   1.070
 4408SOL    HW114123   4.857   6.204   1.144
 4408SOL    HW214124   4.899   6.125   1.007
 4409SOL     OW14125   3.592   1.117   2.977
 4409SOL    HW114126   3.510   1.160   3.014
 4409SOL    HW214127   3.651   1.086   3.052
 4410SOL     OW14128   2.343   5.188   0.268
 4410SOL    HW114129   2.419   5.128   0.243
 4410SOL    HW214130   2.362   5.281   0.234
 4411SOL     OW14131   3.391   2.810   1.932
 4411SOL    HW114132   3.415   2.771   1.843
 4411SOL    HW214133   3.384   2.737   2.000
 4412SOL     OW14134   2.941   1.410   6.677
 4412SOL    HW114135   2.888   1.340   6.630
 4412SOL    HW214136   2.904   1.500   6.655
 4413SOL     OW14137   3.994   6.016   4.354
 4413SOL    HW114138   4.012   5.952   4.429
 4413SOL    HW214139   3.957   6.101   4.392
 4414SOL     OW14140   3.442   4.271   1.789
 4414SOL    HW114141   3.532   4.259   1.747
 4414SOL    HW214142   3.418   4.189   1.840
 4415SOL     OW14143   5.390   1.094   2.135
 4415SOL    HW114144   5.431   1.066   2.222
 4415SOL    HW214145   5.387   1.016   2.073
 4416SOL     OW14146   2.672   2.289   5.427
 4416SOL    HW114147   2.732   2.362   5.394
 4416SOL    HW214148   2.685   2.207   5.371
 4417SOL     OW14149   4.792   1.021   1.295
 4417SOL    HW114150   4.733   1.037   1.217
 4417SOL    HW214151   4.761   0.941   1.345
 4418SOL     OW14152   4.365   0.275   3.170
 4418SOL    HW114153   4.380   0.176   3.174
 4418SOL    HW214154   4.333   0.308   3.258
 4419SOL     OW14155   6.407   5.232   6.559
 4419SOL    HW114156   6.448   5.240   6.650
 4419SOL    HW214157   6.464   5.281   6.493
 4420SOL     OW14158   5.713   1.427   0.830
 4420SOL    HW114159   5.659   1.504   0.862
 4420SOL    HW214160   5.715   1.356   0.900
 4421SOL     OW14161   1.221   1.501   3.388
 4421SOL    HW114162   1.216   1.601   3.390
 4421SOL    HW214163   1.130   1.463   3.374
 4422SOL     OW14164   1.797   4.300   5.706
 4422SOL    HW114165   1.821   4.249   5.789
 4422SOL    HW214166   1.700   4.285   5.685
 4423SOL     OW14167   0.626   2.228   6.156
 4423SOL    HW114168   0.622   2.217   6.057
 4423SOL    HW214169   0.721   2.220   6.187
 4424SOL     OW14170   2.263   5.190   2.863
 4424SOL    HW114171   2.346   5.142   2.892
 4424SOL    HW214172   2.268   5.286   2.890
 4425SOL     OW14173   5.455   4.245   3.078
 4425SOL    HW114174   5.484   4.156   3.042
 4425SOL    HW214175   5.521   4.276   3.146
 4426SOL     OW14176   0.498   6.394   6.798
 4426SOL    HW114177   0.486   6.429   6.705
 4426SOL    HW214178   0.414   6.352   6.830
 4427SOL     OW14179   0.492   5.197   3.725
 4427SOL    HW114180   0.567   5.152   3.676
 4427SOL    HW214181   0.475   5.287   3.686
 4428SOL     OW14182   1.549   0.080   2.203
 4428SOL    HW114183   1.465   0.134   2.196
 4428SOL    HW214184   1.595   0.103   2.289
 4429SOL     OW14185   1.692   6.502   0.688
 4429SOL    HW114186   1.753   6.439   0.735
 4429SOL    HW214187   1.617   6.528   0.749
 4430SOL     OW14188   1.931   0.604   2.323
 4430SOL    HW114189   1.957   0.566   2.234
 4430SOL    HW214190   1.973   0.694   2.334
 4431SOL     OW14191   2.309   1.535   2.230
 4431SOL    HW114192   2.288   1.495   2.141
 4431SOL    HW214193   2.273   1.477   2.303
 4432SOL     OW14194   3.578   3.596   4.846
 4432SOL    HW114195   3.504   3.565   4.786
 4432SOL    HW214196   3.557   3.687   4.880
 4433SOL     OW14197   4.778   6.541   1.576
 4433SOL    HW114198   4.739   6.499   1.494
 4433SOL    HW214199   4.876   6.556   1.563
 4434SOL     OW14200   5.808   2.436   5.688
 4434SOL    HW114201   5.722   2.484   5.709
 4434SOL    HW214202   5.787   2.344   5.657
 4435SOL     OW14203   3.637   2.577   1.733
 4435SOL    HW114204   3.666   2.660   1.781
 4435SOL    HW214205   3.659   2.497   1.788
 4436SOL     OW14206   5.923   6.689   6.961
 4436SOL    HW114207   5.849   6.667   6.898
 4436SOL    HW214208   5.909   6.642   0.020
 4437SOL     OW14209   2.879   0.115   5.561
 4437SOL    HW114210   2.903   0.078   5.472
 4437SOL    HW214211   2.957   0.165   5.599
 4438SOL     OW14212   3.856   1.942   0.583
 4438SOL    HW114213   3.955   1.932   0.576
 4438SOL    HW214214   3.811   1.862   0.543
 4439SOL     OW14215   0.696   5.474   2.871
 4439SOL    HW114216   0.765   5.494   2.801
 4439SOL    HW214217   0.741   5.438   2.953
 4440SOL     OW14218   6.406   1.704   6.705
 4440SOL    HW114219   6.377   1.764   6.779
 4440SOL    HW214220   6.333   1.695   6.637
 4441SOL     OW14221   6.192   0.823   4.677
 4441SOL    HW114222   6.129   0.874   4.735
 4441SOL    HW214223   6.253   0.887   4.630
 4442SOL     OW14224   1.318   5.885   1.488
 4442SOL    HW114225   1.224   5.860   1.514
 4442SOL    HW214226   1.379   5.865   1.565
 4443SOL     OW14227   1.216   1.205   1.670
 4443SOL    HW114228   1.220   1.296   1.629
 4443SOL    HW214229   1.126   1.190   1.710
 4444SOL     OW14230   4.986   2.009   2.838
 4444SOL    HW114231   5.001   2.102   2.872
 4444SOL    HW214232   5.015   2.004   2.743
 4445SOL     OW14233   1.140   2.206   6.195
 4445SOL    HW114234   1.108   2.130   6.251
 4445SOL    HW214235   1.237   2.222   6.213
 4446SOL     OW14236   6.267   5.765   3.947
 4446SOL    HW114237   6.168   5.766   3.931
 4446SOL    HW214238   6.307   5.685   3.903
 4447SOL     OW14239   4.887   3.809   4.873
 4447SOL    HW114240   4.838   3.730   4.909
 4447SOL    HW214241   4.921   3.788   4.781
 4448SOL     OW14242   2.486   2.541   6.381
 4448SOL    HW114243   2.557   2.609   6.396
 4448SOL    HW214244   2.488   2.511   6.286
 4449SOL     OW14245   0.395   1.613   5.325
 4449SOL    HW114246   0.438   1.607   5.416
 4449SOL    HW214247   0.314   1.670   5.331
 4450SOL     OW14248   3.964   3.122   2.875
 4450SOL    HW114249   3.884   3.085   2.923
 4450SOL    HW214250   4.020   3.175   2.939
 4451SOL     OW14251   0.403   5.317   1.357
 4451SOL    HW114252   0.481   5.331   1.419
 4451SOL    HW214253   0.360   5.405   1.338
 4452SOL     OW14254   0.562   3.869   6.130
 4452SOL    HW114255   0.651   3.915   6.131
 4452SOL    HW214256   0.522   3.877   6.039
 4453SOL     OW14257   6.045   1.361   0.388
 4453SOL    HW114258   5.947   1.372   0.366
 4453SOL    HW214259   6.095   1.442   0.356
 4454SOL     OW14260   5.991   3.569   2.631
 4454SOL    HW114261   5.980   3.606   2.539
 4454SOL    HW214262   5.917   3.604   2.689
 4455SOL     OW14263   4.833   2.813   2.558
 4455SOL    HW114264   4.930   2.817   2.583
 4455SOL    HW214265   4.813   2.885   2.492
 4456SOL     OW14266   0.064   5.708   2.584
 4456SOL    HW114267   6.995   5.708   2.608
 4456SOL    HW214268   0.108   5.625   2.619
 4457SOL     OW14269   4.474   2.568   6.325
 4457SOL    HW114270   4.572   2.585   6.311
 4457SOL    HW214271   4.456   2.558   6.423
 4458SOL     OW14272   4.735   1.987   1.306
 4458SOL    HW114273   4.651   1.935   1.321
 4458SOL    HW214274   4.714   2.085   1.305
 4459SOL     OW14275   6.468   5.591   7.013
 4459SOL    HW114276   6.510   5.653   6.947
 4459SOL    HW214277   6.454   5.638   0.072
 4460SOL     OW14278   1.423   6.993   0.045
 4460SOL    HW114279   1.326   6.972   0.035
 4460SOL    HW214280   1.471   6.913   0.081
 4461SOL     OW14281   2.087   6.999   3.128
 4461SOL    HW114282   2.118   6.969   3.038
 4461SOL    HW214283   1.987   6.992   3.132
 4462SOL     OW14284   0.612   2.566   1.168
 4462SOL    HW114285   0.686   2.502   1.147
 4462SOL    HW214286   0.647   2.642   1.222
 4463SOL     OW14287   0.688   3.996   6.419
 4463SOL    HW114288   0.739   4.055   6.481
 4463SOL    HW214289   0.674   3.907   6.462
 4464SOL     OW14290   6.798   3.640   0.823
 4464SOL    HW114291   6.840   3.723   0.786
 4464SOL    HW214292   6.779   3.653   0.920
 4465SOL     OW14293   5.670   4.544   1.454
 4465SOL    HW114294   5.699   4.617   1.392
 4465SOL    HW214295   5.580   4.565   1.492
 4466SOL     OW14296   6.919   3.095   3.942
 4466SOL    HW114297   6.957   3.078   4.033
 4466SOL    HW214298   6.887   3.190   3.937
 4467SOL     OW14299   1.660   0.494   4.443
 4467SOL    HW114300   1.595   0.525   4.373
 4467SOL    HW214301   1.616   0.497   4.533
 4468SOL     OW14302   1.320   1.469   0.610
 4468SOL    HW114303   1.237   1.459   0.555
 4468SOL    HW214304   1.374   1.545   0.574
 4469SOL     OW14305   4.783   6.811   0.145
 4469SOL    HW114306   4.822   6.792   0.235
 4469SOL    HW214307   4.705   6.751   0.128
 4470SOL     OW14308   4.894   4.440   1.529
 4470SOL    HW114309   4.841   4.516   1.493
 4470SOL    HW214310   4.960   4.474   1.597
 4471SOL     OW14311   6.266   2.582   1.741
 4471SOL    HW114312   6.320   2.520   1.797
 4471SOL    HW214313   6.205   2.635   1.799
 4472SOL     OW14314   2.472   5.105   1.424
 4472SOL    HW114315   2.430   5.172   1.362
 4472SOL    HW214316   2.550   5.062   1.379
 4473SOL     OW14317   5.339   0.492   6.852
 4473SOL    HW114318   5.395   0.565   6.813
 4473SOL    HW214319   5.397   0.414   6.874
 4474SOL     OW14320   6.814   1.733   5.781
 4474SOL    HW114321   6.859   1.724   5.870
 4474SOL    HW214322   6.715   1.734   5.794
 4475SOL     OW14323   1.924   4.484   1.035
 4475SOL    HW114324   1.883   4.516   1.120
 4475SOL    HW214325   1.908   4.386   1.025
 4476SOL     OW14326   2.819   6.684   2.506
 4476SOL    HW114327   2.793   6.645   2.417
 4476SOL    HW214328   2.908   6.647   2.533
 4477SOL     OW14329   1.232   1.574   1.186
 4477SOL    HW114330   1.284   1.503   1.139
 4477SOL    HW214331   1.293   1.651   1.206
 4478SOL     OW14332   0.841   4.277   0.570
 4478SOL    HW114333   0.754   4.227   0.569
 4478SOL    HW214334   0.839   4.346   0.642
 4479SOL     OW14335   0.790   5.754   6.141
 4479SOL    HW114336   0.748   5.779   6.054
 4479SOL    HW214337   0.883   5.721   6.125
 4480SOL     OW14338   6.751   3.417   3.035
 4480SOL    HW114339   6.771   3.352   3.109
 4480SOL    HW214340   6.652   3.428   3.027
 4481SOL     OW14341   0.424   0.690   3.559
 4481SOL    HW114342   0.454   0.612   3.613
 4481SOL    HW214343   0.502   0.750   3.541
 4482SOL     OW14344   0.403   4.509   3.934
 4482SOL    HW114345   0.337   4.578   3.905
 4482SOL    HW214346   0.359   4.419   3.936
 4483SOL     OW14347   0.025   4.138   1.012
 4483SOL    HW114348   6.979   4.195   0.976
 4483SOL    HW214349   0.060   4.080   0.939
 4484SOL     OW14350   3.935   3.120   6.558
 4484SOL    HW114351   3.992   3.192   6.516
 4484SOL    HW214352   3.915   3.144   6.653
 4485SOL     OW14353   4.314   6.603   5.817
 4485SOL    HW114354   4.291   6.612   5.720
 4485SOL    HW214355   4.388   6.666   5.839
 4486SOL     OW14356   6.001   3.706   4.586
 4486SOL    HW114357   5.907   3.697   4.620
 4486SOL    HW214358   6.048   3.779   4.635
 4487SOL     OW14359   3.475   2.847   6.079
 4487SOL    HW114360   3.538   2.777   6.046
 4487SOL    HW214361   3.524   2.934   6.088
 4488SOL     OW14362   0.330   2.465   6.584
 4488SOL    HW114363   0.339   2.443   6.487
 4488SOL    HW214364   0.325   2.381   6.637
 4489SOL     OW14365   0.728   2.569   4.098
 4489SOL    HW114366   0.669   2.493   4.124
 4489SOL    HW214367   0.699   2.652   4.147
 4490SOL     OW14368   7.011   1.614   3.541
 4490SOL    HW114369   0.073   1.586   3.506
 4490SOL    HW214370   7.005   1.714   3.541
 4491SOL     OW14371   2.947   5.273   2.284
 4491SOL    HW114372   2.873   5.341   2.277
 4491SOL    HW214373   2.919   5.189   2.238
 4492SOL     OW14374   5.952   3.466   5.011
 4492SOL    HW114375   6.021   3.415   4.960
 4492SOL    HW214376   5.975   3.564   5.011
 4493SOL     OW14377   6.291   4.973   3.649
 4493SOL    HW114378   6.213   4.913   3.666
 4493SOL    HW214379   6.262   5.068   3.654
 4494SOL     OW14380   5.085   3.078   2.483
 4494SOL    HW114381   5.021   3.153   2.496
 4494SOL    HW214382   5.051   2.996   2.529
 4495SOL     OW14383   5.938   4.442   2.331
 4495SOL    HW114384   5.877   4.374   2.373
 4495SOL    HW214385   5.970   4.506   2.401
 4496SOL     OW14386   6.138   3.532   6.137
 4496SOL    HW114387   6.119   3.442   6.177
 4496SOL    HW214388   6.144   3.524   6.037
 4497SOL     OW14389   5.774   0.154   0.549
 4497SOL    HW114390   5.721   0.146   0.634
 4497SOL    HW214391   5.754   0.077   0.489
 4498SOL     OW14392   1.399   4.503   6.575
 4498SOL    HW114393   1.479   4.558   6.552
 4498SOL    HW214394   1.428   4.420   6.622
 4499SOL     OW14395   6.023   4.137   0.277
 4499SOL    HW114396   6.006   4.210   0.343
 4499SOL    HW214397   5.963   4.148   0.198
 4500SOL     OW14398   3.555   3.806   1.998
 4500SOL    HW114399   3.627   3.826   2.065
 4500SOL    HW214400   3.562   3.711   1.968
 4501SOL     OW14401   1.258   5.529   5.067
 4501SOL    HW114402   1.295   5.621   5.052
 4501SOL    HW214403   1.290   5.468   4.995
 4502SOL     OW14404   5.641   2.826   0.698
 4502SOL    HW114405   5.574   2.885   0.741
 4502SOL    HW214406   5.646   2.846   0.600
 4503SOL     OW14407   1.076   4.122   2.480
 4503SOL    HW114408   1.069   4.222   2.483
 4503SOL    HW214409   0.994   4.084   2.438
 4504SOL     OW14410   5.229   2.019   4.147
 4504SOL    HW114411   5.223   2.108   4.192
 4504SOL    HW214412   5.269   2.030   4.056
 4505SOL     OW14413   2.411   6.208   6.866
 4505SOL    HW114414   2.356   6.125   6.875
 4505SOL    HW214415   2.479   6.211   6.938
 4506SOL     OW14416   3.029   6.280   5.336
 4506SOL    HW114417   2.956   6.236   5.284
 4506SOL    HW214418   3.046   6.228   5.420
 4507SOL     OW14419   6.245   4.200   2.532
 4507SOL    HW114420   6.231   4.101   2.536
 4507SOL    HW214421   6.243   4.230   2.437
 4508SOL     OW14422   1.923   5.000   0.930
 4508SOL    HW114423   1.995   5.064   0.958
 4508SOL    HW214424   1.843   5.051   0.899
 4509SOL     OW14425   0.386   2.629   3.786
 4509SOL    HW114426   0.356   2.621   3.691
 4509SOL    HW214427   0.423   2.720   3.802
 4510SOL     OW14428   2.870   0.173   0.262
 4510SOL    HW114429   2.812   0.223   0.326
 4510SOL    HW214430   2.856   0.208   0.170
 4511SOL     OW14431   0.525   2.657   0.754
 4511SOL    HW114432   0.485   2.682   0.843
 4511SOL    HW214433   0.501   2.727   0.687
 4512SOL     OW14434   2.088   3.635   0.952
 4512SOL    HW114435   2.121   3.728   0.936
 4512SOL    HW214436   2.090   3.584   0.866
 4513SOL     OW14437   6.465   2.169   2.212
 4513SOL    HW114438   6.389   2.154   2.148
 4513SOL    HW214439   6.456   2.260   2.253
 4514SOL     OW14440   1.753   0.449   4.757
 4514SOL    HW114441   1.738   0.354   4.727
 4514SOL    HW214442   1.675   0.505   4.729
 4515SOL     OW14443   0.137   3.871   0.118
 4515SOL    HW114444   0.140   3.946   0.052
 4515SOL    HW214445   0.223   3.868   0.170
 4516SOL     OW14446   0.339   6.944   3.456
 4516SOL    HW114447   0.250   6.946   3.412
 4516SOL    HW214448   0.341   7.010   3.531
 4517SOL     OW14449   2.511   0.815   0.031
 4517SOL    HW114450   2.596   0.761   0.031
 4517SOL    HW214451   2.446   0.774   0.095
 4518SOL     OW14452   1.313   0.977   3.201
 4518SOL    HW114453   1.354   0.945   3.286
 4518SOL    HW214454   1.219   0.941   3.194
 4519SOL     OW14455   0.102   2.242   4.972
 4519SOL    HW114456   0.127   2.216   4.879
 4519SOL    HW214457   0.002   2.251   4.978
 4520SOL     OW14458   6.818   4.427   3.872
 4520SOL    HW114459   6.838   4.473   3.785
 4520SOL    HW214460   6.903   4.414   3.923
 4521SOL     OW14461   5.137   1.283   6.349
 4521SOL    HW114462   5.142   1.186   6.326
 4521SOL    HW214463   5.064   1.298   6.416
 4522SOL     OW14464   4.278   6.573   3.579
 4522SOL    HW114465   4.185   6.599   3.555
 4522SOL    HW214466   4.317   6.640   3.641
 4523SOL     OW14467   4.950   1.601   6.227
 4523SOL    HW114468   4.976   1.524   6.170
 4523SOL    HW214469   4.852   1.618   6.217
 4524SOL     OW14470   5.659   1.918   5.201
 4524SOL    HW114471   5.594   1.872   5.140
 4524SOL    HW214472   5.655   2.017   5.186
 4525SOL     OW14473   0.060   1.731   4.170
 4525SOL    HW114474   7.018   1.732   4.242
 4525SOL    HW214475   0.134   1.669   4.197
 4526SOL     OW14476   2.493   2.267   0.849
 4526SOL    HW114477   2.475   2.357   0.887
 4526SOL    HW214478   2.500   2.274   0.749
 4527SOL     OW14479   4.752   0.107   2.383
 4527SOL    HW114480   4.772   0.186   2.326
 4527SOL    HW214481   4.653   0.095   2.390
 4528SOL     OW14482   4.282   6.867   0.059
 4528SOL    HW114483   4.244   6.815   0.136
 4528SOL    HW214484   4.233   6.844   7.003
 4529SOL     OW14485   3.354   0.201   3.969
 4529SOL    HW114486   3.260   0.216   4.000
 4529SOL    HW214487   3.406   0.156   4.042
 4530SOL     OW14488   6.675   1.945   4.565
 4530SOL    HW114489   6.755   1.971   4.511
 4530SOL    HW214490   6.706   1.907   4.653
 4531SOL     OW14491   6.900   4.166   3.162
 4531SOL    HW114492   6.945   4.256   3.157
 4531SOL    HW214493   6.969   4.095   3.177
 4532SOL     OW14494   0.436   1.955   0.493
 4532SOL    HW114495   0.422   1.952   0.394
 4532SOL    HW214496   0.521   1.906   0.517
 4533SOL     OW14497   3.085   6.375   1.344
 4533SOL    HW114498   3.133   6.289   1.364
 4533SOL    HW214499   3.001   6.355   1.294
 4534SOL     OW14500   6.767   4.668   6.742
 4534SOL    HW114501   6.705   4.614   6.799
 4534SOL    HW214502   6.861   4.654   6.774
 4535SOL     OW14503   4.527   1.479   2.214
 4535SOL    HW114504   4.483   1.390   2.214
 4535SOL    HW214505   4.493   1.534   2.137
 4536SOL     OW14506   6.762   0.152   3.482
 4536SOL    HW114507   6.714   0.138   3.395
 4536SOL    HW214508   6.695   0.165   3.555
 4537SOL     OW14509   4.854   3.297   5.884
 4537SOL    HW114510   4.781   3.331   5.944
 4537SOL    HW214511   4.938   3.287   5.937
 4538SOL     OW14512   3.231   2.284   1.355
 4538SOL    HW114513   3.232   2.246   1.448
 4538SOL    HW214514   3.322   2.316   1.331
 4539SOL     OW14515   2.968   4.461   0.763
 4539SOL    HW114516   3.045   4.401   0.741
 4539SOL    HW214517   2.950   4.458   0.861
 4540SOL     OW14518   3.215   3.014   3.664
 4540SOL    HW114519   3.257   2.952   3.729
 4540SOL    HW214520   3.116   3.000   3.663
 4541SOL     OW14521   6.443   1.705   1.452
 4541SOL    HW114522   6.521   1.768   1.443
 4541SOL    HW214523   6.456   1.628   1.390
 4542SOL     OW14524   5.721   6.106   3.625
 4542SOL    HW114525   5.723   6.007   3.610
 4542SOL    HW214526   5.813   6.143   3.613
 4543SOL     OW14527   4.889   2.500   2.676
 4543SOL    HW114528   4.843   2.420   2.638
 4543SOL    HW214529   4.824   2.575   2.684
 4544SOL     OW14530   5.811   4.373   0.486
 4544SOL    HW114531   5.902   4.400   0.455
 4544SOL    HW214532   5.810   4.276   0.508
 4545SOL     OW14533   5.162   3.703   0.465
 4545SOL    HW114534   5.116   3.668   0.547
 4545SOL    HW214535   5.136   3.646   0.386
 4546SOL     OW14536   1.553   6.104   0.588
 4546SOL    HW114537   1.541   6.043   0.509
 4546SOL    HW214538   1.492   6.182   0.579
 4547SOL     OW14539   4.149   1.629   2.436
 4547SOL    HW114540   4.074   1.599   2.376
 4547SOL    HW214541   4.111   1.669   2.520
 4548SOL     OW14542   1.846   3.062   4.469
 4548SOL    HW114543   1.864   2.964   4.460
 4548SOL    HW214544   1.898   3.099   4.546
 4549SOL     OW14545   6.178   1.644   3.367
 4549SOL    HW114546   6.148   1.586   3.292
 4549SOL    HW214547   6.116   1.722   3.376
 4550SOL     OW14548   2.175   5.576   5.779
 4550SOL    HW114549   2.243   5.554   5.849
 4550SOL    HW214550   2.215   5.638   5.712
 4551SOL     OW14551   6.300   3.571   1.019
 4551SOL    HW114552   6.272   3.488   0.970
 4551SOL    HW214553   6.269   3.652   0.969
 4552SOL     OW14554   6.881   3.912   5.384
 4552SOL    HW114555   6.919   4.002   5.402
 4552SOL    HW214556   6.924   3.873   5.302
 4553SOL     OW14557   5.027   5.283   0.540
 4553SOL    HW114558   4.997   5.377   0.551
 4553SOL    HW214559   4.949   5.225   0.517
 4554SOL     OW14560   6.002   5.823   3.884
 4554SOL    HW114561   5.951   5.853   3.965
 4554SOL    HW214562   5.985   5.886   3.809
 4555SOL     OW14563   3.970   2.214   0.150
 4555SOL    HW114564   3.944   2.280   0.080
 4555SOL    HW214565   3.917   2.230   0.233
 4556SOL     OW14566   3.578   0.756   4.622
 4556SOL    HW114567   3.621   0.834   4.578
 4556SOL    HW214568   3.632   0.673   4.605
 4557SOL     OW14569   5.491   0.517   3.837
 4557SOL    HW114570   5.473   0.533   3.934
 4557SOL    HW214571   5.409   0.541   3.784
 4558SOL     OW14572   0.269   4.430   0.131
 4558SOL    HW114573   0.318   4.358   0.180
 4558SOL    HW214574   0.285   4.420   0.033
 4559SOL     OW14575   1.453   7.010   0.985
 4559SOL    HW114576   1.499   6.931   1.026
 4559SOL    HW214577   1.507   0.065   1.002
 4560SOL     OW14578   6.481   2.130   4.510
 4560SOL    HW114579   6.542   2.053   4.526
 4560SOL    HW214580   6.502   2.203   4.576
 4561SOL     OW14581   2.525   6.218   6.513
 4561SOL    HW114582   2.525   6.163   6.597
 4561SOL    HW214583   2.441   6.201   6.463
 4562SOL     OW14584   3.000   3.985   5.401
 4562SOL    HW114585   2.951   4.006   5.316
 4562SOL    HW214586   2.978   3.891   5.429
 4563SOL     OW14587   5.264   2.890   6.940
 4563SOL    HW114588   5.298   2.802   6.907
 4563SOL    HW214589   5.281   2.897   0.010
 4564SOL     OW14590   6.704   6.052   1.154
 4564SOL    HW114591   6.640   6.104   1.097
 4564SOL    HW214592   6.662   5.966   1.182
 4565SOL     OW14593   4.768   0.985   4.491
 4565SOL    HW114594   4.715   0.951   4.413
 4565SOL    HW214595   4.863   0.957   4.480
 4566SOL     OW14596   1.765   0.365   1.464
 4566SOL    HW114597   1.701   0.380   1.540
 4566SOL    HW214598   1.725   0.300   1.400
 4567SOL     OW14599   6.054   2.553   0.550
 4567SOL    HW114600   6.112   2.563   0.631
 4567SOL    HW214601   5.974   2.497   0.573
 4568SOL     OW14602   4.762   5.136   3.762
 4568SOL    HW114603   4.788   5.070   3.834
 4568SOL    HW214604   4.817   5.119   3.681
 4569SOL     OW14605   2.393   0.582   3.019
 4569SOL    HW114606   2.329   0.512   2.988
 4569SOL    HW214607   2.360   0.622   3.105
 4570SOL     OW14608   4.720   6.288   4.810
 4570SOL    HW114609   4.638   6.342   4.828
 4570SOL    HW214610   4.773   6.276   4.894
 4571SOL     OW14611   4.134   3.545   3.976
 4571SOL    HW114612   4.114   3.577   3.884
 4571SOL    HW214613   4.228   3.569   4.000
 4572SOL     OW14614   2.601   4.340   1.560
 4572SOL    HW114615   2.537   4.345   1.637
 4572SOL    HW214616   2.690   4.309   1.593
 4573SOL     OW14617   4.815   6.569   1.964
 4573SOL    HW114618   4.746   6.553   1.894
 4573SOL    HW214619   4.790   6.521   2.048
 4574SOL     OW14620   0.306   4.862   1.943
 4574SOL    HW114621   0.259   4.938   1.897
 4574SOL    HW214622   0.346   4.894   2.029
 4575SOL     OW14623   6.452   5.902   1.723
 4575SOL    HW114624   6.458   5.845   1.805
 4575SOL    HW214625   6.390   5.979   1.741
 4576SOL     OW14626   3.485   5.716   4.502
 4576SOL    HW114627   3.480   5.813   4.524
 4576SOL    HW214628   3.536   5.668   4.573
 4577SOL     OW14629   2.663   5.450   2.592
 4577SOL    HW114630   2.668   5.526   2.528
 4577SOL    HW214631   2.597   5.471   2.664
 4578SOL     OW14632   5.936   6.278   3.657
 4578SOL    HW114633   6.033   6.300   3.671
 4578SOL    HW214634   5.907   6.312   3.568
 4579SOL     OW14635   4.989   1.704   2.903
 4579SOL    HW114636   5.045   1.786   2.896
 4579SOL    HW214637   4.961   1.690   2.998
 4580SOL     OW14638   1.081   4.562   0.586
 4580SOL    HW114639   1.085   4.647   0.638
 4580SOL    HW214640   1.002   4.508   0.617
 4581SOL     OW14641   2.877   5.423   4.997
 4581SOL    HW114642   2.932   5.357   4.946
 4581SOL    HW214643   2.896   5.515   4.963
 4582SOL     OW14644   4.586   5.590   2.132
 4582SOL    HW114645   4.522   5.524   2.170
 4582SOL    HW214646   4.573   5.595   2.033
 4583SOL     OW14647   3.797   0.034   4.814
 4583SOL    HW114648   3.785   6.979   4.868
 4583SOL    HW214649   3.712   0.087   4.814
 4584SOL     OW14650   0.054   5.089   5.483
 4584SOL    HW114651   0.004   5.002   5.483
 4584SOL    HW214652   0.122   5.089   5.410
 4585SOL     OW14653   2.934   6.489   1.809
 4585SOL    HW114654   2.976   6.427   1.743
 4585SOL    HW214655   2.995   6.566   1.827
 4586SOL     OW14656   1.659   6.437   1.470
 4586SOL    HW114657   1.566   6.424   1.437
 4586SOL    HW214658   1.681   6.367   1.538
 4587SOL     OW14659   3.659   4.752   1.130
 4587SOL    HW114660   3.667   4.703   1.043
 4587SOL    HW214661   3.749   4.785   1.158
 4588SOL     OW14662   3.777   3.786   4.678
 4588SOL    HW114663   3.691   3.836   4.673
 4588SOL    HW214664   3.769   3.711   4.742
 4589SOL     OW14665   2.501   1.885   3.302
 4589SOL    HW114666   2.401   1.887   3.311
 4589SOL    HW214667   2.540   1.961   3.353
 4590SOL     OW14668   3.680   0.072   2.157
 4590SOL    HW114669   3.669   7.003   2.181
 4590SOL    HW214670   3.591   0.117   2.160
 4591SOL     OW14671   5.073   5.519   4.573
 4591SOL    HW114672   4.979   5.545   4.595
 4591SOL    HW214673   5.106   5.576   4.497
 4592SOL     OW14674   3.642   2.238   6.697
 4592SOL    HW114675   3.693   2.174   6.754
 4592SOL    HW214676   3.705   2.301   6.652
 4593SOL     OW14677   5.193   5.142   1.403
 4593SOL    HW114678   5.124   5.209   1.429
 4593SOL    HW214679   5.229   5.164   1.313
 4594SOL     OW14680   4.507   2.057   2.712
 4594SOL    HW114681   4.480   1.977   2.659
 4594SOL    HW214682   4.598   2.087   2.683
 4595SOL     OW14683   4.131   3.218   5.241
 4595SOL    HW114684   4.169   3.306   5.268
 4595SOL    HW214685   4.182   3.145   5.287
 4596SOL     OW14686   4.902   1.049   2.154
 4596SOL    HW114687   4.885   1.009   2.065
 4596SOL    HW214688   4.817   1.083   2.193
 4597SOL     OW14689   6.837   3.685   6.447
 4597SOL    HW114690   6.882   3.650   6.365
 4597SOL    HW214691   6.819   3.610   6.510
 4598SOL     OW14692   2.834   4.073   0.695
 4598SOL    HW114693   2.803   4.095   0.788
 4598SOL    HW214694   2.934   4.080   0.691
 4599SOL     OW14695   3.071   5.204   1.017
 4599SOL    HW114696   3.053   5.263   1.096
 4599SOL    HW214697   3.073   5.259   0.934
 4600SOL     OW14698   2.087   3.486   1.201
 4600SOL    HW114699   2.021   3.415   1.177
 4600SOL    HW214700   2.086   3.557   1.131
 4601SOL     OW14701   1.743   5.559   3.063
 4601SOL    HW114702   1.784   5.482   3.112
 4601SOL    HW214703   1.653   5.580   3.101
 4602SOL     OW14704   0.526   0.102   2.050
 4602SOL    HW114705   0.487   0.194   2.041
 4602SOL    HW214706   0.604   0.105   2.113
 4603SOL     OW14707   2.170   1.279   1.218
 4603SOL    HW114708   2.189   1.375   1.201
 4603SOL    HW214709   2.213   1.251   1.304
 4604SOL     OW14710   1.259   7.020   3.826
 4604SOL    HW114711   1.327   0.046   3.876
 4604SOL    HW214712   1.248   6.931   3.870
 4605SOL     OW14713   5.517   6.404   5.826
 4605SOL    HW114714   5.465   6.481   5.791
 4605SOL    HW214715   5.611   6.432   5.843
 4606SOL     OW14716   6.328   6.312   4.277
 4606SOL    HW114717   6.269   6.294   4.198
 4606SOL    HW214718   6.284   6.380   4.336
 4607SOL     OW14719   2.533   3.131   6.947
 4607SOL    HW114720   2.447   3.140   6.896
 4607SOL    HW214721   2.512   3.118   0.016
 4608SOL     OW14722   1.850   3.894   5.908
 4608SOL    HW114723   1.801   3.852   5.831
 4608SOL    HW214724   1.913   3.963   5.872
 4609SOL     OW14725   3.608   0.187   0.048
 4609SOL    HW114726   3.528   0.171   0.104
 4609SOL    HW214727   3.669   0.252   0.094
 4610SOL     OW14728   6.781   3.462   0.489
 4610SOL    HW114729   6.767   3.534   0.421
 4610SOL    HW214730   6.844   3.495   0.559
 4611SOL     OW14731   1.644   5.481   5.632
 4611SOL    HW114732   1.726   5.430   5.607
 4611SOL    HW214733   1.633   5.479   5.732
 4612SOL     OW14734   1.116   0.684   6.768
 4612SOL    HW114735   1.067   0.700   6.854
 4612SOL    HW214736   1.172   0.764   6.747
 4613SOL     OW14737   4.131   4.674   1.315
 4613SOL    HW114738   4.113   4.601   1.381
 4613SOL    HW214739   4.215   4.722   1.341
 4614SOL     OW14740   1.697   4.083   0.818
 4614SOL    HW114741   1.714   4.058   0.723
 4614SOL    HW214742   1.695   4.001   0.875
 4615SOL     OW14743   5.537   3.063   6.714
 4615SOL    HW114744   5.622   3.079   6.665
 4615SOL    HW214745   5.467   3.031   6.650
 4616SOL     OW14746   5.689   0.708   6.633
 4616SOL    HW114747   5.659   0.787   6.579
 4616SOL    HW214748   5.649   0.713   6.725
 4617SOL     OW14749   0.260   4.346   1.754
 4617SOL    HW114750   0.346   4.339   1.705
 4617SOL    HW214751   0.259   4.280   1.830
 4618SOL     OW14752   1.720   2.843   6.955
 4618SOL    HW114753   1.675   2.838   6.866
 4618SOL    HW214754   1.671   2.786   7.021
 4619SOL     OW14755   4.807   1.254   4.495
 4619SOL    HW114756   4.774   1.159   4.496
 4619SOL    HW214757   4.818   1.287   4.589
 4620SOL     OW14758   1.890   5.448   0.941
 4620SOL    HW114759   1.838   5.371   0.904
 4620SOL    HW214760   1.872   5.456   1.039
 4621SOL     OW14761   6.852   0.640   0.289
 4621SOL    HW114762   6.763   0.597   0.304
 4621SOL    HW214763   6.840   0.737   0.270
 4622SOL     OW14764   1.516   4.487   0.723
 4622SOL    HW114765   1.499   4.573   0.674
 4622SOL    HW214766   1.605   4.451   0.696
 4623SOL     OW14767   6.949   3.917   4.312
 4623SOL    HW114768   6.990   3.936   4.401
 4623SOL    HW214769   6.854   3.889   4.324
 4624SOL     OW14770   4.204   6.625   6.510
 4624SOL    HW114771   4.215   6.707   6.454
 4624SOL    HW214772   4.256   6.550   6.470
 4625SOL     OW14773   0.272   4.264   6.395
 4625SOL    HW114774   0.323   4.280   6.480
 4625SOL    HW214775   0.318   4.193   6.342
 4626SOL     OW14776   6.897   4.779   2.104
 4626SOL    HW114777   6.891   4.818   2.012
 4626SOL    HW214778   6.946   4.692   2.101
 4627SOL     OW14779   2.107   0.038   4.038
 4627SOL    HW114780   2.126   0.036   4.136
 4627SOL    HW214781   2.011   0.059   4.023
 4628SOL     OW14782   6.879   2.658   2.386
 4628SOL    HW114783   6.880   2.600   2.305
 4628SOL    HW214784   6.788   2.657   2.427
 4629SOL     OW14785   4.171   5.509   3.985
 4629SOL    HW114786   4.136   5.498   4.078
 4629SOL    HW214787   4.181   5.606   3.964
 4630SOL     OW14788   2.580   5.959   2.590
 4630SOL    HW114789   2.649   6.022   2.557
 4630SOL    HW214790   2.511   5.945   2.519
 4631SOL     OW14791   1.533   0.435   2.392
 4631SOL    HW114792   1.488   0.366   2.334
 4631SOL    HW214793   1.607   0.392   2.443
 4632SOL     OW14794   6.088   5.919   4.297
 4632SOL    HW114795   6.141   5.892   4.377
 4632SOL    HW214796   6.025   5.993   4.322
 4633SOL     OW14797   4.274   3.750   6.150
 4633SOL    HW114798   4.302   3.691   6.225
 4633SOL    HW214799   4.276   3.846   6.181
 4634SOL     OW14800   2.070   3.673   0.492
 4634SOL    HW114801   2.069   3.755   0.548
 4634SOL    HW214802   2.035   3.693   0.401
 4635SOL     OW14803   4.566   2.933   1.464
 4635SOL    HW114804   4.636   2.984   1.514
 4635SOL    HW214805   4.610   2.870   1.400
 4636SOL     OW14806   0.847   5.529   1.283
 4636SOL    HW114807   0.835   5.606   1.220
 4636SOL    HW214808   0.779   5.458   1.262
 4637SOL     OW14809   0.749   1.092   5.724
 4637SOL    HW114810   0.667   1.036   5.708
 4637SOL    HW214811   0.781   1.077   5.818
 4638SOL     OW14812   4.602   4.861   5.841
 4638SOL    HW114813   4.511   4.823   5.825
 4638SOL    HW214814   4.602   4.913   5.927
 4639SOL     OW14815   0.195   2.354   5.732
 4639SOL    HW114816   0.241   2.276   5.690
 4639SOL    HW214817   0.236   2.371   5.822
 4640SOL     OW14818   0.241   5.803   3.599
 4640SOL    HW114819   0.284   5.858   3.670
 4640SOL    HW214820   0.272   5.708   3.607
 4641SOL     OW14821   2.268   3.811   5.278
 4641SOL    HW114822   2.330   3.783   5.351
 4641SOL    HW214823   2.319   3.862   5.209
 4642SOL     OW14824   6.167   5.274   4.929
 4642SOL    HW114825   6.110   5.218   4.989
 4642SOL    HW214826   6.113   5.307   4.852
 4643SOL     OW14827   4.679   3.676   1.406
 4643SOL    HW114828   4.631   3.763   1.400
 4643SOL    HW214829   4.775   3.693   1.429
 4644SOL     OW14830   3.747   5.469   5.366
 4644SOL    HW114831   3.786   5.561   5.367
 4644SOL    HW214832   3.718   5.445   5.459
 4645SOL     OW14833   1.587   5.935   4.643
 4645SOL    HW114834   1.576   5.925   4.742
 4645SOL    HW214835   1.497   5.943   4.600
 4646SOL     OW14836   3.588   1.391   0.964
 4646SOL    HW114837   3.489   1.405   0.958
 4646SOL    HW214838   3.629   1.466   1.016
 4647SOL     OW14839   5.807   0.126   5.052
 4647SOL    HW114840   5.772   0.214   5.020
 4647SOL    HW214841   5.906   0.134   5.067
 4648SOL     OW14842   2.564   6.395   3.300
 4648SOL    HW114843   2.525   6.475   3.346
 4648SOL    HW214844   2.496   6.322   3.297
 4649SOL     OW14845   5.593   5.104   6.111
 4649SOL    HW114846   5.578   5.189   6.061
 4649SOL    HW214847   5.622   5.033   6.048
 4650SOL     OW14848   6.670   5.489   1.898
 4650SOL    HW114849   6.677   5.415   1.964
 4650SOL    HW214850   6.726   5.468   1.818
 4651SOL     OW14851   5.750   2.375   0.732
 4651SOL    HW114852   5.770   2.421   0.645
 4651SOL    HW214853   5.718   2.443   0.798
 4652SOL     OW14854   0.807   6.461   5.306
 4652SOL    HW114855   0.818   6.377   5.359
 4652SOL    HW214856   0.724   6.455   5.251
 4653SOL     OW14857   2.125   4.601   0.444
 4653SOL    HW114858   2.093   4.552   0.525
 4653SOL    HW214859   2.131   4.537   0.367
 4654SOL     OW14860   1.891   1.670   0.213
 4654SOL    HW114861   1.894   1.664   0.313
 4654SOL    HW214862   1.937   1.754   0.184
 4655SOL     OW14863   0.169   5.001   5.254
 4655SOL    HW114864   0.192   5.018   5.158
 4655SOL    HW214865   0.233   4.936   5.294
 4656SOL     OW14866   1.708   6.798   2.578
 4656SOL    HW114867   1.799   6.765   2.606
 4656SOL    HW214868   1.703   6.800   2.479
 4657SOL     OW14869   6.622   0.823   6.050
 4657SOL    HW114870   6.717   0.816   6.078
 4657SOL    HW214871   6.564   0.774   6.115
 4658SOL     OW14872   5.477   6.728   3.637
 4658SOL    HW114873   5.407   6.782   3.590
 4658SOL    HW214874   5.567   6.769   3.620
 4659SOL     OW14875   1.578   3.592   3.663
 4659SOL    HW114876   1.665   3.550   3.686
 4659SOL    HW214877   1.547   3.560   3.574
 4660SOL     OW14878   6.862   1.199   5.574
 4660SOL    HW114879   6.828   1.293   5.562
 4660SOL    HW214880   6.822   1.140   5.504
 4661SOL     OW14881   3.399   2.929   3.476
 4661SOL    HW114882   3.339   2.982   3.536
 4661SOL    HW214883   3.471   2.887   3.531
 4662SOL     OW14884   6.628   6.549   4.662
 4662SOL    HW114885   6.548   6.495   4.687
 4662SOL    HW214886   6.658   6.525   4.570
 4663SOL     OW14887   0.749   1.645   2.848
 4663SOL    HW114888   0.713   1.631   2.940
 4663SOL    HW214889   0.838   1.691   2.853
 4664SOL     OW14890   3.448   5.173   0.235
 4664SOL    HW114891   3.465   5.234   0.311
 4664SOL    HW214892   3.350   5.169   0.216
 4665SOL     OW14893   4.846   0.391   6.163
 4665SOL    HW114894   4.789   0.425   6.237
 4665SOL    HW214895   4.864   0.464   6.097
 4666SOL     OW14896   1.945   1.067   0.524
 4666SOL    HW114897   1.887   1.110   0.454
 4666SOL    HW214898   1.951   0.969   0.507
 4667SOL     OW14899   0.088   6.195   3.792
 4667SOL    HW114900   0.169   6.233   3.836
 4667SOL    HW214901   0.080   6.232   3.699
 4668SOL     OW14902   5.733   0.870   5.129
 4668SOL    HW114903   5.681   0.808   5.189
 4668SOL    HW214904   5.821   0.891   5.171
 4669SOL     OW14905   2.211   2.045   2.306
 4669SOL    HW114906   2.288   1.984   2.283
 4669SOL    HW214907   2.127   1.991   2.310
 4670SOL     OW14908   2.666   2.427   5.053
 4670SOL    HW114909   2.685   2.467   5.143
 4670SOL    HW214910   2.753   2.398   5.011
 4671SOL     OW14911   6.977   1.895   2.866
 4671SOL    HW114912   0.027   1.845   2.904
 4671SOL    HW214913   7.003   1.989   2.847
 4672SOL     OW14914   2.734   2.600   5.792
 4672SOL    HW114915   2.713   2.642   5.704
 4672SOL    HW214916   2.773   2.669   5.853
 4673SOL     OW14917   5.794   0.018   2.178
 4673SOL    HW114918   5.807   7.023   2.275
 4673SOL    HW214919   5.881   0.012   2.130
 4674SOL     OW14920   4.950   0.058   6.624
 4674SOL    HW114921   4.960   0.059   6.524
 4674SOL    HW214922   4.950   6.991   6.656
 4675SOL     OW14923   0.761   4.886   6.214
 4675SOL    HW114924   0.666   4.911   6.200
 4675SOL    HW214925   0.768   4.821   6.290
 4676SOL     OW14926   1.465   4.543   3.401
 4676SOL    HW114927   1.537   4.482   3.369
 4676SOL    HW214928   1.506   4.629   3.432
 4677SOL     OW14929   1.142   3.369   1.031
 4677SOL    HW114930   1.179   3.332   1.116
 4677SOL    HW214931   1.216   3.376   0.963
 4678SOL     OW14932   1.108   2.156   0.656
 4678SOL    HW114933   1.134   2.072   0.607
 4678SOL    HW214934   1.014   2.146   0.691
 4679SOL     OW14935   4.825   6.815   1.606
 4679SOL    HW114936   4.794   6.759   1.529
 4679SOL    HW214937   4.747   6.861   1.648
 4680SOL     OW14938   2.853   1.378   0.099
 4680SOL    HW114939   2.923   1.387   0.029
 4680SOL    HW214940   2.764   1.362   0.057
 4681SOL     OW14941   5.049   4.687   2.060
 4681SOL    HW114942   5.036   4.776   2.016
 4681SOL    HW214943   4.971   4.628   2.040
 4682SOL     OW14944   3.793   3.422   6.456
 4682SOL    HW114945   3.732   3.408   6.534
 4682SOL    HW214946   3.764   3.363   6.381
 4683SOL     OW14947   6.567   3.605   3.987
 4683SOL    HW114948   6.655   3.568   3.958
 4683SOL    HW214949   6.525   3.543   4.054
 4684SOL     OW14950   4.680   0.475   5.915
 4684SOL    HW114951   4.759   0.536   5.928
 4684SOL    HW214952   4.712   0.380   5.910
 4685SOL     OW14953   2.949   3.636   4.417
 4685SOL    HW114954   2.932   3.609   4.322
 4685SOL    HW214955   2.942   3.557   4.477
 4686SOL     OW14956   1.620   6.724   5.836
 4686SOL    HW114957   1.600   6.654   5.905
 4686SOL    HW214958   1.546   6.791   5.833
 4687SOL     OW14959   0.947   6.822   2.354
 4687SOL    HW114960   0.857   6.779   2.366
 4687SOL    HW214961   0.996   6.775   2.281
 4688SOL     OW14962   4.717   2.073   5.056
 4688SOL    HW114963   4.713   2.113   5.147
 4688SOL    HW214964   4.807   2.087   5.017
 4689SOL     OW14965   6.909   0.931   1.226
 4689SOL    HW114966   6.817   0.968   1.231
 4689SOL    HW214967   6.959   0.973   1.150
 4690SOL     OW14968   2.929   2.365   0.982
 4690SOL    HW114969   2.926   2.311   0.897
 4690SOL    HW214970   2.958   2.306   1.057
 4691SOL     OW14971   6.113   2.703   1.959
 4691SOL    HW114972   6.068   2.767   2.021
 4691SOL    HW214973   6.110   2.611   1.998
 4692SOL     OW14974   6.831   2.378   3.303
 4692SOL    HW114975   6.887   2.379   3.220
 4692SOL    HW214976   6.883   2.336   3.377
 4693SOL     OW14977   0.296   0.617   3.315
 4693SOL    HW114978   0.366   0.556   3.276
 4693SOL    HW214979   0.335   0.668   3.392
 4694SOL     OW14980   1.218   6.767   5.744
 4694SOL    HW114981   1.164   6.844   5.711
 4694SOL    HW214982   1.210   6.691   5.680
 4695SOL     OW14983   1.512   4.679   1.595
 4695SOL    HW114984   1.456   4.605   1.558
 4695SOL    HW214985   1.515   4.672   1.695
 4696SOL     OW14986   2.052   6.268   5.736
 4696SOL    HW114987   1.991   6.304   5.665
 4696SOL    HW214988   2.062   6.170   5.725
 4697SOL     OW14989   4.657   5.673   1.619
 4697SOL    HW114990   4.634   5.579   1.644
 4697SOL    HW214991   4.664   5.680   1.519
 4698SOL     OW14992   6.125   1.724   4.855
 4698SOL    HW114993   6.092   1.648   4.799
 4698SOL    HW214994   6.180   1.786   4.798
 4699SOL     OW14995   0.840   2.062   3.480
 4699SOL    HW114996   0.859   2.026   3.571
 4699SOL    HW214997   0.748   2.035   3.452
 4700SOL     OW14998   6.831   1.790   3.765
 4700SOL    HW114999   6.885   1.748   3.837
 4700SOL    HW215000   6.734   1.774   3.782
 4701SOL     OW15001   2.236   2.682   1.658
 4701SOL    HW115002   2.226   2.778   1.631
 4701SOL    HW215003   2.333   2.661   1.670
 4702SOL     OW15004   5.953   4.837   1.417
 4702SOL    HW115005   6.045   4.874   1.399
 4702SOL    HW215006   5.959   4.767   1.488
 4703SOL     OW15007   6.669   5.638   3.974
 4703SOL    HW115008   6.725   5.554   3.972
 4703SOL    HW215009   6.672   5.682   3.885
 4704SOL     OW15010   1.520   4.646   3.673
 4704SOL    HW115011   1.542   4.733   3.631
 4704SOL    HW215012   1.439   4.656   3.731
 4705SOL     OW15013   3.197   3.214   1.514
 4705SOL    HW115014   3.248   3.292   1.476
 4705SOL    HW215015   3.152   3.243   1.599
 4706SOL     OW15016   2.009   0.697   1.098
 4706SOL    HW115017   2.107   0.708   1.083
 4706SOL    HW215018   1.973   0.779   1.143
 4707SOL     OW15019   2.136   5.784   1.823
 4707SOL    HW115020   2.189   5.781   1.908
 4707SOL    HW215021   2.072   5.707   1.822
 4708SOL     OW15022   2.096   3.077   6.506
 4708SOL    HW115023   2.103   3.174   6.529
 4708SOL    HW215024   2.115   3.065   6.408
 4709SOL     OW15025   6.252   3.209   4.039
 4709SOL    HW115026   6.210   3.281   4.095
 4709SOL    HW215027   6.350   3.204   4.059
 4710SOL     OW15028   5.935   4.732   5.549
 4710SOL    HW115029   5.935   4.756   5.646
 4710SOL    HW215030   5.892   4.805   5.496
 4711SOL     OW15031   4.919   4.537   3.225
 4711SOL    HW115032   4.998   4.598   3.225
 4711SOL    HW215033   4.835   4.591   3.222
 4712SOL     OW15034   4.177   4.724   6.363
 4712SOL    HW115035   4.099   4.728   6.300
 4712SOL    HW215036   4.199   4.817   6.394
 4713SOL     OW15037   5.817   4.093   1.771
 4713SOL    HW115038   5.848   4.154   1.699
 4713SOL    HW215039   5.739   4.134   1.819
 4714SOL     OW15040   4.893   2.273   5.836
 4714SOL    HW115041   4.818   2.325   5.796
 4714SOL    HW215042   4.864   2.178   5.851
 4715SOL     OW15043   6.748   1.205   1.892
 4715SOL    HW115044   6.839   1.173   1.917
 4715SOL    HW215045   6.752   1.301   1.864
 4716SOL     OW15046   3.766   4.151   5.295
 4716SOL    HW115047   3.841   4.216   5.307
 4716SOL    HW215048   3.749   4.138   5.197
 4717SOL     OW15049   0.815   4.265   5.986
 4717SOL    HW115050   0.882   4.240   5.916
 4717SOL    HW215051   0.801   4.364   5.985
 4718SOL     OW15052   4.884   3.199   2.827
 4718SOL    HW115053   4.840   3.275   2.874
 4718SOL    HW215054   4.982   3.219   2.817
 4719SOL     OW15055   5.327   4.200   3.848
 4719SOL    HW115056   5.315   4.201   3.947
 4719SOL    HW215057   5.411   4.247   3.824
 4720SOL     OW15058   1.305   1.971   5.419
 4720SOL    HW115059   1.312   2.003   5.325
 4720SOL    HW215060   1.351   1.883   5.428
 4721SOL     OW15061   0.708   2.873   2.469
 4721SOL    HW115062   0.657   2.787   2.456
 4721SOL    HW215063   0.725   2.915   2.380
 4722SOL     OW15064   1.242   5.748   5.765
 4722SOL    HW115065   1.151   5.706   5.770
 4722SOL    HW215066   1.275   5.767   5.858
 4723SOL     OW15067   3.379   4.912   6.111
 4723SOL    HW115068   3.378   4.813   6.115
 4723SOL    HW215069   3.458   4.943   6.059
 4724SOL     OW15070   0.181   0.752   3.682
 4724SOL    HW115071   0.236   0.732   3.601
 4724SOL    HW215072   0.213   0.696   3.758
 4725SOL     OW15073   4.875   6.060   1.512
 4725SOL    HW115074   4.905   5.971   1.478
 4725SOL    HW215075   4.921   6.133   1.460
 4726SOL     OW15076   1.982   2.744   6.545
 4726SOL    HW115077   1.938   2.755   6.456
 4726SOL    HW215078   2.053   2.673   6.538
 4727SOL     OW15079   6.705   5.411   1.616
 4727SOL    HW115080   6.645   5.459   1.552
 4727SOL    HW215081   6.760   5.344   1.566
 4728SOL     OW15082   4.201   0.127   3.650
 4728SOL    HW115083   4.108   0.164   3.648
 4728SOL    HW215084   4.222   0.082   3.564
 4729SOL     OW15085   0.576   0.343   2.810
 4729SOL    HW115086   0.525   0.422   2.844
 4729SOL    HW215087   0.521   0.261   2.819
 4730SOL     OW15088   2.533   1.051   2.714
 4730SOL    HW115089   2.554   1.095   2.801
 4730SOL    HW215090   2.499   1.119   2.649
 4731SOL     OW15091   3.653   6.859   2.305
 4731SOL    HW115092   3.625   6.874   2.400
 4731SOL    HW215093   3.753   6.858   2.300
 4732SOL     OW15094   0.319   4.822   4.175
 4732SOL    HW115095   0.301   4.915   4.145
 4732SOL    HW215096   0.239   4.764   4.156
 4733SOL     OW15097   2.456   4.470   3.246
 4733SOL    HW115098   2.433   4.410   3.324
 4733SOL    HW215099   2.504   4.551   3.280
 4734SOL     OW15100   4.366   4.748   5.753
 4734SOL    HW115101   4.347   4.651   5.741
 4734SOL    HW215102   4.336   4.799   5.672
 4735SOL     OW15103   0.538   0.660   5.105
 4735SOL    HW115104   0.562   0.756   5.116
 4735SOL    HW215105   0.578   0.607   5.180
 4736SOL     OW15106   6.026   0.363   4.633
 4736SOL    HW115107   6.121   0.354   4.602
 4736SOL    HW215108   5.966   0.313   4.570
 4737SOL     OW15109   1.936   5.379   6.997
 4737SOL    HW115110   1.856   5.365   6.940
 4737SOL    HW215111   1.911   5.366   0.065
 4738SOL     OW15112   0.328   6.311   3.849
 4738SOL    HW115113   0.337   6.410   3.852
 4738SOL    HW215114   0.392   6.270   3.914
 4739SOL     OW15115   5.967   3.938   3.066
 4739SOL    HW115116   5.868   3.944   3.076
 4739SOL    HW215117   6.007   3.902   3.150
 4740SOL     OW15118   1.596   6.561   0.453
 4740SOL    HW115119   1.654   6.538   0.531
 4740SOL    HW215120   1.507   6.516   0.463
 4741SOL     OW15121   6.035   4.416   2.690
 4741SOL    HW115122   5.963   4.391   2.625
 4741SOL    HW215123   6.122   4.426   2.641
 4742SOL     OW15124   2.100   5.380   1.807
 4742SOL    HW115125   2.139   5.288   1.804
 4742SOL    HW215126   2.041   5.393   1.727
 4743SOL     OW15127   2.589   3.332   0.356
 4743SOL    HW115128   2.677   3.322   0.309
 4743SOL    HW215129   2.563   3.428   0.358
 4744SOL     OW15130   3.024   1.999   5.997
 4744SOL    HW115131   3.004   1.904   5.969
 4744SOL    HW215132   3.058   2.050   5.918
 4745SOL     OW15133   4.674   5.783   4.787
 4745SOL    HW115134   4.668   5.806   4.690
 4745SOL    HW215135   4.655   5.865   4.842
 4746SOL     OW15136   5.683   1.284   1.054
 4746SOL    HW115137   5.694   1.329   1.142
 4746SOL    HW215138   5.656   1.189   1.068
 4747SOL     OW15139   1.174   3.041   2.397
 4747SOL    HW115140   1.271   3.027   2.414
 4747SOL    HW215141   1.158   3.045   2.298
 4748SOL     OW15142   1.965   6.628   0.149
 4748SOL    HW115143   2.047   6.607   0.203
 4748SOL    HW215144   1.993   6.671   0.063
 4749SOL     OW15145   3.768   0.765   6.999
 4749SOL    HW115146   3.711   0.840   0.002
 4749SOL    HW215147   3.824   0.795   6.922
 4750SOL     OW15148   0.862   2.219   5.007
 4750SOL    HW115149   0.790   2.169   4.960
 4750SOL    HW215150   0.951   2.195   4.967
 4751SOL     OW15151   1.592   4.017   6.148
 4751SOL    HW115152   1.687   3.995   6.127
 4751SOL    HW215153   1.534   3.939   6.125
 4752SOL     OW15154   1.784   5.693   0.384
 4752SOL    HW115155   1.708   5.666   0.443
 4752SOL    HW215156   1.858   5.627   0.393
 4753SOL     OW15157   0.533   1.231   6.827
 4753SOL    HW115158   0.436   1.249   6.808
 4753SOL    HW215159   0.589   1.273   6.755
 4754SOL     OW15160   1.368   0.669   6.578
 4754SOL    HW115161   1.369   0.745   6.643
 4754SOL    HW215162   1.459   0.629   6.571
 4755SOL     OW15163   2.694   6.413   2.803
 4755SOL    HW115164   2.733   6.450   2.887
 4755SOL    HW215165   2.615   6.355   2.826
 4756SOL     OW15166   5.427   2.965   0.803
 4756SOL    HW115167   5.372   2.895   0.850
 4756SOL    HW215168   5.471   3.023   0.872
 4757SOL     OW15169   2.282   3.930   0.556
 4757SOL    HW115170   2.316   3.889   0.471
 4757SOL    HW215171   2.256   4.025   0.539
 4758SOL     OW15172   6.651   4.252   6.306
 4758SOL    HW115173   6.696   4.293   6.385
 4758SOL    HW215174   6.601   4.170   6.334
 4759SOL     OW15175   6.838   3.968   6.650
 4759SOL    HW115176   6.937   3.973   6.659
 4759SOL    HW215177   6.802   3.897   6.709
 4760SOL     OW15178   0.647   2.979   0.278
 4760SOL    HW115179   0.590   2.963   0.198
 4760SOL    HW215180   0.705   2.899   0.295
 4761SOL     OW15181   3.208   6.509   6.417
 4761SOL    HW115182   3.169   6.528   6.508
 4761SOL    HW215183   3.133   6.490   6.353
 4762SOL     OW15184   2.872   1.237   2.880
 4762SOL    HW115185   2.951   1.245   2.939
 4762SOL    HW215186   2.897   1.265   2.787
 4763SOL     OW15187   5.079   4.578   4.657
 4763SOL    HW115188   5.000   4.630   4.625
 4763SOL    HW215189   5.054   4.482   4.667
 4764SOL     OW15190   3.147   3.508   3.614
 4764SOL    HW115191   3.081   3.578   3.640
 4764SOL    HW215192   3.203   3.542   3.538
 4765SOL     OW15193   0.058   5.545   0.080
 4765SOL    HW115194   0.069   5.642   0.101
 4765SOL    HW215195   0.141   5.512   0.035
 4766SOL     OW15196   2.604   1.217   2.908
 4766SOL    HW115197   2.576   1.184   2.999
 4766SOL    HW215198   2.704   1.222   2.904
 4767SOL     OW15199   4.496   0.435   6.661
 4767SOL    HW115200   4.511   0.533   6.678
 4767SOL    HW215201   4.567   0.383   6.708
 4768SOL     OW15202   2.320   0.584   5.232
 4768SOL    HW115203   2.262   0.661   5.204
 4768SOL    HW215204   2.326   0.580   5.331
 4769SOL     OW15205   4.425   0.778   2.405
 4769SOL    HW115206   4.390   0.863   2.365
 4769SOL    HW215207   4.397   0.701   2.348
 4770SOL     OW15208   2.629   0.581   3.423
 4770SOL    HW115209   2.583   0.667   3.401
 4770SOL    HW215210   2.710   0.572   3.365
 4771SOL     OW15211   3.581   4.770   6.833
 4771SOL    HW115212   3.542   4.693   6.885
 4771SOL    HW215213   3.652   4.736   6.772
 4772SOL     OW15214   4.369   2.304   0.759
 4772SOL    HW115215   4.402   2.229   0.702
 4772SOL    HW215216   4.278   2.282   0.793
 4773SOL     OW15217   0.332   4.942   3.755
 4773SOL    HW115218   0.279   5.014   3.799
 4773SOL    HW215219   0.416   4.980   3.719
 4774SOL     OW15220   2.177   4.214   7.012
 4774SOL    HW115221   2.273   4.208   0.012
 4774SOL    HW215222   2.170   4.194   6.914
 4775SOL     OW15223   1.524   3.166   2.616
 4775SOL    HW115224   1.602   3.131   2.668
 4775SOL    HW215225   1.462   3.213   2.678
 4776SOL     OW15226   4.347   5.373   0.985
 4776SOL    HW115227   4.250   5.367   0.959
 4776SOL    HW215228   4.402   5.321   0.920
 4777SOL     OW15229   2.006   4.055   1.741
 4777SOL    HW115230   2.073   4.053   1.667
 4777SOL    HW215231   2.040   3.999   1.817
 4778SOL     OW15232   5.620   3.708   3.270
 4778SOL    HW115233   5.561   3.655   3.331
 4778SOL    HW215234   5.627   3.662   3.181
 4779SOL     OW15235   5.911   1.428   2.543
 4779SOL    HW115236   5.818   1.465   2.540
 4779SOL    HW215237   5.974   1.499   2.574
 4780SOL     OW15238   1.795   1.238   5.379
 4780SOL    HW115239   1.733   1.163   5.358
 4780SOL    HW215240   1.888   1.216   5.348
 4781SOL     OW15241   2.360   5.793   2.799
 4781SOL    HW115242   2.406   5.849   2.729
 4781SOL    HW215243   2.270   5.765   2.764
 4782SOL     OW15244   6.707   6.456   6.714
 4782SOL    HW115245   6.728   6.533   6.654
 4782SOL    HW215246   6.613   6.464   6.746
 4783SOL     OW15247   5.233   4.724   3.238
 4783SOL    HW115248   5.227   4.769   3.326
 4783SOL    HW215249   5.255   4.627   3.251
 4784SOL     OW15250   4.833   4.024   4.514
 4784SOL    HW115251   4.777   4.106   4.505
 4784SOL    HW215252   4.930   4.050   4.511
 4785SOL     OW15253   5.551   5.559   0.748
 4785SOL    HW115254   5.582   5.624   0.817
 4785SOL    HW215255   5.465   5.590   0.709
 4786SOL     OW15256   1.634   4.646   2.974
 4786SOL    HW115257   1.570   4.658   2.898
 4786SOL    HW215258   1.717   4.601   2.941
 4787SOL     OW15259   3.543   2.121   3.165
 4787SOL    HW115260   3.550   2.138   3.066
 4787SOL    HW215261   3.632   2.136   3.207
 4788SOL     OW15262   2.398   0.382   4.162
 4788SOL    HW115263   2.488   0.408   4.195
 4788SOL    HW215264   2.356   0.458   4.113
 4789SOL     OW15265   4.466   5.576   6.613
 4789SOL    HW115266   4.492   5.480   6.603
 4789SOL    HW215267   4.369   5.587   6.593
 4790SOL     OW15268   5.798   0.026   5.855
 4790SOL    HW115269   5.817   7.020   5.947
 4790SOL    HW215270   5.831   0.120   5.847
 4791SOL     OW15271   4.570   2.382   3.323
 4791SOL    HW115272   4.510   2.373   3.243
 4791SOL    HW215273   4.555   2.305   3.385
 4792SOL     OW15274   3.407   3.152   0.268
 4792SOL    HW115275   3.331   3.131   0.207
 4792SOL    HW215276   3.392   3.107   0.356
 4793SOL     OW15277   0.625   1.350   0.058
 4793SOL    HW115278   0.615   1.355   6.987
 4793SOL    HW215279   0.706   1.401   0.086
 4794SOL     OW15280   5.668   1.050   1.933
 4794SOL    HW115281   5.608   0.981   1.975
 4794SOL    HW215282   5.670   1.131   1.991
 4795SOL     OW15283   6.591   1.523   4.813
 4795SOL    HW115284   6.622   1.448   4.871
 4795SOL    HW215285   6.550   1.486   4.729
 4796SOL     OW15286   4.598   4.254   0.560
 4796SOL    HW115287   4.514   4.222   0.603
 4796SOL    HW215288   4.663   4.281   0.631
 4797SOL     OW15289   1.589   5.695   4.311
 4797SOL    HW115290   1.654   5.659   4.244
 4797SOL    HW215291   1.579   5.631   4.387
 4798SOL     OW15292   0.290   6.335   6.580
 4798SOL    HW115293   0.294   6.240   6.611
 4798SOL    HW215294   0.208   6.379   6.617
 4799SOL     OW15295   5.357   0.852   5.275
 4799SOL    HW115296   5.412   0.780   5.232
 4799SOL    HW215297   5.262   0.844   5.245
 4800SOL     OW15298   1.834   2.777   4.485
 4800SOL    HW115299   1.811   2.699   4.427
 4800SOL    HW215300   1.924   2.761   4.527
 4801SOL     OW15301   6.944   1.622   0.913
 4801SOL    HW115302   6.855   1.655   0.942
 4801SOL    HW215303   7.009   1.627   0.989
 4802SOL     OW15304   1.510   6.162   1.300
 4802SOL    HW115305   1.518   6.069   1.262
 4802SOL    HW215306   1.547   6.227   1.234
 4803SOL     OW15307   0.524   6.420   1.538
 4803SOL    HW115308   0.561   6.405   1.629
 4803SOL    HW215309   0.502   6.517   1.527
 4804SOL     OW15310   4.216   4.972   6.463
 4804SOL    HW115311   4.263   5.060   6.468
 4804SOL    HW215312   4.121   4.983   6.495
 4805SOL     OW15313   6.521   6.621   1.775
 4805SOL    HW115314   6.525   6.596   1.871
 4805SOL    HW215315   6.448   6.570   1.730
 4806SOL     OW15316   0.483   2.088   4.189
 4806SOL    HW115317   0.498   2.041   4.276
 4806SOL    HW215318   0.410   2.042   4.138
 4807SOL     OW15319   0.681   6.830   2.128
 4807SOL    HW115320   0.690   6.929   2.117
 4807SOL    HW215321   0.683   6.806   2.225
 4808SOL     OW15322   6.601   0.862   6.967
 4808SOL    HW115323   6.619   0.906   0.026
 4808SOL    HW215324   6.685   0.822   6.932
 4809SOL     OW15325   4.415   6.251   0.829
 4809SOL    HW115326   4.366   6.175   0.787
 4809SOL    HW215327   4.476   6.216   0.900
 4810SOL     OW15328   1.766   0.143   5.358
 4810SOL    HW115329   1.808   0.168   5.271
 4810SOL    HW215330   1.794   0.051   5.384
 4811SOL     OW15331   5.176   4.456   4.397
 4811SOL    HW115332   5.142   4.467   4.304
 4811SOL    HW215333   5.132   4.377   4.440
 4812SOL     OW15334   6.453   4.917   2.755
 4812SOL    HW115335   6.419   4.884   2.844
 4812SOL    HW215336   6.375   4.938   2.696
 4813SOL     OW15337   6.294   3.492   3.149
 4813SOL    HW115338   6.369   3.558   3.160
 4813SOL    HW215339   6.220   3.534   3.097
 4814SOL     OW15340   0.056   2.757   1.276
 4814SOL    HW115341   0.054   2.853   1.305
 4814SOL    HW215342   0.059   2.698   1.356
 4815SOL     OW15343   4.732   1.445   3.614
 4815SOL    HW115344   4.824   1.406   3.607
 4815SOL    HW215345   4.714   1.471   3.708
 4816SOL     OW15346   6.387   3.597   4.735
 4816SOL    HW115347   6.319   3.589   4.662
 4816SOL    HW215348   6.424   3.506   4.756
 4817SOL     OW15349   5.517   1.308   6.411
 4817SOL    HW115350   5.598   1.278   6.360
 4817SOL    HW215351   5.469   1.378   6.358
 4818SOL     OW15352   0.177   6.841   3.140
 4818SOL    HW115353   0.094   6.810   3.093
 4818SOL    HW215354   0.154   6.919   3.199
 4819SOL     OW15355   0.608   2.925   0.990
 4819SOL    HW115356   0.556   3.010   0.983
 4819SOL    HW215357   0.546   2.848   1.002
 4820SOL     OW15358   5.855   3.032   1.976
 4820SOL    HW115359   5.811   3.121   1.971
 4820SOL    HW215360   5.786   2.960   1.981
 4821SOL     OW15361   7.013   5.525   3.876
 4821SOL    HW115362   0.057   5.483   3.930
 4821SOL    HW215363   6.924   5.487   3.904
 4822SOL     OW15364   2.538   5.887   4.310
 4822SOL    HW115365   2.584   5.815   4.362
 4822SOL    HW215366   2.590   5.972   4.319
 4823SOL     OW15367   0.694   1.656   0.192
 4823SOL    HW115368   0.761   1.731   0.191
 4823SOL    HW215369   0.624   1.674   0.122
 4824SOL     OW15370   6.586   2.515   0.650
 4824SOL    HW115371   6.505   2.527   0.707
 4824SOL    HW215372   6.563   2.459   0.570
 4825SOL     OW15373   1.600   5.454   3.389
 4825SOL    HW115374   1.536   5.401   3.444
 4825SOL    HW215375   1.664   5.502   3.448
 4826SOL     OW15376   4.893   6.644   0.440
 4826SOL    HW115377   4.854   6.555   0.464
 4826SOL    HW215378   4.864   6.712   0.507
 4827SOL     OW15379   5.438   1.339   1.996
 4827SOL    HW115380   5.413   1.271   2.065
 4827SOL    HW215381   5.432   1.298   1.905
 4828SOL     OW15382   5.285   1.449   6.529
 4828SOL    HW115383   5.274   1.384   6.453
 4828SOL    HW215384   5.325   1.402   6.607
 4829SOL     OW15385   4.857   5.469   5.428
 4829SOL    HW115386   4.807   5.554   5.411
 4829SOL    HW215387   4.944   5.472   5.380
 4830SOL     OW15388   1.575   6.198   2.898
 4830SOL    HW115389   1.504   6.157   2.955
 4830SOL    HW215390   1.657   6.214   2.952
 4831SOL     OW15391   2.595   4.005   6.391
 4831SOL    HW115392   2.559   3.912   6.394
 4831SOL    HW215393   2.638   4.021   6.302
 4832SOL     OW15394   3.801   3.457   3.709
 4832SOL    HW115395   3.882   3.516   3.719
 4832SOL    HW215396   3.720   3.505   3.740
 4833SOL     OW15397   5.883   2.199   5.002
 4833SOL    HW115398   5.933   2.117   5.032
 4833SOL    HW215399   5.948   2.267   4.970
 4834SOL     OW15400   1.246   3.563   1.396
 4834SOL    HW115401   1.317   3.598   1.457
 4834SOL    HW215402   1.156   3.575   1.439
 4835SOL     OW15403   1.784   3.645   6.255
 4835SOL    HW115404   1.701   3.677   6.300
 4835SOL    HW215405   1.840   3.724   6.229
 4836SOL     OW15406   3.377   0.258   5.835
 4836SOL    HW115407   3.351   0.280   5.930
 4836SOL    HW215408   3.434   0.332   5.799
 4837SOL     OW15409   1.753   3.841   4.219
 4837SOL    HW115410   1.784   3.825   4.126
 4837SOL    HW215411   1.656   3.865   4.219
 4838SOL     OW15412   1.488   4.471   6.962
 4838SOL    HW115413   1.537   4.444   0.017
 4838SOL    HW215414   1.532   4.551   6.922
 4839SOL     OW15415   3.043   0.153   1.211
 4839SOL    HW115416   3.133   0.161   1.168
 4839SOL    HW215417   2.988   0.085   1.161
 4840SOL     OW15418   5.292   1.862   3.606
 4840SOL    HW115419   5.195   1.875   3.585
 4840SOL    HW215420   5.330   1.791   3.547
 4841SOL     OW15421   3.220   4.882   3.051
 4841SOL    HW115422   3.265   4.870   3.140
 4841SOL    HW215423   3.121   4.877   3.063
 4842SOL     OW15424   4.259   4.811   3.704
 4842SOL    HW115425   4.288   4.734   3.760
 4842SOL    HW215426   4.264   4.896   3.757
 4843SOL     OW15427   6.263   2.793   0.092
 4843SOL    HW115428   6.286   2.802   0.190
 4843SOL    HW215429   6.324   2.852   0.039
 4844SOL     OW15430   1.282   4.741   6.675
 4844SOL    HW115431   1.317   4.659   6.629
 4844SOL    HW215432   1.246   4.804   6.607
 4845SOL     OW15433   5.558   4.351   5.379
 4845SOL    HW115434   5.638   4.391   5.334
 4845SOL    HW215435   5.576   4.339   5.476
 4846SOL     OW15436   6.812   2.854   3.925
 4846SOL    HW115437   6.860   2.780   3.877
 4846SOL    HW215438   6.859   2.941   3.909
 4847SOL     OW15439   2.009   6.766   6.506
 4847SOL    HW115440   2.007   6.756   6.407
 4847SOL    HW215441   2.070   6.696   6.545
 4848SOL     OW15442   5.069   1.528   3.566
 4848SOL    HW115443   5.083   1.528   3.665
 4848SOL    HW215444   5.049   1.435   3.534
 4849SOL     OW15445   0.958   5.485   1.650
 4849SOL    HW115446   0.942   5.581   1.624
 4849SOL    HW215447   1.022   5.443   1.586
 4850SOL     OW15448   2.988   0.041   1.891
 4850SOL    HW115449   2.966   7.001   1.821
 4850SOL    HW215450   3.044   0.114   1.850
 4851SOL     OW15451   4.133   4.135   6.635
 4851SOL    HW115452   4.135   4.222   6.684
 4851SOL    HW215453   4.224   4.114   6.600
 4852SOL     OW15454   3.864   4.075   5.724
 4852SOL    HW115455   3.927   4.142   5.686
 4852SOL    HW215456   3.915   3.994   5.752
 4853SOL     OW15457   4.384   0.308   2.675
 4853SOL    HW115458   4.326   0.249   2.617
 4853SOL    HW215459   4.444   0.363   2.616
 4854SOL     OW15460   4.001   7.004   1.725
 4854SOL    HW115461   4.026   0.035   1.648
 4854SOL    HW215462   4.055   0.001   1.805
 4855SOL     OW15463   4.642   4.768   5.401
 4855SOL    HW115464   4.571   4.711   5.361
 4855SOL    HW215465   4.731   4.723   5.391
 4856SOL     OW15466   0.309   2.900   3.324
 4856SOL    HW115467   0.331   2.877   3.419
 4856SOL    HW215468   0.353   2.833   3.263
 4857SOL     OW15469   2.951   1.543   5.551
 4857SOL    HW115470   2.956   1.641   5.529
 4857SOL    HW215471   2.872   1.526   5.609
 4858SOL     OW15472   2.862   5.753   5.362
 4858SOL    HW115473   2.788   5.757   5.295
 4858SOL    HW215474   2.844   5.678   5.427
 4859SOL     OW15475   6.812   5.709   2.667
 4859SOL    HW115476   6.837   5.652   2.746
 4859SOL    HW215477   6.728   5.758   2.687
 4860SOL     OW15478   3.473   5.140   0.851
 4860SOL    HW115479   3.406   5.090   0.906
 4860SOL    HW215480   3.566   5.114   0.881
 4861SOL     OW15481   5.019   4.934   4.538
 4861SOL    HW115482   5.117   4.915   4.539
 4861SOL    HW215483   4.978   4.905   4.624
 4862SOL     OW15484   1.567   5.219   3.158
 4862SOL    HW115485   1.612   5.275   3.228
 4862SOL    HW215486   1.472   5.248   3.149
 4863SOL     OW15487   5.723   2.045   1.998
 4863SOL    HW115488   5.684   1.958   2.030
 4863SOL    HW215489   5.712   2.114   2.069
 4864SOL     OW15490   2.490   2.920   1.385
 4864SOL    HW115491   2.549   2.930   1.305
 4864SOL    HW215492   2.500   2.828   1.423
 4865SOL     OW15493   3.850   0.368   4.867
 4865SOL    HW115494   3.936   0.416   4.850
 4865SOL    HW215495   3.840   0.294   4.800
 4866SOL     OW15496   1.687   4.948   1.633
 4866SOL    HW115497   1.749   4.987   1.565
 4866SOL    HW215498   1.643   4.866   1.596
 4867SOL     OW15499   5.441   4.672   6.335
 4867SOL    HW115500   5.505   4.749   6.332
 4867SOL    HW215501   5.424   4.639   6.242
 4868SOL     OW15502   1.297   6.001   1.948
 4868SOL    HW115503   1.233   5.941   1.996
 4868SOL    HW215504   1.379   5.948   1.923
 4869SOL     OW15505   0.501   1.831   1.981
 4869SOL    HW115506   0.509   1.763   1.909
 4869SOL    HW215507   0.580   1.824   2.043
 4870SOL     OW15508   6.139   1.725   1.963
 4870SOL    HW115509   6.096   1.689   1.880
 4870SOL    HW215510   6.174   1.817   1.945
 4871SOL     OW15511   1.465   2.564   5.165
 4871SOL    HW115512   1.407   2.629   5.215
 4871SOL    HW215513   1.416   2.532   5.084
 4872SOL     OW15514   2.298   2.621   3.042
 4872SOL    HW115515   2.276   2.710   3.082
 4872SOL    HW215516   2.380   2.584   3.085
 4873SOL     OW15517   1.017   0.126   6.191
 4873SOL    HW115518   1.067   0.107   6.275
 4873SOL    HW215519   0.996   0.224   6.185
 4874SOL     OW15520   6.421   1.688   4.985
 4874SOL    HW115521   6.475   1.667   4.903
 4874SOL    HW215522   6.336   1.732   4.958
 4875SOL     OW15523   0.027   3.066   0.587
 4875SOL    HW115524   0.071   2.992   0.638
 4875SOL    HW215525   6.962   3.039   0.563
 4876SOL     OW15526   6.307   1.359   6.630
 4876SOL    HW115527   6.226   1.364   6.570
 4876SOL    HW215528   6.388   1.338   6.575
 4877SOL     OW15529   3.914   2.156   2.302
 4877SOL    HW115530   3.896   2.149   2.400
 4877SOL    HW215531   4.012   2.146   2.285
 4878SOL     OW15532   1.297   2.956   2.763
 4878SOL    HW115533   1.266   2.915   2.849
 4878SOL    HW215534   1.307   2.885   2.693
 4879SOL     OW15535   3.049   6.636   2.922
 4879SOL    HW115536   3.028   6.619   3.018
 4879SOL    HW215537   2.970   6.610   2.866
 4880SOL     OW15538   0.335   2.796   6.117
 4880SOL    HW115539   0.297   2.721   6.063
 4880SOL    HW215540   0.372   2.866   6.055
 4881SOL     OW15541   2.978   6.611   5.475
 4881SOL    HW115542   2.949   6.524   5.436
 4881SOL    HW215543   3.057   6.646   5.425
 4882SOL     OW15544   6.127   6.413   6.241
 4882SOL    HW115545   6.146   6.505   6.275
 4882SOL    HW215546   6.096   6.355   6.317
 4883SOL     OW15547   5.923   5.629   0.563
 4883SOL    HW115548   5.867   5.642   0.481
 4883SOL    HW215549   6.012   5.672   0.551
 4884SOL     OW15550   4.160   6.669   2.641
 4884SOL    HW115551   4.093   6.694   2.571
 4884SOL    HW215552   4.139   6.578   2.676
 4885SOL     OW15553   0.350   6.943   1.965
 4885SOL    HW115554   0.418   7.013   1.988
 4885SOL    HW215555   0.377   6.855   2.004
 4886SOL     OW15556   6.289   1.035   5.800
 4886SOL    HW115557   6.257   0.972   5.729
 4886SOL    HW215558   6.308   0.984   5.884
 4887SOL     OW15559   7.021   2.597   5.321
 4887SOL    HW115560   0.087   2.584   5.289
 4887SOL    HW215561   6.978   2.508   5.336
 4888SOL     OW15562   4.652   6.028   1.310
 4888SOL    HW115563   4.708   6.089   1.366
 4888SOL    HW215564   4.680   6.037   1.214
 4889SOL     OW15565   1.174   2.938   6.161
 4889SOL    HW115566   1.263   2.895   6.144
 4889SOL    HW215567   1.102   2.881   6.121
 4890SOL     OW15568   5.654   0.206   3.987
 4890SOL    HW115569   5.752   0.208   4.003
 4890SOL    HW215570   5.606   0.210   4.075
 4891SOL     OW15571   0.310   4.349   0.836
 4891SOL    HW115572   0.285   4.273   0.777
 4891SOL    HW215573   0.381   4.404   0.792
 4892SOL     OW15574   2.205   5.061   1.568
 4892SOL    HW115575   2.286   5.103   1.527
 4892SOL    HW215576   2.217   4.962   1.571
 4893SOL     OW15577   0.065   4.341   6.645
 4893SOL    HW115578   0.036   4.334   6.550
 4893SOL    HW215579   0.001   4.398   6.696
 4894SOL     OW15580   0.606   0.068   3.528
 4894SOL    HW115581   0.553   0.131   3.470
 4894SOL    HW215582   0.559   7.008   3.533
 4895SOL     OW15583   6.780   3.548   6.718
 4895SOL    HW115584   6.863   3.553   6.661
 4895SOL    HW215585   6.749   3.641   6.739
 4896SOL     OW15586   4.413   1.499   5.866
 4896SOL    HW115587   4.343   1.503   5.937
 4896SOL    HW215588   4.373   1.461   5.782
 4897SOL     OW15589   3.186   5.939   6.954
 4897SOL    HW115590   3.155   5.987   0.009
 4897SOL    HW215591   3.156   5.990   6.873
 4898SOL     OW15592   4.875   2.855   4.628
 4898SOL    HW115593   4.917   2.931   4.578
 4898SOL    HW215594   4.860   2.882   4.724
 4899SOL     OW15595   0.585   3.021   4.426
 4899SOL    HW115596   0.564   2.930   4.392
 4899SOL    HW215597   0.544   3.090   4.366
 4900SOL     OW15598   6.954   6.611   6.291
 4900SOL    HW115599   6.973   6.513   6.293
 4900SOL    HW215600   6.867   6.629   6.338
 4901SOL     OW15601   6.623   6.908   3.733
 4901SOL    HW115602   6.563   6.963   3.676
 4901SOL    HW215603   6.712   6.953   3.742
 4902SOL     OW15604   2.852   5.942   0.504
 4902SOL    HW115605   2.769   5.975   0.548
 4902SOL    HW215606   2.872   5.849   0.535
 4903SOL     OW15607   6.745   4.442   0.085
 4903SOL    HW115608   6.825   4.484   0.041
 4903SOL    HW215609   6.732   4.350   0.048
 4904SOL     OW15610   2.892   0.779   3.595
 4904SOL    HW115611   2.857   0.754   3.505
 4904SOL    HW215612   2.816   0.779   3.661
 4905SOL     OW15613   5.576   4.204   3.506
 4905SOL    HW115614   5.652   4.148   3.536
 4905SOL    HW215615   5.554   4.272   3.576
 4906SOL     OW15616   6.065   0.157   1.832
 4906SOL    HW115617   6.029   0.242   1.871
 4906SOL    HW215618   6.086   0.093   1.906
 4907SOL     OW15619   3.189   2.991   1.366
 4907SOL    HW115620   3.203   3.054   1.442
 4907SOL    HW215621   3.198   3.040   1.279
 4908SOL     OW15622   4.938   4.985   6.413
 4908SOL    HW115623   4.954   4.928   6.333
 4908SOL    HW215624   4.956   5.081   6.390
 4909SOL     OW15625   6.251   6.743   5.451
 4909SOL    HW115626   6.329   6.708   5.399
 4909SOL    HW215627   6.170   6.746   5.392
 4910SOL     OW15628   5.393   6.738   5.174
 4910SOL    HW115629   5.314   6.679   5.157
 4910SOL    HW215630   5.364   6.818   5.227
 4911SOL     OW15631   0.150   3.681   6.434
 4911SOL    HW115632   0.240   3.641   6.418
 4911SOL    HW215633   0.082   3.635   6.377
 4912SOL     OW15634   1.721   2.923   1.629
 4912SOL    HW115635   1.681   2.972   1.552
 4912SOL    HW215636   1.667   2.941   1.711
 4913SOL     OW15637   3.091   3.922   2.188
 4913SOL    HW115638   3.040   3.853   2.239
 4913SOL    HW215639   3.152   3.971   2.250
 4914SOL     OW15640   1.145   0.012   2.774
 4914SOL    HW115641   1.148   7.003   2.681
 4914SOL    HW215642   1.229   7.014   2.822
 4915SOL     OW15643   4.518   6.468   4.523
 4915SOL    HW115644   4.552   6.374   4.515
 4915SOL    HW215645   4.576   6.520   4.585
 4916SOL     OW15646   1.894   1.360   1.829
 4916SOL    HW115647   1.797   1.377   1.810
 4916SOL    HW215648   1.949   1.431   1.783
 4917SOL     OW15649   0.592   5.738   6.707
 4917SOL    HW115650   0.513   5.680   6.724
 4917SOL    HW215651   0.578   5.789   6.622
 4918SOL     OW15652   3.186   6.348   3.734
 4918SOL    HW115653   3.205   6.251   3.750
 4918SOL    HW215654   3.268   6.394   3.701
 4919SOL     OW15655   2.473   2.479   1.505
 4919SOL    HW115656   2.541   2.549   1.485
 4919SOL    HW215657   2.431   2.447   1.420
 4920SOL     OW15658   4.623   2.334   6.468
 4920SOL    HW115659   4.538   2.288   6.441
 4920SOL    HW215660   4.607   2.385   6.552
 4921SOL     OW15661   6.811   4.765   1.605
 4921SOL    HW115662   6.806   4.864   1.594
 4921SOL    HW215663   6.850   4.743   1.694
 4922SOL     OW15664   1.659   3.952   5.377
 4922SOL    HW115665   1.646   4.023   5.308
 4922SOL    HW215666   1.725   3.984   5.446
 4923SOL     OW15667   4.259   1.982   0.912
 4923SOL    HW115668   4.349   2.020   0.932
 4923SOL    HW215669   4.265   1.921   0.833
 4924SOL     OW15670   1.388   3.385   4.880
 4924SOL    HW115671   1.392   3.481   4.853
 4924SOL    HW215672   1.302   3.367   4.927
 4925SOL     OW15673   5.287   4.892   4.585
 4925SOL    HW115674   5.252   4.952   4.656
 4925SOL    HW215675   5.382   4.916   4.565
 4926SOL     OW15676   4.817   3.314   1.076
 4926SOL    HW115677   4.807   3.323   1.176
 4926SOL    HW215678   4.856   3.398   1.039
 4927SOL     OW15679   2.907   3.448   2.542
 4927SOL    HW115680   2.927   3.360   2.500
 4927SOL    HW215681   2.914   3.441   2.641
 4928SOL     OW15682   6.445   2.072   6.372
 4928SOL    HW115683   6.349   2.100   6.381
 4928SOL    HW215684   6.479   2.042   6.461
 4929SOL     OW15685   1.302   4.758   3.849
 4929SOL    HW115686   1.338   4.801   3.932
 4929SOL    HW215687   1.231   4.692   3.874
 4930SOL     OW15688   0.648   3.576   0.700
 4930SOL    HW115689   0.686   3.529   0.620
 4930SOL    HW215690   0.573   3.635   0.672
 4931SOL     OW15691   6.019   0.121   0.745
 4931SOL    HW115692   6.109   0.098   0.782
 4931SOL    HW215693   6.029   0.160   0.653
 4932SOL     OW15694   2.194   1.687   0.626
 4932SOL    HW115695   2.289   1.685   0.657
 4932SOL    HW215696   2.154   1.596   0.633
 4933SOL     OW15697   3.064   6.805   4.538
 4933SOL    HW115698   3.088   6.710   4.556
 4933SOL    HW215699   2.968   6.810   4.510
 4934SOL     OW15700   1.617   6.458   5.295
 4934SOL    HW115701   1.588   6.484   5.387
 4934SOL    HW215702   1.654   6.538   5.248
 4935SOL     OW15703   1.290   2.617   1.307
 4935SOL    HW115704   1.368   2.575   1.353
 4935SOL    HW215705   1.219   2.549   1.292
 4936SOL     OW15706   5.966   3.929   1.148
 4936SOL    HW115707   5.994   3.833   1.144
 4936SOL    HW215708   6.046   3.985   1.171
 4937SOL     OW15709   1.144   3.843   5.234
 4937SOL    HW115710   1.087   3.762   5.249
 4937SOL    HW215711   1.208   3.853   5.310
 4938SOL     OW15712   2.925   3.762   0.857
 4938SOL    HW115713   2.982   3.681   0.872
 4938SOL    HW215714   2.830   3.740   0.880
 4939SOL     OW15715   0.700   1.348   1.703
 4939SOL    HW115716   0.791   1.372   1.669
 4939SOL    HW215717   0.632   1.377   1.636
 4940SOL     OW15718   1.960   1.911   4.687
 4940SOL    HW115719   2.060   1.911   4.700
 4940SOL    HW215720   1.918   1.971   4.756
 4941SOL     OW15721   3.559   2.158   5.960
 4941SOL    HW115722   3.595   2.124   6.047
 4941SOL    HW215723   3.625   2.138   5.887
 4942SOL     OW15724   0.333   0.371   2.621
 4942SOL    HW115725   0.420   0.396   2.577
 4942SOL    HW215726   0.297   0.450   2.671
 4943SOL     OW15727   5.573   1.966   6.809
 4943SOL    HW115728   5.672   1.969   6.791
 4943SOL    HW215729   5.530   1.901   6.746
 4944SOL     OW15730   1.073   5.020   6.890
 4944SOL    HW115731   1.065   5.042   6.987
 4944SOL    HW215732   1.170   5.013   6.865
 4945SOL     OW15733   2.676   0.628   6.821
 4945SOL    HW115734   2.734   0.658   6.896
 4945SOL    HW215735   2.703   0.536   6.792
 4946SOL     OW15736   1.967   6.318   6.912
 4946SOL    HW115737   1.884   6.266   6.891
 4946SOL    HW215738   1.952   6.374   6.994
 4947SOL     OW15739   1.165   7.005   1.144
 4947SOL    HW115740   1.260   7.015   1.174
 4947SOL    HW215741   1.163   6.994   1.045
 4948SOL     OW15742   1.665   3.746   2.140
 4948SOL    HW115743   1.733   3.819   2.147
 4948SOL    HW215744   1.702   3.662   2.181
 4949SOL     OW15745   6.653   5.349   7.017
 4949SOL    HW115746   6.587   5.415   0.025
 4949SOL    HW215747   6.734   5.348   0.048
 4950SOL     OW15748   3.665   3.365   5.812
 4950SOL    HW115749   3.626   3.442   5.862
 4950SOL    HW215750   3.666   3.385   5.714
 4951SOL     OW15751   4.840   5.310   4.024
 4951SOL    HW115752   4.923   5.265   3.993
 4951SOL    HW215753   4.796   5.255   4.095
 4952SOL     OW15754   0.720   1.344   6.650
 4952SOL    HW115755   0.804   1.292   6.666
 4952SOL    HW215756   0.708   1.356   6.551
 4953SOL     OW15757   1.699   1.550   5.259
 4953SOL    HW115758   1.699   1.452   5.239
 4953SOL    HW215759   1.765   1.570   5.331
 4954SOL     OW15760   3.254   4.022   5.740
 4954SOL    HW115761   3.346   4.061   5.744
 4954SOL    HW215762   3.195   4.080   5.684
 4955SOL     OW15763   3.774   5.964   0.528
 4955SOL    HW115764   3.764   5.952   0.429
 4955SOL    HW215765   3.778   5.875   0.573
 4956SOL     OW15766   2.468   6.552   3.527
 4956SOL    HW115767   2.400   6.485   3.558
 4956SOL    HW215768   2.422   6.638   3.504
 4957SOL     OW15769   5.957   5.816   0.865
 4957SOL    HW115770   5.944   5.717   0.864
 4957SOL    HW215771   6.054   5.837   0.878
 4958SOL     OW15772   3.080   5.708   1.002
 4958SOL    HW115773   3.092   5.751   0.913
 4958SOL    HW215774   2.985   5.680   1.014
 4959SOL     OW15775   2.159   0.860   2.208
 4959SOL    HW115776   2.157   0.844   2.306
 4959SOL    HW215777   2.224   0.933   2.187
 4960SOL     OW15778   5.131   3.816   4.980
 4960SOL    HW115779   5.034   3.806   4.958
 4960SOL    HW215780   5.144   3.896   5.038
 4961SOL     OW15781   3.806   3.379   2.380
 4961SOL    HW115782   3.806   3.450   2.450
 4961SOL    HW215783   3.878   3.313   2.400
 4962SOL     OW15784   1.481   2.546   0.980
 4962SOL    HW115785   1.576   2.576   0.989
 4962SOL    HW215786   1.421   2.609   1.029
 4963SOL     OW15787   0.621   3.702   6.403
 4963SOL    HW115788   0.591   3.732   6.313
 4963SOL    HW215789   0.547   3.650   6.448
 4964SOL     OW15790   1.238   5.073   3.121
 4964SOL    HW115791   1.271   5.145   3.059
 4964SOL    HW215792   1.239   4.985   3.074
 4965SOL     OW15793   2.274   6.622   2.800
 4965SOL    HW115794   2.334   6.631   2.721
 4965SOL    HW215795   2.328   6.607   2.882
 4966SOL     OW15796   3.944   0.073   5.491
 4966SOL    HW115797   3.929   7.011   5.451
 4966SOL    HW215798   3.878   0.138   5.452
 4967SOL     OW15799   4.439   4.886   3.053
 4967SOL    HW115800   4.372   4.816   3.075
 4967SOL    HW215801   4.401   4.947   2.983
 4968SOL     OW15802   6.720   2.604   3.204
 4968SOL    HW115803   6.778   2.686   3.207
 4968SOL    HW215804   6.777   2.523   3.194
 4969SOL     OW15805   1.560   5.987   3.500
 4969SOL    HW115806   1.481   6.037   3.535
 4969SOL    HW215807   1.595   5.926   3.571
 4970SOL     OW15808   2.861   1.014   0.379
 4970SOL    HW115809   2.894   1.004   0.473
 4970SOL    HW215810   2.828   0.926   0.345
 4971SOL     OW15811   0.808   6.055   2.230
 4971SOL    HW115812   0.765   5.966   2.215
 4971SOL    HW215813   0.885   6.066   2.166
 4972SOL     OW15814   7.015   3.552   1.095
 4972SOL    HW115815   0.022   3.533   1.004
 4972SOL    HW215816   6.980   3.468   1.137
 4973SOL     OW15817   5.807   2.599   0.205
 4973SOL    HW115818   5.881   2.549   0.161
 4973SOL    HW215819   5.775   2.672   0.145
 4974SOL     OW15820   2.991   0.684   5.298
 4974SOL    HW115821   2.936   0.620   5.244
 4974SOL    HW215822   3.048   0.738   5.236
 4975SOL     OW15823   6.173   4.381   0.926
 4975SOL    HW115824   6.270   4.404   0.926
 4975SOL    HW215825   6.121   4.458   0.964
 4976SOL     OW15826   2.005   0.222   3.710
 4976SOL    HW115827   1.981   0.316   3.685
 4976SOL    HW215828   2.092   0.222   3.760
 4977SOL     OW15829   1.327   3.337   4.358
 4977SOL    HW115830   1.247   3.382   4.318
 4977SOL    HW215831   1.401   3.404   4.368
 4978SOL     OW15832   6.741   5.276   4.624
 4978SOL    HW115833   6.795   5.332   4.687
 4978SOL    HW215834   6.645   5.278   4.652
 4979SOL     OW15835   3.426   0.041   5.663
 4979SOL    HW115836   3.398   0.119   5.719
 4979SOL    HW215837   3.398   6.984   5.709
 4980SOL     OW15838   5.791   2.663   4.367
 4980SOL    HW115839   5.724   2.703   4.304
 4980SOL    HW215840   5.829   2.580   4.326
 4981SOL     OW15841   2.915   6.920   2.126
 4981SOL    HW115842   2.882   6.829   2.103
 4981SOL    HW215843   2.937   6.970   2.042
 4982SOL     OW15844   3.631   2.117   5.028
 4982SOL    HW115845   3.679   2.187   4.976
 4982SOL    HW215846   3.668   2.112   5.121
 4983SOL     OW15847   4.967   3.705   2.913
 4983SOL    HW115848   4.957   3.675   3.008
 4983SOL    HW215849   4.914   3.789   2.899
 4984SOL     OW15850   5.033   3.341   5.215
 4984SOL    HW115851   5.011   3.400   5.138
 4984SOL    HW215852   4.991   3.378   5.298
 4985SOL     OW15853   4.779   0.661   2.284
 4985SOL    HW115854   4.863   0.664   2.230
 4985SOL    HW215855   4.714   0.597   2.243
 4986SOL     OW15856   1.488   6.054   1.014
 4986SOL    HW115857   1.423   6.110   0.962
 4986SOL    HW215858   1.472   5.957   0.994
 4987SOL     OW15859   2.122   3.814   2.303
 4987SOL    HW115860   2.153   3.755   2.229
 4987SOL    HW215861   2.125   3.909   2.273
 4988SOL     OW15862   6.944   4.536   3.630
 4988SOL    HW115863   6.944   4.442   3.596
 4988SOL    HW215864   0.010   4.571   3.629
 4989SOL     OW15865   0.163   0.683   4.451
 4989SOL    HW115866   0.160   0.628   4.534
 4989SOL    HW215867   0.248   0.736   4.448
 4990SOL     OW15868   4.035   1.752   5.977
 4990SOL    HW115869   4.090   1.676   6.013
 4990SOL    HW215870   3.954   1.716   5.932
 4991SOL     OW15871   2.107   5.510   4.783
 4991SOL    HW115872   2.034   5.563   4.826
 4991SOL    HW215873   2.105   5.416   4.818
 4992SOL     OW15874   2.912   2.654   5.365
 4992SOL    HW115875   2.814   2.639   5.354
 4992SOL    HW215876   2.928   2.746   5.402
 4993SOL     OW15877   2.296   5.447   4.092
 4993SOL    HW115878   2.304   5.359   4.140
 4993SOL    HW215879   2.374   5.504   4.115
 4994SOL     OW15880   3.719   4.975   5.702
 4994SOL    HW115881   3.776   4.903   5.661
 4994SOL    HW215882   3.653   5.008   5.634
 4995SOL     OW15883   0.915   2.178   6.584
 4995SOL    HW115884   0.888   2.086   6.611
 4995SOL    HW215885   0.833   2.234   6.571
 4996SOL     OW15886   0.210   1.457   4.683
 4996SOL    HW115887   0.200   1.506   4.597
 4996SOL    HW215888   0.261   1.513   4.748
 4997SOL     OW15889   3.640   2.110   0.994
 4997SOL    HW115890   3.645   2.095   1.092
 4997SOL    HW215891   3.589   2.035   0.951
 4998SOL     OW15892   0.700   4.403   3.481
 4998SOL    HW115893   0.763   4.475   3.508
 4998SOL    HW215894   0.610   4.422   3.520
 4999SOL     OW15895   0.359   2.871   2.569
 4999SOL    HW115896   0.399   2.942   2.511
 4999SOL    HW215897   0.355   2.904   2.663
 5000SOL     OW15898   1.982   6.218   2.571
 5000SOL    HW115899   1.972   6.229   2.472
 5000SOL    HW215900   2.016   6.304   2.611
 5001SOL     OW15901   0.706   6.286   3.297
 5001SOL    HW115902   0.756   6.344   3.233
 5001SOL    HW215903   0.617   6.262   3.258
 5002SOL     OW15904   1.151   5.345   3.422
 5002SOL    HW115905   1.109   5.261   3.458
 5002SOL    HW215906   1.107   5.425   3.463
 5003SOL     OW15907   3.984   1.681   1.508
 5003SOL    HW115908   3.963   1.775   1.481
 5003SOL    HW215909   3.965   1.619   1.433
 5004SOL     OW15910   3.815   5.692   0.631
 5004SOL    HW115911   3.876   5.687   0.552
 5004SOL    HW215912   3.867   5.722   0.711
 5005SOL     OW15913   4.631   2.855   1.090
 5005SOL    HW115914   4.704   2.924   1.084
 5005SOL    HW215915   4.638   2.807   1.177
 5006SOL     OW15916   4.662   1.121   2.315
 5006SOL    HW115917   4.571   1.161   2.307
 5006SOL    HW215918   4.692   1.126   2.410
 5007SOL     OW15919   6.933   5.521   2.855
 5007SOL    HW115920   6.957   5.427   2.830
 5007SOL    HW215921   6.996   5.554   2.925
 5008SOL     OW15922   4.328   0.131   3.888
 5008SOL    HW115923   4.293   0.140   3.794
 5008SOL    HW215924   4.258   0.160   3.952
 5009SOL     OW15925   1.296   2.217   5.774
 5009SOL    HW115926   1.391   2.248   5.768
 5009SOL    HW215927   1.253   2.255   5.856
 5010SOL     OW15928   5.093   4.658   0.843
 5010SOL    HW115929   5.180   4.664   0.891
 5010SOL    HW215930   5.101   4.593   0.767
 5011SOL     OW15931   1.793   2.202   5.283
 5011SOL    HW115932   1.830   2.291   5.258
 5011SOL    HW215933   1.698   2.195   5.251
 5012SOL     OW15934   5.656   2.609   5.418
 5012SOL    HW115935   5.755   2.601   5.408
 5012SOL    HW215936   5.618   2.651   5.336
 5013SOL     OW15937   6.166   5.537   5.984
 5013SOL    HW115938   6.067   5.540   5.967
 5013SOL    HW215939   6.212   5.603   5.925
 5014SOL     OW15940   6.472   3.181   0.297
 5014SOL    HW115941   6.376   3.165   0.318
 5014SOL    HW215942   6.485   3.186   0.198
 5015SOL     OW15943   6.398   4.484   4.618
 5015SOL    HW115944   6.352   4.408   4.570
 5015SOL    HW215945   6.453   4.535   4.553
 5016SOL     OW15946   1.208   2.039   6.529
 5016SOL    HW115947   1.169   1.960   6.577
 5016SOL    HW215948   1.293   2.067   6.575
 5017SOL     OW15949   1.281   2.815   1.860
 5017SOL    HW115950   1.288   2.782   1.766
 5017SOL    HW215951   1.284   2.738   1.923
 5018SOL     OW15952   0.266   0.585   0.785
 5018SOL    HW115953   0.226   0.662   0.735
 5018SOL    HW215954   0.355   0.562   0.745
 5019SOL     OW15955   1.875   4.264   4.257
 5019SOL    HW115956   1.884   4.340   4.192
 5019SOL    HW215957   1.866   4.300   4.350
 5020SOL     OW15958   1.606   0.045   2.519
 5020SOL    HW115959   1.516   0.005   2.501
 5020SOL    HW215960   1.669   7.002   2.549
 5021SOL     OW15961   2.642   0.652   0.565
 5021SOL    HW115962   2.711   0.649   0.636
 5021SOL    HW215963   2.685   0.677   0.478
 5022SOL     OW15964   6.881   3.380   1.374
 5022SOL    HW115965   6.867   3.473   1.407
 5022SOL    HW215966   6.823   3.363   1.295
 5023SOL     OW15967   0.778   2.291   3.885
 5023SOL    HW115968   0.825   2.338   3.811
 5023SOL    HW215969   0.832   2.298   3.969
 5024SOL     OW15970   4.491   4.165   0.317
 5024SOL    HW115971   4.531   4.225   0.386
 5024SOL    HW215972   4.413   4.211   0.274
 5025SOL     OW15973   4.581   1.896   4.244
 5025SOL    HW115974   4.565   1.805   4.207
 5025SOL    HW215975   4.556   1.965   4.176
 5026SOL     OW15976   5.233   5.697   4.992
 5026SOL    HW115977   5.234   5.791   4.956
 5026SOL    HW215978   5.326   5.659   4.989
 5027SOL     OW15979   5.465   6.118   1.231
 5027SOL    HW115980   5.388   6.181   1.218
 5027SOL    HW215981   5.526   6.154   1.302
 5028SOL     OW15982   0.412   2.366   2.565
 5028SOL    HW115983   0.319   2.354   2.598
 5028SOL    HW215984   0.411   2.413   2.477
 5029SOL     OW15985   6.201   2.948   3.127
 5029SOL    HW115986   6.221   3.034   3.174
 5029SOL    HW215987   6.227   2.955   3.031
 5030SOL     OW15988   0.958   3.280   0.760
 5030SOL    HW115989   0.926   3.187   0.774
 5030SOL    HW215990   0.884   3.344   0.779
 5031SOL     OW15991   5.948   0.805   6.687
 5031SOL    HW115992   5.960   0.793   6.588
 5031SOL    HW215993   5.853   0.828   6.706
 5032SOL     OW15994   2.174   4.345   6.191
 5032SOL    HW115995   2.153   4.442   6.196
 5032SOL    HW215996   2.244   4.329   6.121
 5033SOL     OW15997   1.975   6.981   3.593
 5033SOL    HW115998   2.013   0.041   3.620
 5033SOL    HW215999   1.995   6.912   3.662
 5034SOL     OW16000   4.263   6.280   3.521
 5034SOL    HW116001   4.242   6.374   3.546
 5034SOL    HW216002   4.334   6.279   3.450
 5035SOL     OW16003   1.961   5.113   4.025
 5035SOL    HW116004   1.976   5.034   4.083
 5035SOL    HW216005   1.866   5.117   3.996
 5036SOL     OW16006   1.396   2.509   4.886
 5036SOL    HW116007   1.339   2.460   4.820
 5036SOL    HW216008   1.492   2.498   4.862
 5037SOL     OW16009   5.041   4.512   1.745
 5037SOL    HW116010   5.016   4.498   1.841
 5037SOL    HW216011   5.113   4.447   1.720
 5038SOL     OW16012   2.914   3.788   4.660
 5038SOL    HW116013   2.888   3.764   4.567
 5038SOL    HW216014   2.962   3.711   4.702
 5039SOL     OW16015   0.548   2.773   6.462
 5039SOL    HW116016   0.530   2.869   6.441
 5039SOL    HW216017   0.490   2.715   6.404
 5040SOL     OW16018   1.265   1.232   5.219
 5040SOL    HW116019   1.340   1.245   5.154
 5040SOL    HW216020   1.283   1.286   5.301
 5041SOL     OW16021   6.486   2.562   1.572
 5041SOL    HW116022   6.405   2.576   1.627
 5041SOL    HW216023   6.526   2.473   1.594
 5042SOL     OW16024   1.092   1.810   5.268
 5042SOL    HW116025   1.164   1.879   5.256
 5042SOL    HW216026   1.007   1.854   5.295
 5043SOL     OW16027   2.184   0.220   0.534
 5043SOL    HW116028   2.256   0.206   0.466
 5043SOL    HW216029   2.208   0.297   0.593
 5044SOL     OW16030   0.139   6.150   1.454
 5044SOL    HW116031   0.224   6.104   1.429
 5044SOL    HW216032   0.061   6.095   1.426
 5045SOL     OW16033   6.074   2.560   2.924
 5045SOL    HW116034   6.112   2.652   2.923
 5045SOL    HW216035   5.975   2.564   2.915
 5046SOL     OW16036   4.370   3.170   1.764
 5046SOL    HW116037   4.377   3.250   1.704
 5046SOL    HW216038   4.461   3.143   1.796
 5047SOL     OW16039   2.667   5.642   3.286
 5047SOL    HW116040   2.636   5.572   3.350
 5047SOL    HW216041   2.728   5.602   3.219
 5048SOL     OW16042   1.255   0.082   5.863
 5048SOL    HW116043   1.164   0.058   5.828
 5048SOL    HW216044   1.318   0.006   5.846
 5049SOL     OW16045   3.954   2.182   6.570
 5049SOL    HW116046   3.879   2.247   6.576
 5049SOL    HW216047   3.928   2.105   6.510
 5050SOL     OW16048   0.989   0.468   0.818
 5050SOL    HW116049   0.967   0.560   0.852
 5050SOL    HW216050   0.930   0.446   0.740
 5051SOL     OW16051   4.348   4.070   1.079
 5051SOL    HW116052   4.443   4.065   1.111
 5051SOL    HW216053   4.317   4.164   1.081
 5052SOL     OW16054   1.841   4.434   4.499
 5052SOL    HW116055   1.758   4.395   4.540
 5052SOL    HW216056   1.893   4.484   4.569
 5053SOL     OW16057   7.002   0.616   0.535
 5053SOL    HW116058   0.054   0.563   0.510
 5053SOL    HW216059   6.946   0.631   0.453
 5054SOL     OW16060   4.346   5.798   3.203
 5054SOL    HW116061   4.253   5.793   3.166
 5054SOL    HW216062   4.374   5.707   3.234
 5055SOL     OW16063   5.951   4.327   5.535
 5055SOL    HW116064   6.011   4.394   5.579
 5055SOL    HW216065   5.879   4.300   5.599
 5056SOL     OW16066   6.524   5.131   3.061
 5056SOL    HW116067   6.438   5.138   3.010
 5056SOL    HW216068   6.508   5.154   3.156
 5057SOL     OW16069   6.500   6.159   2.930
 5057SOL    HW116070   6.538   6.149   3.022
 5057SOL    HW216071   6.501   6.256   2.903
 5058SOL     OW16072   2.639   6.075   5.491
 5058SOL    HW116073   2.586   6.144   5.441
 5058SOL    HW216074   2.668   6.112   5.579
 5059SOL     OW16075   6.456   6.411   2.605
 5059SOL    HW116076   6.375   6.466   2.588
 5059SOL    HW216077   6.503   6.392   2.519
 5060SOL     OW16078   6.995   2.926   0.221
 5060SOL    HW116079   6.961   2.943   0.129
 5060SOL    HW216080   6.924   2.880   0.275
 5061SOL     OW16081   5.350   3.897   0.600
 5061SOL    HW116082   5.427   3.945   0.558
 5061SOL    HW216083   5.313   3.831   0.535
 5062SOL     OW16084   6.570   0.216   6.942
 5062SOL    HW116085   6.588   0.142   6.877
 5062SOL    HW216086   6.613   0.301   6.909
 5063SOL     OW16087   1.499   6.575   2.146
 5063SOL    HW116088   1.428   6.635   2.184
 5063SOL    HW216089   1.526   6.507   2.214
 5064SOL     OW16090   4.709   4.504   6.461
 5064SOL    HW116091   4.697   4.486   6.364
 5064SOL    HW216092   4.652   4.581   6.488
 5065SOL     OW16093   1.867   6.874   5.724
 5065SOL    HW116094   1.783   6.835   5.762
 5065SOL    HW216095   1.859   6.881   5.625
 5066SOL     OW16096   4.744   4.552   0.202
 5066SOL    HW116097   4.715   4.504   0.120
 5066SOL    HW216098   4.757   4.487   0.277
 5067SOL     OW16099   5.386   1.018   6.290
 5067SOL    HW116100   5.398   1.024   6.389
 5067SOL    HW216101   5.472   1.039   6.244
 5068SOL     OW16102   3.603   5.234   1.992
 5068SOL    HW116103   3.679   5.294   1.967
 5068SOL    HW216104   3.601   5.156   1.929
 5069SOL     OW16105   6.749   5.216   2.902
 5069SOL    HW116106   6.693   5.200   2.983
 5069SOL    HW216107   6.733   5.143   2.835
 5070SOL     OW16108   5.083   2.658   4.102
 5070SOL    HW116109   5.089   2.640   4.004
 5070SOL    HW216110   5.026   2.589   4.145
 5071SOL     OW16111   5.145   1.326   1.836
 5071SOL    HW116112   5.227   1.335   1.780
 5071SOL    HW216113   5.160   1.369   1.925
 5072SOL     OW16114   0.626   4.185   2.508
 5072SOL    HW116115   0.527   4.200   2.511
 5072SOL    HW216116   0.672   4.270   2.483
 5073SOL     OW16117   4.394   2.471   3.683
 5073SOL    HW116118   4.408   2.562   3.646
 5073SOL    HW216119   4.481   2.435   3.718
 5074SOL     OW16120   4.046   3.839   4.952
 5074SOL    HW116121   4.014   3.747   4.933
 5074SOL    HW216122   4.099   3.873   4.874
 5075SOL     OW16123   6.092   0.227   4.908
 5075SOL    HW116124   6.025   0.211   4.836
 5075SOL    HW216125   6.114   0.324   4.912
 5076SOL     OW16126   5.346   0.329   0.181
 5076SOL    HW116127   5.393   0.413   0.209
 5076SOL    HW216128   5.251   0.333   0.209
 5077SOL     OW16129   6.990   0.954   2.831
 5077SOL    HW116130   6.890   0.963   2.837
 5077SOL    HW216131   0.004   0.984   2.916
 5078SOL     OW16132   0.148   2.044   4.441
 5078SOL    HW116133   0.164   2.050   4.342
 5078SOL    HW216134   0.205   1.970   4.479
 5079SOL     OW16135   5.067   5.328   4.338
 5079SOL    HW116136   4.978   5.283   4.349
 5079SOL    HW216137   5.057   5.426   4.356
 5080SOL     OW16138   5.015   0.091   5.964
 5080SOL    HW116139   5.045   0.135   6.049
 5080SOL    HW216140   4.982   7.027   5.985
 5081SOL     OW16141   3.068   3.478   3.048
 5081SOL    HW116142   3.167   3.472   3.037
 5081SOL    HW216143   3.035   3.399   3.100
 5082SOL     OW16144   1.130   2.279   5.255
 5082SOL    HW116145   1.191   2.284   5.334
 5082SOL    HW216146   1.036   2.265   5.286
 5083SOL     OW16147   1.201   3.458   2.093
 5083SOL    HW116148   1.161   3.462   2.184
 5083SOL    HW216149   1.273   3.527   2.084
 5084SOL     OW16150   1.448   5.534   2.260
 5084SOL    HW116151   1.541   5.520   2.294
 5084SOL    HW216152   1.388   5.461   2.293
 5085SOL     OW16153   6.606   1.965   0.824
 5085SOL    HW116154   6.524   1.916   0.852
 5085SOL    HW216155   6.580   2.054   0.786
 5086SOL     OW16156   6.841   4.570   4.434
 5086SOL    HW116157   6.844   4.657   4.384
 5086SOL    HW216158   6.885   4.499   4.379
 5087SOL     OW16159   5.850   5.932   6.408
 5087SOL    HW116160   5.816   5.971   6.493
 5087SOL    HW216161   5.916   5.859   6.428
 5088SOL     OW16162   5.470   1.546   6.215
 5088SOL    HW116163   5.395   1.612   6.225
 5088SOL    HW216164   5.455   1.492   6.132
 5089SOL     OW16165   5.096   2.905   4.202
 5089SOL    HW116166   5.187   2.945   4.189
 5089SOL    HW216167   5.101   2.806   4.186
 5090SOL     OW16168   0.681   5.247   0.036
 5090SOL    HW116169   0.653   5.195   6.982
 5090SOL    HW216170   0.604   5.302   0.067
 5091SOL     OW16171   0.576   5.777   4.258
 5091SOL    HW116172   0.601   5.813   4.168
 5091SOL    HW216173   0.531   5.689   4.247
 5092SOL     OW16174   3.681   3.724   0.502
 5092SOL    HW116175   3.777   3.729   0.530
 5092SOL    HW216176   3.653   3.628   0.499
 5093SOL     OW16177   0.636   0.770   2.570
 5093SOL    HW116178   0.701   0.808   2.505
 5093SOL    HW216179   0.544   0.803   2.548
 5094SOL     OW16180   0.787   0.715   6.360
 5094SOL    HW116181   0.721   0.763   6.418
 5094SOL    HW216182   0.745   0.697   6.271
 5095SOL     OW16183   3.113   6.545   4.624
 5095SOL    HW116184   3.187   6.584   4.680
 5095SOL    HW216185   3.152   6.479   4.560
 5096SOL     OW16186   3.267   5.839   1.639
 5096SOL    HW116187   3.198   5.842   1.711
 5096SOL    HW216188   3.358   5.844   1.681
 5097SOL     OW16189   0.893   2.187   6.927
 5097SOL    HW116190   0.866   2.276   6.890
 5097SOL    HW216191   0.978   2.196   6.978
 5098SOL     OW16192   1.646   3.243   3.094
 5098SOL    HW116193   1.738   3.258   3.130
 5098SOL    HW216194   1.650   3.181   3.016
 5099SOL     OW16195   0.742   1.499   4.305
 5099SOL    HW116196   0.749   1.556   4.387
 5099SOL    HW216197   0.832   1.463   4.282
 5100SOL     OW16198   5.041   4.556   5.104
 5100SOL    HW116199   5.095   4.610   5.167
 5100SOL    HW216200   5.060   4.459   5.118
 5101SOL     OW16201   5.751   6.171   0.653
 5101SOL    HW116202   5.736   6.269   0.639
 5101SOL    HW216203   5.694   6.139   0.728
 5102SOL     OW16204   4.019   6.192   3.439
 5102SOL    HW116205   4.098   6.204   3.498
 5102SOL    HW216206   3.935   6.205   3.492
 5103SOL     OW16207   1.835   2.172   3.737
 5103SOL    HW116208   1.834   2.073   3.728
 5103SOL    HW216209   1.924   2.208   3.709
 5104SOL     OW16210   0.783   0.657   0.649
 5104SOL    HW116211   0.822   0.699   0.567
 5104SOL    HW216212   0.808   0.711   0.730
 5105SOL     OW16213   1.924   3.352   0.755
 5105SOL    HW116214   1.947   3.449   0.754
 5105SOL    HW216215   1.852   3.334   0.687
 5106SOL     OW16216   2.123   6.939   1.591
 5106SOL    HW116217   2.134   6.992   1.507
 5106SOL    HW216218   2.035   6.961   1.633
 5107SOL     OW16219   0.991   0.118   5.908
 5107SOL    HW116220   0.903   0.162   5.927
 5107SOL    HW216221   1.042   0.107   5.994
 5108SOL     OW16222   4.152   3.397   4.297
 5108SOL    HW116223   4.169   3.357   4.387
 5108SOL    HW216224   4.088   3.474   4.306
 5109SOL     OW16225   0.965   2.852   2.124
 5109SOL    HW116226   0.899   2.778   2.116
 5109SOL    HW216227   0.926   2.927   2.178
 5110SOL     OW16228   1.429   6.099   5.376
 5110SOL    HW116229   1.511   6.053   5.409
 5110SOL    HW216230   1.353   6.035   5.376
 5111SOL     OW16231   1.091   1.375   6.808
 5111SOL    HW116232   1.057   1.388   6.901
 5111SOL    HW216233   1.058   1.288   6.772
 5112SOL     OW16234   0.823   0.426   3.365
 5112SOL    HW116235   0.774   0.400   3.448
 5112SOL    HW216236   0.832   0.347   3.305
 5113SOL     OW16237   1.311   2.078   6.904
 5113SOL    HW116238   1.250   2.135   6.848
 5113SOL    HW216239   1.389   2.049   6.849
 5114SOL     OW16240   5.174   4.928   6.575
 5114SOL    HW116241   5.096   4.955   6.519
 5114SOL    HW216242   5.143   4.915   6.670
 5115SOL     OW16243   2.992   3.727   5.507
 5115SOL    HW116244   3.025   3.694   5.419
 5115SOL    HW216245   3.071   3.742   5.568
 5116SOL     OW16246   6.082   4.742   0.785
 5116SOL    HW116247   6.059   4.786   0.873
 5116SOL    HW216248   5.997   4.713   0.741
 5117SOL     OW16249   2.533   6.000   2.234
 5117SOL    HW116250   2.621   5.956   2.252
 5117SOL    HW216251   2.461   5.951   2.284
 5118SOL     OW16252   4.772   0.105   1.270
 5118SOL    HW116253   4.734   0.109   1.362
 5118SOL    HW216254   4.847   0.039   1.267
 5119SOL     OW16255   6.624   0.901   3.500
 5119SOL    HW116256   6.664   0.987   3.470
 5119SOL    HW216257   6.620   0.898   3.600
 5120SOL     OW16258   3.739   1.162   0.983
 5120SOL    HW116259   3.669   1.233   0.970
 5120SOL    HW216260   3.706   1.075   0.946
 5121SOL     OW16261   1.227   3.667   4.200
 5121SOL    HW116262   1.305   3.700   4.148
 5121SOL    HW216263   1.148   3.727   4.184
 5122SOL     OW16264   2.683   5.807   2.974
 5122SOL    HW116265   2.593   5.823   3.015
 5122SOL    HW216266   2.722   5.723   3.011
 5123SOL     OW16267   6.972   3.199   1.880
 5123SOL    HW116268   6.877   3.170   1.888
 5123SOL    HW216269   6.984   3.254   1.797
 5124SOL     OW16270   3.289   6.942   6.715
 5124SOL    HW116271   3.303   6.905   6.624
 5124SOL    HW216272   3.310   0.012   6.715
 5125SOL     OW16273   1.133   1.807   6.736
 5125SOL    HW116274   1.231   1.801   6.753
 5125SOL    HW216275   1.106   1.733   6.675
 5126SOL     OW16276   4.007   1.438   0.420
 5126SOL    HW116277   3.921   1.404   0.457
 5126SOL    HW216278   4.061   1.479   0.493
 5127SOL     OW16279   4.802   3.719   5.594
 5127SOL    HW116280   4.848   3.803   5.622
 5127SOL    HW216281   4.833   3.642   5.650
 5128SOL     OW16282   0.246   0.787   6.822
 5128SOL    HW116283   0.170   0.725   6.799
 5128SOL    HW216284   0.213   0.881   6.819
 5129SOL     OW16285   4.603   2.648   3.996
 5129SOL    HW116286   4.653   2.673   4.079
 5129SOL    HW216287   4.630   2.708   3.921
 5130SOL     OW16288   1.730   6.819   4.715
 5130SOL    HW116289   1.661   6.857   4.653
 5130SOL    HW216290   1.719   6.720   4.720
 5131SOL     OW16291   3.767   4.892   2.720
 5131SOL    HW116292   3.688   4.831   2.730
 5131SOL    HW216293   3.810   4.906   2.809
 5132SOL     OW16294   3.501   2.048   6.498
 5132SOL    HW116295   3.569   2.098   6.552
 5132SOL    HW216296   3.410   2.062   6.537
 5133SOL     OW16297   2.711   3.672   6.418
 5133SOL    HW116298   2.633   3.641   6.364
 5133SOL    HW216299   2.782   3.705   6.356
 5134SOL     OW16300   5.511   5.757   2.114
 5134SOL    HW116301   5.428   5.811   2.106
 5134SOL    HW216302   5.579   5.807   2.167
 5135SOL     OW16303   1.684   2.745   2.482
 5135SOL    HW116304   1.589   2.722   2.458
 5135SOL    HW216305   1.722   2.806   2.412
 5136SOL     OW16306   6.815   0.816   5.200
 5136SOL    HW116307   6.838   0.896   5.144
 5136SOL    HW216308   6.896   0.758   5.209
 5137SOL     OW16309   5.331   0.405   3.567
 5137SOL    HW116310   5.232   0.401   3.581
 5137SOL    HW216311   5.376   0.346   3.635
 5138SOL     OW16312   4.038   3.450   2.903
 5138SOL    HW116313   4.096   3.387   2.955
 5138SOL    HW216314   3.949   3.456   2.947
 5139SOL     OW16315   5.521   0.301   5.040
 5139SOL    HW116316   5.529   0.224   4.977
 5139SOL    HW216317   5.581   0.375   5.010
 5140SOL     OW16318   2.852   3.335   5.219
 5140SOL    HW116319   2.777   3.270   5.233
 5140SOL    HW216320   2.814   3.426   5.204
 5141SOL     OW16321   0.380   2.176   1.318
 5141SOL    HW116322   0.363   2.221   1.230
 5141SOL    HW216323   0.470   2.133   1.317
 5142SOL     OW16324   0.276   6.651   3.411
 5142SOL    HW116325   0.260   6.716   3.337
 5142SOL    HW216326   0.339   6.580   3.381
 5143SOL     OW16327   5.949   5.053   2.067
 5143SOL    HW116328   5.947   5.097   2.157
 5143SOL    HW216329   5.923   5.119   1.997
 5144SOL     OW16330   1.653   2.853   4.925
 5144SOL    HW116331   1.585   2.825   4.857
 5144SOL    HW216332   1.723   2.908   4.881
 5145SOL     OW16333   1.051   5.240   6.295
 5145SOL    HW116334   0.965   5.236   6.347
 5145SOL    HW216335   1.098   5.152   6.301
 5146SOL     OW16336   5.446   5.857   6.686
 5146SOL    HW116337   5.458   5.759   6.669
 5146SOL    HW216338   5.470   5.878   6.781
 5147SOL     OW16339   4.255   0.854   3.472
 5147SOL    HW116340   4.295   0.809   3.552
 5147SOL    HW216341   4.302   0.940   3.454
 5148SOL     OW16342   6.254   1.555   0.536
 5148SOL    HW116343   6.311   1.509   0.604
 5148SOL    HW216344   6.298   1.550   0.447
 5149SOL     OW16345   2.861   6.383   3.791
 5149SOL    HW116346   2.821   6.421   3.708
 5149SOL    HW216347   2.802   6.310   3.826
 5150SOL     OW16348   6.178   0.642   5.064
 5150SOL    HW116349   6.134   0.727   5.037
 5150SOL    HW216350   6.150   0.568   5.002
 5151SOL     OW16351   5.379   5.255   2.375
 5151SOL    HW116352   5.386   5.220   2.282
 5151SOL    HW216353   5.456   5.316   2.394
 5152SOL     OW16354   2.271   1.066   0.407
 5152SOL    HW116355   2.188   1.086   0.459
 5152SOL    HW216356   2.351   1.093   0.460
 5153SOL     OW16357   1.835   2.079   6.688
 5153SOL    HW116358   1.841   2.170   6.648
 5153SOL    HW216359   1.917   2.061   6.743
 5154SOL     OW16360   1.099   3.112   6.877
 5154SOL    HW116361   1.030   3.040   6.870
 5154SOL    HW216362   1.084   3.165   6.960
 5155SOL     OW16363   1.289   0.559   0.164
 5155SOL    HW116364   1.282   0.485   0.098
 5155SOL    HW216365   1.376   0.607   0.152
 5156SOL     OW16366   5.129   3.508   5.839
 5156SOL    HW116367   5.140   3.423   5.788
 5156SOL    HW216368   5.118   3.487   5.937
 5157SOL     OW16369   3.251   0.663   2.662
 5157SOL    HW116370   3.348   0.685   2.651
 5157SOL    HW216371   3.235   0.569   2.632
 5158SOL     OW16372   1.014   2.847   1.814
 5158SOL    HW116373   1.113   2.857   1.828
 5158SOL    HW216374   0.965   2.909   1.876
 5159SOL     OW16375   6.125   3.173   5.833
 5159SOL    HW116376   6.213   3.174   5.880
 5159SOL    HW216377   6.053   3.151   5.898
 5160SOL     OW16378   5.808   0.452   3.286
 5160SOL    HW116379   5.893   0.501   3.268
 5160SOL    HW216380   5.825   0.379   3.352
 5161SOL     OW16381   1.132   1.807   7.023
 5161SOL    HW116382   1.136   1.902   0.026
 5161SOL    HW216383   1.116   1.806   6.924
 5162SOL     OW16384   0.064   0.977   6.126
 5162SOL    HW116385   0.129   0.979   6.050
 5162SOL    HW216386   0.086   1.050   6.191
 5163SOL     OW16387   3.516   1.514   1.400
 5163SOL    HW116388   3.442   1.451   1.421
 5163SOL    HW216389   3.573   1.527   1.481
 5164SOL     OW16390   2.337   2.264   0.246
 5164SOL    HW116391   2.296   2.197   0.184
 5164SOL    HW216392   2.420   2.302   0.203
 5165SOL     OW16393   1.039   5.507   5.215
 5165SOL    HW116394   1.055   5.494   5.313
 5165SOL    HW216395   1.123   5.538   5.172
 5166SOL     OW16396   6.496   5.648   6.489
 5166SOL    HW116397   6.545   5.653   6.576
 5166SOL    HW216398   6.538   5.579   6.430
 5167SOL     OW16399   6.364   3.155   6.377
 5167SOL    HW116400   6.439   3.201   6.331
 5167SOL    HW216401   6.377   3.160   6.476
 5168SOL     OW16402   6.054   0.903   4.112
 5168SOL    HW116403   6.144   0.859   4.109
 5168SOL    HW216404   5.991   0.846   4.166
 5169SOL     OW16405   4.630   5.809   4.517
 5169SOL    HW116406   4.596   5.781   4.428
 5169SOL    HW216407   4.663   5.903   4.512
 5170SOL     OW16408   1.991   2.282   6.226
 5170SOL    HW116409   2.087   2.267   6.250
 5170SOL    HW216410   1.946   2.194   6.211
 5171SOL     OW16411   0.669   0.039   6.116
 5171SOL    HW116412   0.727   6.991   6.146
 5171SOL    HW216413   0.608   0.065   6.191
 5172SOL     OW16414   4.912   5.435   6.288
 5172SOL    HW116415   4.859   5.519   6.280
 5172SOL    HW216416   4.869   5.362   6.236
 5173SOL     OW16417   4.309   6.170   4.237
 5173SOL    HW116418   4.228   6.229   4.249
 5173SOL    HW216419   4.346   6.183   4.145
 5174SOL     OW16420   0.506   5.606   3.942
 5174SOL    HW116421   0.569   5.681   3.960
 5174SOL    HW216422   0.550   5.519   3.968
 5175SOL     OW16423   2.621   2.009   6.539
 5175SOL    HW116424   2.648   2.088   6.484
 5175SOL    HW216425   2.633   1.926   6.486
 5176SOL     OW16426   5.873   6.124   5.889
 5176SOL    HW116427   5.873   6.028   5.917
 5176SOL    HW216428   5.779   6.157   5.884
 5177SOL     OW16429   4.649   4.957   1.380
 5177SOL    HW116430   4.590   4.902   1.321
 5177SOL    HW216431   4.592   5.012   1.441
 5178SOL     OW16432   0.637   3.947   1.608
 5178SOL    HW116433   0.624   3.853   1.576
 5178SOL    HW216434   0.732   3.958   1.639
 5179SOL     OW16435   4.521   5.827   2.995
 5179SOL    HW116436   4.467   5.835   3.079
 5179SOL    HW216437   4.617   5.849   3.015
 5180SOL     OW16438   3.080   5.219   2.538
 5180SOL    HW116439   3.058   5.242   2.633
 5180SOL    HW216440   2.998   5.227   2.482
 5181SOL     OW16441   6.941   1.543   5.635
 5181SOL    HW116442   6.891   1.517   5.553
 5181SOL    HW216443   6.893   1.617   5.682
 5182SOL     OW16444   1.976   6.548   2.260
 5182SOL    HW116445   2.045   6.562   2.190
 5182SOL    HW216446   1.976   6.452   2.289
 5183SOL     OW16447   5.015   2.062   3.864
 5183SOL    HW116448   4.927   2.070   3.911
 5183SOL    HW216449   5.038   1.965   3.851
 5184SOL     OW16450   3.491   1.133   1.642
 5184SOL    HW116451   3.483   1.076   1.724
 5184SOL    HW216452   3.488   1.076   1.561
 5185SOL     OW16453   6.355   0.407   1.050
 5185SOL    HW116454   6.326   0.399   0.954
 5185SOL    HW216455   6.278   0.439   1.106
 5186SOL     OW16456   7.018   2.414   6.738
 5186SOL    HW116457   0.062   2.359   6.696
 5186SOL    HW216458   7.003   2.382   6.832
 5187SOL     OW16459   1.062   4.451   4.923
 5187SOL    HW116460   1.076   4.439   5.021
 5187SOL    HW216461   1.148   4.433   4.874
 5188SOL     OW16462   6.582   1.006   1.172
 5188SOL    HW116463   6.543   0.921   1.136
 5188SOL    HW216464   6.536   1.084   1.129
 5189SOL     OW16465   5.726   5.995   6.633
 5189SOL    HW116466   5.733   6.039   6.723
 5189SOL    HW216467   5.698   5.900   6.644
 5190SOL     OW16468   1.448   4.731   0.605
 5190SOL    HW116469   1.369   4.705   0.660
 5190SOL    HW216470   1.440   4.827   0.580
 5191SOL     OW16471   3.352   4.037   1.153
 5191SOL    HW116472   3.340   4.131   1.121
 5191SOL    HW216473   3.306   4.026   1.242
 5192SOL     OW16474   0.610   4.096   2.771
 5192SOL    HW116475   0.591   3.998   2.771
 5192SOL    HW216476   0.635   4.126   2.679
 5193SOL     OW16477   4.172   0.719   5.219
 5193SOL    HW116478   4.239   0.649   5.197
 5193SOL    HW216479   4.080   0.680   5.215
 5194SOL     OW16480   4.063   1.728   5.092
 5194SOL    HW116481   4.058   1.629   5.076
 5194SOL    HW216482   3.985   1.773   5.049
 5195SOL     OW16483   1.923   1.261   4.878
 5195SOL    HW116484   1.979   1.252   4.960
 5195SOL    HW216485   1.951   1.341   4.825
 5196SOL     OW16486   6.187   6.119   2.655
 5196SOL    HW116487   6.277   6.113   2.613
 5196SOL    HW216488   6.136   6.196   2.614
 5197SOL     OW16489   2.353   3.675   5.557
 5197SOL    HW116490   2.424   3.700   5.624
 5197SOL    HW216491   2.265   3.712   5.587
 5198SOL     OW16492   6.578   5.715   3.712
 5198SOL    HW116493   6.586   5.812   3.735
 5198SOL    HW216494   6.641   5.693   3.638
 5199SOL     OW16495   0.267   5.099   1.431
 5199SOL    HW116496   0.330   5.066   1.501
 5199SOL    HW216497   0.309   5.174   1.381
 5200SOL     OW16498   0.458   4.928   6.210
 5200SOL    HW116499   0.375   4.900   6.258
 5200SOL    HW216500   0.434   4.969   6.122
 5201SOL     OW16501   0.803   5.685   4.490
 5201SOL    HW116502   0.735   5.622   4.527
 5201SOL    HW216503   0.773   5.716   4.400
 5202SOL     OW16504   0.251   5.271   1.650
 5202SOL    HW116505   0.347   5.296   1.638
 5202SOL    HW216506   0.223   5.210   1.575
 5203SOL     OW16507   6.565   3.456   0.220
 5203SOL    HW116508   6.546   3.411   0.307
 5203SOL    HW216509   6.479   3.467   0.170
 5204SOL     OW16510   5.589   4.905   6.315
 5204SOL    HW116511   5.541   4.937   6.397
 5204SOL    HW216512   5.596   4.980   6.249
 5205SOL     OW16513   3.116   5.876   0.766
 5205SOL    HW116514   3.177   5.948   0.799
 5205SOL    HW216515   3.134   5.858   0.670
 5206SOL     OW16516   0.131   4.152   4.688
 5206SOL    HW116517   0.080   4.110   4.763
 5206SOL    HW216518   0.071   4.164   4.609
 5207SOL     OW16519   1.535   6.239   2.002
 5207SOL    HW116520   1.513   6.321   1.948
 5207SOL    HW216521   1.451   6.198   2.035
 5208SOL     OW16522   4.713   1.903   0.824
 5208SOL    HW116523   4.714   2.001   0.807
 5208SOL    HW216524   4.680   1.855   0.743
 5209SOL     OW16525   6.078   5.600   3.169
 5209SOL    HW116526   6.084   5.682   3.112
 5209SOL    HW216527   6.169   5.560   3.181
 5210SOL     OW16528   4.945   3.495   3.501
 5210SOL    HW116529   5.040   3.468   3.485
 5210SOL    HW216530   4.889   3.413   3.513
 5211SOL     OW16531   3.048   4.236   1.785
 5211SOL    HW116532   3.013   4.326   1.810
 5211SOL    HW216533   3.079   4.188   1.867
 5212SOL     OW16534   6.925   6.741   6.603
 5212SOL    HW116535   6.985   6.817   6.579
 5212SOL    HW216536   6.888   6.756   6.695
 5213SOL     OW16537   4.709   1.856   0.010
 5213SOL    HW116538   4.622   1.905   0.010
 5213SOL    HW216539   4.700   1.770   6.987
 5214SOL     OW16540   4.103   2.082   0.369
 5214SOL    HW116541   4.028   2.089   0.302
 5214SOL    HW216542   4.101   2.162   0.429
 5215SOL     OW16543   6.042   6.019   4.667
 5215SOL    HW116544   6.062   5.928   4.630
 5215SOL    HW216545   6.045   6.086   4.593
 5216SOL     OW16546   2.951   6.550   0.695
 5216SOL    HW116547   2.932   6.458   0.730
 5216SOL    HW216548   2.930   6.553   0.597
 5217SOL     OW16549   2.808   5.149   3.198
 5217SOL    HW116550   2.899   5.184   3.220
 5217SOL    HW216551   2.740   5.191   3.259
 5218SOL     OW16552   1.368   0.474   3.174
 5218SOL    HW116553   1.275   0.445   3.150
 5218SOL    HW216554   1.408   0.526   3.099
 5219SOL     OW16555   3.175   6.371   0.901
 5219SOL    HW116556   3.202   6.420   0.818
 5219SOL    HW216557   3.100   6.308   0.879
 5220SOL     OW16558   0.876   0.183   1.886
 5220SOL    HW116559   0.811   0.259   1.882
 5220SOL    HW216560   0.960   0.208   1.838
 5221SOL     OW16561   4.992   1.119   0.420
 5221SOL    HW116562   5.031   1.148   0.508
 5221SOL    HW216563   4.902   1.080   0.435
 5222SOL     OW16564   6.714   5.037   2.111
 5222SOL    HW116565   6.661   4.975   2.053
 5222SOL    HW216566   6.812   5.020   2.097
 5223SOL     OW16567   3.525   6.431   1.488
 5223SOL    HW116568   3.561   6.508   1.541
 5223SOL    HW216569   3.501   6.462   1.396
 5224SOL     OW16570   5.405   0.060   3.231
 5224SOL    HW116571   5.348   0.062   3.149
 5224SOL    HW216572   5.475   0.130   3.226
 5225SOL     OW16573   0.567   0.229   5.440
 5225SOL    HW116574   0.532   0.162   5.375
 5225SOL    HW216575   0.504   0.237   5.517
 5226SOL     OW16576   2.412   0.725   3.373
 5226SOL    HW116577   2.380   0.733   3.468
 5226SOL    HW216578   2.333   0.711   3.313
 5227SOL     OW16579   5.510   4.061   4.459
 5227SOL    HW116580   5.480   4.150   4.493
 5227SOL    HW216581   5.431   4.000   4.453
 5228SOL     OW16582   5.286   6.977   2.009
 5228SOL    HW116583   5.277   6.885   2.048
 5228SOL    HW216584   5.206   6.996   1.952
 5229SOL     OW16585   0.387   3.554   4.236
 5229SOL    HW116586   0.460   3.592   4.293
 5229SOL    HW216587   0.305   3.609   4.247
 5230SOL     OW16588   0.747   1.916   6.335
 5230SOL    HW116589   0.669   1.912   6.273
 5230SOL    HW216590   0.786   2.009   6.335
 5231SOL     OW16591   3.244   3.721   3.195
 5231SOL    HW116592   3.177   3.794   3.203
 5231SOL    HW216593   3.255   3.676   3.284
 5232SOL     OW16594   5.563   2.301   4.873
 5232SOL    HW116595   5.464   2.288   4.879
 5232SOL    HW216596   5.606   2.277   4.960
 5233SOL     OW16597   0.406   7.002   2.467
 5233SOL    HW116598   0.462   6.935   2.516
 5233SOL    HW216599   0.342   6.954   2.407
 5234SOL     OW16600   3.542   4.117   2.161
 5234SOL    HW116601   3.618   4.066   2.201
 5234SOL    HW216602   3.529   4.089   2.066
 5235SOL     OW16603   0.747   1.820   1.814
 5235SOL    HW116604   0.731   1.741   1.873
 5235SOL    HW216605   0.675   1.888   1.829
 5236SOL     OW16606   6.580   3.005   1.382
 5236SOL    HW116607   6.633   2.967   1.457
 5236SOL    HW216608   6.485   2.975   1.389
 5237SOL     OW16609   1.978   2.213   2.945
 5237SOL    HW116610   2.035   2.142   2.905
 5237SOL    HW216611   2.035   2.280   2.993
 5238SOL     OW16612   1.564   3.397   1.687
 5238SOL    HW116613   1.643   3.367   1.740
 5238SOL    HW216614   1.574   3.365   1.593
 5239SOL     OW16615   3.380   2.946   4.483
 5239SOL    HW116616   3.315   3.003   4.533
 5239SOL    HW216617   3.445   2.905   4.547
 5240SOL     OW16618   4.517   2.406   4.255
 5240SOL    HW116619   4.477   2.494   4.231
 5240SOL    HW216620   4.493   2.384   4.350
 5241SOL     OW16621   4.255   6.092   5.519
 5241SOL    HW116622   4.276   6.014   5.577
 5241SOL    HW216623   4.285   6.074   5.426
 5242SOL     OW16624   2.952   0.960   6.402
 5242SOL    HW116625   2.854   0.973   6.416
 5242SOL    HW216626   2.980   1.003   6.316
 5243SOL     OW16627   2.320   3.809   0.123
 5243SOL    HW116628   2.323   3.782   0.219
 5243SOL    HW216629   2.412   3.804   0.084
 5244SOL     OW16630   6.282   2.862   6.766
 5244SOL    HW116631   6.298   2.865   6.865
 5244SOL    HW216632   6.355   2.911   6.719
 5245SOL     OW16633   3.559   5.046   6.392
 5245SOL    HW116634   3.522   5.113   6.457
 5245SOL    HW216635   3.490   4.975   6.375
 5246SOL     OW16636   1.561   3.849   3.564
 5246SOL    HW116637   1.478   3.850   3.508
 5246SOL    HW216638   1.570   3.759   3.608
 5247SOL     OW16639   0.846   4.098   6.611
 5247SOL    HW116640   0.945   4.080   6.608
 5247SOL    HW216641   0.821   4.136   6.700
 5248SOL     OW16642   5.116   2.339   0.291
 5248SOL    HW116643   5.072   2.351   0.202
 5248SOL    HW216644   5.140   2.243   0.304
 5249SOL     OW16645   1.021   5.571   6.931
 5249SOL    HW116646   0.945   5.636   6.933
 5249SOL    HW216647   1.076   5.587   6.849
 5250SOL     OW16648   2.419   1.712   4.873
 5250SOL    HW116649   2.490   1.759   4.820
 5250SOL    HW216650   2.374   1.779   4.933
 5251SOL     OW16651   1.253   2.738   2.585
 5251SOL    HW116652   1.159   2.767   2.566
 5251SOL    HW216653   1.305   2.733   2.499
 5252SOL     OW16654   5.527   5.585   1.553
 5252SOL    HW116655   5.602   5.533   1.511
 5252SOL    HW216656   5.443   5.568   1.502
 5253SOL     OW16657   5.745   3.253   4.493
 5253SOL    HW116658   5.750   3.336   4.549
 5253SOL    HW216659   5.819   3.253   4.425
 5254SOL     OW16660   5.064   0.051   4.719
 5254SOL    HW116661   5.131   0.116   4.682
 5254SOL    HW216662   5.064   6.996   4.663
 5255SOL     OW16663   2.004   4.943   2.031
 5255SOL    HW116664   1.954   4.862   2.000
 5255SOL    HW216665   1.942   5.021   2.033
 5256SOL     OW16666   4.377   5.861   1.898
 5256SOL    HW116667   4.423   5.784   1.943
 5256SOL    HW216668   4.401   5.946   1.945
 5257SOL     OW16669   2.028   1.129   1.818
 5257SOL    HW116670   1.976   1.214   1.825
 5257SOL    HW216671   1.978   1.064   1.761
 5258SOL     OW16672   5.028   2.165   1.247
 5258SOL    HW116673   4.996   2.259   1.252
 5258SOL    HW216674   5.112   2.161   1.192
 5259SOL     OW16675   5.106   4.935   0.767
 5259SOL    HW116676   5.106   4.843   0.805
 5259SOL    HW216677   5.145   4.999   0.833
 5260SOL     OW16678   5.576   3.251   2.126
 5260SOL    HW116679   5.560   3.320   2.196
 5260SOL    HW216680   5.638   3.288   2.056
 5261SOL     OW16681   2.369   2.792   4.663
 5261SOL    HW116682   2.400   2.698   4.683
 5261SOL    HW216683   2.379   2.811   4.566
 5262SOL     OW16684   0.989   0.559   2.151
 5262SOL    HW116685   1.001   0.609   2.065
 5262SOL    HW216686   1.051   0.597   2.220
 5263SOL     OW16687   1.337   6.463   6.441
 5263SOL    HW116688   1.248   6.479   6.483
 5263SOL    HW216689   1.371   6.373   6.469
 5264SOL     OW16690   1.378   1.237   0.804
 5264SOL    HW116691   1.461   1.186   0.782
 5264SOL    HW216692   1.351   1.292   0.726
 5265SOL     OW16693   4.616   5.527   4.072
 5265SOL    HW116694   4.704   5.489   4.043
 5265SOL    HW216695   4.543   5.465   4.047
 5266SOL     OW16696   0.545   6.670   0.924
 5266SOL    HW116697   0.485   6.638   0.850
 5266SOL    HW216698   0.490   6.715   0.994
 5267SOL     OW16699   3.371   3.867   4.342
 5267SOL    HW116700   3.423   3.782   4.335
 5267SOL    HW216701   3.278   3.847   4.372
 5268SOL     OW16702   6.004   4.230   6.661
 5268SOL    HW116703   5.948   4.229   6.578
 5268SOL    HW216704   5.998   4.320   6.703
 5269SOL     OW16705   2.674   5.391   5.402
 5269SOL    HW116706   2.633   5.343   5.479
 5269SOL    HW216707   2.721   5.326   5.343
 5270SOL     OW16708   6.912   1.298   2.889
 5270SOL    HW116709   6.849   1.369   2.858
 5270SOL    HW216710   6.988   1.290   2.825
 5271SOL     OW16711   6.240   3.503   5.138
 5271SOL    HW116712   6.222   3.465   5.228
 5271SOL    HW216713   6.186   3.455   5.069
 5272SOL     OW16714   2.167   2.497   3.659
 5272SOL    HW116715   2.075   2.536   3.658
 5272SOL    HW216716   2.232   2.565   3.694
 5273SOL     OW16717   0.206   1.764   5.414
 5273SOL    HW116718   0.188   1.698   5.486
 5273SOL    HW216719   0.141   1.839   5.420
 5274SOL     OW16720   0.457   4.752   5.047
 5274SOL    HW116721   0.515   4.696   4.989
 5274SOL    HW216722   0.369   4.768   5.002
 5275SOL     OW16723   2.460   6.056   6.179
 5275SOL    HW116724   2.375   6.084   6.225
 5275SOL    HW216725   2.524   6.132   6.178
 5276SOL     OW16726   0.104   1.389   6.521
 5276SOL    HW116727   0.168   1.465   6.527
 5276SOL    HW216728   0.077   1.374   6.426
 5277SOL     OW16729   0.890   0.754   1.470
 5277SOL    HW116730   0.934   0.842   1.454
 5277SOL    HW216731   0.887   0.702   1.385
 5278SOL     OW16732   0.732   4.449   7.001
 5278SOL    HW116733   0.825   4.483   7.020
 5278SOL    HW216734   0.710   4.375   0.037
 5279SOL     OW16735   2.733   6.701   0.083
 5279SOL    HW116736   2.683   6.750   0.155
 5279SOL    HW216737   2.721   6.749   7.024
 5280SOL     OW16738   4.326   6.406   6.385
 5280SOL    HW116739   4.251   6.349   6.352
 5280SOL    HW216740   4.413   6.365   6.357
 5281SOL     OW16741   2.321   6.613   4.108
 5281SOL    HW116742   2.371   6.607   4.022
 5281SOL    HW216743   2.228   6.577   4.095
 5282SOL     OW16744   6.354   6.278   0.968
 5282SOL    HW116745   6.355   6.378   0.978
 5282SOL    HW216746   6.447   6.243   0.975
 5283SOL     OW16747   1.692   0.473   4.078
 5283SOL    HW116748   1.684   0.544   4.008
 5283SOL    HW216749   1.614   0.478   4.141
 5284SOL     OW16750   4.908   3.402   1.973
 5284SOL    HW116751   4.947   3.310   1.966
 5284SOL    HW216752   4.978   3.466   2.005
 5285SOL     OW16753   2.159   1.818   3.685
 5285SOL    HW116754   2.176   1.880   3.609
 5285SOL    HW216755   2.070   1.774   3.674
 5286SOL     OW16756   0.074   3.075   1.610
 5286SOL    HW116757   0.019   3.006   1.656
 5286SOL    HW216758   0.170   3.065   1.636
 5287SOL     OW16759   0.375   5.827   2.140
 5287SOL    HW116760   0.331   5.901   2.088
 5287SOL    HW216761   0.326   5.742   2.123
 5288SOL     OW16762   4.395   0.358   2.336
 5288SOL    HW116763   4.432   0.335   2.246
 5288SOL    HW216764   4.344   0.444   2.330
 5289SOL     OW16765   1.425   5.261   6.529
 5289SOL    HW116766   1.435   5.205   6.448
 5289SOL    HW216767   1.345   5.321   6.518
 5290SOL     OW16768   2.452   2.262   5.072
 5290SOL    HW116769   2.403   2.299   5.151
 5290SOL    HW216770   2.537   2.313   5.060
 5291SOL     OW16771   2.618   6.734   4.593
 5291SOL    HW116772   2.669   6.772   4.671
 5291SOL    HW216773   2.522   6.760   4.601
 5292SOL     OW16774   0.755   3.922   4.018
 5292SOL    HW116775   0.846   3.964   4.024
 5292SOL    HW216776   0.686   3.993   4.008
 5293SOL     OW16777   2.521   0.518   3.743
 5293SOL    HW116778   2.600   0.570   3.775
 5293SOL    HW216779   2.516   0.523   3.643
 5294SOL     OW16780   4.953   0.339   4.500
 5294SOL    HW116781   4.940   0.339   4.401
 5294SOL    HW216782   4.915   0.255   4.538
 5295SOL     OW16783   2.205   0.433   0.718
 5295SOL    HW116784   2.188   0.384   0.804
 5295SOL    HW216785   2.170   0.526   0.724
 5296SOL     OW16786   5.288   5.048   1.975
 5296SOL    HW116787   5.356   5.037   2.047
 5296SOL    HW216788   5.199   5.018   2.008
 5297SOL     OW16789   3.945   5.243   5.546
 5297SOL    HW116790   3.847   5.228   5.556
 5297SOL    HW216791   3.995   5.163   5.579
 5298SOL     OW16792   3.548   0.693   6.456
 5298SOL    HW116793   3.608   0.690   6.535
 5298SOL    HW216794   3.485   0.770   6.464
 5299SOL     OW16795   1.351   0.526   1.234
 5299SOL    HW116796   1.398   0.506   1.147
 5299SOL    HW216797   1.283   0.456   1.252
 5300SOL     OW16798   3.008   4.604   6.197
 5300SOL    HW116799   3.081   4.645   6.143
 5300SOL    HW216800   3.032   4.510   6.221
 5301SOL     OW16801   5.565   0.428   5.658
 5301SOL    HW116802   5.557   0.522   5.693
 5301SOL    HW216803   5.570   0.364   5.735
 5302SOL     OW16804   4.842   5.798   3.353
 5302SOL    HW116805   4.831   5.796   3.253
 5302SOL    HW216806   4.886   5.884   3.380
 5303SOL     OW16807   1.796   6.235   5.425
 5303SOL    HW116808   1.773   6.314   5.367
 5303SOL    HW216809   1.741   6.239   5.509
 5304SOL     OW16810   6.958   6.976   2.849
 5304SOL    HW116811   6.992   7.001   2.940
 5304SOL    HW216812   0.007   6.968   2.786
 5305SOL     OW16813   6.062   5.405   5.235
 5305SOL    HW116814   6.136   5.472   5.239
 5305SOL    HW216815   6.016   5.401   5.324
 5306SOL     OW16816   1.131   2.081   0.086
 5306SOL    HW116817   1.121   2.164   0.141
 5306SOL    HW216818   1.204   2.094   0.020
 5307SOL     OW16819   1.476   1.201   1.801
 5307SOL    HW116820   1.410   1.228   1.871
 5307SOL    HW216821   1.431   1.200   1.711
 5308SOL     OW16822   2.001   4.666   3.843
 5308SOL    HW116823   1.904   4.682   3.860
 5308SOL    HW216824   2.042   4.748   3.803
 5309SOL     OW16825   6.332   6.200   2.277
 5309SOL    HW116826   6.264   6.140   2.236
 5309SOL    HW216827   6.372   6.156   2.358
 5310SOL     OW16828   5.640   2.135   3.782
 5310SOL    HW116829   5.543   2.129   3.761
 5310SOL    HW216830   5.657   2.214   3.841
 5311SOL     OW16831   5.811   0.105   6.834
 5311SOL    HW116832   5.826   0.058   6.746
 5311SOL    HW216833   5.783   0.199   6.817
 5312SOL     OW16834   5.042   6.529   1.035
 5312SOL    HW116835   5.101   6.518   0.956
 5312SOL    HW216836   5.080   6.597   1.097
 5313SOL     OW16837   0.791   6.679   5.693
 5313SOL    HW116838   0.844   6.601   5.725
 5313SOL    HW216839   0.811   6.758   5.751
 5314SOL     OW16840   5.510   1.703   2.652
 5314SOL    HW116841   5.515   1.663   2.560
 5314SOL    HW216842   5.601   1.735   2.679
 5315SOL     OW16843   4.584   1.226   3.500
 5315SOL    HW116844   4.640   1.301   3.534
 5315SOL    HW216845   4.643   1.150   3.472
 5316SOL     OW16846   0.077   2.542   5.585
 5316SOL    HW116847   0.108   2.464   5.639
 5316SOL    HW216848   0.081   2.520   5.488
 5317SOL     OW16849   5.706   2.824   2.069
 5317SOL    HW116850   5.680   2.898   2.132
 5317SOL    HW216851   5.724   2.741   2.121
 5318SOL     OW16852   0.191   4.655   6.752
 5318SOL    HW116853   0.177   4.697   6.842
 5318SOL    HW216854   0.123   4.690   6.688
 5319SOL     OW16855   4.262   5.614   2.333
 5319SOL    HW116856   4.239   5.571   2.420
 5319SOL    HW216857   4.291   5.708   2.349
 5320SOL     OW16858   4.644   6.049   0.761
 5320SOL    HW116859   4.710   5.985   0.802
 5320SOL    HW216860   4.584   5.999   0.698
 5321SOL     OW16861   1.350   3.939   5.409
 5321SOL    HW116862   1.421   3.872   5.428
 5321SOL    HW216863   1.307   3.968   5.495
 5322SOL     OW16864   4.203   5.442   1.932
 5322SOL    HW116865   4.262   5.412   1.857
 5322SOL    HW216866   4.160   5.529   1.908
 5323SOL     OW16867   4.453   0.113   6.512
 5323SOL    HW116868   4.517   0.137   6.439
 5323SOL    HW216869   4.396   0.192   6.535
 5324SOL     OW16870   0.907   1.369   1.910
 5324SOL    HW116871   0.910   1.332   1.818
 5324SOL    HW216872   0.814   1.362   1.946
 5325SOL     OW16873   1.961   3.114   4.215
 5325SOL    HW116874   1.931   3.108   4.310
 5325SOL    HW216875   1.977   3.209   4.190
 5326SOL     OW16876   6.221   0.367   0.808
 5326SOL    HW116877   6.264   0.450   0.772
 5326SOL    HW216878   6.157   0.331   0.740
 5327SOL     OW16879   0.670   2.334   6.547
 5327SOL    HW116880   0.614   2.279   6.484
 5327SOL    HW216881   0.673   2.428   6.516
 5328SOL     OW16882   4.294   5.175   0.414
 5328SOL    HW116883   4.386   5.168   0.375
 5328SOL    HW216884   4.257   5.266   0.396
 5329SOL     OW16885   2.164   5.663   6.441
 5329SOL    HW116886   2.167   5.617   6.352
 5329SOL    HW216887   2.070   5.662   6.476
 5330SOL     OW16888   2.449   5.364   0.590
 5330SOL    HW116889   2.519   5.427   0.624
 5330SOL    HW216890   2.411   5.400   0.505
 5331SOL     OW16891   6.072   2.000   6.608
 5331SOL    HW116892   6.089   2.055   6.689
 5331SOL    HW216893   5.976   2.009   6.581
 5332SOL     OW16894   0.784   5.002   3.066
 5332SOL    HW116895   0.745   5.067   3.000
 5332SOL    HW216896   0.711   4.962   3.121
 5333SOL     OW16897   0.638   6.380   4.415
 5333SOL    HW116898   0.610   6.300   4.468
 5333SOL    HW216899   0.640   6.461   4.474
 5334SOL     OW16900   2.977   6.862   5.103
 5334SOL    HW116901   3.037   6.935   5.072
 5334SOL    HW216902   3.024   6.807   5.172
 5335SOL     OW16903   5.856   6.321   0.947
 5335SOL    HW116904   5.834   6.412   0.984
 5335SOL    HW216905   5.931   6.329   0.882
 5336SOL     OW16906   0.818   3.565   1.673
 5336SOL    HW116907   0.727   3.605   1.661
 5336SOL    HW216908   0.835   3.550   1.770
 5337SOL     OW16909   5.316   4.916   1.487
 5337SOL    HW116910   5.259   4.991   1.454
 5337SOL    HW216911   5.396   4.953   1.535
 5338SOL     OW16912   5.656   2.890   0.427
 5338SOL    HW116913   5.605   2.829   0.366
 5338SOL    HW216914   5.672   2.977   0.381
 5339SOL     OW16915   6.022   0.857   1.920
 5339SOL    HW116916   6.067   0.769   1.909
 5339SOL    HW216917   5.930   0.843   1.957
 5340SOL     OW16918   5.795   2.091   0.175
 5340SOL    HW116919   5.753   2.000   0.170
 5340SOL    HW216920   5.765   2.146   0.097
 5341SOL     OW16921   4.470   0.358   1.129
 5341SOL    HW116922   4.430   0.328   1.043
 5341SOL    HW216923   4.409   0.422   1.174
 5342SOL     OW16924   1.894   0.362   5.489
 5342SOL    HW116925   1.825   0.293   5.468
 5342SOL    HW216926   1.908   0.419   5.408
 5343SOL     OW16927   3.053   3.923   1.466
 5343SOL    HW116928   3.015   3.902   1.556
 5343SOL    HW216929   3.021   3.854   1.400
 5344SOL     OW16930   1.817   3.050   3.286
 5344SOL    HW116931   1.817   3.035   3.385
 5344SOL    HW216932   1.839   3.146   3.267
 5345SOL     OW16933   5.313   0.315   2.927
 5345SOL    HW116934   5.279   0.348   2.839
 5345SOL    HW216935   5.413   0.319   2.928
 5346SOL     OW16936   4.064   0.682   4.083
 5346SOL    HW116937   4.038   0.612   4.150
 5346SOL    HW216938   4.088   0.767   4.130
 5347SOL     OW16939   6.489   1.741   2.210
 5347SOL    HW116940   6.457   1.685   2.133
 5347SOL    HW216941   6.589   1.740   2.212
 5348SOL     OW16942   6.655   1.450   0.291
 5348SOL    HW116943   6.699   1.522   0.344
 5348SOL    HW216944   6.598   1.394   0.351
 5349SOL     OW16945   5.500   0.822   0.296
 5349SOL    HW116946   5.440   0.765   0.352
 5349SOL    HW216947   5.494   0.794   0.200
 5350SOL     OW16948   3.024   0.968   0.032
 5350SOL    HW116949   2.971   1.003   6.983
 5350SOL    HW216950   3.028   1.037   0.103
 5351SOL     OW16951   4.749   1.433   1.996
 5351SOL    HW116952   4.780   1.505   1.933
 5351SOL    HW216953   4.776   1.456   2.089
 5352SOL     OW16954   4.126   0.483   3.898
 5352SOL    HW116955   4.135   0.563   3.957
 5352SOL    HW216956   4.053   0.498   3.832
 5353SOL     OW16957   6.418   0.681   6.195
 5353SOL    HW116958   6.413   0.687   6.295
 5353SOL    HW216959   6.433   0.586   6.168
 5354SOL     OW16960   0.858   2.409   1.208
 5354SOL    HW116961   0.843   2.377   1.115
 5354SOL    HW216962   0.954   2.394   1.233
 5355SOL     OW16963   4.558   1.194   5.762
 5355SOL    HW116964   4.512   1.228   5.680
 5355SOL    HW216965   4.500   1.208   5.842
 5356SOL     OW16966   6.547   3.188   2.177
 5356SOL    HW116967   6.473   3.178   2.110
 5356SOL    HW216968   6.525   3.134   2.258
 5357SOL     OW16969   4.735   5.608   0.096
 5357SOL    HW116970   4.669   5.611   0.021
 5357SOL    HW216971   4.778   5.518   0.099
 5358SOL     OW16972   5.441   4.089   1.587
 5358SOL    HW116973   5.519   4.041   1.628
 5358SOL    HW216974   5.474   4.170   1.538
 5359SOL     OW16975   2.600   0.628   5.220
 5359SOL    HW116976   2.507   0.608   5.188
 5359SOL    HW216977   2.606   0.612   5.318
 5360SOL     OW16978   4.533   2.597   0.236
 5360SOL    HW116979   4.625   2.603   0.198
 5360SOL    HW216980   4.513   2.502   0.260
 5361SOL     OW16981   0.566   1.623   6.773
 5361SOL    HW116982   0.470   1.595   6.768
 5361SOL    HW216983   0.621   1.563   6.716
 5362SOL     OW16984   4.544   6.143   3.791
 5362SOL    HW116985   4.468   6.103   3.739
 5362SOL    HW216986   4.532   6.123   3.888
 5363SOL     OW16987   0.772   5.952   4.793
 5363SOL    HW116988   0.748   5.870   4.844
 5363SOL    HW216989   0.867   5.977   4.812
 5364SOL     OW16990   1.035   5.730   6.690
 5364SOL    HW116991   0.965   5.782   6.738
 5364SOL    HW216992   0.997   5.690   6.607
 5365SOL     OW16993   4.014   3.025   6.299
 5365SOL    HW116994   3.986   3.010   6.394
 5365SOL    HW216995   4.072   3.107   6.295
 5366SOL     OW16996   4.031   3.533   5.368
 5366SOL    HW116997   3.967   3.510   5.294
 5366SOL    HW216998   4.122   3.500   5.343
 5367SOL     OW16999   0.057   3.744   1.311
 5367SOL    HW117000   0.054   3.675   1.239
 5367SOL    HW217001   0.109   3.710   1.388
 5368SOL     OW17002   0.671   0.314   3.605
 5368SOL    HW117003   0.660   0.225   3.562
 5368SOL    HW217004   0.736   0.307   3.681
 5369SOL     OW17005   1.745   3.412   2.789
 5369SOL    HW117006   1.797   3.409   2.704
 5369SOL    HW217007   1.766   3.330   2.844
 5370SOL     OW17008   3.798   2.784   1.809
 5370SOL    HW117009   3.754   2.800   1.898
 5370SOL    HW217010   3.860   2.859   1.788
 5371SOL     OW17011   2.356   4.332   4.736
 5371SOL    HW117012   2.329   4.348   4.831
 5371SOL    HW217013   2.300   4.259   4.697
 5372SOL     OW17014   3.967   6.628   2.270
 5372SOL    HW117015   3.959   6.691   2.348
 5372SOL    HW217016   3.916   6.545   2.290
 5373SOL     OW17017   3.012   4.890   3.882
 5373SOL    HW117018   3.020   4.920   3.977
 5373SOL    HW217019   3.090   4.923   3.829
 5374SOL     OW17020   3.169   2.718   0.761
 5374SOL    HW117021   3.091   2.656   0.767
 5374SOL    HW217022   3.172   2.760   0.670
 5375SOL     OW17023   1.492   4.315   4.372
 5375SOL    HW117024   1.438   4.391   4.335
 5375SOL    HW217025   1.563   4.290   4.306
 5376SOL     OW17026   3.150   5.329   5.899
 5376SOL    HW117027   3.098   5.412   5.918
 5376SOL    HW217028   3.135   5.263   5.973
 5377SOL     OW17029   1.729   2.362   1.542
 5377SOL    HW117030   1.819   2.354   1.583
 5377SOL    HW217031   1.723   2.304   1.460
 5378SOL     OW17032   5.409   6.916   6.967
 5378SOL    HW117033   5.474   6.859   7.019
 5378SOL    HW217034   5.382   6.867   6.884
 5379SOL     OW17035   0.232   0.351   0.023
 5379SOL    HW117036   0.173   0.429   0.045
 5379SOL    HW217037   0.322   0.383   7.022
 5380SOL     OW17038   2.571   1.886   4.698
 5380SOL    HW117039   2.650   1.934   4.736
 5380SOL    HW217040   2.487   1.934   4.726
 5381SOL     OW17041   6.096   3.602   2.347
 5381SOL    HW117042   6.117   3.505   2.344
 5381SOL    HW217043   6.000   3.617   2.322
 5382SOL     OW17044   1.576   6.376   1.123
 5382SOL    HW117045   1.538   6.348   1.035
 5382SOL    HW217046   1.664   6.422   1.107
 5383SOL     OW17047   2.830   1.982   4.803
 5383SOL    HW117048   2.799   2.026   4.888
 5383SOL    HW217049   2.865   2.052   4.741
 5384SOL     OW17050   5.031   6.012   4.971
 5384SOL    HW117051   5.128   5.988   4.977
 5384SOL    HW217052   5.019   6.089   4.909
 5385SOL     OW17053   3.819   3.994   2.012
 5385SOL    HW117054   3.853   4.071   2.066
 5385SOL    HW217055   3.837   3.908   2.060
 5386SOL     OW17056   6.205   6.098   5.833
 5386SOL    HW117057   6.142   6.126   5.906
 5386SOL    HW217058   6.167   6.019   5.784
 5387SOL     OW17059   4.107   5.194   0.150
 5387SOL    HW117060   4.043   5.156   0.084
 5387SOL    HW217061   4.189   5.226   0.103
 5388SOL     OW17062   6.093   5.838   3.033
 5388SOL    HW117063   6.049   5.907   3.091
 5388SOL    HW217064   6.101   5.873   2.940
 5389SOL     OW17065   5.646   3.245   1.382
 5389SOL    HW117066   5.575   3.272   1.317
 5389SOL    HW217067   5.721   3.199   1.334
 5390SOL     OW17068   6.681   4.184   6.973
 5390SOL    HW117069   6.610   4.148   0.005
 5390SOL    HW217070   6.657   4.167   6.878
 5391SOL     OW17071   3.089   5.178   0.336
 5391SOL    HW117072   3.117   5.274   0.344
 5391SOL    HW217073   3.079   5.138   0.427
 5392SOL     OW17074   0.510   2.777   3.479
 5392SOL    HW117075   0.562   2.775   3.565
 5392SOL    HW217076   0.543   2.852   3.422
 5393SOL     OW17077   6.626   0.567   6.697
 5393SOL    HW117078   6.688   0.552   6.774
 5393SOL    HW217079   6.591   0.660   6.699
 5394SOL     OW17080   2.034   3.637   6.671
 5394SOL    HW117081   2.029   3.571   6.747
 5394SOL    HW217082   1.943   3.647   6.631
 5395SOL     OW17083   4.991   0.889   1.620
 5395SOL    HW117084   4.902   0.849   1.598
 5395SOL    HW217085   5.010   0.965   1.557
 5396SOL     OW17086   4.244   2.561   0.931
 5396SOL    HW117087   4.192   2.475   0.933
 5396SOL    HW217088   4.195   2.630   0.983
 5397SOL     OW17089   1.933   2.076   2.573
 5397SOL    HW117090   1.925   2.079   2.473
 5397SOL    HW217091   1.953   2.168   2.607
 5398SOL     OW17092   2.963   3.644   2.365
 5398SOL    HW117093   2.958   3.556   2.412
 5398SOL    HW217094   3.016   3.709   2.420
 5399SOL     OW17095   0.612   4.884   0.265
 5399SOL    HW117096   0.522   4.845   0.250
 5399SOL    HW217097   0.667   4.875   0.181
 5400SOL     OW17098   2.593   3.726   0.117
 5400SOL    HW117099   2.686   3.738   0.152
 5400SOL    HW217100   2.597   3.686   0.026
 5401SOL     OW17101   5.964   2.176   1.207
 5401SOL    HW117102   6.057   2.144   1.189
 5401SOL    HW217103   5.911   2.104   1.249
 5402SOL     OW17104   1.027   6.117   2.073
 5402SOL    HW117105   1.101   6.081   2.129
 5402SOL    HW217106   1.052   6.109   1.976
 5403SOL     OW17107   0.861   2.182   6.299
 5403SOL    HW117108   0.913   2.262   6.268
 5403SOL    HW217109   0.887   2.159   6.392
 5404SOL     OW17110   7.009   2.388   3.071
 5404SOL    HW117111   6.988   2.482   3.043
 5404SOL    HW217112   0.056   2.353   3.015
 5405SOL     OW17113   6.766   4.090   4.552
 5405SOL    HW117114   6.691   4.150   4.580
 5405SOL    HW217115   6.806   4.046   4.632
 5406SOL     OW17116   1.939   6.622   2.535
 5406SOL    HW117117   1.993   6.559   2.591
 5406SOL    HW217118   1.929   6.585   2.443
 5407SOL     OW17119   3.966   2.560   6.816
 5407SOL    HW117120   4.005   2.589   6.729
 5407SOL    HW217121   4.001   2.469   6.839
 5408SOL     OW17122   4.146   1.182   0.115
 5408SOL    HW117123   4.163   1.178   0.213
 5408SOL    HW217124   4.102   1.097   0.085
 5409SOL     OW17125   5.058   0.599   1.704
 5409SOL    HW117126   5.073   0.683   1.652
 5409SOL    HW217127   5.054   0.521   1.642
 5410SOL     OW17128   1.986   2.730   1.936
 5410SOL    HW117129   2.023   2.657   1.994
 5410SOL    HW217130   2.030   2.817   1.960
 5411SOL     OW17131   3.181   4.858   5.414
 5411SOL    HW117132   3.118   4.903   5.350
 5411SOL    HW217133   3.157   4.762   5.422
 5412SOL     OW17134   7.014   1.376   2.594
 5412SOL    HW117135   0.006   1.462   2.641
 5412SOL    HW217136   6.926   1.383   2.547
 5413SOL     OW17137   1.318   6.581   2.454
 5413SOL    HW117138   1.409   6.572   2.495
 5413SOL    HW217139   1.266   6.497   2.469
 5414SOL     OW17140   4.726   6.901   6.407
 5414SOL    HW117141   4.773   6.988   6.421
 5414SOL    HW217142   4.627   6.915   6.407
 5415SOL     OW17143   5.822   3.428   3.308
 5415SOL    HW117144   5.745   3.393   3.254
 5415SOL    HW217145   5.814   3.397   3.402
 5416SOL     OW17146   4.291   5.287   5.239
 5416SOL    HW117147   4.251   5.274   5.148
 5416SOL    HW217148   4.222   5.324   5.301
 5417SOL     OW17149   2.383   0.371   5.655
 5417SOL    HW117150   2.295   0.328   5.633
 5417SOL    HW217151   2.419   0.331   5.740
 5418SOL     OW17152   3.324   1.521   3.282
 5418SOL    HW117153   3.282   1.443   3.329
 5418SOL    HW217154   3.423   1.520   3.298
 5419SOL     OW17155   3.387   3.572   6.787
 5419SOL    HW117156   3.359   3.595   6.880
 5419SOL    HW217157   3.309   3.540   6.734
 5420SOL     OW17158   1.558   2.390   2.627
 5420SOL    HW117159   1.651   2.418   2.651
 5420SOL    HW217160   1.534   2.308   2.678
 5421SOL     OW17161   2.550   3.224   0.598
 5421SOL    HW117162   2.468   3.262   0.641
 5421SOL    HW217163   2.561   3.264   0.507
 5422SOL     OW17164   0.309   3.513   0.506
 5422SOL    HW117165   0.239   3.447   0.532
 5422SOL    HW217166   0.381   3.467   0.454
 5423SOL     OW17167   3.874   3.542   5.593
 5423SOL    HW117168   3.902   3.607   5.663
 5423SOL    HW217169   3.935   3.550   5.514
 5424SOL     OW17170   5.770   3.140   5.540
 5424SOL    HW117171   5.806   3.066   5.597
 5424SOL    HW217172   5.673   3.155   5.562
 5425SOL     OW17173   5.222   1.147   4.980
 5425SOL    HW117174   5.183   1.097   4.902
 5425SOL    HW217175   5.218   1.245   4.962
 5426SOL     OW17176   6.936   0.961   4.505
 5426SOL    HW117177   6.881   0.879   4.493
 5426SOL    HW217178   6.958   0.972   4.602
 5427SOL     OW17179   4.346   6.802   0.597
 5427SOL    HW117180   4.283   6.831   0.669
 5427SOL    HW217181   4.412   6.736   0.635
 5428SOL     OW17182   1.481   0.361   0.731
 5428SOL    HW117183   1.402   0.418   0.705
 5428SOL    HW217184   1.550   0.366   0.660
 5429SOL     OW17185   1.065   2.535   6.304
 5429SOL    HW117186   1.144   2.592   6.282
 5429SOL    HW217187   1.095   2.457   6.360
 5430SOL     OW17188   2.478   2.353   5.596
 5430SOL    HW117189   2.392   2.321   5.555
 5430SOL    HW217190   2.555   2.316   5.545
 5431SOL     OW17191   3.536   5.042   4.065
 5431SOL    HW117192   3.545   5.140   4.080
 5431SOL    HW217193   3.518   4.996   4.152
 5432SOL     OW17194   5.965   4.253   0.747
 5432SOL    HW117195   5.951   4.211   0.837
 5432SOL    HW217196   6.023   4.334   0.757
 5433SOL     OW17197   2.328   2.100   3.043
 5433SOL    HW117198   2.275   2.126   3.124
 5433SOL    HW217199   2.420   2.072   3.071
 5434SOL     OW17200   1.892   6.398   4.784
 5434SOL    HW117201   1.891   6.382   4.883
 5434SOL    HW217202   1.825   6.338   4.740
 5435SOL     OW17203   4.775   1.793   1.639
 5435SOL    HW117204   4.775   1.746   1.550
 5435SOL    HW217205   4.682   1.819   1.663
 5436SOL     OW17206   4.670   4.333   3.331
 5436SOL    HW117207   4.745   4.391   3.298
 5436SOL    HW217208   4.708   4.253   3.378
 5437SOL     OW17209   3.222   5.693   5.426
 5437SOL    HW117210   3.237   5.758   5.352
 5437SOL    HW217211   3.154   5.625   5.398
 5438SOL     OW17212   6.511   1.141   6.977
 5438SOL    HW117213   6.554   1.206   6.914
 5438SOL    HW217214   6.546   1.049   6.958
 5439SOL     OW17215   1.643   2.060   0.538
 5439SOL    HW117216   1.672   2.005   0.617
 5439SOL    HW217217   1.655   2.157   0.559
 5440SOL     OW17218   1.610   0.201   1.028
 5440SOL    HW117219   1.585   0.298   1.021
 5440SOL    HW217220   1.644   0.182   1.120
 5441SOL     OW17221   3.819   1.817   5.377
 5441SOL    HW117222   3.818   1.730   5.427
 5441SOL    HW217223   3.798   1.892   5.440
 5442SOL     OW17224   3.872   1.216   1.917
 5442SOL    HW117225   3.822   1.299   1.940
 5442SOL    HW217226   3.949   1.205   1.979
 5443SOL     OW17227   0.974   5.684   5.423
 5443SOL    HW117228   1.065   5.680   5.463
 5443SOL    HW217229   0.980   5.662   5.325
 5444SOL     OW17230   0.153   0.774   3.079
 5444SOL    HW117231   0.208   0.753   3.159
 5444SOL    HW217232   0.083   0.704   3.068
 5445SOL     OW17233   5.598   3.011   2.444
 5445SOL    HW117234   5.596   2.944   2.370
 5445SOL    HW217235   5.511   3.009   2.493
 5446SOL     OW17236   6.768   0.125   5.647
 5446SOL    HW117237   6.818   0.046   5.611
 5446SOL    HW217238   6.680   0.133   5.599
 5447SOL     OW17239   3.545   2.789   1.344
 5447SOL    HW117240   3.448   2.787   1.372
 5447SOL    HW217241   3.603   2.775   1.425
 5448SOL     OW17242   4.924   1.332   6.541
 5448SOL    HW117243   4.959   1.292   6.625
 5448SOL    HW217244   4.872   1.415   6.562
 5449SOL     OW17245   6.980   2.857   6.746
 5449SOL    HW117246   6.939   2.770   6.721
 5449SOL    HW217247   0.005   2.893   6.670
 5450SOL     OW17248   2.342   5.737   0.867
 5450SOL    HW117249   2.349   5.824   0.915
 5450SOL    HW217250   2.247   5.720   0.841
 5451SOL     OW17251   2.638   6.260   2.143
 5451SOL    HW117252   2.580   6.340   2.130
 5451SOL    HW217253   2.594   6.196   2.205
 5452SOL     OW17254   2.963   4.080   6.304
 5452SOL    HW117255   2.974   4.153   6.372
 5452SOL    HW217256   3.045   4.023   6.304
 5453SOL     OW17257   0.037   5.777   5.682
 5453SOL    HW117258   6.990   5.752   5.620
 5453SOL    HW217259   0.000   5.828   5.759
 5454SOL     OW17260   1.303   4.112   5.910
 5454SOL    HW117261   1.263   4.021   5.902
 5454SOL    HW217262   1.388   4.107   5.963
 5455SOL     OW17263   6.667   1.848   1.462
 5455SOL    HW117264   6.666   1.922   1.395
 5455SOL    HW217265   6.714   1.879   1.545
 5456SOL     OW17266   4.307   0.434   1.497
 5456SOL    HW117267   4.316   0.491   1.415
 5456SOL    HW217268   4.211   0.434   1.527
 5457SOL     OW17269   6.071   3.012   1.480
 5457SOL    HW117270   6.149   3.071   1.459
 5457SOL    HW217271   6.085   2.970   1.569
 5458SOL     OW17272   1.745   4.399   5.421
 5458SOL    HW117273   1.812   4.454   5.372
 5458SOL    HW217274   1.770   4.394   5.517
 5459SOL     OW17275   2.126   4.895   5.824
 5459SOL    HW117276   2.087   4.819   5.877
 5459SOL    HW217277   2.205   4.862   5.772
 5460SOL     OW17278   4.320   0.696   4.716
 5460SOL    HW117279   4.413   0.734   4.713
 5460SOL    HW217280   4.255   0.764   4.684
 5461SOL     OW17281   3.702   6.522   4.955
 5461SOL    HW117282   3.762   6.449   4.989
 5461SOL    HW217283   3.745   6.564   4.875
 5462SOL     OW17284   0.218   1.507   2.500
 5462SOL    HW117285   0.222   1.599   2.538
 5462SOL    HW217286   0.124   1.485   2.475
 5463SOL     OW17287   6.335   3.259   1.833
 5463SOL    HW117288   6.399   3.326   1.870
 5463SOL    HW217289   6.369   3.224   1.746
 5464SOL     OW17290   1.477   0.121   4.410
 5464SOL    HW117291   1.515   0.028   4.408
 5464SOL    HW217292   1.550   0.186   4.428
 5465SOL     OW17293   2.413   5.884   5.894
 5465SOL    HW117294   2.439   5.926   5.981
 5465SOL    HW217295   2.453   5.793   5.887
 5466SOL     OW17296   4.769   6.238   3.627
 5466SOL    HW117297   4.724   6.180   3.696
 5466SOL    HW217298   4.718   6.232   3.541
 5467SOL     OW17299   6.248   1.755   1.626
 5467SOL    HW117300   6.246   1.855   1.637
 5467SOL    HW217301   6.332   1.729   1.579
 5468SOL     OW17302   4.713   1.964   6.645
 5468SOL    HW117303   4.722   1.918   6.556
 5468SOL    HW217304   4.735   1.899   6.718
 5469SOL     OW17305   5.105   4.775   1.586
 5469SOL    HW117306   5.131   4.720   1.665
 5469SOL    HW217307   5.187   4.811   1.543
 5470SOL     OW17308   0.961   4.066   3.211
 5470SOL    HW117309   0.915   4.079   3.123
 5470SOL    HW217310   0.971   3.969   3.230
 5471SOL     OW17311   6.490   3.450   2.901
 5471SOL    HW117312   6.408   3.448   2.959
 5471SOL    HW217313   6.468   3.493   2.814
 5472SOL     OW17314   3.650   5.238   4.906
 5472SOL    HW117315   3.604   5.161   4.951
 5472SOL    HW217316   3.703   5.289   4.973
 5473SOL     OW17317   2.470   4.570   3.647
 5473SOL    HW117318   2.488   4.562   3.745
 5473SOL    HW217319   2.419   4.655   3.630
 5474SOL     OW17320   1.476   5.971   3.246
 5474SOL    HW117321   1.447   6.063   3.220
 5474SOL    HW217322   1.501   5.971   3.343
 5475SOL     OW17323   2.958   1.744   1.987
 5475SOL    HW117324   2.934   1.794   2.070
 5475SOL    HW217325   3.046   1.776   1.953
 5476SOL     OW17326   2.294   2.973   6.668
 5476SOL    HW117327   2.219   3.001   6.607
 5476SOL    HW217328   2.380   2.973   6.617
 5477SOL     OW17329   2.280   2.328   2.651
 5477SOL    HW117330   2.325   2.270   2.718
 5477SOL    HW217331   2.337   2.408   2.631
 5478SOL     OW17332   0.265   5.826   5.077
 5478SOL    HW117333   0.245   5.791   4.985
 5478SOL    HW217334   0.186   5.811   5.136
 5479SOL     OW17335   4.227   6.870   4.837
 5479SOL    HW117336   4.226   6.898   4.933
 5479SOL    HW217337   4.153   6.916   4.788
 5480SOL     OW17338   0.445   2.010   5.947
 5480SOL    HW117339   0.428   1.962   6.033
 5480SOL    HW217340   0.414   1.954   5.870
 5481SOL     OW17341   4.475   0.059   2.391
 5481SOL    HW117342   4.434   0.080   2.302
 5481SOL    HW217343   4.421   7.016   2.437
 5482SOL     OW17344   1.271   6.308   1.696
 5482SOL    HW117345   1.314   6.370   1.761
 5482SOL    HW217346   1.340   6.251   1.653
 5483SOL     OW17347   0.943   2.804   6.511
 5483SOL    HW117348   0.877   2.871   6.478
 5483SOL    HW217349   0.903   2.713   6.505
 5484SOL     OW17350   4.806   5.750   5.370
 5484SOL    HW117351   4.861   5.779   5.292
 5484SOL    HW217352   4.709   5.762   5.348
 5485SOL     OW17353   4.454   0.154   4.847
 5485SOL    HW117354   4.452   0.072   4.790
 5485SOL    HW217355   4.492   0.230   4.794
 5486SOL     OW17356   2.593   5.475   3.540
 5486SOL    HW117357   2.571   5.393   3.593
 5486SOL    HW217358   2.670   5.522   3.582
 5487SOL     OW17359   4.054   6.322   5.636
 5487SOL    HW117360   4.105   6.256   5.580
 5487SOL    HW217361   4.105   6.341   5.720
 5488SOL     OW17362   4.621   1.937   5.802
 5488SOL    HW117363   4.545   1.874   5.787
 5488SOL    HW217364   4.697   1.888   5.845
 5489SOL     OW17365   0.151   2.631   4.192
 5489SOL    HW117366   0.133   2.605   4.287
 5489SOL    HW217367   0.129   2.554   4.133
 5490SOL     OW17368   0.988   4.544   1.217
 5490SOL    HW117369   0.933   4.480   1.270
 5490SOL    HW217370   0.929   4.597   1.156
 5491SOL     OW17371   0.233   3.915   1.192
 5491SOL    HW117372   0.265   3.967   1.271
 5491SOL    HW217373   0.157   3.857   1.219
 5492SOL     OW17374   0.917   1.835   0.223
 5492SOL    HW117375   0.903   1.929   0.254
 5492SOL    HW217376   0.993   1.831   0.159
 5493SOL     OW17377   4.447   3.672   5.327
 5493SOL    HW117378   4.444   3.766   5.291
 5493SOL    HW217379   4.513   3.618   5.274
 5494SOL     OW17380   5.993   1.931   5.009
 5494SOL    HW117381   6.034   1.857   5.063
 5494SOL    HW217382   6.008   1.914   4.912
 5495SOL     OW17383   5.755   1.652   0.372
 5495SOL    HW117384   5.745   1.653   0.472
 5495SOL    HW217385   5.837   1.704   0.347
 5496SOL     OW17386   4.341   0.278   6.039
 5496SOL    HW117387   4.359   0.374   6.061
 5496SOL    HW217388   4.278   0.272   5.962
 5497SOL     OW17389   1.148   0.996   5.745
 5497SOL    HW117390   1.167   1.093   5.759
 5497SOL    HW217391   1.077   0.985   5.675
 5498SOL     OW17392   0.200   5.647   1.951
 5498SOL    HW117393   0.154   5.581   1.891
 5498SOL    HW217394   0.139   5.725   1.967
 5499SOL     OW17395   2.055   6.859   2.867
 5499SOL    HW117396   2.152   6.847   2.845
 5499SOL    HW217397   2.018   6.934   2.812
 5500SOL     OW17398   0.602   6.437   1.793
 5500SOL    HW117399   0.654   6.353   1.809
 5500SOL    HW217400   0.636   6.509   1.854
 5501SOL     OW17401   5.164   3.466   1.095
 5501SOL    HW117402   5.120   3.433   1.178
 5501SOL    HW217403   5.158   3.395   1.024
 5502SOL     OW17404   4.273   3.625   0.436
 5502SOL    HW117405   4.250   3.533   0.466
 5502SOL    HW217406   4.238   3.691   0.502
 5503SOL     OW17407   6.352   2.863   1.388
 5503SOL    HW117408   6.331   2.877   1.485
 5503SOL    HW217409   6.325   2.771   1.362
 5504SOL     OW17410   3.536   2.314   0.390
 5504SOL    HW117411   3.493   2.249   0.328
 5504SOL    HW217412   3.527   2.407   0.354
 5505SOL     OW17413   2.837   5.558   3.056
 5505SOL    HW117414   2.812   5.505   2.974
 5505SOL    HW217415   2.933   5.540   3.079
 5506SOL     OW17416   6.888   2.938   6.981
 5506SOL    HW117417   6.914   3.034   6.986
 5506SOL    HW217418   6.942   2.893   6.910
 5507SOL     OW17419   3.846   6.468   0.019
 5507SOL    HW117420   3.940   6.502   0.025
 5507SOL    HW217421   3.794   6.525   6.983
 5508SOL     OW17422   6.925   3.083   6.026
 5508SOL    HW117423   6.828   3.065   6.038
 5508SOL    HW217424   6.978   3.006   6.062
 5509SOL     OW17425   6.155   4.200   0.565
 5509SOL    HW117426   6.163   4.117   0.509
 5509SOL    HW217427   6.075   4.191   0.625
 5510SOL     OW17428   4.996   6.471   6.903
 5510SOL    HW117429   4.926   6.542   6.912
 5510SOL    HW217430   4.967   6.389   6.951
 5511SOL     OW17431   0.372   3.006   5.898
 5511SOL    HW117432   0.277   2.998   5.871
 5511SOL    HW217433   0.414   3.085   5.853
 5512SOL     OW17434   2.782   6.784   1.890
 5512SOL    HW117435   2.703   6.724   1.880
 5512SOL    HW217436   2.823   6.802   1.800
 5513SOL     OW17437   3.019   5.200   6.114
 5513SOL    HW117438   2.995   5.291   6.147
 5513SOL    HW217439   2.935   5.150   6.091
 5514SOL     OW17440   4.162   1.467   0.193
 5514SOL    HW117441   4.173   1.382   0.143
 5514SOL    HW217442   4.084   1.459   0.256
 5515SOL     OW17443   3.713   5.155   2.601
 5515SOL    HW117444   3.708   5.083   2.671
 5515SOL    HW217445   3.703   5.114   2.510
 5516SOL     OW17446   1.332   2.485   5.468
 5516SOL    HW117447   1.270   2.472   5.546
 5516SOL    HW217448   1.321   2.578   5.432
 5517SOL     OW17449   1.199   2.137   4.593
 5517SOL    HW117450   1.153   2.126   4.505
 5517SOL    HW217451   1.297   2.119   4.582
 5518SOL     OW17452   3.692   3.865   5.293
 5518SOL    HW117453   3.662   3.960   5.283
 5518SOL    HW217454   3.735   3.835   5.208
 5519SOL     OW17455   5.169   2.442   5.380
 5519SOL    HW117456   5.151   2.531   5.338
 5519SOL    HW217457   5.266   2.420   5.372
 5520SOL     OW17458   4.974   5.908   1.233
 5520SOL    HW117459   5.061   5.945   1.201
 5520SOL    HW217460   4.901   5.973   1.211
 5521SOL     OW17461   4.462   6.723   1.531
 5521SOL    HW117462   4.370   6.748   1.503
 5521SOL    HW217463   4.462   6.632   1.572
 5522SOL     OW17464   4.814   6.396   6.470
 5522SOL    HW117465   4.906   6.402   6.432
 5522SOL    HW217466   4.750   6.446   6.410
 5523SOL     OW17467   6.214   1.210   0.551
 5523SOL    HW117468   6.154   1.269   0.497
 5523SOL    HW217469   6.197   1.226   0.649
 5524SOL     OW17470   2.969   1.872   2.770
 5524SOL    HW117471   2.940   1.944   2.706
 5524SOL    HW217472   2.897   1.857   2.838
 5525SOL     OW17473   6.417   1.154   0.807
 5525SOL    HW117474   6.340   1.111   0.758
 5525SOL    HW217475   6.502   1.130   0.761
 5526SOL     OW17476   4.942   4.257   3.966
 5526SOL    HW117477   4.993   4.186   3.918
 5526SOL    HW217478   4.883   4.215   4.035
 5527SOL     OW17479   6.607   6.770   2.054
 5527SOL    HW117480   6.587   6.820   1.969
 5527SOL    HW217481   6.705   6.775   2.073
 5528SOL     OW17482   2.328   1.915   6.891
 5528SOL    HW117483   2.376   1.950   6.810
 5528SOL    HW217484   2.371   1.830   6.921
 5529SOL     OW17485   3.300   0.743   1.708
 5529SOL    HW117486   3.306   0.750   1.808
 5529SOL    HW217487   3.212   0.705   1.682
 5530SOL     OW17488   1.041   1.672   1.471
 5530SOL    HW117489   0.965   1.733   1.496
 5530SOL    HW217490   1.061   1.683   1.374
 5531SOL     OW17491   1.013   4.319   6.409
 5531SOL    HW117492   1.048   4.392   6.349
 5531SOL    HW217493   1.061   4.234   6.389
 5532SOL     OW17494   6.731   5.393   5.905
 5532SOL    HW117495   6.773   5.352   5.824
 5532SOL    HW217496   6.634   5.369   5.907
 5533SOL     OW17497   4.259   1.264   4.219
 5533SOL    HW117498   4.353   1.281   4.246
 5533SOL    HW217499   4.231   1.334   4.152
 5534SOL     OW17500   1.269   7.020   4.241
 5534SOL    HW117501   1.335   0.027   4.308
 5534SOL    HW217502   1.253   0.061   4.170
 5535SOL     OW17503   1.222   2.231   3.336
 5535SOL    HW117504   1.266   2.311   3.295
 5535SOL    HW217505   1.292   2.166   3.366
 5536SOL     OW17506   5.000   6.921   5.584
 5536SOL    HW117507   4.992   6.861   5.664
 5536SOL    HW217508   5.014   7.015   5.614
 5537SOL     OW17509   2.706   2.385   2.692
 5537SOL    HW117510   2.660   2.301   2.719
 5537SOL    HW217511   2.676   2.412   2.600
 5538SOL     OW17512   3.559   5.784   4.088
 5538SOL    HW117513   3.556   5.706   4.026
 5538SOL    HW217514   3.651   5.794   4.125
 5539SOL     OW17515   1.767   3.929   0.597
 5539SOL    HW117516   1.832   3.911   0.522
 5539SOL    HW217517   1.709   3.849   0.610
 5540SOL     OW17518   2.972   5.391   1.193
 5540SOL    HW117519   2.904   5.447   1.145
 5540SOL    HW217520   3.052   5.447   1.216
 5541SOL     OW17521   4.418   6.945   6.724
 5541SOL    HW117522   4.362   7.022   6.751
 5541SOL    HW217523   4.442   6.953   6.627
 5542SOL     OW17524   5.902   4.216   6.400
 5542SOL    HW117525   5.995   4.179   6.392
 5542SOL    HW217526   5.873   4.252   6.311
 5543SOL     OW17527   0.348   2.880   5.269
 5543SOL    HW117528   0.307   2.912   5.354
 5543SOL    HW217529   0.376   2.959   5.213
 5544SOL     OW17530   5.136   6.594   0.316
 5544SOL    HW117531   5.044   6.620   0.348
 5544SOL    HW217532   5.178   6.673   0.272
 5545SOL     OW17533   3.073   2.629   1.269
 5545SOL    HW117534   3.051   2.548   1.323
 5545SOL    HW217535   3.010   2.703   1.293
 5546SOL     OW17536   3.600   6.021   4.480
 5546SOL    HW117537   3.541   6.015   4.399
 5546SOL    HW217538   3.558   6.082   4.547
 5547SOL     OW17539   3.391   5.365   3.909
 5547SOL    HW117540   3.337   5.336   3.988
 5547SOL    HW217541   3.488   5.345   3.925
 5548SOL     OW17542   5.978   1.126   4.264
 5548SOL    HW117543   6.001   1.050   4.202
 5548SOL    HW217544   6.010   1.104   4.356
 5549SOL     OW17545   4.149   5.280   4.957
 5549SOL    HW117546   4.115   5.186   4.969
 5549SOL    HW217547   4.166   5.296   4.859
 5550SOL     OW17548   2.554   5.652   1.987
 5550SOL    HW117549   2.624   5.601   1.937
 5550SOL    HW217550   2.597   5.725   2.040
 5551SOL     OW17551   0.718   1.251   2.361
 5551SOL    HW117552   0.727   1.200   2.275
 5551SOL    HW217553   0.731   1.349   2.342
 5552SOL     OW17554   2.247   2.678   2.091
 5552SOL    HW117555   2.290   2.616   2.026
 5552SOL    HW217556   2.263   2.773   2.062
 5553SOL     OW17557   4.688   6.484   5.982
 5553SOL    HW117558   4.736   6.571   5.993
 5553SOL    HW217559   4.668   6.469   5.885
 5554SOL     OW17560   3.116   0.951   5.928
 5554SOL    HW117561   3.182   0.975   5.999
 5554SOL    HW217562   3.033   0.916   5.970
 5555SOL     OW17563   1.128   6.114   1.801
 5555SOL    HW117564   1.163   6.194   1.754
 5555SOL    HW217565   1.204   6.063   1.842
 5556SOL     OW17566   0.302   1.504   5.077
 5556SOL    HW117567   0.340   1.567   5.144
 5556SOL    HW217568   0.297   1.548   4.987
 5557SOL     OW17569   3.625   0.648   2.949
 5557SOL    HW117570   3.654   0.700   3.028
 5557SOL    HW217571   3.701   0.636   2.886
 5558SOL     OW17572   5.663   2.235   6.404
 5558SOL    HW117573   5.668   2.268   6.310
 5558SOL    HW217574   5.570   2.250   6.439
 5559SOL     OW17575   3.626   1.585   1.157
 5559SOL    HW117576   3.574   1.563   1.240
 5559SOL    HW217577   3.678   1.669   1.173
 5560SOL     OW17578   0.468   2.135   4.924
 5560SOL    HW117579   0.398   2.152   4.994
 5560SOL    HW217580   0.424   2.126   4.835
 5561SOL     OW17581   1.775   4.453   2.620
 5561SOL    HW117582   1.872   4.435   2.637
 5561SOL    HW217583   1.762   4.550   2.600
 5562SOL     OW17584   5.292   3.227   0.297
 5562SOL    HW117585   5.198   3.198   0.281
 5562SOL    HW217586   5.341   3.157   0.348
 5563SOL     OW17587   4.301   4.020   0.779
 5563SOL    HW117588   4.256   3.958   0.843
 5563SOL    HW217589   4.399   4.000   0.775
 5564SOL     OW17590   6.100   0.772   3.199
 5564SOL    HW117591   6.124   0.678   3.174
 5564SOL    HW217592   6.017   0.772   3.254
 5565SOL     OW17593   1.853   2.569   5.870
 5565SOL    HW117594   1.807   2.653   5.843
 5565SOL    HW217595   1.826   2.544   5.963
 5566SOL     OW17596   1.836   4.331   0.341
 5566SOL    HW117597   1.763   4.340   0.273
 5566SOL    HW217598   1.923   4.317   0.295
 5567SOL     OW17599   1.308   5.942   2.612
 5567SOL    HW117600   1.389   5.990   2.646
 5567SOL    HW217601   1.338   5.864   2.555
 5568SOL     OW17602   4.970   2.960   0.108
 5568SOL    HW117603   4.993   2.863   0.100
 5568SOL    HW217604   4.875   2.975   0.082
 5569SOL     OW17605   4.154   1.082   6.304
 5569SOL    HW117606   4.063   1.097   6.265
 5569SOL    HW217607   4.178   0.986   6.293
 5570SOL     OW17608   2.020   1.544   5.987
 5570SOL    HW117609   1.959   1.567   5.912
 5570SOL    HW217610   2.063   1.455   5.969
 5571SOL     OW17611   1.848   5.114   6.875
 5571SOL    HW117612   1.782   5.185   6.851
 5571SOL    HW217613   1.925   5.117   6.811
 5572SOL     OW17614   0.527   3.384   5.187
 5572SOL    HW117615   0.546   3.382   5.089
 5572SOL    HW217616   0.431   3.405   5.202
 5573SOL     OW17617   0.828   3.778   6.794
 5573SOL    HW117618   0.875   3.758   6.708
 5573SOL    HW217619   0.895   3.787   6.868
 5574SOL     OW17620   1.267   5.742   4.548
 5574SOL    HW117621   1.172   5.727   4.575
 5574SOL    HW217622   1.290   5.839   4.558
 5575SOL     OW17623   1.550   1.819   2.840
 5575SOL    HW117624   1.577   1.728   2.810
 5575SOL    HW217625   1.592   1.838   2.929
 5576SOL     OW17626   5.603   6.388   6.873
 5576SOL    HW117627   5.571   6.415   6.782
 5576SOL    HW217628   5.566   6.452   6.940
 5577SOL     OW17629   1.882   5.306   5.555
 5577SOL    HW117630   1.924   5.256   5.631
 5577SOL    HW217631   1.951   5.363   5.510
 5578SOL     OW17632   4.115   1.482   6.068
 5578SOL    HW117633   4.092   1.410   6.003
 5578SOL    HW217634   4.123   1.443   6.160
 5579SOL     OW17635   5.299   4.514   2.128
 5579SOL    HW117636   5.203   4.538   2.110
 5579SOL    HW217637   5.303   4.436   2.190
 5580SOL     OW17638   6.339   0.712   2.430
 5580SOL    HW117639   6.276   0.782   2.396
 5580SOL    HW217640   6.407   0.692   2.359
 5581SOL     OW17641   3.632   3.455   0.462
 5581SOL    HW117642   3.609   3.446   0.365
 5581SOL    HW217643   3.701   3.386   0.486
 5582SOL     OW17644   3.060   3.515   5.334
 5582SOL    HW117645   3.145   3.521   5.282
 5582SOL    HW217646   3.004   3.440   5.299
 5583SOL     OW17647   3.970   1.125   6.787
 5583SOL    HW117648   3.960   1.106   6.689
 5583SOL    HW217649   3.912   1.203   6.811
 5584SOL     OW17650   5.673   3.717   4.537
 5584SOL    HW117651   5.587   3.668   4.520
 5584SOL    HW217652   5.654   3.803   4.583
 5585SOL     OW17653   0.720   1.519   3.748
 5585SOL    HW117654   0.730   1.535   3.846
 5585SOL    HW217655   0.748   1.426   3.727
 5586SOL     OW17656   1.635   0.676   0.650
 5586SOL    HW117657   1.662   0.588   0.612
 5586SOL    HW217658   1.667   0.683   0.745
 5587SOL     OW17659   3.108   0.291   2.772
 5587SOL    HW117660   3.086   0.235   2.852
 5587SOL    HW217661   3.060   0.379   2.779
 5588SOL     OW17662   4.492   5.580   0.287
 5588SOL    HW117663   4.558   5.569   0.362
 5588SOL    HW217664   4.532   5.637   0.215
 5589SOL     OW17665   1.584   2.304   6.556
 5589SOL    HW117666   1.554   2.399   6.552
 5589SOL    HW217667   1.681   2.299   6.534
 5590SOL     OW17668   6.115   6.828   3.500
 5590SOL    HW117669   6.079   6.856   3.590
 5590SOL    HW217670   6.212   6.808   3.507
 5591SOL     OW17671   4.876   0.647   5.329
 5591SOL    HW117672   4.880   0.550   5.304
 5591SOL    HW217673   4.859   0.655   5.427
 5592SOL     OW17674   0.940   3.762   3.314
 5592SOL    HW117675   0.901   3.737   3.403
 5592SOL    HW217676   0.939   3.682   3.253
 5593SOL     OW17677   2.557   3.852   5.714
 5593SOL    HW117678   2.597   3.799   5.639
 5593SOL    HW217679   2.567   3.949   5.694
 5594SOL     OW17680   2.957   1.160   5.538
 5594SOL    HW117681   2.894   1.098   5.583
 5594SOL    HW217682   2.996   1.223   5.606
 5595SOL     OW17683   6.200   4.040   1.218
 5595SOL    HW117684   6.279   3.985   1.247
 5595SOL    HW217685   6.216   4.074   1.125
 5596SOL     OW17686   5.253   4.094   4.748
 5596SOL    HW117687   5.319   4.164   4.721
 5596SOL    HW217688   5.190   4.131   4.816
 5597SOL     OW17689   1.164   2.281   6.806
 5597SOL    HW117690   1.099   2.299   6.732
 5597SOL    HW217691   1.168   2.361   6.866
 5598SOL     OW17692   6.977   0.101   3.107
 5598SOL    HW117693   6.887   0.066   3.082
 5598SOL    HW217694   6.979   0.201   3.098
 5599SOL     OW17695   4.837   2.998   2.353
 5599SOL    HW117696   4.884   3.086   2.356
 5599SOL    HW217697   4.759   3.004   2.290
 5600SOL     OW17698   2.113   3.379   2.272
 5600SOL    HW117699   2.158   3.359   2.185
 5600SOL    HW217700   2.014   3.383   2.259
 5601SOL     OW17701   5.066   2.827   6.759
 5601SOL    HW117702   5.136   2.857   6.824
 5601SOL    HW217703   4.994   2.896   6.755
 5602SOL     OW17704   5.392   0.491   2.715
 5602SOL    HW117705   5.488   0.512   2.695
 5602SOL    HW217706   5.334   0.566   2.682
 5603SOL     OW17707   3.405   2.045   6.914
 5603SOL    HW117708   3.379   2.128   6.865
 5603SOL    HW217709   3.379   1.965   6.860
 5604SOL     OW17710   1.702   4.590   4.315
 5604SOL    HW117711   1.652   4.652   4.375
 5604SOL    HW217712   1.748   4.520   4.370
 5605SOL     OW17713   3.642   6.919   4.245
 5605SOL    HW117714   3.615   6.833   4.200
 5605SOL    HW217715   3.735   6.942   4.217
 5606SOL     OW17716   4.067   4.526   0.409
 5606SOL    HW117717   4.003   4.452   0.426
 5606SOL    HW217718   4.130   4.534   0.486
 5607SOL     OW17719   1.751   2.047   1.789
 5607SOL    HW117720   1.788   2.132   1.828
 5607SOL    HW217721   1.781   2.038   1.694
 5608SOL     OW17722   6.052   6.058   3.197
 5608SOL    HW117723   6.129   6.062   3.261
 5608SOL    HW217724   6.070   6.119   3.120
 5609SOL     OW17725   0.117   0.826   0.651
 5609SOL    HW117726   0.090   0.766   0.575
 5609SOL    HW217727   0.165   0.906   0.615
 5610SOL     OW17728   5.769   6.504   5.864
 5610SOL    HW117729   5.783   6.477   5.959
 5610SOL    HW217730   5.808   6.595   5.849
 5611SOL     OW17731   6.894   3.749   1.836
 5611SOL    HW117732   6.949   3.669   1.855
 5611SOL    HW217733   6.806   3.742   1.884
 5612SOL     OW17734   4.866   2.475   0.901
 5612SOL    HW117735   4.873   2.575   0.903
 5612SOL    HW217736   4.772   2.449   0.883
 5613SOL     OW17737   6.605   5.051   4.913
 5613SOL    HW117738   6.613   4.963   4.866
 5613SOL    HW217739   6.538   5.108   4.865
 5614SOL     OW17740   6.242   2.113   4.773
 5614SOL    HW117741   6.298   2.114   4.690
 5614SOL    HW217742   6.160   2.057   4.757
 5615SOL     OW17743   0.797   3.646   3.580
 5615SOL    HW117744   0.833   3.722   3.634
 5615SOL    HW217745   0.865   3.572   3.578
 5616SOL     OW17746   1.634   3.044   1.876
 5616SOL    HW117747   1.544   3.082   1.896
 5616SOL    HW217748   1.663   2.985   1.951
 5617SOL     OW17749   1.127   5.437   5.470
 5617SOL    HW117750   1.086   5.348   5.449
 5617SOL    HW217751   1.226   5.426   5.481
 5618SOL     OW17752   5.360   1.008   3.363
 5618SOL    HW117753   5.402   0.947   3.430
 5618SOL    HW217754   5.431   1.057   3.312
 5619SOL     OW17755   3.735   4.163   4.507
 5619SOL    HW117756   3.637   4.150   4.493
 5619SOL    HW217757   3.750   4.240   4.570
 5620SOL     OW17758   4.611   4.186   5.253
 5620SOL    HW117759   4.603   4.284   5.239
 5620SOL    HW217760   4.707   4.163   5.269
 5621SOL     OW17761   0.470   4.186   0.262
 5621SOL    HW117762   0.541   4.166   0.330
 5621SOL    HW217763   0.384   4.146   0.292
 5622SOL     OW17764   5.930   5.147   4.110
 5622SOL    HW117765   5.940   5.048   4.102
 5622SOL    HW217766   5.940   5.189   4.019
 5623SOL     OW17767   4.676   4.744   3.848
 5623SOL    HW117768   4.765   4.699   3.852
 5623SOL    HW217769   4.643   4.761   3.941
 5624SOL     OW17770   4.921   3.644   4.344
 5624SOL    HW117771   4.891   3.562   4.393
 5624SOL    HW217772   4.949   3.619   4.252
 5625SOL     OW17773   3.956   0.172   0.255
 5625SOL    HW117774   3.916   0.246   0.201
 5625SOL    HW217775   3.892   0.142   0.326
 5626SOL     OW17776   1.941   4.602   5.997
 5626SOL    HW117777   1.997   4.550   5.932
 5626SOL    HW217778   1.861   4.640   5.949
 5627SOL     OW17779   1.008   5.140   1.466
 5627SOL    HW117780   1.102   5.172   1.477
 5627SOL    HW217781   1.008   5.056   1.410
 5628SOL     OW17782   1.633   2.529   0.380
 5628SOL    HW117783   1.673   2.561   0.294
 5628SOL    HW217784   1.602   2.607   0.434
 5629SOL     OW17785   1.204   3.521   4.654
 5629SOL    HW117786   1.271   3.570   4.710
 5629SOL    HW217787   1.162   3.449   4.708
 5630SOL     OW17788   1.032   4.046   6.978
 5630SOL    HW117789   1.098   4.040   0.026
 5630SOL    HW217790   1.070   4.106   6.907
 5631SOL     OW17791   2.642   1.127   4.007
 5631SOL    HW117792   2.651   1.224   3.984
 5631SOL    HW217793   2.546   1.103   4.014
 5632SOL     OW17794   2.751   6.440   5.359
 5632SOL    HW117795   2.720   6.503   5.430
 5632SOL    HW217796   2.725   6.475   5.269
 5633SOL     OW17797   1.557   4.986   5.267
 5633SOL    HW117798   1.633   5.028   5.316
 5633SOL    HW217799   1.510   5.056   5.212
 5634SOL     OW17800   1.095   0.180   1.692
 5634SOL    HW117801   1.044   0.180   1.606
 5634SOL    HW217802   1.171   0.115   1.686
 5635SOL     OW17803   3.858   0.734   3.245
 5635SOL    HW117804   3.896   0.790   3.172
 5635SOL    HW217805   3.848   0.790   3.328
 5636SOL     OW17806   4.851   0.378   5.239
 5636SOL    HW117807   4.867   0.325   5.323
 5636SOL    HW217808   4.771   0.342   5.191
 5637SOL     OW17809   5.231   6.522   5.178
 5637SOL    HW117810   5.145   6.573   5.170
 5637SOL    HW217811   5.243   6.463   5.099
 5638SOL     OW17812   1.746   5.893   6.960
 5638SOL    HW117813   1.831   5.929   6.921
 5638SOL    HW217814   1.758   5.880   0.031
 5639SOL     OW17815   3.055   0.271   1.452
 5639SOL    HW117816   3.054   0.219   1.367
 5639SOL    HW217817   3.115   0.350   1.443
 5640SOL     OW17818   4.256   6.546   4.424
 5640SOL    HW117819   4.322   6.528   4.498
 5640SOL    HW217820   4.291   6.508   4.339
 5641SOL     OW17821   6.298   5.459   4.065
 5641SOL    HW117822   6.375   5.477   4.005
 5641SOL    HW217823   6.299   5.524   4.142
 5642SOL     OW17824   1.510   1.632   6.594
 5642SOL    HW117825   1.513   1.544   6.640
 5642SOL    HW217826   1.480   1.703   6.658
 5643SOL     OW17827   4.781   1.753   3.911
 5643SOL    HW117828   4.878   1.763   3.889
 5643SOL    HW217829   4.729   1.822   3.862
 5644SOL     OW17830   2.525   0.941   5.030
 5644SOL    HW117831   2.622   0.956   5.012
 5644SOL    HW217832   2.498   0.850   4.999
 5645SOL     OW17833   6.994   6.396   4.344
 5645SOL    HW117834   6.997   6.317   4.405
 5645SOL    HW217835   6.950   6.371   4.258
 5646SOL     OW17836   6.504   1.299   2.633
 5646SOL    HW117837   6.404   1.302   2.631
 5646SOL    HW217838   6.538   1.245   2.556
 5647SOL     OW17839   5.932   3.760   6.470
 5647SOL    HW117840   5.917   3.841   6.412
 5647SOL    HW217841   6.026   3.728   6.459
 5648SOL     OW17842   1.608   2.293   4.704
 5648SOL    HW117843   1.594   2.380   4.655
 5648SOL    HW217844   1.705   2.283   4.725
 5649SOL     OW17845   6.758   0.756   4.300
 5649SOL    HW117846   6.851   0.730   4.274
 5649SOL    HW217847   6.702   0.767   4.218
 5650SOL     OW17848   5.632   4.366   5.662
 5650SOL    HW117849   5.694   4.352   5.739
 5650SOL    HW217850   5.545   4.404   5.696
 5651SOL     OW17851   5.659   0.572   3.083
 5651SOL    HW117852   5.708   0.518   3.151
 5651SOL    HW217853   5.650   0.667   3.115
 5652SOL     OW17854   3.099   4.732   6.594
 5652SOL    HW117855   3.002   4.707   6.596
 5652SOL    HW217856   3.125   4.757   6.500
 5653SOL     OW17857   1.468   6.889   5.563
 5653SOL    HW117858   1.429   6.976   5.533
 5653SOL    HW217859   1.494   6.895   5.659
 5654SOL     OW17860   2.964   6.881   6.793
 5654SOL    HW117861   2.938   6.790   6.760
 5654SOL    HW217862   3.057   6.879   6.828
 5655SOL     OW17863   5.918   4.799   2.297
 5655SOL    HW117864   5.961   4.741   2.367
 5655SOL    HW217865   5.835   4.841   2.335
 5656SOL     OW17866   2.607   4.179   6.732
 5656SOL    HW117867   2.693   4.227   6.716
 5656SOL    HW217868   2.599   4.155   6.828
 5657SOL     OW17869   4.957   5.693   1.916
 5657SOL    HW117870   4.975   5.677   2.013
 5657SOL    HW217871   5.044   5.696   1.866
 5658SOL     OW17872   4.436   6.898   6.381
 5658SOL    HW117873   4.347   6.888   6.335
 5658SOL    HW217874   4.437   6.986   6.430
 5659SOL     OW17875   3.243   3.375   2.412
 5659SOL    HW117876   3.338   3.351   2.390
 5659SOL    HW217877   3.235   3.475   2.419
 5660SOL     OW17878   0.645   4.556   2.006
 5660SOL    HW117879   0.743   4.551   2.026
 5660SOL    HW217880   0.612   4.467   1.977
 5661SOL     OW17881   5.769   5.259   5.256
 5661SOL    HW117882   5.725   5.314   5.185
 5661SOL    HW217883   5.743   5.163   5.245
 5662SOL     OW17884   2.052   4.976   5.353
 5662SOL    HW117885   2.114   5.054   5.367
 5662SOL    HW217886   2.027   4.971   5.256
 5663SOL     OW17887   2.059   3.393   0.245
 5663SOL    HW117888   2.081   3.354   0.335
 5663SOL    HW217889   2.057   3.320   0.177
 5664SOL     OW17890   5.792   6.882   1.523
 5664SOL    HW117891   5.755   6.889   1.616
 5664SOL    HW217892   5.886   6.915   1.522
 5665SOL     OW17893   1.093   0.413   6.214
 5665SOL    HW117894   1.149   0.482   6.260
 5665SOL    HW217895   1.006   0.453   6.185
 5666SOL     OW17896   4.324   6.111   6.432
 5666SOL    HW117897   4.243   6.097   6.374
 5666SOL    HW217898   4.403   6.131   6.374
 5667SOL     OW17899   5.835   5.171   3.182
 5667SOL    HW117900   5.920   5.147   3.228
 5667SOL    HW217901   5.841   5.265   3.147
 5668SOL     OW17902   6.664   3.006   6.105
 5668SOL    HW117903   6.641   3.057   6.188
 5668SOL    HW217904   6.690   2.913   6.128
 5669SOL     OW17905   1.440   1.741   5.449
 5669SOL    HW117906   1.402   1.724   5.541
 5669SOL    HW217907   1.539   1.746   5.455
 5670SOL     OW17908   1.679   2.847   2.730
 5670SOL    HW117909   1.618   2.795   2.790
 5670SOL    HW217910   1.668   2.816   2.636
 5671SOL     OW17911   0.971   1.368   6.409
 5671SOL    HW117912   0.964   1.448   6.470
 5671SOL    HW217913   1.061   1.328   6.418
 5672SOL     OW17914   3.518   4.765   6.352
 5672SOL    HW117915   3.579   4.774   6.273
 5672SOL    HW217916   3.532   4.676   6.394
 5673SOL     OW17917   1.748   5.588   1.261
 5673SOL    HW117918   1.759   5.637   1.347
 5673SOL    HW217919   1.793   5.499   1.268
 5674SOL     OW17920   0.428   3.180   0.091
 5674SOL    HW117921   0.457   3.099   0.142
 5674SOL    HW217922   0.453   3.169   7.022
 5675SOL     OW17923   4.702   1.496   5.945
 5675SOL    HW117924   4.716   1.594   5.925
 5675SOL    HW217925   4.615   1.466   5.905
 5676SOL     OW17926   1.960   5.408   1.546
 5676SOL    HW117927   2.031   5.357   1.497
 5676SOL    HW217928   1.986   5.504   1.552
 5677SOL     OW17929   5.739   0.924   4.111
 5677SOL    HW117930   5.730   1.021   4.133
 5677SOL    HW217931   5.745   0.912   4.012
 5678SOL     OW17932   1.170   5.348   2.500
 5678SOL    HW117933   1.159   5.444   2.527
 5678SOL    HW217934   1.250   5.310   2.546
 5679SOL     OW17935   3.591   6.730   5.670
 5679SOL    HW117936   3.671   6.672   5.686
 5679SOL    HW217937   3.597   6.770   5.578
 5680SOL     OW17938   0.701   0.077   6.506
 5680SOL    HW117939   0.652   0.010   6.448
 5680SOL    HW217940   0.782   0.034   6.545
 5681SOL     OW17941   2.953   3.222   0.527
 5681SOL    HW117942   2.955   3.176   0.616
 5681SOL    HW217943   3.019   3.297   0.527
 5682SOL     OW17944   1.987   5.085   4.704
 5682SOL    HW117945   2.005   5.163   4.763
 5682SOL    HW217946   2.070   5.030   4.695
 5683SOL     OW17947   3.160   3.098   4.529
 5683SOL    HW117948   3.208   3.185   4.543
 5683SOL    HW217949   3.096   3.083   4.603
 5684SOL     OW17950   3.582   4.097   2.581
 5684SOL    HW117951   3.682   4.090   2.588
 5684SOL    HW217952   3.558   4.155   2.503
 5685SOL     OW17953   6.414   0.954   2.003
 5685SOL    HW117954   6.426   1.014   1.925
 5685SOL    HW217955   6.503   0.930   2.041
 5686SOL     OW17956   3.564   4.415   6.157
 5686SOL    HW117957   3.615   4.350   6.212
 5686SOL    HW217958   3.614   4.435   6.073
 5687SOL     OW17959   4.935   0.054   6.288
 5687SOL    HW117960   4.949   7.000   6.232
 5687SOL    HW217961   4.992   0.129   6.252
 5688SOL     OW17962   5.696   1.257   2.099
 5688SOL    HW117963   5.776   1.299   2.141
 5688SOL    HW217964   5.613   1.306   2.126
 5689SOL     OW17965   3.616   3.554   5.263
 5689SOL    HW117966   3.600   3.481   5.196
 5689SOL    HW217967   3.690   3.613   5.231
 5690SOL     OW17968   2.648   0.319   2.283
 5690SOL    HW117969   2.631   0.326   2.382
 5690SOL    HW217970   2.681   0.228   2.261
 5691SOL     OW17971   3.270   0.177   4.647
 5691SOL    HW117972   3.251   0.086   4.685
 5691SOL    HW217973   3.272   0.243   4.722
 5692SOL     OW17974   6.232   3.372   1.227
 5692SOL    HW117975   6.248   3.450   1.167
 5692SOL    HW217976   6.289   3.295   1.197
 5693SOL     OW17977   5.484   3.359   2.367
 5693SOL    HW117978   5.442   3.446   2.391
 5693SOL    HW217979   5.582   3.362   2.386
 5694SOL     OW17980   1.968   2.345   4.942
 5694SOL    HW117981   1.917   2.368   5.025
 5694SOL    HW217982   2.058   2.390   4.945
 5695SOL     OW17983   1.087   3.640   2.675
 5695SOL    HW117984   1.182   3.671   2.668
 5695SOL    HW217985   1.078   3.551   2.631
 5696SOL     OW17986   3.057   1.465   6.083
 5696SOL    HW117987   3.051   1.474   6.182
 5696SOL    HW217988   3.153   1.450   6.057
 5697SOL     OW17989   6.214   3.825   0.926
 5697SOL    HW117990   6.247   3.911   0.966
 5697SOL    HW217991   6.262   3.807   0.840
 5698SOL     OW17992   1.533   5.213   4.294
 5698SOL    HW117993   1.543   5.156   4.213
 5698SOL    HW217994   1.621   5.253   4.319
 5699SOL     OW17995   0.837   2.279   5.277
 5699SOL    HW117996   0.850   2.252   5.182
 5699SOL    HW217997   0.783   2.363   5.281
 5700SOL     OW17998   1.606   5.273   4.757
 5700SOL    HW117999   1.702   5.285   4.781
 5700SOL    HW218000   1.574   5.353   4.706
 5701SOL     OW18001   5.254   2.473   2.282
 5701SOL    HW118002   5.161   2.470   2.248
 5701SOL    HW218003   5.315   2.512   2.213
 5702SOL     OW18004   4.037   0.979   7.014
 5702SOL    HW118005   4.031   1.019   6.922
 5702SOL    HW218006   4.085   0.892   7.010
 5703SOL     OW18007   4.813   3.941   2.833
 5703SOL    HW118008   4.779   4.034   2.844
 5703SOL    HW218009   4.816   3.917   2.736
 5704SOL     OW18010   5.172   3.281   3.997
 5704SOL    HW118011   5.170   3.354   4.065
 5704SOL    HW218012   5.249   3.295   3.935
 5705SOL     OW18013   6.254   0.698   5.310
 5705SOL    HW118014   6.326   0.767   5.307
 5705SOL    HW218015   6.241   0.660   5.218
 5706SOL     OW18016   1.897   1.139   5.779
 5706SOL    HW118017   1.952   1.055   5.779
 5706SOL    HW218018   1.809   1.121   5.737
 5707SOL     OW18019   5.360   0.512   0.844
 5707SOL    HW118020   5.307   0.435   0.808
 5707SOL    HW218021   5.297   0.584   0.874
 5708SOL     OW18022   0.749   7.023   0.440
 5708SOL    HW118023   0.667   6.970   0.465
 5708SOL    HW218024   0.796   6.977   0.365
 5709SOL     OW18025   6.979   2.604   0.567
 5709SOL    HW118026   6.925   2.612   0.650
 5709SOL    HW218027   0.037   2.652   0.577
 5710SOL     OW18028   3.010   5.482   6.126
 5710SOL    HW118029   3.054   5.513   6.210
 5710SOL    HW218030   2.911   5.498   6.131
 5711SOL     OW18031   5.357   0.658   5.525
 5711SOL    HW118032   5.451   0.681   5.502
 5711SOL    HW218033   5.322   0.592   5.459
 5712SOL     OW18034   5.323   6.917   6.139
 5712SOL    HW118035   5.363   6.839   6.187
 5712SOL    HW218036   5.376   6.999   6.159
 5713SOL     OW18037   0.428   2.756   3.050
 5713SOL    HW118038   0.420   2.703   2.965
 5713SOL    HW218039   0.485   2.836   3.034
 5714SOL     OW18040   2.474   0.446   1.006
 5714SOL    HW118041   2.544   0.430   1.075
 5714SOL    HW218042   2.508   0.419   0.916
 5715SOL     OW18043   1.011   5.547   3.557
 5715SOL    HW118044   0.964   5.635   3.561
 5715SOL    HW218045   0.971   5.484   3.623
 5716SOL     OW18046   1.509   2.765   4.709
 5716SOL    HW118047   1.533   2.843   4.651
 5716SOL    HW218048   1.523   2.680   4.659
 5717SOL     OW18049   0.524   4.933   5.651
 5717SOL    HW118050   0.587   4.885   5.713
 5717SOL    HW218051   0.438   4.882   5.646
 5718SOL     OW18052   2.336   6.192   5.930
 5718SOL    HW118053   2.265   6.228   5.991
 5718SOL    HW218054   2.306   6.105   5.892
 5719SOL     OW18055   1.569   0.595   0.130
 5719SOL    HW118056   1.580   0.669   0.196
 5719SOL    HW218057   1.659   0.553   0.112
 5720SOL     OW18058   1.937   5.840   4.017
 5720SOL    HW118059   1.988   5.785   4.083
 5720SOL    HW218060   1.981   5.928   4.004
 5721SOL     OW18061   5.965   5.397   6.800
 5721SOL    HW118062   6.032   5.466   6.827
 5721SOL    HW218063   5.943   5.339   6.879
 5722SOL     OW18064   5.107   0.538   4.342
 5722SOL    HW118065   5.028   0.540   4.280
 5722SOL    HW218066   5.082   0.578   4.430
 5723SOL     OW18067   6.187   5.773   1.465
 5723SOL    HW118068   6.253   5.714   1.513
 5723SOL    HW218069   6.134   5.717   1.400
 5724SOL     OW18070   4.447   3.092   5.694
 5724SOL    HW118071   4.418   3.126   5.605
 5724SOL    HW218072   4.507   3.160   5.737
 5725SOL     OW18073   6.388   0.028   5.350
 5725SOL    HW118074   6.415   0.016   5.255
 5725SOL    HW218075   6.301   7.010   5.366
 5726SOL     OW18076   4.609   5.863   5.215
 5726SOL    HW118077   4.692   5.903   5.177
 5726SOL    HW218078   4.562   5.811   5.144
 5727SOL     OW18079   5.352   3.296   3.809
 5727SOL    HW118080   5.277   3.237   3.780
 5727SOL    HW218081   5.405   3.324   3.729
 5728SOL     OW18082   3.685   0.543   5.078
 5728SOL    HW118083   3.692   0.445   5.060
 5728SOL    HW218084   3.690   0.594   4.992
 5729SOL     OW18085   2.823   1.035   3.517
 5729SOL    HW118086   2.855   1.126   3.543
 5729SOL    HW218087   2.885   0.966   3.555
 5730SOL     OW18088   3.686   5.438   0.268
 5730SOL    HW118089   3.774   5.408   0.304
 5730SOL    HW218090   3.612   5.389   0.314
 5731SOL     OW18091   3.879   1.085   5.217
 5731SOL    HW118092   3.808   1.096   5.286
 5731SOL    HW218093   3.964   1.126   5.249
 5732SOL     OW18094   6.421   4.084   4.761
 5732SOL    HW118095   6.493   4.021   4.791
 5732SOL    HW218096   6.461   4.173   4.740
 5733SOL     OW18097   1.985   5.907   0.568
 5733SOL    HW118098   1.900   5.875   0.611
 5733SOL    HW218099   2.003   5.852   0.486
 5734SOL     OW18100   1.409   0.367   6.416
 5734SOL    HW118101   1.464   0.383   6.334
 5734SOL    HW218102   1.378   0.454   6.454
 5735SOL     OW18103   6.444   1.203   1.080
 5735SOL    HW118104   6.428   1.189   0.982
 5735SOL    HW218105   6.356   1.207   1.128
 5736SOL     OW18106   3.702   2.666   6.828
 5736SOL    HW118107   3.698   2.744   6.765
 5736SOL    HW218108   3.775   2.604   6.800
 5737SOL     OW18109   5.130   5.298   2.490
 5737SOL    HW118110   5.143   5.300   2.589
 5737SOL    HW218111   5.216   5.271   2.446
 5738SOL     OW18112   3.130   1.471   1.394
 5738SOL    HW118113   3.193   1.432   1.462
 5738SOL    HW218114   3.048   1.506   1.441
 5739SOL     OW18115   1.960   1.274   6.204
 5739SOL    HW118116   1.899   1.214   6.255
 5739SOL    HW218117   2.006   1.337   6.267
 5740SOL     OW18118   5.669   2.099   2.520
 5740SOL    HW118119   5.656   2.083   2.422
 5740SOL    HW218120   5.583   2.083   2.568
 5741SOL     OW18121   1.214   3.563   3.404
 5741SOL    HW118122   1.245   3.552   3.310
 5741SOL    HW218123   1.241   3.653   3.438
 5742SOL     OW18124   6.548   4.150   2.423
 5742SOL    HW118125   6.635   4.164   2.471
 5742SOL    HW218126   6.531   4.052   2.412
 5743SOL     OW18127   3.154   0.454   5.911
 5743SOL    HW118128   3.191   0.474   5.820
 5743SOL    HW218129   3.068   0.403   5.901
 5744SOL     OW18130   5.438   5.827   4.511
 5744SOL    HW118131   5.537   5.820   4.499
 5744SOL    HW218132   5.397   5.737   4.504
 5745SOL     OW18133   2.100   3.896   2.928
 5745SOL    HW118134   2.046   3.912   3.010
 5745SOL    HW218135   2.168   3.969   2.918
 5746SOL     OW18136   5.116   0.863   3.945
 5746SOL    HW118137   5.027   0.868   3.899
 5746SOL    HW218138   5.137   0.951   3.987
 5747SOL     OW18139   0.724   0.386   1.845
 5747SOL    HW118140   0.637   0.344   1.819
 5747SOL    HW218141   0.777   0.407   1.763
 5748SOL     OW18142   6.001   0.183   6.437
 5748SOL    HW118143   5.915   0.138   6.458
 5748SOL    HW218144   6.024   0.246   6.511
 5749SOL     OW18145   2.001   5.992   6.049
 5749SOL    HW118146   1.951   5.941   6.119
 5749SOL    HW218147   2.015   6.086   6.081
 5750SOL     OW18148   6.262   2.424   4.054
 5750SOL    HW118149   6.286   2.503   3.997
 5750SOL    HW218150   6.320   2.423   4.136
 5751SOL     OW18151   0.381   4.409   4.723
 5751SOL    HW118152   0.383   4.331   4.660
 5751SOL    HW218153   0.343   4.380   4.811
 5752SOL     OW18154   5.303   2.040   6.162
 5752SOL    HW118155   5.377   2.088   6.114
 5752SOL    HW218156   5.217   2.053   6.113
 5753SOL     OW18157   3.708   3.716   3.784
 5753SOL    HW118158   3.798   3.725   3.826
 5753SOL    HW218159   3.709   3.753   3.692
 5754SOL     OW18160   6.040   0.256   0.514
 5754SOL    HW118161   6.080   0.191   0.449
 5754SOL    HW218162   5.942   0.236   0.524
 5755SOL     OW18163   1.373   3.829   6.592
 5755SOL    HW118164   1.287   3.798   6.551
 5755SOL    HW218165   1.355   3.864   6.684
 5756SOL     OW18166   4.627   6.539   1.801
 5756SOL    HW118167   4.544   6.499   1.764
 5756SOL    HW218168   4.691   6.558   1.726
 5757SOL     OW18169   1.921   2.262   4.158
 5757SOL    HW118170   1.978   2.200   4.104
 5757SOL    HW218171   1.896   2.218   4.244
 5758SOL     OW18172   5.976   6.780   2.919
 5758SOL    HW118173   5.940   6.714   2.984
 5758SOL    HW218174   5.959   6.748   2.826
 5759SOL     OW18175   3.569   6.150   2.664
 5759SOL    HW118176   3.546   6.074   2.603
 5759SOL    HW218177   3.504   6.225   2.650
 5760SOL     OW18178   0.536   2.386   0.354
 5760SOL    HW118179   0.555   2.313   0.288
 5760SOL    HW218180   0.621   2.421   0.391
 5761SOL     OW18181   0.331   6.885   5.100
 5761SOL    HW118182   0.234   6.903   5.088
 5761SOL    HW218183   0.348   6.787   5.097
 5762SOL     OW18184   0.555   6.472   6.063
 5762SOL    HW118185   0.540   6.537   5.989
 5762SOL    HW218186   0.643   6.426   6.049
 5763SOL     OW18187   4.313   0.358   0.039
 5763SOL    HW118188   4.369   0.278   0.060
 5763SOL    HW218189   4.232   0.358   0.097
 5764SOL     OW18190   3.467   5.990   4.244
 5764SOL    HW118191   3.377   6.023   4.216
 5764SOL    HW218192   3.486   5.902   4.199
 5765SOL     OW18193   5.778   6.748   3.237
 5765SOL    HW118194   5.731   6.827   3.199
 5765SOL    HW218195   5.776   6.753   3.337
 5766SOL     OW18196   1.172   0.873   4.274
 5766SOL    HW118197   1.104   0.804   4.298
 5766SOL    HW218198   1.224   0.898   4.356
 5767SOL     OW18199   6.089   0.109   0.288
 5767SOL    HW118200   6.091   0.191   0.232
 5767SOL    HW218201   6.143   0.037   0.244
 5768SOL     OW18202   1.344   0.431   5.183
 5768SOL    HW118203   1.422   0.462   5.236
 5768SOL    HW218204   1.344   0.474   5.093
 5769SOL     OW18205   1.192   2.330   6.461
 5769SOL    HW118206   1.266   2.297   6.404
 5769SOL    HW218207   1.150   2.253   6.510
 5770SOL     OW18208   0.859   2.606   1.843
 5770SOL    HW118209   0.844   2.561   1.931
 5770SOL    HW218210   0.948   2.652   1.845
 5771SOL     OW18211   3.302   5.810   3.266
 5771SOL    HW118212   3.304   5.824   3.167
 5771SOL    HW218213   3.282   5.715   3.286
 5772SOL     OW18214   2.769   1.141   3.260
 5772SOL    HW118215   2.674   1.147   3.229
 5772SOL    HW218216   2.773   1.085   3.343
 5773SOL     OW18217   5.312   0.341   4.395
 5773SOL    HW118218   5.273   0.429   4.367
 5773SOL    HW218219   5.240   0.271   4.395
 5774SOL     OW18220   1.106   6.800   4.237
 5774SOL    HW118221   1.022   6.835   4.195
 5774SOL    HW218222   1.167   6.876   4.258
 5775SOL     OW18223   6.141   4.959   2.368
 5775SOL    HW118224   6.107   5.015   2.444
 5775SOL    HW218225   6.067   4.899   2.335
 5776SOL     OW18226   4.282   1.053   4.435
 5776SOL    HW118227   4.286   1.129   4.370
 5776SOL    HW218228   4.360   1.058   4.497
 5777SOL     OW18229   6.868   1.228   1.441
 5777SOL    HW118230   6.897   1.239   1.346
 5777SOL    HW218231   6.858   1.130   1.462
 5778SOL     OW18232   6.916   0.603   5.908
 5778SOL    HW118233   6.927   0.528   5.844
 5778SOL    HW218234   7.002   0.653   5.916
 5779SOL     OW18235   5.382   1.963   0.154
 5779SOL    HW118236   5.457   2.009   0.202
 5779SOL    HW218237   5.393   1.864   0.163
 5780SOL     OW18238   5.458   4.870   4.023
 5780SOL    HW118239   5.532   4.831   3.968
 5780SOL    HW218240   5.419   4.949   3.975
 5781SOL     OW18241   1.108   6.151   5.472
 5781SOL    HW118242   1.194   6.202   5.470
 5781SOL    HW218243   1.124   6.057   5.440
 5782SOL     OW18244   5.748   0.914   0.922
 5782SOL    HW118245   5.707   0.823   0.917
 5782SOL    HW218246   5.753   0.953   0.831
 5783SOL     OW18247   2.030   2.471   6.633
 5783SOL    HW118248   2.080   2.487   6.718
 5783SOL    HW218249   1.931   2.476   6.651
 5784SOL     OW18250   6.473   6.225   0.653
 5784SOL    HW118251   6.506   6.202   0.745
 5784SOL    HW218252   6.431   6.144   0.612
 5785SOL     OW18253   1.412   1.709   2.266
 5785SOL    HW118254   1.366   1.701   2.177
 5785SOL    HW218255   1.474   1.788   2.264
 5786SOL     OW18256   6.035   4.576   1.888
 5786SOL    HW118257   6.059   4.610   1.979
 5786SOL    HW218258   6.117   4.578   1.829
 5787SOL     OW18259   2.262   2.182   6.199
 5787SOL    HW118260   2.238   2.198   6.103
 5787SOL    HW218261   2.282   2.085   6.213
 5788SOL     OW18262   3.754   0.838   4.297
 5788SOL    HW118263   3.768   0.906   4.225
 5788SOL    HW218264   3.702   0.761   4.260
 5789SOL     OW18265   3.039   4.535   5.818
 5789SOL    HW118266   2.998   4.464   5.761
 5789SOL    HW218267   3.128   4.505   5.850
 5790SOL     OW18268   2.129   3.508   3.970
 5790SOL    HW118269   2.150   3.545   3.879
 5790SOL    HW218270   2.034   3.526   3.992
 5791SOL     OW18271   1.621   1.162   3.146
 5791SOL    HW118272   1.606   1.101   3.069
 5791SOL    HW218273   1.533   1.188   3.186
 5792SOL     OW18274   1.115   1.786   3.456
 5792SOL    HW118275   1.035   1.822   3.408
 5792SOL    HW218276   1.168   1.862   3.494
 5793SOL     OW18277   6.546   1.697   5.887
 5793SOL    HW118278   6.447   1.683   5.883
 5793SOL    HW218279   6.590   1.612   5.919
 5794SOL     OW18280   0.002   3.538   6.620
 5794SOL    HW118281   0.045   3.448   6.611
 5794SOL    HW218282   0.048   3.603   6.560
 5795SOL     OW18283   6.786   4.944   0.049
 5795SOL    HW118284   6.778   4.954   6.978
 5795SOL    HW218285   6.748   4.856   0.078
 5796SOL     OW18286   3.199   1.897   0.718
 5796SOL    HW118287   3.119   1.898   0.657
 5796SOL    HW218288   3.173   1.855   0.805
 5797SOL     OW18289   2.932   3.102   5.861
 5797SOL    HW118290   2.953   3.121   5.765
 5797SOL    HW218291   2.870   3.023   5.866
 5798SOL     OW18292   6.226   4.865   4.361
 5798SOL    HW118293   6.291   4.940   4.350
 5798SOL    HW218294   6.208   4.850   4.459
 5799SOL     OW18295   4.910   0.353   4.232
 5799SOL    HW118296   4.849   0.401   4.169
 5799SOL    HW218297   4.898   0.255   4.222
 5800SOL     OW18298   5.287   6.267   6.501
 5800SOL    HW118299   5.264   6.288   6.597
 5800SOL    HW218300   5.384   6.246   6.494
 5801SOL     OW18301   2.133   0.404   1.831
 5801SOL    HW118302   2.091   0.489   1.799
 5801SOL    HW218303   2.183   0.361   1.756
 5802SOL     OW18304   0.506   2.746   4.317
 5802SOL    HW118305   0.572   2.791   4.257
 5802SOL    HW218306   0.417   2.792   4.308
 5803SOL     OW18307   1.090   4.832   0.220
 5803SOL    HW118308   1.093   4.914   0.276
 5803SOL    HW218309   1.099   4.751   0.278
 5804SOL     OW18310   0.568   3.175   6.869
 5804SOL    HW118311   0.569   3.271   6.839
 5804SOL    HW218312   0.604   3.117   6.795
 5805SOL     OW18313   4.832   3.512   7.008
 5805SOL    HW118314   4.783   3.599   7.014
 5805SOL    HW218315   4.877   3.506   6.918
 5806SOL     OW18316   6.111   6.198   6.072
 5806SOL    HW118317   6.013   6.176   6.066
 5806SOL    HW218318   6.126   6.265   6.146
 5807SOL     OW18319   2.044   4.286   0.743
 5807SOL    HW118320   2.050   4.383   0.763
 5807SOL    HW218321   2.064   4.270   0.646
 5808SOL     OW18322   6.952   1.648   3.971
 5808SOL    HW118323   6.870   1.625   4.024
 5808SOL    HW218324   7.016   1.698   4.029
 5809SOL     OW18325   0.603   3.770   3.484
 5809SOL    HW118326   0.616   3.868   3.466
 5809SOL    HW218327   0.687   3.732   3.522
 5810SOL     OW18328   3.464   1.770   2.861
 5810SOL    HW118329   3.381   1.823   2.847
 5810SOL    HW218330   3.441   1.680   2.896
 5811SOL     OW18331   3.301   6.880   1.382
 5811SOL    HW118332   3.382   6.830   1.351
 5811SOL    HW218333   3.329   6.953   1.445
 5812SOL     OW18334   4.968   0.474   4.949
 5812SOL    HW118335   4.963   0.375   4.934
 5812SOL    HW218336   4.935   0.495   5.041
 5813SOL     OW18337   1.240   2.774   4.686
 5813SOL    HW118338   1.223   2.869   4.711
 5813SOL    HW218339   1.328   2.745   4.722
 5814SOL     OW18340   0.509   4.730   1.248
 5814SOL    HW118341   0.410   4.716   1.246
 5814SOL    HW218342   0.537   4.783   1.168
 5815SOL     OW18343   4.236   6.471   5.339
 5815SOL    HW118344   4.267   6.531   5.265
 5815SOL    HW218345   4.175   6.401   5.301
 5816SOL     OW18346   5.771   6.414   6.410
 5816SOL    HW118347   5.859   6.412   6.458
 5816SOL    HW218348   5.784   6.455   6.319
 5817SOL     OW18349   6.812   2.262   6.594
 5817SOL    HW118350   6.761   2.325   6.536
 5817SOL    HW218351   6.874   2.314   6.653
 5818SOL     OW18352   5.553   6.769   4.951
 5818SOL    HW118353   5.479   6.817   4.999
 5818SOL    HW218354   5.637   6.824   4.958
 5819SOL     OW18355   6.372   1.125   1.785
 5819SOL    HW118356   6.281   1.086   1.776
 5819SOL    HW218357   6.427   1.102   1.705
 5820SOL     OW18358   5.466   4.578   1.776
 5820SOL    HW118359   5.504   4.543   1.862
 5820SOL    HW218360   5.460   4.678   1.781
 5821SOL     OW18361   2.989   6.321   2.397
 5821SOL    HW118362   3.066   6.327   2.461
 5821SOL    HW218363   2.996   6.237   2.343
 5822SOL     OW18364   0.195   0.402   2.996
 5822SOL    HW118365   0.156   0.390   3.088
 5822SOL    HW218366   0.121   0.412   2.930
 5823SOL     OW18367   1.170   2.194   4.263
 5823SOL    HW118368   1.141   2.113   4.212
 5823SOL    HW218369   1.096   2.261   4.264
 5824SOL     OW18370   5.038   0.564   4.032
 5824SOL    HW118371   4.944   0.531   4.034
 5824SOL    HW218372   5.041   0.655   3.992
 5825SOL     OW18373   3.277   0.766   1.442
 5825SOL    HW118374   3.280   0.677   1.397
 5825SOL    HW218375   3.286   0.753   1.541
 5826SOL     OW18376   0.519   6.535   3.302
 5826SOL    HW118377   0.559   6.511   3.214
 5826SOL    HW218378   0.573   6.494   3.375
 5827SOL     OW18379   1.748   4.917   6.262
 5827SOL    HW118380   1.664   4.869   6.235
 5827SOL    HW218381   1.742   5.013   6.236
 5828SOL     OW18382   6.411   1.421   0.730
 5828SOL    HW118383   6.481   1.465   0.786
 5828SOL    HW218384   6.399   1.327   0.760
 5829SOL     OW18385   1.974   0.416   0.974
 5829SOL    HW118386   1.954   0.481   0.900
 5829SOL    HW218387   2.007   0.466   1.054
 5830SOL     OW18388   1.065   1.362   6.080
 5830SOL    HW118389   1.147   1.405   6.116
 5830SOL    HW218390   1.075   1.263   6.082
 5831SOL     OW18391   5.672   5.262   2.907
 5831SOL    HW118392   5.683   5.168   2.875
 5831SOL    HW218393   5.613   5.263   2.988
 5832SOL     OW18394   4.063   3.890   4.412
 5832SOL    HW118395   4.107   3.855   4.330
 5832SOL    HW218396   3.966   3.904   4.395
 5833SOL     OW18397   3.191   2.974   4.249
 5833SOL    HW118398   3.156   3.025   4.327
 5833SOL    HW218399   3.253   2.901   4.281
 5834SOL     OW18400   5.326   1.704   6.459
 5834SOL    HW118401   5.306   1.614   6.497
 5834SOL    HW218402   5.301   1.704   6.362
 5835SOL     OW18403   5.685   2.365   4.557
 5835SOL    HW118404   5.761   2.312   4.594
 5835SOL    HW218405   5.711   2.462   4.552
 5836SOL     OW18406   4.002   6.675   3.554
 5836SOL    HW118407   3.947   6.745   3.600
 5836SOL    HW218408   3.954   6.644   3.471
 5837SOL     OW18409   4.370   4.301   6.972
 5837SOL    HW118410   4.404   4.393   6.954
 5837SOL    HW218411   4.270   4.301   6.969
 5838SOL     OW18412   1.133   1.861   5.836
 5838SOL    HW118413   1.085   1.936   5.880
 5838SOL    HW218414   1.096   1.774   5.868
 5839SOL     OW18415   0.375   2.588   2.346
 5839SOL    HW118416   0.296   2.555   2.294
 5839SOL    HW218417   0.351   2.676   2.388
 5840SOL     OW18418   3.335   5.588   0.164
 5840SOL    HW118419   3.375   5.562   0.076
 5840SOL    HW218420   3.397   5.651   0.211
 5841SOL     OW18421   6.726   2.647   3.518
 5841SOL    HW118422   6.775   2.663   3.433
 5841SOL    HW218423   6.632   2.619   3.498
 5842SOL     OW18424   3.475   2.701   1.062
 5842SOL    HW118425   3.388   2.651   1.070
 5842SOL    HW218426   3.525   2.696   1.148
 5843SOL     OW18427   0.434   1.572   1.904
 5843SOL    HW118428   0.375   1.587   1.983
 5843SOL    HW218429   0.386   1.512   1.838
 5844SOL     OW18430   1.927   6.670   6.242
 5844SOL    HW118431   1.927   6.610   6.322
 5844SOL    HW218432   1.836   6.672   6.202
 5845SOL     OW18433   2.181   2.571   4.226
 5845SOL    HW118434   2.083   2.589   4.220
 5845SOL    HW218435   2.231   2.639   4.174
 5846SOL     OW18436   0.467   3.359   6.262
 5846SOL    HW118437   0.398   3.309   6.210
 5846SOL    HW218438   0.522   3.414   6.200
 5847SOL     OW18439   1.470   2.818   4.286
 5847SOL    HW118440   1.374   2.794   4.300
 5847SOL    HW218441   1.500   2.881   4.357
 5848SOL     OW18442   0.982   4.512   3.598
 5848SOL    HW118443   0.965   4.540   3.692
 5848SOL    HW218444   1.077   4.483   3.589
 5849SOL     OW18445   1.945   0.647   5.676
 5849SOL    HW118446   1.851   0.615   5.689
 5849SOL    HW218447   1.973   0.631   5.582
 5850SOL     OW18448   0.234   5.104   3.322
 5850SOL    HW118449   0.148   5.154   3.331
 5850SOL    HW218450   0.310   5.168   3.332
 5851SOL     OW18451   6.585   3.459   2.245
 5851SOL    HW118452   6.582   3.360   2.234
 5851SOL    HW218453   6.510   3.489   2.304
 5852SOL     OW18454   3.918   6.832   2.450
 5852SOL    HW118455   3.870   6.862   2.533
 5852SOL    HW218456   3.951   6.912   2.401
 5853SOL     OW18457   5.134   4.056   5.288
 5853SOL    HW118458   5.131   4.040   5.387
 5853SOL    HW218459   5.220   4.021   5.252
 5854SOL     OW18460   1.057   1.038   7.007
 5854SOL    HW118461   0.963   1.061   6.983
 5854SOL    HW218462   1.060   0.944   0.014
 5855SOL     OW18463   2.176   1.676   5.293
 5855SOL    HW118464   2.129   1.656   5.207
 5855SOL    HW218465   2.267   1.711   5.274
 5856SOL     OW18466   0.277   6.564   3.997
 5856SOL    HW118467   0.303   6.645   3.944
 5856SOL    HW218468   0.178   6.551   3.991
 5857SOL     OW18469   1.020   2.647   5.322
 5857SOL    HW118470   1.032   2.586   5.244
 5857SOL    HW218471   1.103   2.702   5.334
 5858SOL     OW18472   3.089   0.315   4.031
 5858SOL    HW118473   3.105   0.390   4.095
 5858SOL    HW218474   3.030   0.347   3.957
 5859SOL     OW18475   6.150   4.820   1.660
 5859SOL    HW118476   6.070   4.763   1.644
 5859SOL    HW218477   6.148   4.857   1.753
 5860SOL     OW18478   6.515   4.486   0.426
 5860SOL    HW118479   6.512   4.543   0.508
 5860SOL    HW218480   6.509   4.544   0.345
 5861SOL     OW18481   6.417   1.951   5.308
 5861SOL    HW118482   6.389   1.898   5.388
 5861SOL    HW218483   6.337   1.976   5.255
 5862SOL     OW18484   6.467   5.229   4.136
 5862SOL    HW118485   6.526   5.289   4.191
 5862SOL    HW218486   6.371   5.253   4.152
 5863SOL     OW18487   2.006   1.583   1.377
 5863SOL    HW118488   2.019   1.484   1.392
 5863SOL    HW218489   1.924   1.613   1.425
 5864SOL     OW18490   4.677   4.772   6.976
 5864SOL    HW118491   4.669   4.843   0.018
 5864SOL    HW218492   4.594   4.715   6.976
 5865SOL     OW18493   4.645   0.254   2.984
 5865SOL    HW118494   4.635   0.300   2.896
 5865SOL    HW218495   4.565   0.273   3.041
 5866SOL     OW18496   3.998   1.585   6.664
 5866SOL    HW118497   4.065   1.597   6.737
 5866SOL    HW218498   3.936   1.664   6.662
 5867SOL     OW18499   6.595   3.183   1.754
 5867SOL    HW118500   6.624   3.110   1.692
 5867SOL    HW218501   6.656   3.187   1.833
 5868SOL     OW18502   0.643   5.647   5.340
 5868SOL    HW118503   0.626   5.734   5.294
 5868SOL    HW218504   0.741   5.628   5.339
 5869SOL     OW18505   2.376   5.499   4.820
 5869SOL    HW118506   2.388   5.497   4.920
 5869SOL    HW218507   2.287   5.538   4.798
 5870SOL     OW18508   5.786   6.008   4.573
 5870SOL    HW118509   5.854   6.016   4.646
 5870SOL    HW218510   5.695   6.028   4.610
 5871SOL     OW18511   3.790   4.792   0.778
 5871SOL    HW118512   3.778   4.796   0.679
 5871SOL    HW218513   3.746   4.709   0.813
 5872SOL     OW18514   4.275   5.714   3.820
 5872SOL    HW118515   4.222   5.775   3.761
 5872SOL    HW218516   4.263   5.619   3.790
 5873SOL     OW18517   1.679   3.435   0.964
 5873SOL    HW118518   1.748   3.495   0.923
 5873SOL    HW218519   1.625   3.393   0.891
 5874SOL     OW18520   0.799   4.618   6.360
 5874SOL    HW118521   0.753   4.659   6.438
 5874SOL    HW218522   0.788   4.519   6.363
 5875SOL     OW18523   4.444   2.506   1.496
 5875SOL    HW118524   4.428   2.452   1.413
 5875SOL    HW218525   4.356   2.529   1.538
 5876SOL     OW18526   4.082   4.801   6.050
 5876SOL    HW118527   4.007   4.752   6.094
 5876SOL    HW218528   4.059   4.818   5.955
 5877SOL     OW18529   5.953   5.993   2.340
 5877SOL    HW118530   5.963   5.904   2.386
 5877SOL    HW218531   6.037   6.013   2.289
 5878SOL     OW18532   4.939   4.330   2.996
 5878SOL    HW118533   4.896   4.357   2.910
 5878SOL    HW218534   4.939   4.408   3.059
 5879SOL     OW18535   3.298   4.472   5.845
 5879SOL    HW118536   3.377   4.412   5.860
 5879SOL    HW218537   3.323   4.541   5.777
 5880SOL     OW18538   5.588   2.280   1.065
 5880SOL    HW118539   5.550   2.192   1.037
 5880SOL    HW218540   5.570   2.348   0.993
 5881SOL     OW18541   1.223   5.698   3.551
 5881SOL    HW118542   1.148   5.632   3.551
 5881SOL    HW218543   1.237   5.733   3.643
 5882SOL     OW18544   1.245   5.527   4.382
 5882SOL    HW118545   1.300   5.455   4.424
 5882SOL    HW218546   1.264   5.614   4.427
 5883SOL     OW18547   0.277   5.801   0.325
 5883SOL    HW118548   0.323   5.742   0.392
 5883SOL    HW218549   0.178   5.794   0.337
 5884SOL     OW18550   0.874   1.385   1.221
 5884SOL    HW118551   0.969   1.413   1.235
 5884SOL    HW218552   0.846   1.409   1.128
 5885SOL     OW18553   6.910   5.946   2.095
 5885SOL    HW118554   6.976   5.963   2.168
 5885SOL    HW218555   6.866   6.032   2.070
 5886SOL     OW18556   1.979   4.131   3.538
 5886SOL    HW118557   1.892   4.161   3.576
 5886SOL    HW218558   2.038   4.210   3.521
 5887SOL     OW18559   1.873   3.463   1.504
 5887SOL    HW118560   1.937   3.398   1.546
 5887SOL    HW218561   1.925   3.532   1.453
 5888SOL     OW18562   2.803   6.149   1.528
 5888SOL    HW118563   2.796   6.239   1.570
 5888SOL    HW218564   2.724   6.132   1.469
 5889SOL     OW18565   4.523   1.116   1.658
 5889SOL    HW118566   4.614   1.150   1.684
 5889SOL    HW218567   4.494   1.160   1.573
 5890SOL     OW18568   2.590   5.055   2.463
 5890SOL    HW118569   2.636   4.969   2.447
 5890SOL    HW218570   2.612   5.088   2.555
 5891SOL     OW18571   2.384   2.727   6.740
 5891SOL    HW118572   2.482   2.731   6.763
 5891SOL    HW218573   2.353   2.818   6.714
 5892SOL     OW18574   0.573   2.128   1.991
 5892SOL    HW118575   0.616   2.139   1.902
 5892SOL    HW218576   0.515   2.047   1.991
 5893SOL     OW18577   0.106   6.299   1.002
 5893SOL    HW118578   0.080   6.294   1.098
 5893SOL    HW218579   0.137   6.209   0.971
 5894SOL     OW18580   2.783   5.343   6.472
 5894SOL    HW118581   2.826   5.352   6.562
 5894SOL    HW218582   2.853   5.345   6.401
 5895SOL     OW18583   6.218   2.127   4.443
 5895SOL    HW118584   6.316   2.117   4.461
 5895SOL    HW218585   6.187   2.049   4.388
 5896SOL     OW18586   5.423   1.911   0.597
 5896SOL    HW118587   5.482   1.917   0.677
 5896SOL    HW218588   5.376   1.999   0.584
 5897SOL     OW18589   2.961   3.719   0.305
 5897SOL    HW118590   2.974   3.745   0.401
 5897SOL    HW218591   2.886   3.772   0.266
 5898SOL     OW18592   4.039   0.819   6.604
 5898SOL    HW118593   3.983   0.889   6.560
 5898SOL    HW218594   4.110   0.862   6.659
 5899SOL     OW18595   6.818   0.252   0.986
 5899SOL    HW118596   6.800   0.335   1.039
 5899SOL    HW218597   6.802   0.172   1.043
 5900SOL     OW18598   4.849   5.462   2.419
 5900SOL    HW118599   4.897   5.452   2.332
 5900SOL    HW218600   4.753   5.438   2.406
 5901SOL     OW18601   1.245   0.754   5.442
 5901SOL    HW118602   1.237   0.854   5.444
 5901SOL    HW218603   1.188   0.718   5.368
 5902SOL     OW18604   4.482   3.956   5.292
 5902SOL    HW118605   4.523   4.045   5.269
 5902SOL    HW218606   4.554   3.895   5.327
 5903SOL     OW18607   4.783   1.082   5.839
 5903SOL    HW118608   4.696   1.119   5.807
 5903SOL    HW218609   4.835   1.155   5.884
 5904SOL     OW18610   6.961   5.417   1.294
 5904SOL    HW118611   6.928   5.511   1.285
 5904SOL    HW218612   6.886   5.359   1.324
 5905SOL     OW18613   6.629   1.692   5.173
 5905SOL    HW118614   6.552   1.707   5.111
 5905SOL    HW218615   6.670   1.780   5.197
 5906SOL     OW18616   4.053   0.520   4.801
 5906SOL    HW118617   4.148   0.520   4.771
 5906SOL    HW218618   4.021   0.614   4.812
 5907SOL     OW18619   1.126   3.566   5.718
 5907SOL    HW118620   1.153   3.470   5.727
 5907SOL    HW218621   1.158   3.602   5.631
 5908SOL     OW18622   4.803   3.002   6.781
 5908SOL    HW118623   4.764   3.066   6.715
 5908SOL    HW218624   4.814   3.046   6.870
 5909SOL     OW18625   6.735   4.694   2.933
 5909SOL    HW118626   6.691   4.773   2.976
 5909SOL    HW218627   6.785   4.723   2.852
 5910SOL     OW18628   1.493   4.112   2.994
 5910SOL    HW118629   1.516   4.067   2.908
 5910SOL    HW218630   1.499   4.211   2.983
 5911SOL     OW18631   0.434   1.279   5.153
 5911SOL    HW118632   0.531   1.301   5.149
 5911SOL    HW218633   0.381   1.351   5.106
 5912SOL     OW18634   1.005   3.653   6.229
 5912SOL    HW118635   0.995   3.753   6.226
 5912SOL    HW218636   1.080   3.625   6.169
 5913SOL     OW18637   1.922   2.865   5.581
 5913SOL    HW118638   1.994   2.906   5.637
 5913SOL    HW218639   1.918   2.912   5.492
 5914SOL     OW18640   0.876   5.210   0.385
 5914SOL    HW118641   0.809   5.283   0.373
 5914SOL    HW218642   0.877   5.152   0.303
 5915SOL     OW18643   5.525   4.084   4.951
 5915SOL    HW118644   5.574   4.117   5.031
 5915SOL    HW218645   5.481   3.997   4.972
 5916SOL     OW18646   3.012   0.793   6.656
 5916SOL    HW118647   2.970   0.813   6.568
 5916SOL    HW218648   2.953   0.826   6.730
 5917SOL     OW18649   3.358   3.226   2.148
 5917SOL    HW118650   3.304   3.173   2.083
 5917SOL    HW218651   3.361   3.179   2.236
 5918SOL     OW18652   3.440   2.122   3.748
 5918SOL    HW118653   3.534   2.152   3.734
 5918SOL    HW218654   3.390   2.126   3.661
 5919SOL     OW18655   1.535   1.442   5.933
 5919SOL    HW118656   1.615   1.447   5.992
 5919SOL    HW218657   1.504   1.347   5.927
 5920SOL     OW18658   2.442   3.457   6.248
 5920SOL    HW118659   2.346   3.481   6.264
 5920SOL    HW218660   2.452   3.357   6.248
 5921SOL     OW18661   3.619   6.206   4.183
 5921SOL    HW118662   3.659   6.198   4.092
 5921SOL    HW218663   3.566   6.123   4.203
 5922SOL     OW18664   6.384   4.850   2.346
 5922SOL    HW118665   6.450   4.924   2.359
 5922SOL    HW218666   6.297   4.874   2.389
 5923SOL     OW18667   1.252   6.829   3.100
 5923SOL    HW118668   1.284   6.740   3.066
 5923SOL    HW218669   1.235   6.823   3.198
 5924SOL     OW18670   6.013   1.985   4.622
 5924SOL    HW118671   6.010   2.076   4.580
 5924SOL    HW218672   6.065   1.923   4.563
 5925SOL     OW18673   6.569   6.625   1.468
 5925SOL    HW118674   6.630   6.702   1.448
 5925SOL    HW218675   6.623   6.541   1.476
 5926SOL     OW18676   2.262   6.698   1.632
 5926SOL    HW118677   2.209   6.783   1.622
 5926SOL    HW218678   2.204   6.627   1.672
 5927SOL     OW18679   2.055   5.587   0.779
 5927SOL    HW118680   2.046   5.686   0.786
 5927SOL    HW218681   2.003   5.544   0.853
 5928SOL     OW18682   6.765   6.738   0.861
 5928SOL    HW118683   6.788   6.763   0.956
 5928SOL    HW218684   6.669   6.759   0.844
 5929SOL     OW18685   0.277   0.548   6.243
 5929SOL    HW118686   0.226   0.632   6.259
 5929SOL    HW218687   0.275   0.524   6.146
 5930SOL     OW18688   6.977   1.658   5.254
 5930SOL    HW118689   0.004   1.575   5.269
 5930SOL    HW218690   6.942   1.658   5.161
 5931SOL     OW18691   6.584   4.241   0.321
 5931SOL    HW118692   6.674   4.229   0.364
 5931SOL    HW218693   6.560   4.338   0.321
 5932SOL     OW18694   2.304   0.599   0.413
 5932SOL    HW118695   2.209   0.569   0.426
 5932SOL    HW218696   2.324   0.674   0.475
 5933SOL     OW18697   5.533   2.302   3.218
 5933SOL    HW118698   5.613   2.310   3.159
 5933SOL    HW218699   5.474   2.229   3.183
 5934SOL     OW18700   4.565   3.544   1.653
 5934SOL    HW118701   4.471   3.516   1.632
 5934SOL    HW218702   4.590   3.623   1.597
 5935SOL     OW18703   3.762   3.355   2.696
 5935SOL    HW118704   3.834   3.330   2.761
 5935SOL    HW218705   3.770   3.453   2.673
 5936SOL     OW18706   6.573   5.942   0.029
 5936SOL    HW118707   6.602   5.920   6.964
 5936SOL    HW218708   6.550   6.040   0.034
 5937SOL     OW18709   0.676   3.280   1.318
 5937SOL    HW118710   0.657   3.375   1.294
 5937SOL    HW218711   0.751   3.246   1.262
 5938SOL     OW18712   3.240   4.924   1.390
 5938SOL    HW118713   3.319   4.932   1.330
 5938SOL    HW218714   3.265   4.957   1.481
 5939SOL     OW18715   0.081   6.772   2.461
 5939SOL    HW118716   0.127   6.800   2.377
 5939SOL    HW218717   0.034   6.851   2.501
 5940SOL     OW18718   4.529   5.247   2.270
 5940SOL    HW118719   4.518   5.245   2.369
 5940SOL    HW218720   4.453   5.298   2.229
 5941SOL     OW18721   6.202   2.896   4.013
 5941SOL    HW118722   6.187   2.994   4.003
 5941SOL    HW218723   6.165   2.848   3.933
 5942SOL     OW18724   6.678   1.968   5.242
 5942SOL    HW118725   6.712   2.047   5.293
 5942SOL    HW218726   6.580   1.957   5.259
 5943SOL     OW18727   1.318   5.842   0.663
 5943SOL    HW118728   1.358   5.880   0.747
 5943SOL    HW218729   1.368   5.878   0.584
 5944SOL     OW18730   5.362   2.793   3.057
 5944SOL    HW118731   5.265   2.797   3.079
 5944SOL    HW218732   5.385   2.702   3.024
 5945SOL     OW18733   6.747   6.160   6.411
 5945SOL    HW118734   6.818   6.196   6.471
 5945SOL    HW218735   6.660   6.206   6.431
 5946SOL     OW18736   3.969   2.184   5.145
 5946SOL    HW118737   3.898   2.224   5.203
 5946SOL    HW218738   3.947   2.088   5.126
 5947SOL     OW18739   5.627   4.609   3.622
 5947SOL    HW118740   5.542   4.617   3.570
 5947SOL    HW218741   5.704   4.605   3.558
 5948SOL     OW18742   2.943   4.890   3.084
 5948SOL    HW118743   2.895   4.837   3.154
 5948SOL    HW218744   2.897   4.978   3.072
 5949SOL     OW18745   5.283   4.473   2.941
 5949SOL    HW118746   5.261   4.417   2.861
 5949SOL    HW218747   5.365   4.437   2.985
 5950SOL     OW18748   0.603   2.476   5.337
 5950SOL    HW118749   0.681   2.498   5.395
 5950SOL    HW218750   0.570   2.559   5.292
 5951SOL     OW18751   1.904   0.608   2.745
 5951SOL    HW118752   1.958   0.590   2.663
 5951SOL    HW218753   1.916   0.703   2.773
 5952SOL     OW18754   0.023   6.653   4.442
 5952SOL    HW118755   6.962   6.691   4.466
 5952SOL    HW218756   0.013   6.560   4.407
 5953SOL     OW18757   1.541   4.271   5.700
 5953SOL    HW118758   1.507   4.365   5.702
 5953SOL    HW218759   1.490   4.219   5.631
 5954SOL     OW18760   1.190   4.597   5.710
 5954SOL    HW118761   1.198   4.605   5.810
 5954SOL    HW218762   1.096   4.614   5.683
 5955SOL     OW18763   3.710   5.145   2.314
 5955SOL    HW118764   3.676   5.065   2.266
 5955SOL    HW218765   3.679   5.228   2.267
 5956SOL     OW18766   0.281   1.355   1.305
 5956SOL    HW118767   0.291   1.334   1.207
 5956SOL    HW218768   0.258   1.451   1.316
 5957SOL     OW18769   4.044   6.906   6.651
 5957SOL    HW118770   3.979   6.866   6.586
 5957SOL    HW218771   4.103   6.835   6.688
 5958SOL     OW18772   0.991   5.783   2.282
 5958SOL    HW118773   0.920   5.723   2.320
 5958SOL    HW218774   1.026   5.843   2.354
 5959SOL     OW18775   1.470   0.873   5.269
 5959SOL    HW118776   1.433   0.907   5.183
 5959SOL    HW218777   1.394   0.854   5.332
 5960SOL     OW18778   3.086   6.006   4.789
 5960SOL    HW118779   3.027   5.942   4.740
 5960SOL    HW218780   3.160   5.957   4.834
 5961SOL     OW18781   3.975   0.494   5.158
 5961SOL    HW118782   3.929   0.466   5.242
 5961SOL    HW218783   3.907   0.515   5.088
 5962SOL     OW18784   5.352   4.049   3.462
 5962SOL    HW118785   5.431   4.110   3.455
 5962SOL    HW218786   5.299   4.054   3.377
 5963SOL     OW18787   4.290   3.852   1.740
 5963SOL    HW118788   4.224   3.818   1.806
 5963SOL    HW218789   4.256   3.836   1.647
 5964SOL     OW18790   1.399   3.527   5.247
 5964SOL    HW118791   1.429   3.436   5.275
 5964SOL    HW218792   1.474   3.592   5.256
 5965SOL     OW18793   2.244   2.143   4.444
 5965SOL    HW118794   2.258   2.173   4.538
 5965SOL    HW218795   2.235   2.043   4.442
 5966SOL     OW18796   0.864   5.436   3.831
 5966SOL    HW118797   0.872   5.362   3.898
 5966SOL    HW218798   0.895   5.522   3.872
 5967SOL     OW18799   5.138   5.081   1.003
 5967SOL    HW118800   5.104   5.174   0.993
 5967SOL    HW218801   5.074   5.028   1.058
 5968SOL     OW18802   2.216   2.277   4.210
 5968SOL    HW118803   2.209   2.373   4.238
 5968SOL    HW218804   2.226   2.219   4.291
 5969SOL     OW18805   0.539   2.475   3.389
 5969SOL    HW118806   0.515   2.465   3.292
 5969SOL    HW218807   0.484   2.546   3.430
 5970SOL     OW18808   1.759   4.607   3.995
 5970SOL    HW118809   1.806   4.608   4.082
 5970SOL    HW218810   1.663   4.583   4.009
 5971SOL     OW18811   3.174   5.564   3.371
 5971SOL    HW118812   3.227   5.498   3.425
 5971SOL    HW218813   3.085   5.578   3.413
 5972SOL     OW18814   5.057   0.067   1.526
 5972SOL    HW118815   5.004   0.075   1.610
 5972SOL    HW218816   5.154   0.070   1.546
 5973SOL     OW18817   2.921   4.871   3.520
 5973SOL    HW118818   2.890   4.807   3.591
 5973SOL    HW218819   2.907   4.831   3.430
 5974SOL     OW18820   0.625   4.015   0.495
 5974SOL    HW118821   0.688   4.010   0.573
 5974SOL    HW218822   0.664   3.968   0.417
 5975SOL     OW18823   1.952   3.232   6.852
 5975SOL    HW118824   1.969   3.156   6.790
 5975SOL    HW218825   1.893   3.201   6.927
 5976SOL     OW18826   3.229   4.157   4.398
 5976SOL    HW118827   3.181   4.070   4.387
 5976SOL    HW218828   3.206   4.197   4.487
 5977SOL     OW18829   0.536   3.237   3.209
 5977SOL    HW118830   0.619   3.187   3.184
 5977SOL    HW218831   0.464   3.219   3.142
 5978SOL     OW18832   5.633   5.256   1.282
 5978SOL    HW118833   5.709   5.274   1.220
 5978SOL    HW218834   5.563   5.326   1.270
 5979SOL     OW18835   1.943   0.809   1.524
 5979SOL    HW118836   1.937   0.711   1.507
 5979SOL    HW218837   1.978   0.855   1.443
 5980SOL     OW18838   5.935   2.551   5.351
 5980SOL    HW118839   5.912   2.579   5.258
 5980SOL    HW218840   5.952   2.632   5.407
 5981SOL     OW18841   3.604   2.188   0.652
 5981SOL    HW118842   3.623   2.243   0.571
 5981SOL    HW218843   3.513   2.149   0.645
 5982SOL     OW18844   6.455   3.052   6.654
 5982SOL    HW118845   6.425   3.125   6.715
 5982SOL    HW218846   6.553   3.036   6.667
 5983SOL     OW18847   0.117   0.422   3.243
 5983SOL    HW118848   0.179   0.494   3.276
 5983SOL    HW218849   0.048   0.403   3.313
 5984SOL     OW18850   0.290   0.535   5.948
 5984SOL    HW118851   0.241   0.618   5.920
 5984SOL    HW218852   0.225   0.464   5.972
 5985SOL     OW18853   6.019   3.780   3.911
 5985SOL    HW118854   6.074   3.826   3.981
 5985SOL    HW218855   5.969   3.848   3.857
 5986SOL     OW18856   3.325   4.049   2.327
 5986SOL    HW118857   3.391   4.085   2.261
 5986SOL    HW218858   3.369   3.979   2.383
 5987SOL     OW18859   4.147   0.180   4.676
 5987SOL    HW118860   4.202   0.260   4.650
 5987SOL    HW218861   4.052   0.196   4.651
 5988SOL     OW18862   3.338   6.822   5.778
 5988SOL    HW118863   3.422   6.775   5.753
 5988SOL    HW218864   3.334   6.832   5.878
 5989SOL     OW18865   3.328   2.509   6.416
 5989SOL    HW118866   3.289   2.476   6.502
 5989SOL    HW218867   3.273   2.584   6.380
 5990SOL     OW18868   2.267   5.319   3.438
 5990SOL    HW118869   2.309   5.378   3.369
 5990SOL    HW218870   2.187   5.273   3.398
 5991SOL     OW18871   3.982   4.839   2.539
 5991SOL    HW118872   3.908   4.887   2.587
 5991SOL    HW218873   3.943   4.767   2.481
 5992SOL     OW18874   4.010   2.126   4.112
 5992SOL    HW118875   3.924   2.108   4.160
 5992SOL    HW218876   3.990   2.145   4.016
 5993SOL     OW18877   2.841   6.101   3.447
 5993SOL    HW118878   2.823   6.004   3.466
 5993SOL    HW218879   2.756   6.146   3.419
 5994SOL     OW18880   6.177   2.538   0.298
 5994SOL    HW118881   6.245   2.610   0.288
 5994SOL    HW218882   6.127   2.550   0.384
 5995SOL     OW18883   0.479   4.191   1.628
 5995SOL    HW118884   0.483   4.230   1.536
 5995SOL    HW218885   0.542   4.113   1.634
 5996SOL     OW18886   1.122   6.547   5.553
 5996SOL    HW118887   1.200   6.499   5.512
 5996SOL    HW218888   1.093   6.621   5.492
 5997SOL     OW18889   6.575   0.306   1.728
 5997SOL    HW118890   6.599   0.391   1.682
 5997SOL    HW218891   6.477   0.306   1.749
 5998SOL     OW18892   4.906   3.506   2.713
 5998SOL    HW118893   4.936   3.528   2.621
 5998SOL    HW218894   4.870   3.589   2.757
 5999SOL     OW18895   2.098   3.158   2.973
 5999SOL    HW118896   2.121   3.089   2.904
 5999SOL    HW218897   2.087   3.247   2.930
 6000SOL     OW18898   4.889   0.905   3.827
 6000SOL    HW118899   4.881   1.002   3.845
 6000SOL    HW218900   4.886   0.889   3.728
 6001SOL     OW18901   4.734   0.880   0.056
 6001SOL    HW118902   4.676   0.809   0.016
 6001SOL    HW218903   4.825   0.843   0.071
 6002SOL     OW18904   1.972   0.495   2.074
 6002SOL    HW118905   1.994   0.428   2.003
 6002SOL    HW218906   1.902   0.557   2.041
 6003SOL     OW18907   4.879   5.416   3.717
 6003SOL    HW118908   4.899   5.505   3.756
 6003SOL    HW218909   4.821   5.364   3.780
 6004SOL     OW18910   0.877   3.107   1.974
 6004SOL    HW118911   0.843   3.193   2.011
 6004SOL    HW218912   0.914   3.121   1.883
 6005SOL     OW18913   2.397   6.792   2.308
 6005SOL    HW118914   2.397   6.854   2.230
 6005SOL    HW218915   2.328   6.821   2.375
 6006SOL     OW18916   2.206   6.410   6.241
 6006SOL    HW118917   2.133   6.471   6.272
 6006SOL    HW218918   2.181   6.371   6.152
 6007SOL     OW18919   5.487   3.539   4.439
 6007SOL    HW118920   5.534   3.534   4.351
 6007SOL    HW218921   5.459   3.447   4.467
 6008SOL     OW18922   5.367   3.893   2.332
 6008SOL    HW118923   5.434   3.960   2.366
 6008SOL    HW218924   5.336   3.919   2.241
 6009SOL     OW18925   3.412   1.615   4.901
 6009SOL    HW118926   3.345   1.541   4.904
 6009SOL    HW218927   3.373   1.696   4.945
 6010SOL     OW18928   1.717   5.061   3.009
 6010SOL    HW118929   1.748   5.091   2.919
 6010SOL    HW218930   1.665   5.135   3.052
 6011SOL     OW18931   5.601   2.440   1.486
 6011SOL    HW118932   5.675   2.386   1.446
 6011SOL    HW218933   5.638   2.523   1.527
 6012SOL     OW18934   0.795   2.070   0.885
 6012SOL    HW118935   0.798   2.169   0.901
 6012SOL    HW218936   0.743   2.026   0.957
 6013SOL     OW18937   5.335   0.773   2.321
 6013SOL    HW118938   5.426   0.807   2.298
 6013SOL    HW218939   5.270   0.848   2.321
 6014SOL     OW18940   6.104   1.709   0.105
 6014SOL    HW118941   6.067   1.781   0.046
 6014SOL    HW218942   6.147   1.752   0.185
 6015SOL     OW18943   6.463   6.845   3.964
 6015SOL    HW118944   6.527   6.878   3.895
 6015SOL    HW218945   6.494   6.757   3.999
 6016SOL     OW18946   0.868   0.476   5.218
 6016SOL    HW118947   0.796   0.482   5.287
 6016SOL    HW218948   0.952   0.517   5.254
 6017SOL     OW18949   0.496   3.598   2.218
 6017SOL    HW118950   0.449   3.654   2.149
 6017SOL    HW218951   0.591   3.583   2.189
 6018SOL     OW18952   3.292   4.826   2.104
 6018SOL    HW118953   3.387   4.824   2.071
 6018SOL    HW218954   3.291   4.852   2.201
 6019SOL     OW18955   0.861   6.970   3.526
 6019SOL    HW118956   0.857   6.934   3.619
 6019SOL    HW218957   0.779   7.024   3.507
 6020SOL     OW18958   2.537   6.162   2.788
 6020SOL    HW118959   2.562   6.088   2.725
 6020SOL    HW218960   2.441   6.187   2.774
 6021SOL     OW18961   2.237   1.126   3.575
 6021SOL    HW118962   2.335   1.133   3.594
 6021SOL    HW218963   2.193   1.213   3.595
 6022SOL     OW18964   3.412   3.065   5.299
 6022SOL    HW118965   3.467   3.112   5.368
 6022SOL    HW218966   3.357   2.994   5.344
 6023SOL     OW18967   1.087   2.274   1.831
 6023SOL    HW118968   1.005   2.321   1.865
 6023SOL    HW218969   1.065   2.178   1.815
 6024SOL     OW18970   6.260   4.562   1.722
 6024SOL    HW118971   6.256   4.651   1.677
 6024SOL    HW218972   6.285   4.491   1.656
 6025SOL     OW18973   4.167   2.217   2.249
 6025SOL    HW118974   4.251   2.186   2.203
 6025SOL    HW218975   4.123   2.287   2.193
 6026SOL     OW18976   1.383   4.097   5.165
 6026SOL    HW118977   1.362   4.053   5.252
 6026SOL    HW218978   1.448   4.041   5.114
 6027SOL     OW18979   3.728   4.491   0.340
 6027SOL    HW118980   3.740   4.459   0.246
 6027SOL    HW218981   3.631   4.487   0.364
 6028SOL     OW18982   0.740   4.314   5.619
 6028SOL    HW118983   0.782   4.349   5.535
 6028SOL    HW218984   0.759   4.377   5.694
 6029SOL     OW18985   2.106   5.620   1.254
 6029SOL    HW118986   2.060   5.533   1.235
 6029SOL    HW218987   2.197   5.619   1.212
 6030SOL     OW18988   1.714   5.986   1.140
 6030SOL    HW118989   1.680   5.906   1.190
 6030SOL    HW218990   1.642   6.018   1.078
 6031SOL     OW18991   4.710   0.997   4.751
 6031SOL    HW118992   4.765   1.021   4.831
 6031SOL    HW218993   4.765   1.008   4.669
 6032SOL     OW18994   1.538   2.478   2.396
 6032SOL    HW118995   1.562   2.449   2.489
 6032SOL    HW218996   1.467   2.418   2.360
 6033SOL     OW18997   0.641   0.112   4.403
 6033SOL    HW118998   0.616   0.074   4.492
 6033SOL    HW218999   0.691   0.043   4.350
 6034SOL     OW19000   3.216   4.893   4.386
 6034SOL    HW119001   3.129   4.855   4.355
 6034SOL    HW219002   3.229   4.872   4.483
 6035SOL     OW19003   4.293   0.667   4.268
 6035SOL    HW119004   4.229   0.743   4.276
 6035SOL    HW219005   4.381   0.692   4.308
 6036SOL     OW19006   4.855   0.751   5.582
 6036SOL    HW119007   4.860   0.845   5.550
 6036SOL    HW219008   4.795   0.745   5.662
 6037SOL     OW19009   6.842   4.769   4.269
 6037SOL    HW119010   6.774   4.785   4.198
 6037SOL    HW219011   6.850   4.851   4.326
 6038SOL     OW19012   0.137   3.091   6.307
 6038SOL    HW119013   0.046   3.048   6.303
 6038SOL    HW219014   0.207   3.020   6.296
 6039SOL     OW19015   3.155   4.048   3.392
 6039SOL    HW119016   3.110   4.015   3.475
 6039SOL    HW219017   3.095   4.035   3.313
 6040SOL     OW19018   1.135   1.364   1.328
 6040SOL    HW119019   1.171   1.423   1.256
 6040SOL    HW219020   1.197   1.365   1.406
 6041SOL     OW19021   0.946   3.204   6.312
 6041SOL    HW119022   0.913   3.298   6.300
 6041SOL    HW219023   1.023   3.188   6.251
 6042SOL     OW19024   5.837   5.753   5.113
 6042SOL    HW119025   5.906   5.804   5.164
 6042SOL    HW219026   5.801   5.810   5.039
 6043SOL     OW19027   6.654   4.178   3.444
 6043SOL    HW119028   6.572   4.172   3.501
 6043SOL    HW219029   6.657   4.099   3.382
 6044SOL     OW19030   1.452   1.445   0.988
 6044SOL    HW119031   1.489   1.513   0.925
 6044SOL    HW219032   1.417   1.367   0.936
 6045SOL     OW19033   6.029   3.956   6.284
 6045SOL    HW119034   6.085   3.955   6.367
 6045SOL    HW219035   6.088   3.940   6.204
 6046SOL     OW19036   0.217   3.540   0.191
 6046SOL    HW119037   0.192   3.603   0.117
 6046SOL    HW219038   0.134   3.511   0.239
 6047SOL     OW19039   1.220   6.577   4.775
 6047SOL    HW119040   1.233   6.588   4.676
 6047SOL    HW219041   1.126   6.599   4.799
 6048SOL     OW19042   4.600   6.476   3.659
 6048SOL    HW119043   4.663   6.403   3.634
 6048SOL    HW219044   4.543   6.446   3.735
 6049SOL     OW19045   0.093   5.294   0.850
 6049SOL    HW119046   0.040   5.214   0.880
 6049SOL    HW219047   0.158   5.319   0.922
 6050SOL     OW19048   5.322   4.513   5.466
 6050SOL    HW119049   5.323   4.611   5.446
 6050SOL    HW219050   5.411   4.474   5.444
 6051SOL     OW19051   2.582   2.026   3.047
 6051SOL    HW119052   2.596   1.930   3.023
 6051SOL    HW219053   2.653   2.055   3.111
 6052SOL     OW19054   0.628   1.826   6.622
 6052SOL    HW119055   0.718   1.862   6.646
 6052SOL    HW219056   0.607   1.748   6.681
 6053SOL     OW19057   0.752   0.952   6.171
 6053SOL    HW119058   0.812   0.878   6.140
 6053SOL    HW219059   0.759   0.962   6.270
 6054SOL     OW19060   0.114   4.248   5.885
 6054SOL    HW119061   0.075   4.259   5.976
 6054SOL    HW219062   0.041   4.246   5.817
 6055SOL     OW19063   5.692   5.646   2.983
 6055SOL    HW119064   5.604   5.610   2.954
 6055SOL    HW219065   5.680   5.706   3.062
 6056SOL     OW19066   5.402   2.700   6.454
 6056SOL    HW119067   5.387   2.683   6.356
 6056SOL    HW219068   5.328   2.758   6.489
 6057SOL     OW19069   4.580   0.571   6.193
 6057SOL    HW119070   4.618   0.612   6.111
 6057SOL    HW219071   4.654   0.532   6.248
 6058SOL     OW19072   5.548   1.878   5.476
 6058SOL    HW119073   5.531   1.781   5.459
 6058SOL    HW219074   5.598   1.917   5.399
 6059SOL     OW19075   6.781   6.760   6.852
 6059SOL    HW119076   6.691   6.726   6.881
 6059SOL    HW219077   6.853   6.706   6.895
 6060SOL     OW19078   3.468   5.997   6.621
 6060SOL    HW119079   3.386   5.963   6.575
 6060SOL    HW219080   3.472   6.096   6.614
 6061SOL     OW19081   1.785   1.724   6.696
 6061SOL    HW119082   1.725   1.756   6.769
 6061SOL    HW219083   1.758   1.632   6.668
 6062SOL     OW19084   1.823   6.395   3.306
 6062SOL    HW119085   1.897   6.438   3.357
 6062SOL    HW219086   1.742   6.454   3.311
 6063SOL     OW19087   6.321   6.129   0.300
 6063SOL    HW119088   6.414   6.163   0.317
 6063SOL    HW219089   6.321   6.072   0.218
 6064SOL     OW19090   0.578   5.175   1.830
 6064SOL    HW119091   0.570   5.228   1.745
 6064SOL    HW219092   0.615   5.234   1.902
 6065SOL     OW19093   4.601   0.077   1.028
 6065SOL    HW119094   4.503   0.065   1.042
 6065SOL    HW219095   4.644   0.104   1.115
 6066SOL     OW19096   5.449   2.293   5.201
 6066SOL    HW119097   5.536   2.245   5.186
 6066SOL    HW219098   5.382   2.261   5.135
 6067SOL     OW19099   4.702   1.169   0.237
 6067SOL    HW119100   4.699   1.070   0.221
 6067SOL    HW219101   4.689   1.187   0.335
 6068SOL     OW19102   5.231   0.473   5.352
 6068SOL    HW119103   5.145   0.421   5.351
 6068SOL    HW219104   5.308   0.412   5.333
 6069SOL     OW19105   6.658   4.899   3.088
 6069SOL    HW119106   6.621   4.991   3.075
 6069SOL    HW219107   6.675   4.883   3.185
 6070SOL     OW19108   4.563   3.277   1.522
 6070SOL    HW119109   4.620   3.204   1.560
 6070SOL    HW219110   4.556   3.352   1.588
 6071SOL     OW19111   6.096   0.441   5.740
 6071SOL    HW119112   6.119   0.361   5.685
 6071SOL    HW219113   6.064   0.514   5.680
 6072SOL     OW19114   6.453   1.544   1.194
 6072SOL    HW119115   6.381   1.530   1.261
 6072SOL    HW219116   6.469   1.460   1.143
 6073SOL     OW19117   5.401   0.700   0.544
 6073SOL    HW119118   5.494   0.726   0.569
 6073SOL    HW219119   5.395   0.601   0.534
 6074SOL     OW19120   0.725   1.712   5.860
 6074SOL    HW119121   0.739   1.627   5.808
 6074SOL    HW219122   0.808   1.733   5.912
 6075SOL     OW19123   5.101   3.328   6.046
 6075SOL    HW119124   5.025   3.291   6.098
 6075SOL    HW219125   5.177   3.263   6.046
 6076SOL     OW19126   3.282   0.492   3.789
 6076SOL    HW119127   3.356   0.444   3.837
 6076SOL    HW219128   3.281   0.588   3.817
 6077SOL     OW19129   5.463   5.240   3.107
 6077SOL    HW119130   5.469   5.149   3.148
 6077SOL    HW219131   5.379   5.246   3.052
 6078SOL     OW19132   2.413   4.475   4.305
 6078SOL    HW119133   2.347   4.401   4.288
 6078SOL    HW219134   2.455   4.463   4.395
 6079SOL     OW19135   3.309   2.414   0.834
 6079SOL    HW119136   3.239   2.375   0.774
 6079SOL    HW219137   3.265   2.458   0.913
 6080SOL     OW19138   5.899   3.422   3.782
 6080SOL    HW119139   5.924   3.340   3.833
 6080SOL    HW219140   5.826   3.471   3.831
 6081SOL     OW19141   0.881   3.962   1.713
 6081SOL    HW119142   0.921   3.920   1.794
 6081SOL    HW219143   0.953   3.984   1.647
 6082SOL     OW19144   5.108   1.852   5.696
 6082SOL    HW119145   5.123   1.797   5.614
 6082SOL    HW219146   5.126   1.948   5.675
 6083SOL     OW19147   1.533   5.769   0.085
 6083SOL    HW119148   1.579   5.772   7.024
 6083SOL    HW219149   1.565   5.690   0.137
 6084SOL     OW19150   0.643   6.114   6.331
 6084SOL    HW119151   0.668   6.178   6.404
 6084SOL    HW219152   0.725   6.070   6.295
 6085SOL     OW19153   5.682   4.937   2.065
 6085SOL    HW119154   5.674   4.860   2.003
 6085SOL    HW219155   5.777   4.968   2.068
 6086SOL     OW19156   2.844   2.156   1.813
 6086SOL    HW119157   2.875   2.204   1.895
 6086SOL    HW219158   2.745   2.145   1.817
 6087SOL     OW19159   3.418   1.407   6.736
 6087SOL    HW119160   3.372   1.319   6.729
 6087SOL    HW219161   3.514   1.394   6.759
 6088SOL     OW19162   0.808   0.817   4.072
 6088SOL    HW119163   0.901   0.854   4.076
 6088SOL    HW219164   0.782   0.803   3.976
 6089SOL     OW19165   0.289   3.318   1.161
 6089SOL    HW119166   0.312   3.367   1.077
 6089SOL    HW219167   0.245   3.380   1.225
 6090SOL     OW19168   7.002   0.249   3.850
 6090SOL    HW119169   6.921   0.282   3.898
 6090SOL    HW219170   0.023   0.184   3.908
 6091SOL     OW19171   6.881   2.296   2.571
 6091SOL    HW119172   6.788   2.304   2.537
 6091SOL    HW219173   6.904   2.377   2.624
 6092SOL     OW19174   0.389   2.884   1.458
 6092SOL    HW119175   0.328   2.908   1.382
 6092SOL    HW219176   0.481   2.917   1.438
 6093SOL     OW19177   1.009   4.223   1.030
 6093SOL    HW119178   1.080   4.208   0.962
 6093SOL    HW219179   0.938   4.283   0.993
 6094SOL     OW19180   0.089   1.304   1.540
 6094SOL    HW119181   7.023   1.278   1.517
 6094SOL    HW219182   0.146   1.299   1.458
 6095SOL     OW19183   0.350   3.962   4.776
 6095SOL    HW119184   0.289   4.030   4.737
 6095SOL    HW219185   0.359   3.885   4.712
 6096SOL     OW19186   6.361   1.720   3.088
 6096SOL    HW119187   6.376   1.733   3.186
 6096SOL    HW219188   6.446   1.738   3.039
 6097SOL     OW19189   4.326   1.113   3.137
 6097SOL    HW119190   4.256   1.157   3.080
 6097SOL    HW219191   4.325   1.015   3.121
 6098SOL     OW19192   0.357   1.098   6.557
 6098SOL    HW119193   0.419   1.143   6.492
 6098SOL    HW219194   0.343   1.158   6.636
 6099SOL     OW19195   5.821   4.150   4.685
 6099SOL    HW119196   5.764   4.068   4.676
 6099SOL    HW219197   5.801   4.213   4.611
 6100SOL     OW19198   0.275   3.046   1.214
 6100SOL    HW119199   0.284   3.145   1.223
 6100SOL    HW219200   0.205   3.014   1.277
 6101SOL     OW19201   5.783   6.148   3.230
 6101SOL    HW119202   5.709   6.093   3.192
 6101SOL    HW219203   5.868   6.094   3.229
 6102SOL     OW19204   3.597   6.252   5.266
 6102SOL    HW119205   3.564   6.219   5.354
 6102SOL    HW219206   3.637   6.176   5.214
 6103SOL     OW19207   5.658   1.807   4.403
 6103SOL    HW119208   5.650   1.877   4.332
 6103SOL    HW219209   5.682   1.851   4.490
 6104SOL     OW19210   2.678   2.611   1.246
 6104SOL    HW119211   2.693   2.590   1.342
 6104SOL    HW219212   2.741   2.683   1.217
 6105SOL     OW19213   3.333   5.084   4.643
 6105SOL    HW119214   3.245   5.042   4.663
 6105SOL    HW219215   3.403   5.043   4.701
 6106SOL     OW19216   1.808   5.304   4.317
 6106SOL    HW119217   1.796   5.377   4.250
 6106SOL    HW219218   1.887   5.247   4.291
 6107SOL     OW19219   2.202   4.812   5.511
 6107SOL    HW119220   2.143   4.874   5.460
 6107SOL    HW219221   2.145   4.746   5.560
 6108SOL     OW19222   5.391   1.568   4.884
 6108SOL    HW119223   5.484   1.583   4.917
 6108SOL    HW219224   5.387   1.484   4.830
 6109SOL     OW19225   0.479   4.667   1.833
 6109SOL    HW119226   0.442   4.749   1.877
 6109SOL    HW219227   0.547   4.625   1.893
 6110SOL     OW19228   3.514   1.846   3.228
 6110SOL    HW119229   3.554   1.775   3.170
 6110SOL    HW219230   3.505   1.931   3.175
 6111SOL     OW19231   0.464   4.553   3.582
 6111SOL    HW119232   0.419   4.618   3.521
 6111SOL    HW219233   0.396   4.512   3.643
 6112SOL     OW19234   2.199   0.561   1.504
 6112SOL    HW119235   2.121   0.579   1.445
 6112SOL    HW219236   2.184   0.476   1.555
 6113SOL     OW19237   0.485   5.245   6.127
 6113SOL    HW119238   0.517   5.340   6.123
 6113SOL    HW219239   0.393   5.242   6.166
 6114SOL     OW19240   3.767   4.229   1.376
 6114SOL    HW119241   3.735   4.136   1.355
 6114SOL    HW219242   3.839   4.224   1.446
 6115SOL     OW19243   0.545   3.742   2.448
 6115SOL    HW119244   0.514   3.722   2.541
 6115SOL    HW219245   0.504   3.677   2.384
 6116SOL     OW19246   4.277   3.174   0.811
 6116SOL    HW119247   4.300   3.269   0.830
 6116SOL    HW219248   4.217   3.170   0.731
 6117SOL     OW19249   5.170   6.439   4.359
 6117SOL    HW119250   5.156   6.350   4.403
 6117SOL    HW219251   5.257   6.478   4.389
 6118SOL     OW19252   6.451   0.494   3.576
 6118SOL    HW119253   6.378   0.432   3.604
 6118SOL    HW219254   6.490   0.539   3.657
 6119SOL     OW19255   6.420   4.763   5.331
 6119SOL    HW119256   6.465   4.845   5.297
 6119SOL    HW219257   6.405   4.699   5.255
 6120SOL     OW19258   2.710   1.660   2.202
 6120SOL    HW119259   2.670   1.633   2.114
 6120SOL    HW219260   2.769   1.739   2.189
 6121SOL     OW19261   0.182   1.738   2.979
 6121SOL    HW119262   0.236   1.791   3.044
 6121SOL    HW219263   0.240   1.672   2.932
 6122SOL     OW19264   3.785   5.854   4.340
 6122SOL    HW119265   3.714   5.898   4.394
 6122SOL    HW219266   3.868   5.910   4.341
 6123SOL     OW19267   6.805   1.834   3.079
 6123SOL    HW119268   6.802   1.739   3.047
 6123SOL    HW219269   6.883   1.880   3.036
 6124SOL     OW19270   2.841   0.364   4.441
 6124SOL    HW119271   2.940   0.351   4.436
 6124SOL    HW219272   2.800   0.288   4.491
 6125SOL     OW19273   0.918   3.707   2.461
 6125SOL    HW119274   0.974   3.699   2.544
 6125SOL    HW219275   0.881   3.799   2.454
 6126SOL     OW19276   3.583   6.910   2.545
 6126SOL    HW119277   3.665   6.915   2.602
 6126SOL    HW219278   3.508   6.958   2.590
 6127SOL     OW19279   1.703   5.659   0.933
 6127SOL    HW119280   1.751   5.572   0.919
 6127SOL    HW219281   1.698   5.679   1.031
 6128SOL     OW19282   5.516   3.461   1.911
 6128SOL    HW119283   5.529   3.365   1.887
 6128SOL    HW219284   5.532   3.518   1.830
 6129SOL     OW19285   6.254   3.718   3.644
 6129SOL    HW119286   6.287   3.745   3.553
 6129SOL    HW219287   6.215   3.797   3.690
 6130SOL     OW19288   6.213   3.409   2.630
 6130SOL    HW119289   6.147   3.476   2.663
 6130SOL    HW219290   6.176   3.362   2.549
 6131SOL     OW19291   0.123   2.045   5.806
 6131SOL    HW119292   0.186   1.996   5.746
 6131SOL    HW219293   0.034   2.053   5.761
 6132SOL     OW19294   0.154   3.132   0.321
 6132SOL    HW119295   0.093   3.060   0.287
 6132SOL    HW219296   0.151   3.132   0.421
 6133SOL     OW19297   1.536   4.735   0.177
 6133SOL    HW119298   1.533   4.734   0.277
 6133SOL    HW219299   1.443   4.745   0.141
 6134SOL     OW19300   3.862   4.389   6.003
 6134SOL    HW119301   3.850   4.291   5.992
 6134SOL    HW219302   3.926   4.406   6.078
 6135SOL     OW19303   5.638   6.477   1.747
 6135SOL    HW119304   5.568   6.534   1.789
 6135SOL    HW219305   5.725   6.527   1.745
 6136SOL     OW19306   1.920   2.138   2.267
 6136SOL    HW119307   1.962   2.082   2.196
 6136SOL    HW219308   1.964   2.228   2.269
 6137SOL     OW19309   2.857   6.884   5.690
 6137SOL    HW119310   2.836   6.957   5.625
 6137SOL    HW219311   2.877   6.800   5.640
 6138SOL     OW19312   4.536   0.611   3.390
 6138SOL    HW119313   4.563   0.545   3.320
 6138SOL    HW219314   4.446   0.649   3.367
 6139SOL     OW19315   3.021   6.475   3.569
 6139SOL    HW119316   2.921   6.473   3.576
 6139SOL    HW219317   3.061   6.436   3.651
 6140SOL     OW19318   2.123   5.229   1.353
 6140SOL    HW119319   2.141   5.159   1.423
 6140SOL    HW219320   2.210   5.267   1.322
 6141SOL     OW19321   1.001   6.521   4.320
 6141SOL    HW119322   0.953   6.609   4.325
 6141SOL    HW219323   1.077   6.529   4.254
 6142SOL     OW19324   0.083   2.840   4.022
 6142SOL    HW119325   0.044   2.915   4.077
 6142SOL    HW219326   0.114   2.767   4.083
 6143SOL     OW19327   6.482   6.246   6.460
 6143SOL    HW119328   6.440   6.323   6.508
 6143SOL    HW219329   6.477   6.165   6.518
 6144SOL     OW19330   0.568   6.158   5.034
 6144SOL    HW119331   0.646   6.196   4.984
 6144SOL    HW219332   0.508   6.109   4.970
 6145SOL     OW19333   5.722   5.248   3.429
 6145SOL    HW119334   5.698   5.172   3.368
 6145SOL    HW219335   5.714   5.335   3.379
 6146SOL     OW19336   6.035   1.299   4.075
 6146SOL    HW119337   6.026   1.252   4.163
 6146SOL    HW219338   6.126   1.281   4.038
 6147SOL     OW19339   0.850   4.196   4.023
 6147SOL    HW119340   0.830   4.212   4.120
 6147SOL    HW219341   0.917   4.263   3.992
 6148SOL     OW19342   5.269   6.724   4.220
 6148SOL    HW119343   5.208   6.645   4.231
 6148SOL    HW219344   5.278   6.746   4.123
 6149SOL     OW19345   0.351   5.743   4.815
 6149SOL    HW119346   0.291   5.749   4.736
 6149SOL    HW219347   0.438   5.701   4.788
 6150SOL     OW19348   4.890   0.274   6.985
 6150SOL    HW119349   4.984   0.253   6.958
 6150SOL    HW219350   4.847   0.191   7.021
 6151SOL     OW19351   4.510   0.614   5.278
 6151SOL    HW119352   4.497   0.704   5.235
 6151SOL    HW219353   4.564   0.556   5.216
 6152SOL     OW19354   6.151   3.353   6.588
 6152SOL    HW119355   6.103   3.419   6.647
 6152SOL    HW219356   6.246   3.384   6.576
 6153SOL     OW19357   3.767   5.949   5.417
 6153SOL    HW119358   3.709   5.899   5.352
 6153SOL    HW219359   3.711   5.985   5.491
 6154SOL     OW19360   5.085   2.638   3.317
 6154SOL    HW119361   5.101   2.696   3.236
 6154SOL    HW219362   5.007   2.578   3.300
 6155SOL     OW19363   3.090   4.917   4.735
 6155SOL    HW119364   3.062   4.894   4.828
 6155SOL    HW219365   3.009   4.938   4.680
 6156SOL     OW19366   5.459   0.538   4.119
 6156SOL    HW119367   5.415   0.450   4.138
 6156SOL    HW219368   5.414   0.609   4.174
 6157SOL     OW19369   1.196   0.835   4.593
 6157SOL    HW119370   1.175   0.811   4.688
 6157SOL    HW219371   1.140   0.779   4.532
 6158SOL     OW19372   4.774   6.196   0.224
 6158SOL    HW119373   4.761   6.119   0.161
 6158SOL    HW219374   4.730   6.277   0.186
 6159SOL     OW19375   4.532   3.560   6.766
 6159SOL    HW119376   4.600   3.603   6.706
 6159SOL    HW219377   4.546   3.591   6.860
 6160SOL     OW19378   5.838   4.807   0.688
 6160SOL    HW119379   5.907   4.879   0.679
 6160SOL    HW219380   5.801   4.807   0.781
 6161SOL     OW19381   4.517   0.707   6.715
 6161SOL    HW119382   4.454   0.776   6.751
 6161SOL    HW219383   4.544   0.733   6.622
 6162SOL     OW19384   5.395   5.735   3.929
 6162SOL    HW119385   5.371   5.832   3.930
 6162SOL    HW219386   5.381   5.698   3.837
 6163SOL     OW19387   0.140   3.858   3.420
 6163SOL    HW119388   0.205   3.785   3.399
 6163SOL    HW219389   0.163   3.939   3.364
 6164SOL     OW19390   4.794   3.019   0.700
 6164SOL    HW119391   4.701   3.041   0.671
 6164SOL    HW219392   4.847   2.986   0.622
 6165SOL     OW19393   3.547   6.747   1.336
 6165SOL    HW119394   3.541   6.671   1.271
 6165SOL    HW219395   3.566   6.711   1.427
 6166SOL     OW19396   3.730   0.882   0.871
 6166SOL    HW119397   3.805   0.883   0.936
 6166SOL    HW219398   3.750   0.944   0.795
 6167SOL     OW19399   0.256   5.377   3.615
 6167SOL    HW119400   0.226   5.301   3.671
 6167SOL    HW219401   0.176   5.431   3.587
 6168SOL     OW19402   0.013   2.343   1.594
 6168SOL    HW119403   0.007   2.328   1.693
 6168SOL    HW219404   6.990   2.271   1.546
 6169SOL     OW19405   1.924   4.104   1.213
 6169SOL    HW119406   1.914   4.004   1.211
 6169SOL    HW219407   1.922   4.140   1.120
 6170SOL     OW19408   5.973   2.079   3.890
 6170SOL    HW119409   6.006   2.166   3.926
 6170SOL    HW219410   5.901   2.096   3.823
 6171SOL     OW19411   6.362   2.387   6.524
 6171SOL    HW119412   6.366   2.486   6.537
 6171SOL    HW219413   6.266   2.359   6.514
 6172SOL     OW19414   0.550   4.034   3.446
 6172SOL    HW119415   0.628   4.054   3.386
 6172SOL    HW219416   0.536   4.111   3.509
 6173SOL     OW19417   5.703   5.692   2.528
 6173SOL    HW119418   5.775   5.626   2.505
 6173SOL    HW219419   5.724   5.734   2.616
 6174SOL     OW19420   0.691   1.735   3.527
 6174SOL    HW119421   0.757   1.808   3.546
 6174SOL    HW219422   0.689   1.671   3.603
 6175SOL     OW19423   4.804   1.595   6.599
 6175SOL    HW119424   4.775   1.660   6.529
 6175SOL    HW219425   4.903   1.599   6.609
 6176SOL     OW19426   2.402   5.263   5.803
 6176SOL    HW119427   2.303   5.273   5.792
 6176SOL    HW219428   2.422   5.212   5.886
 6177SOL     OW19429   6.210   5.259   1.351
 6177SOL    HW119430   6.238   5.165   1.336
 6177SOL    HW219431   6.125   5.261   1.403
 6178SOL     OW19432   4.376   4.523   1.793
 6178SOL    HW119433   4.350   4.576   1.874
 6178SOL    HW219434   4.389   4.427   1.819
 6179SOL     OW19435   4.783   5.536   4.532
 6179SOL    HW119436   4.727   5.502   4.457
 6179SOL    HW219437   4.750   5.625   4.561
 6180SOL     OW19438   1.402   3.442   6.150
 6180SOL    HW119439   1.422   3.444   6.248
 6180SOL    HW219440   1.485   3.418   6.100
 6181SOL     OW19441   0.126   6.939   6.597
 6181SOL    HW119442   0.135   6.988   6.510
 6181SOL    HW219443   0.166   6.994   6.670
 6182SOL     OW19444   2.505   2.559   6.098
 6182SOL    HW119445   2.497   2.654   6.070
 6182SOL    HW219446   2.501   2.500   6.017
 6183SOL     OW19447   0.171   0.338   1.451
 6183SOL    HW119448   0.114   0.396   1.392
 6183SOL    HW219449   0.200   0.390   1.531
 6184SOL     OW19450   3.489   6.649   5.336
 6184SOL    HW119451   3.454   6.578   5.397
 6184SOL    HW219452   3.508   6.732   5.389
 6185SOL     OW19453   3.550   3.019   3.124
 6185SOL    HW119454   3.531   2.925   3.097
 6185SOL    HW219455   3.531   3.080   3.048
 6186SOL     OW19456   0.767   1.528   2.271
 6186SOL    HW119457   0.679   1.560   2.235
 6186SOL    HW219458   0.784   1.571   2.360
 6187SOL     OW19459   3.625   2.675   5.960
 6187SOL    HW119460   3.577   2.592   5.934
 6187SOL    HW219461   3.692   2.699   5.890
 6188SOL     OW19462   0.776   1.909   5.661
 6188SOL    HW119463   0.870   1.906   5.627
 6188SOL    HW219464   0.763   1.838   5.730
 6189SOL     OW19465   6.869   5.369   0.659
 6189SOL    HW119466   6.946   5.357   0.722
 6189SOL    HW219467   6.903   5.376   0.565
 6190SOL     OW19468   1.441   2.933   3.297
 6190SOL    HW119469   1.453   2.950   3.395
 6190SOL    HW219470   1.525   2.896   3.259
 6191SOL     OW19471   2.165   4.845   7.010
 6191SOL    HW119472   2.228   4.882   6.942
 6191SOL    HW219473   2.114   4.769   6.971
 6192SOL     OW19474   2.885   1.749   0.896
 6192SOL    HW119475   2.844   1.818   0.957
 6192SOL    HW219476   2.848   1.659   0.918
 6193SOL     OW19477   4.744   5.324   0.126
 6193SOL    HW119478   4.796   5.308   0.042
 6193SOL    HW219479   4.758   5.248   0.189
 6194SOL     OW19480   5.269   6.558   6.580
 6194SOL    HW119481   5.206   6.493   6.537
 6194SOL    HW219482   5.216   6.628   6.628
 6195SOL     OW19483   5.783   5.057   5.580
 6195SOL    HW119484   5.818   5.041   5.488
 6195SOL    HW219485   5.688   5.024   5.586
 6196SOL     OW19486   6.811   3.639   3.803
 6196SOL    HW119487   6.893   3.670   3.851
 6196SOL    HW219488   6.837   3.607   3.711
 6197SOL     OW19489   6.968   5.700   1.643
 6197SOL    HW119490   6.976   5.779   1.704
 6197SOL    HW219491   0.001   5.712   1.565
 6198SOL     OW19492   6.262   2.010   5.898
 6198SOL    HW119493   6.358   2.000   5.872
 6198SOL    HW219494   6.208   1.935   5.857
 6199SOL     OW19495   2.244   0.226   6.116
 6199SOL    HW119496   2.182   0.154   6.086
 6199SOL    HW219497   2.196   0.314   6.117
 6200SOL     OW19498   1.783   6.326   6.596
 6200SOL    HW119499   1.750   6.248   6.650
 6200SOL    HW219500   1.714   6.399   6.597
 6201SOL     OW19501   1.214   4.860   3.518
 6201SOL    HW119502   1.166   4.947   3.530
 6201SOL    HW219503   1.249   4.829   3.606
 6202SOL     OW19504   5.146   1.663   1.702
 6202SOL    HW119505   5.195   1.632   1.784
 6202SOL    HW219506   5.095   1.587   1.662
 6203SOL     OW19507   0.263   0.674   2.653
 6203SOL    HW119508   0.248   0.770   2.630
 6203SOL    HW219509   0.186   0.640   2.707
 6204SOL     OW19510   1.282   5.612   4.072
 6204SOL    HW119511   1.262   5.585   4.167
 6204SOL    HW219512   1.359   5.676   4.071
 6205SOL     OW19513   0.298   4.583   3.166
 6205SOL    HW119514   0.301   4.628   3.076
 6205SOL    HW219515   0.298   4.484   3.153
 6206SOL     OW19516   5.154   2.449   3.908
 6206SOL    HW119517   5.147   2.410   3.816
 6206SOL    HW219518   5.240   2.419   3.950
 6207SOL     OW19519   1.753   6.207   3.105
 6207SOL    HW119520   1.820   6.137   3.081
 6207SOL    HW219521   1.785   6.258   3.185
 6208SOL     OW19522   3.921   4.191   6.231
 6208SOL    HW119523   3.839   4.206   6.175
 6208SOL    HW219524   3.926   4.095   6.258
 6209SOL     OW19525   3.211   0.662   2.335
 6209SOL    HW119526   3.228   0.589   2.401
 6209SOL    HW219527   3.115   0.692   2.342
 6210SOL     OW19528   4.889   0.041   4.448
 6210SOL    HW119529   4.885   0.052   4.349
 6210SOL    HW219530   4.831   6.992   4.476
 6211SOL     OW19531   4.884   3.061   5.491
 6211SOL    HW119532   4.910   2.965   5.487
 6211SOL    HW219533   4.827   3.084   5.412
 6212SOL     OW19534   4.934   3.754   4.589
 6212SOL    HW119535   4.946   3.721   4.496
 6212SOL    HW219536   4.874   3.834   4.588
 6213SOL     OW19537   5.030   5.833   0.912
 6213SOL    HW119538   5.030   5.852   0.813
 6213SOL    HW219539   5.068   5.911   0.961
 6214SOL     OW19540   6.890   6.828   6.087
 6214SOL    HW119541   6.918   6.750   6.144
 6214SOL    HW219542   6.817   6.799   6.025
 6215SOL     OW19543   5.230   3.008   5.789
 6215SOL    HW119544   5.138   3.046   5.782
 6215SOL    HW219545   5.258   2.972   5.700
 6216SOL     OW19546   6.220   2.676   6.119
 6216SOL    HW119547   6.205   2.738   6.196
 6216SOL    HW219548   6.145   2.683   6.054
 6217SOL     OW19549   0.191   4.005   2.240
 6217SOL    HW119550   0.181   4.104   2.249
 6217SOL    HW219551   0.286   3.980   2.262
 6218SOL     OW19552   4.404   6.469   1.657
 6218SOL    HW119553   4.318   6.466   1.707
 6218SOL    HW219554   4.423   6.380   1.616
 6219SOL     OW19555   2.179   0.408   0.203
 6219SOL    HW119556   2.143   0.433   0.293
 6219SOL    HW219557   2.235   0.482   0.168
 6220SOL     OW19558   2.143   0.553   2.579
 6220SOL    HW119559   2.186   0.481   2.524
 6220SOL    HW219560   2.214   0.605   2.626
 6221SOL     OW19561   4.171   5.360   5.741
 6221SOL    HW119562   4.080   5.321   5.727
 6221SOL    HW219563   4.172   5.456   5.711
 6222SOL     OW19564   0.952   1.435   1.583
 6222SOL    HW119565   0.961   1.523   1.537
 6222SOL    HW219566   0.959   1.361   1.516
 6223SOL     OW19567   6.724   5.105   3.680
 6223SOL    HW119568   6.783   5.041   3.729
 6223SOL    HW219569   6.648   5.055   3.638
 6224SOL     OW19570   4.066   6.976   0.647
 6224SOL    HW119571   4.077   6.908   0.575
 6224SOL    HW219572   4.011   6.936   0.721
 6225SOL     OW19573   5.858   4.618   6.260
 6225SOL    HW119574   5.839   4.709   6.296
 6225SOL    HW219575   5.816   4.607   6.171
 6226SOL     OW19576   1.491   1.449   3.066
 6226SOL    HW119577   1.464   1.418   3.157
 6226SOL    HW219578   1.416   1.435   3.002
 6227SOL     OW19579   1.156   4.496   6.249
 6227SOL    HW119580   1.153   4.434   6.171
 6227SOL    HW219581   1.245   4.543   6.251
 6228SOL     OW19582   1.115   3.747   3.881
 6228SOL    HW119583   1.206   3.787   3.868
 6228SOL    HW219584   1.122   3.647   3.877
 6229SOL     OW19585   0.583   4.920   4.002
 6229SOL    HW119586   0.523   5.001   4.007
 6229SOL    HW219587   0.527   4.837   4.008
 6230SOL     OW19588   1.473   0.941   0.481
 6230SOL    HW119589   1.399   0.989   0.434
 6230SOL    HW219590   1.494   0.988   0.567
 6231SOL     OW19591   1.472   5.187   5.937
 6231SOL    HW119592   1.514   5.277   5.946
 6231SOL    HW219593   1.387   5.195   5.886
 6232SOL     OW19594   3.805   0.434   5.955
 6232SOL    HW119595   3.788   0.348   6.004
 6232SOL    HW219596   3.900   0.462   5.971
 6233SOL     OW19597   6.766   4.364   1.299
 6233SOL    HW119598   6.734   4.300   1.230
 6233SOL    HW219599   6.766   4.457   1.262
 6234SOL     OW19600   4.862   4.727   2.859
 6234SOL    HW119601   4.946   4.701   2.905
 6234SOL    HW219602   4.817   4.801   2.910
 6235SOL     OW19603   0.842   1.481   0.968
 6235SOL    HW119604   0.938   1.505   0.955
 6235SOL    HW219605   0.820   1.401   0.913
 6236SOL     OW19606   5.811   6.231   1.649
 6236SOL    HW119607   5.906   6.218   1.622
 6236SOL    HW219608   5.807   6.279   1.737
 6237SOL     OW19609   4.099   0.586   3.541
 6237SOL    HW119610   4.114   0.682   3.565
 6237SOL    HW219611   4.028   0.547   3.600
 6238SOL     OW19612   2.509   6.067   3.099
 6238SOL    HW119613   2.558   6.105   3.020
 6238SOL    HW219614   2.454   6.139   3.141
 6239SOL     OW19615   4.520   1.264   4.319
 6239SOL    HW119616   4.549   1.283   4.413
 6239SOL    HW219617   4.553   1.174   4.292
 6240SOL     OW19618   3.960   3.974   4.074
 6240SOL    HW119619   3.942   3.879   4.100
 6240SOL    HW219620   3.979   4.028   4.156
 6241SOL     OW19621   3.963   0.886   3.023
 6241SOL    HW119622   3.953   0.887   2.923
 6241SOL    HW219623   3.941   0.976   3.060
 6242SOL     OW19624   3.505   1.692   4.087
 6242SOL    HW119625   3.603   1.697   4.104
 6242SOL    HW219626   3.458   1.759   4.144
 6243SOL     OW19627   3.436   1.022   7.026
 6243SOL    HW119628   3.523   1.054   6.989
 6243SOL    HW219629   3.411   1.080   0.076
 6244SOL     OW19630   5.165   2.398   1.758
 6244SOL    HW119631   5.229   2.471   1.782
 6244SOL    HW219632   5.111   2.425   1.678
 6245SOL     OW19633   6.883   5.012   1.571
 6245SOL    HW119634   6.882   5.106   1.604
 6245SOL    HW219635   6.967   4.967   1.600
 6246SOL     OW19636   1.079   6.275   5.093
 6246SOL    HW119637   1.072   6.357   5.150
 6246SOL    HW219638   1.175   6.256   5.073
 6247SOL     OW19639   5.549   4.456   2.022
 6247SOL    HW119640   5.452   4.471   2.043
 6247SOL    HW219641   5.599   4.439   2.107
 6248SOL     OW19642   5.014   2.500   5.604
 6248SOL    HW119643   5.071   2.472   5.527
 6248SOL    HW219644   4.918   2.504   5.575
 6249SOL     OW19645   5.646   2.246   3.460
 6249SOL    HW119646   5.574   2.190   3.500
 6249SOL    HW219647   5.620   2.272   3.367
 6250SOL     OW19648   5.067   6.685   5.753
 6250SOL    HW119649   4.995   6.675   5.685
 6250SOL    HW219650   5.124   6.764   5.730
 6251SOL     OW19651   3.055   1.138   4.100
 6251SOL    HW119652   3.043   1.183   4.188
 6251SOL    HW219653   2.978   1.075   4.084
 6252SOL     OW19654   1.909   4.601   0.011
 6252SOL    HW119655   1.893   4.504   0.030
 6252SOL    HW219656   1.976   4.637   0.077
 6253SOL     OW19657   4.495   5.952   3.998
 6253SOL    HW119658   4.508   5.893   4.078
 6253SOL    HW219659   4.554   5.920   3.924
 6254SOL     OW19660   6.586   6.880   1.803
 6254SOL    HW119661   6.562   6.788   1.773
 6254SOL    HW219662   6.526   6.946   1.757
 6255SOL     OW19663   3.191   6.780   1.140
 6255SOL    HW119664   3.216   6.819   1.229
 6255SOL    HW219665   3.215   6.683   1.138
 6256SOL     OW19666   0.103   3.811   2.061
 6256SOL    HW119667   0.060   3.869   1.992
 6256SOL    HW219668   0.116   3.864   2.145
 6257SOL     OW19669   4.147   4.162   0.369
 6257SOL    HW119670   4.144   4.062   0.370
 6257SOL    HW219671   4.058   4.198   0.398
 6258SOL     OW19672   4.342   5.383   4.574
 6258SOL    HW119673   4.250   5.388   4.613
 6258SOL    HW219674   4.376   5.475   4.557
 6259SOL     OW19675   4.959   6.610   4.487
 6259SOL    HW119676   4.991   6.517   4.505
 6259SOL    HW219677   4.893   6.609   4.412
 6260SOL     OW19678   3.243   2.363   0.259
 6260SOL    HW119679   3.294   2.447   0.275
 6260SOL    HW219680   3.305   2.293   0.222
 6261SOL     OW19681   4.297   6.205   1.265
 6261SOL    HW119682   4.302   6.228   1.362
 6261SOL    HW219683   4.272   6.109   1.254
 6262SOL     OW19684   5.792   1.631   3.781
 6262SOL    HW119685   5.766   1.686   3.701
 6262SOL    HW219686   5.875   1.579   3.761
 6263SOL     OW19687   7.027   6.237   6.020
 6263SOL    HW119688   7.010   6.275   6.111
 6263SOL    HW219689   0.085   6.185   6.021
 6264SOL     OW19690   0.998   6.765   0.465
 6264SOL    HW119691   0.983   6.827   0.388
 6264SOL    HW219692   1.056   6.810   0.533
 6265SOL     OW19693   4.084   6.558   6.917
 6265SOL    HW119694   4.170   6.600   6.886
 6265SOL    HW219695   4.036   6.521   6.838
 6266SOL     OW19696   2.565   5.251   3.950
 6266SOL    HW119697   2.639   5.188   3.927
 6266SOL    HW219698   2.511   5.213   4.025
 6267SOL     OW19699   6.893   6.600   4.746
 6267SOL    HW119700   6.806   6.590   4.699
 6267SOL    HW219701   6.878   6.622   4.842
 6268SOL     OW19702   2.939   2.579   0.786
 6268SOL    HW119703   2.866   2.631   0.828
 6268SOL    HW219704   2.980   2.518   0.853
 6269SOL     OW19705   0.747   5.377   0.725
 6269SOL    HW119706   0.772   5.365   0.821
 6269SOL    HW219707   0.821   5.426   0.677
 6270SOL     OW19708   2.019   5.847   0.875
 6270SOL    HW119709   2.022   5.854   0.975
 6270SOL    HW219710   2.045   5.935   0.835
 6271SOL     OW19711   6.869   3.034   4.875
 6271SOL    HW119712   6.854   3.058   4.971
 6271SOL    HW219713   6.784   3.000   4.836
 6272SOL     OW19714   6.537   0.766   0.521
 6272SOL    HW119715   6.546   0.698   0.449
 6272SOL    HW219716   6.546   0.721   0.610
 6273SOL     OW19717   0.732   6.482   3.092
 6273SOL    HW119718   0.801   6.450   3.028
 6273SOL    HW219719   0.728   6.582   3.091
 6274SOL     OW19720   3.138   5.795   4.246
 6274SOL    HW119721   3.042   5.820   4.235
 6274SOL    HW219722   3.161   5.794   4.343
 6275SOL     OW19723   3.173   5.490   1.340
 6275SOL    HW119724   3.178   5.399   1.379
 6275SOL    HW219725   3.127   5.552   1.404
 6276SOL     OW19726   2.042   4.365   2.666
 6276SOL    HW119727   2.048   4.266   2.682
 6276SOL    HW219728   2.101   4.413   2.731
 6277SOL     OW19729   5.816   1.968   1.317
 6277SOL    HW119730   5.724   1.950   1.283
 6277SOL    HW219731   5.834   1.911   1.397
 6278SOL     OW19732   4.064   2.902   0.119
 6278SOL    HW119733   4.029   2.871   0.031
 6278SOL    HW219734   4.163   2.887   0.123
 6279SOL     OW19735   0.929   5.838   1.296
 6279SOL    HW119736   0.849   5.880   1.252
 6279SOL    HW219737   1.012   5.884   1.264
 6280SOL     OW19738   5.009   0.880   6.565
 6280SOL    HW119739   5.091   0.907   6.617
 6280SOL    HW219740   4.928   0.899   6.620
 6281SOL     OW19741   5.789   3.695   6.037
 6281SOL    HW119742   5.797   3.598   6.061
 6281SOL    HW219743   5.773   3.705   5.939
 6282SOL     OW19744   6.593   4.774   6.228
 6282SOL    HW119745   6.650   4.796   6.148
 6282SOL    HW219746   6.506   4.735   6.197
 6283SOL     OW19747   3.219   6.314   4.485
 6283SOL    HW119748   3.225   6.270   4.574
 6283SOL    HW219749   3.311   6.334   4.451
 6284SOL     OW19750   2.203   4.479   5.862
 6284SOL    HW119751   2.259   4.550   5.817
 6284SOL    HW219752   2.159   4.424   5.792
 6285SOL     OW19753   1.615   4.963   4.191
 6285SOL    HW119754   1.637   4.946   4.095
 6285SOL    HW219755   1.688   4.926   4.249
 6286SOL     OW19756   0.573   3.443   6.826
 6286SOL    HW119757   0.608   3.468   6.736
 6286SOL    HW219758   0.489   3.494   6.845
 6287SOL     OW19759   3.926   5.448   4.995
 6287SOL    HW119760   3.995   5.375   5.003
 6287SOL    HW219761   3.967   5.527   4.950
 6288SOL     OW19762   2.891   4.021   5.815
 6288SOL    HW119763   2.811   3.969   5.844
 6288SOL    HW219764   2.969   3.998   5.873
 6289SOL     OW19765   2.876   5.533   5.568
 6289SOL    HW119766   2.944   5.477   5.615
 6289SOL    HW219767   2.814   5.474   5.517
 6290SOL     OW19768   6.490   0.660   3.166
 6290SOL    HW119769   6.495   0.560   3.153
 6290SOL    HW219770   6.547   0.686   3.244
 6291SOL     OW19771   2.776   3.299   1.918
 6291SOL    HW119772   2.740   3.264   2.004
 6291SOL    HW219773   2.849   3.365   1.937
 6292SOL     OW19774   0.710   3.966   4.641
 6292SOL    HW119775   0.709   3.966   4.741
 6292SOL    HW219776   0.625   3.927   4.606
 6293SOL     OW19777   3.111   2.242   0.707
 6293SOL    HW119778   3.102   2.226   0.609
 6293SOL    HW219779   3.057   2.174   0.757
 6294SOL     OW19780   0.507   0.703   2.153
 6294SOL    HW119781   0.490   0.732   2.247
 6294SOL    HW219782   0.555   0.616   2.153
 6295SOL     OW19783   4.576   3.379   5.586
 6295SOL    HW119784   4.674   3.365   5.574
 6295SOL    HW219785   4.556   3.477   5.589
 6296SOL     OW19786   6.628   1.964   0.305
 6296SOL    HW119787   6.714   2.014   0.307
 6296SOL    HW219788   6.552   2.028   0.290
 6297SOL     OW19789   1.035   1.600   5.065
 6297SOL    HW119790   1.050   1.654   4.982
 6297SOL    HW219791   1.038   1.661   5.144
 6298SOL     OW19792   0.345   1.465   5.785
 6298SOL    HW119793   0.435   1.425   5.772
 6298SOL    HW219794   0.349   1.537   5.855
 6299SOL     OW19795   3.867   1.749   3.590
 6299SOL    HW119796   3.896   1.659   3.623
 6299SOL    HW219797   3.783   1.776   3.637
 6300SOL     OW19798   2.457   1.831   0.755
 6300SOL    HW119799   2.429   1.907   0.696
 6300SOL    HW219800   2.518   1.864   0.827
 6301SOL     OW19801   4.652   5.722   1.340
 6301SOL    HW119802   4.561   5.711   1.299
 6301SOL    HW219803   4.688   5.813   1.317
 6302SOL     OW19804   1.843   3.642   0.787
 6302SOL    HW119805   1.914   3.712   0.775
 6302SOL    HW219806   1.770   3.657   0.720
 6303SOL     OW19807   6.555   4.595   5.534
 6303SOL    HW119808   6.654   4.600   5.526
 6303SOL    HW219809   6.513   4.654   5.464
 6304SOL     OW19810   2.011   2.716   4.948
 6304SOL    HW119811   1.946   2.683   5.017
 6304SOL    HW219812   2.099   2.734   4.991
 6305SOL     OW19813   1.340   6.285   5.030
 6305SOL    HW119814   1.426   6.276   5.080
 6305SOL    HW219815   1.295   6.370   5.056
 6306SOL     OW19816   2.144   4.724   4.301
 6306SOL    HW119817   2.153   4.691   4.395
 6306SOL    HW219818   2.106   4.651   4.244
 6307SOL     OW19819   4.016   3.127   2.406
 6307SOL    HW119820   3.959   3.065   2.351
 6307SOL    HW219821   4.104   3.141   2.359
 6308SOL     OW19822   1.274   0.774   1.238
 6308SOL    HW119823   1.231   0.811   1.320
 6308SOL    HW219824   1.303   0.679   1.255
 6309SOL     OW19825   1.854   6.013   4.617
 6309SOL    HW119826   1.756   6.020   4.633
 6309SOL    HW219827   1.872   6.024   4.519
 6310SOL     OW19828   0.896   6.836   2.697
 6310SOL    HW119829   0.925   6.845   2.792
 6310SOL    HW219830   0.966   6.874   2.637
 6311SOL     OW19831   4.913   0.587   5.987
 6311SOL    HW119832   5.012   0.571   5.994
 6311SOL    HW219833   4.896   0.672   5.937
 6312SOL     OW19834   4.042   5.288   1.193
 6312SOL    HW119835   3.985   5.354   1.143
 6312SOL    HW219836   4.034   5.305   1.292
 6313SOL     OW19837   5.764   5.824   2.758
 6313SOL    HW119838   5.743   5.758   2.831
 6313SOL    HW219839   5.759   5.917   2.795
 6314SOL     OW19840   2.134   5.054   2.637
 6314SOL    HW119841   2.174   5.114   2.706
 6314SOL    HW219842   2.109   5.109   2.557
 6315SOL     OW19843   1.892   2.809   3.933
 6315SOL    HW119844   1.811   2.774   3.980
 6315SOL    HW219845   1.957   2.843   4.000
 6316SOL     OW19846   4.483   0.410   5.678
 6316SOL    HW119847   4.456   0.443   5.768
 6316SOL    HW219848   4.483   0.486   5.613
 6317SOL     OW19849   5.029   4.469   3.649
 6317SOL    HW119850   5.074   4.381   3.634
 6317SOL    HW219851   5.093   4.532   3.693
 6318SOL     OW19852   5.974   5.954   0.288
 6318SOL    HW119853   5.994   6.041   0.243
 6318SOL    HW219854   5.980   5.966   0.387
 6319SOL     OW19855   5.457   1.804   3.876
 6319SOL    HW119856   5.379   1.800   3.812
 6319SOL    HW219857   5.488   1.712   3.896
 6320SOL     OW19858   6.187   2.889   6.326
 6320SOL    HW119859   6.150   2.859   6.414
 6320SOL    HW219860   6.254   2.962   6.340
 6321SOL     OW19861   0.211   2.874   6.606
 6321SOL    HW119862   0.195   2.795   6.666
 6321SOL    HW219863   0.231   2.841   6.513
 6322SOL     OW19864   2.435   0.726   2.327
 6322SOL    HW119865   2.355   0.670   2.301
 6322SOL    HW219866   2.406   0.796   2.391
 6323SOL     OW19867   1.451   5.797   0.935
 6323SOL    HW119868   1.531   5.738   0.941
 6323SOL    HW219869   1.368   5.744   0.955
 6324SOL     OW19870   5.606   4.464   2.289
 6324SOL    HW119871   5.520   4.506   2.319
 6324SOL    HW219872   5.683   4.513   2.330
 6325SOL     OW19873   0.493   3.329   3.913
 6325SOL    HW119874   0.541   3.378   3.840
 6325SOL    HW219875   0.558   3.299   3.982
 6326SOL     OW19876   5.754   5.342   4.708
 6326SOL    HW119877   5.850   5.319   4.718
 6326SOL    HW219878   5.744   5.440   4.692
 6327SOL     OW19879   0.704   0.904   2.341
 6327SOL    HW119880   0.735   0.956   2.261
 6327SOL    HW219881   0.626   0.950   2.382
 6328SOL     OW19882   4.052   3.811   4.668
 6328SOL    HW119883   3.953   3.814   4.657
 6328SOL    HW219884   4.096   3.837   4.582
 6329SOL     OW19885   0.176   3.071   4.318
 6329SOL    HW119886   0.100   3.076   4.254
 6329SOL    HW219887   0.213   2.978   4.319
 6330SOL     OW19888   4.586   1.220   3.093
 6330SOL    HW119889   4.520   1.152   3.123
 6330SOL    HW219890   4.612   1.202   2.998
 6331SOL     OW19891   1.402   2.653   3.995
 6331SOL    HW119892   1.389   2.571   4.051
 6331SOL    HW219893   1.318   2.708   3.997
 6332SOL     OW19894   4.559   1.430   0.484
 6332SOL    HW119895   4.599   1.511   0.527
 6332SOL    HW219896   4.541   1.449   0.388
 6333SOL     OW19897   6.340   1.897   6.870
 6333SOL    HW119898   6.329   1.978   6.811
 6333SOL    HW219899   6.262   1.892   6.932
 6334SOL     OW19900   2.716   1.390   2.583
 6334SOL    HW119901   2.811   1.369   2.607
 6334SOL    HW219902   2.694   1.347   2.496
 6335SOL     OW19903   6.098   1.894   5.394
 6335SOL    HW119904   6.143   1.845   5.469
 6335SOL    HW219905   5.999   1.879   5.399
 6336SOL     OW19906   0.654   5.476   5.975
 6336SOL    HW119907   0.654   5.572   5.947
 6336SOL    HW219908   0.748   5.446   5.989
 6337SOL     OW19909   6.199   0.469   6.070
 6337SOL    HW119910   6.246   0.529   6.006
 6337SOL    HW219911   6.265   0.412   6.118
 6338SOL     OW19912   1.071   1.223   2.105
 6338SOL    HW119913   1.118   1.140   2.076
 6338SOL    HW219914   1.032   1.269   2.025
 6339SOL     OW19915   0.043   4.650   3.343
 6339SOL    HW119916   7.016   4.668   3.261
 6339SOL    HW219917   0.088   4.734   3.373
 6340SOL     OW19918   2.690   5.195   6.775
 6340SOL    HW119919   2.691   5.122   6.843
 6340SOL    HW219920   2.783   5.213   6.744
 6341SOL     OW19921   1.189   4.204   3.220
 6341SOL    HW119922   1.101   4.158   3.233
 6341SOL    HW219923   1.224   4.233   3.309
 6342SOL     OW19924   2.839   6.714   0.915
 6342SOL    HW119925   2.905   6.787   0.930
 6342SOL    HW219926   2.866   6.661   0.835
 6343SOL     OW19927   1.974   3.661   0.227
 6343SOL    HW119928   1.995   3.564   0.213
 6343SOL    HW219929   2.010   3.714   0.150
 6344SOL     OW19930   2.054   0.700   3.797
 6344SOL    HW119931   2.049   0.620   3.856
 6344SOL    HW219932   2.036   0.783   3.851
 6345SOL     OW19933   6.754   3.575   4.359
 6345SOL    HW119934   6.830   3.562   4.421
 6345SOL    HW219935   6.742   3.673   4.341
 6346SOL     OW19936   0.824   4.246   4.287
 6346SOL    HW119937   0.894   4.300   4.333
 6346SOL    HW219938   0.808   4.161   4.337
 6347SOL     OW19939   1.716   1.476   2.108
 6347SOL    HW119940   1.661   1.454   2.188
 6347SOL    HW219941   1.811   1.452   2.125
 6348SOL     OW19942   1.044   2.379   0.083
 6348SOL    HW119943   0.988   2.408   0.006
 6348SOL    HW219944   1.110   2.450   0.106
 6349SOL     OW19945   6.068   0.778   0.464
 6349SOL    HW119946   6.026   0.700   0.419
 6349SOL    HW219947   6.052   0.773   0.562
 6350SOL     OW19948   6.312   0.314   1.790
 6350SOL    HW119949   6.272   0.311   1.882
 6350SOL    HW219950   6.254   0.370   1.730
 6351SOL     OW19951   6.767   2.038   2.471
 6351SOL    HW119952   6.777   1.951   2.519
 6351SOL    HW219953   6.780   2.113   2.536
 6352SOL     OW19954   3.486   0.339   5.004
 6352SOL    HW119955   3.568   0.285   5.019
 6352SOL    HW219956   3.482   0.413   5.072
 6353SOL     OW19957   3.821   6.482   5.631
 6353SOL    HW119958   3.901   6.426   5.606
 6353SOL    HW219959   3.847   6.578   5.630
 6354SOL     OW19960   6.498   5.184   3.313
 6354SOL    HW119961   6.431   5.241   3.361
 6354SOL    HW219962   6.486   5.088   3.341
 6355SOL     OW19963   4.522   6.508   0.406
 6355SOL    HW119964   4.443   6.448   0.400
 6355SOL    HW219965   4.572   6.507   0.320
 6356SOL     OW19966   6.864   7.005   6.476
 6356SOL    HW119967   6.824   6.920   6.510
 6356SOL    HW219968   6.962   6.992   6.461
 6357SOL     OW19969   5.025   1.852   3.547
 6357SOL    HW119970   5.010   1.762   3.508
 6357SOL    HW219971   4.996   1.922   3.482
 6358SOL     OW19972   1.772   0.726   4.564
 6358SOL    HW119973   1.736   0.642   4.525
 6358SOL    HW219974   1.871   0.717   4.579
 6359SOL     OW19975   6.821   4.621   1.169
 6359SOL    HW119976   6.726   4.647   1.160
 6359SOL    HW219977   6.863   4.615   1.078
 6360SOL     OW19978   3.146   2.974   0.480
 6360SOL    HW119979   3.100   3.037   0.542
 6360SOL    HW219980   3.079   2.913   0.438
 6361SOL     OW19981   0.611   1.962   2.945
 6361SOL    HW119982   0.709   1.950   2.960
 6361SOL    HW219983   0.571   1.875   2.916
 6362SOL     OW19984   2.016   4.747   0.206
 6362SOL    HW119985   1.970   4.746   0.295
 6362SOL    HW219986   2.072   4.830   0.198
 6363SOL     OW19987   0.724   1.760   1.541
 6363SOL    HW119988   0.696   1.845   1.497
 6363SOL    HW219989   0.751   1.777   1.635
 6364SOL     OW19990   2.941   1.718   3.422
 6364SOL    HW119991   2.942   1.624   3.456
 6364SOL    HW219992   2.897   1.778   3.489
 6365SOL     OW19993   6.032   6.977   2.036
 6365SOL    HW119994   6.108   6.918   2.062
 6365SOL    HW219995   5.982   6.933   1.960
 6366SOL     OW19996   6.635   1.661   5.512
 6366SOL    HW119997   6.604   1.630   5.421
 6366SOL    HW219998   6.591   1.605   5.582
 6367SOL     OW19999   1.882   3.376   4.582
 6367SOL    HW120000   1.974   3.335   4.583
 6367SOL    HW220001   1.838   3.356   4.495
 6368SOL     OW20002   5.585   3.324   5.294
 6368SOL    HW120003   5.527   3.340   5.374
 6368SOL    HW220004   5.678   3.306   5.324
 6369SOL     OW20005   3.206   4.300   0.728
 6369SOL    HW120006   3.265   4.230   0.768
 6369SOL    HW220007   3.249   4.337   0.645
 6370SOL     OW20008   6.140   3.356   4.867
 6370SOL    HW120009   6.120   3.260   4.887
 6370SOL    HW220010   6.239   3.367   4.857
 6371SOL     OW20011   6.399   4.302   1.609
 6371SOL    HW120012   6.396   4.259   1.699
 6371SOL    HW220013   6.494   4.319   1.583
 6372SOL     OW20014   5.601   1.571   1.959
 6372SOL    HW120015   5.519   1.523   1.929
 6372SOL    HW220016   5.665   1.506   2.000
 6373SOL     OW20017   5.826   1.826   1.547
 6373SOL    HW120018   5.783   1.893   1.607
 6373SOL    HW220019   5.883   1.764   1.601
 6374SOL     OW20020   3.666   3.206   6.194
 6374SOL    HW120021   3.609   3.212   6.112
 6374SOL    HW220022   3.732   3.132   6.184
 6375SOL     OW20023   5.221   1.482   2.394
 6375SOL    HW120024   5.192   1.558   2.335
 6375SOL    HW220025   5.198   1.396   2.350
 6376SOL     OW20026   3.683   6.718   0.338
 6376SOL    HW120027   3.623   6.747   0.264
 6376SOL    HW220028   3.716   6.625   0.320
 6377SOL     OW20029   0.128   1.972   0.352
 6377SOL    HW120030   0.156   1.877   0.368
 6377SOL    HW220031   0.165   2.003   0.265
 6378SOL     OW20032   6.277   3.915   2.258
 6378SOL    HW120033   6.248   4.009   2.240
 6378SOL    HW220034   6.279   3.899   2.356
 6379SOL     OW20035   2.633   4.455   6.941
 6379SOL    HW120036   2.615   4.356   6.937
 6379SOL    HW220037   2.686   4.475   7.023
 6380SOL     OW20038   2.313   2.728   4.049
 6380SOL    HW120039   2.378   2.660   4.017
 6380SOL    HW220040   2.277   2.780   3.971
 6381SOL     OW20041   3.711   4.921   0.141
 6381SOL    HW120042   3.762   4.939   0.225
 6381SOL    HW220043   3.613   4.921   0.161
 6382SOL     OW20044   2.079   0.968   0.774
 6382SOL    HW120045   2.045   1.019   0.694
 6382SOL    HW220046   2.154   1.019   0.815
 6383SOL     OW20047   3.102   1.437   2.062
 6383SOL    HW120048   3.069   1.528   2.088
 6383SOL    HW220049   3.134   1.439   1.968
 6384SOL     OW20050   0.669   1.303   1.979
 6384SOL    HW120051   0.598   1.358   2.021
 6384SOL    HW220052   0.668   1.317   1.880
 6385SOL     OW20053   0.102   3.513   1.711
 6385SOL    HW120054   0.053   3.427   1.697
 6385SOL    HW220055   0.178   3.498   1.775
 6386SOL     OW20056   2.913   5.013   1.184
 6386SOL    HW120057   2.935   4.925   1.143
 6386SOL    HW220058   2.950   5.087   1.127
 6387SOL     OW20059   6.261   1.495   6.204
 6387SOL    HW120060   6.312   1.433   6.144
 6387SOL    HW220061   6.325   1.557   6.249
 6388SOL     OW20062   6.881   4.914   1.862
 6388SOL    HW120063   6.921   4.998   1.898
 6388SOL    HW220064   6.786   4.932   1.834
 6389SOL     OW20065   6.943   0.583   0.795
 6389SOL    HW120066   6.970   0.589   0.699
 6389SOL    HW220067   6.930   0.676   0.832
 6390SOL     OW20068   4.281   5.766   0.898
 6390SOL    HW120069   4.230   5.743   0.981
 6390SOL    HW220070   4.376   5.788   0.923
 6391SOL     OW20071   1.107   1.743   4.827
 6391SOL    HW120072   1.165   1.697   4.760
 6391SOL    HW220073   1.025   1.777   4.782
 6392SOL     OW20074   4.368   6.769   3.233
 6392SOL    HW120075   4.275   6.789   3.265
 6392SOL    HW220076   4.379   6.670   3.222
 6393SOL     OW20077   2.057   4.107   0.232
 6393SOL    HW120078   2.002   4.119   0.150
 6393SOL    HW220079   2.148   4.144   0.216
 6394SOL     OW20080   1.613   5.004   1.898
 6394SOL    HW120081   1.674   4.973   1.826
 6394SOL    HW220082   1.658   5.075   1.952
 6395SOL     OW20083   0.850   3.253   4.968
 6395SOL    HW120084   0.760   3.212   4.953
 6395SOL    HW220085   0.839   3.339   5.018
 6396SOL     OW20086   0.790   3.374   3.903
 6396SOL    HW120087   0.776   3.314   3.981
 6396SOL    HW220088   0.815   3.466   3.935
 6397SOL     OW20089   1.050   3.842   4.744
 6397SOL    HW120090   1.105   3.820   4.824
 6397SOL    HW220091   1.111   3.862   4.667
 6398SOL     OW20092   6.851   0.573   2.051
 6398SOL    HW120093   6.810   0.560   1.961
 6398SOL    HW220094   6.881   0.668   2.060
 6399SOL     OW20095   2.338   6.855   6.193
 6399SOL    HW120096   2.290   6.849   6.106
 6399SOL    HW220097   2.416   6.918   6.184
 6400SOL     OW20098   1.927   0.093   2.132
 6400SOL    HW120099   1.928   7.026   2.163
 6400SOL    HW220100   1.938   0.154   2.211
 6401SOL     OW20101   4.111   4.557   1.033
 6401SOL    HW120102   4.105   4.601   1.123
 6401SOL    HW220103   4.185   4.491   1.033
 6402SOL     OW20104   3.600   3.258   6.965
 6402SOL    HW120105   3.510   3.283   7.000
 6402SOL    HW220106   3.667   3.265   0.011
 6403SOL     OW20107   3.133   5.529   6.360
 6403SOL    HW120108   3.171   5.578   6.439
 6403SOL    HW220109   3.152   5.431   6.370
 6404SOL     OW20110   5.238   6.558   6.981
 6404SOL    HW120111   5.146   6.572   6.945
 6404SOL    HW220112   5.234   6.499   0.033
 6405SOL     OW20113   4.161   1.231   3.637
 6405SOL    HW120114   4.237   1.192   3.584
 6405SOL    HW220115   4.155   1.184   3.725
 6406SOL     OW20116   6.894   3.352   1.658
 6406SOL    HW120117   6.887   3.338   1.559
 6406SOL    HW220118   6.808   3.389   1.693
 6407SOL     OW20119   1.022   6.909   2.967
 6407SOL    HW120120   1.056   6.984   2.910
 6407SOL    HW220121   1.097   6.873   3.023
 6408SOL     OW20122   1.047   0.282   2.795
 6408SOL    HW120123   1.088   0.198   2.760
 6408SOL    HW220124   0.947   0.272   2.798
 6409SOL     OW20125   6.804   4.775   3.647
 6409SOL    HW120126   6.840   4.682   3.648
 6409SOL    HW220127   6.756   4.792   3.561
 6410SOL     OW20128   2.423   0.530   6.940
 6410SOL    HW120129   2.506   0.586   6.931
 6410SOL    HW220130   2.355   0.580   6.994
 6411SOL     OW20131   1.916   1.847   4.068
 6411SOL    HW120132   1.942   1.944   4.072
 6411SOL    HW220133   1.817   1.839   4.072
 6412SOL     OW20134   4.962   0.761   0.097
 6412SOL    HW120135   4.943   0.673   0.054
 6412SOL    HW220136   5.034   0.750   0.166
 6413SOL     OW20137   4.678   6.269   3.374
 6413SOL    HW120138   4.695   6.364   3.349
 6413SOL    HW220139   4.738   6.209   3.321
 6414SOL     OW20140   3.390   0.128   0.197
 6414SOL    HW120141   3.360   0.049   0.143
 6414SOL    HW220142   3.314   0.161   0.253
 6415SOL     OW20143   0.620   2.041   3.831
 6415SOL    HW120144   0.570   2.072   3.750
 6415SOL    HW220145   0.658   2.120   3.879
 6416SOL     OW20146   2.654   3.780   0.604
 6416SOL    HW120147   2.707   3.799   0.522
 6416SOL    HW220148   2.666   3.854   0.670
 6417SOL     OW20149   4.512   3.043   5.397
 6417SOL    HW120150   4.516   3.125   5.453
 6417SOL    HW220151   4.585   3.045   5.328
 6418SOL     OW20152   4.560   5.727   6.950
 6418SOL    HW120153   4.505   5.801   6.988
 6418SOL    HW220154   4.621   5.763   6.880
 6419SOL     OW20155   1.476   6.880   6.725
 6419SOL    HW120156   1.485   6.869   6.626
 6419SOL    HW220157   1.481   6.977   6.747
 6420SOL     OW20158   2.765   5.089   3.583
 6420SOL    HW120159   2.791   5.184   3.567
 6420SOL    HW220160   2.842   5.029   3.564
 6421SOL     OW20161   4.572   6.675   2.091
 6421SOL    HW120162   4.598   6.772   2.086
 6421SOL    HW220163   4.601   6.629   2.007
 6422SOL     OW20164   1.578   1.313   5.534
 6422SOL    HW120165   1.513   1.358   5.473
 6422SOL    HW220166   1.666   1.303   5.487
 6423SOL     OW20167   0.556   3.545   3.680
 6423SOL    HW120168   0.649   3.569   3.654
 6423SOL    HW220169   0.497   3.625   3.672
 6424SOL     OW20170   5.816   4.363   5.908
 6424SOL    HW120171   5.800   4.340   6.004
 6424SOL    HW220172   5.887   4.433   5.902
 6425SOL     OW20173   0.811   6.983   4.260
 6425SOL    HW120174   0.844   6.995   4.166
 6425SOL    HW220175   0.794   6.886   4.277
 6426SOL     OW20176   3.872   5.350   4.048
 6426SOL    HW120177   3.875   5.301   4.135
 6426SOL    HW220178   3.901   5.444   4.061
 6427SOL     OW20179   2.871   3.726   2.771
 6427SOL    HW120180   2.923   3.641   2.767
 6427SOL    HW220181   2.775   3.706   2.790
 6428SOL     OW20182   7.003   4.082   6.106
 6428SOL    HW120183   7.021   4.082   6.204
 6428SOL    HW220184   6.905   4.086   6.090
 6429SOL     OW20185   3.037   1.471   4.245
 6429SOL    HW120186   3.051   1.506   4.153
 6429SOL    HW220187   2.978   1.534   4.296
 6430SOL     OW20188   6.489   1.063   4.308
 6430SOL    HW120189   6.550   1.084   4.384
 6430SOL    HW220190   6.439   1.146   4.281
 6431SOL     OW20191   3.609   4.937   3.018
 6431SOL    HW120192   3.615   4.911   3.115
 6431SOL    HW220193   3.531   4.997   3.004
 6432SOL     OW20194   3.545   3.693   0.110
 6432SOL    HW120195   3.624   3.741   0.070
 6432SOL    HW220196   3.552   3.695   0.210
 6433SOL     OW20197   3.704   5.841   6.567
 6433SOL    HW120198   3.634   5.908   6.589
 6433SOL    HW220199   3.705   5.770   6.637
 6434SOL     OW20200   6.540   5.253   6.784
 6434SOL    HW120201   6.561   5.284   6.877
 6434SOL    HW220202   6.625   5.232   6.736
 6435SOL     OW20203   4.018   0.503   0.756
 6435SOL    HW120204   3.997   0.459   0.668
 6435SOL    HW220205   3.999   0.601   0.749
 6436SOL     OW20206   1.379   1.429   3.602
 6436SOL    HW120207   1.475   1.436   3.575
 6436SOL    HW220208   1.321   1.465   3.528
 6437SOL     OW20209   1.029   2.957   0.341
 6437SOL    HW120210   1.015   3.048   0.301
 6437SOL    HW220211   0.942   2.923   0.377
 6438SOL     OW20212   1.411   5.308   1.860
 6438SOL    HW120213   1.325   5.260   1.877
 6438SOL    HW220214   1.455   5.271   1.778
 6439SOL     OW20215   4.238   6.104   3.067
 6439SOL    HW120216   4.292   6.166   3.125
 6439SOL    HW220217   4.156   6.075   3.116
 6440SOL     OW20218   2.669   1.591   5.070
 6440SOL    HW120219   2.740   1.659   5.083
 6440SOL    HW220220   2.611   1.616   4.992
 6441SOL     OW20221   1.251   1.219   2.315
 6441SOL    HW120222   1.327   1.173   2.270
 6441SOL    HW220223   1.171   1.221   2.255
 6442SOL     OW20224   3.553   1.816   3.712
 6442SOL    HW120225   3.498   1.889   3.671
 6442SOL    HW220226   3.593   1.850   3.798
 6443SOL     OW20227   2.240   1.195   6.505
 6443SOL    HW120228   2.275   1.148   6.424
 6443SOL    HW220229   2.305   1.185   6.580
 6444SOL     OW20230   6.801   3.959   5.778
 6444SOL    HW120231   6.786   3.919   5.869
 6444SOL    HW220232   6.828   3.888   5.714
 6445SOL     OW20233   3.279   3.006   3.236
 6445SOL    HW120234   3.371   3.018   3.197
 6445SOL    HW220235   3.283   2.939   3.310
 6446SOL     OW20236   0.303   0.536   1.857
 6446SOL    HW120237   0.282   0.558   1.952
 6446SOL    HW220238   0.397   0.565   1.837
 6447SOL     OW20239   0.917   4.199   2.163
 6447SOL    HW120240   0.880   4.281   2.119
 6447SOL    HW220241   0.899   4.119   2.105
 6448SOL     OW20242   3.955   4.180   1.581
 6448SOL    HW120243   3.902   4.124   1.644
 6448SOL    HW220244   4.050   4.183   1.611
 6449SOL     OW20245   4.403   6.504   0.020
 6449SOL    HW120246   4.413   6.555   6.962
 6449SOL    HW220247   4.459   6.421   0.015
 6450SOL     OW20248   4.631   3.564   0.882
 6450SOL    HW120249   4.572   3.491   0.848
 6450SOL    HW220250   4.617   3.646   0.826
 6451SOL     OW20251   4.531   3.416   1.094
 6451SOL    HW120252   4.592   3.355   1.145
 6451SOL    HW220253   4.586   3.477   1.037
 6452SOL     OW20254   4.593   1.416   4.116
 6452SOL    HW120255   4.591   1.348   4.190
 6452SOL    HW220256   4.532   1.491   4.140
 6453SOL     OW20257   2.748   0.630   2.503
 6453SOL    HW120258   2.807   0.551   2.516
 6453SOL    HW220259   2.662   0.617   2.553
 6454SOL     OW20260   4.366   3.772   5.565
 6454SOL    HW120261   4.368   3.743   5.470
 6454SOL    HW220262   4.443   3.732   5.615
 6455SOL     OW20263   0.074   3.302   5.568
 6455SOL    HW120264   0.038   3.242   5.497
 6455SOL    HW220265   0.174   3.299   5.566
 6456SOL     OW20266   5.879   2.104   3.440
 6456SOL    HW120267   5.950   2.155   3.392
 6456SOL    HW220268   5.804   2.165   3.463
 6457SOL     OW20269   1.748   6.353   2.684
 6457SOL    HW120270   1.807   6.279   2.651
 6457SOL    HW220271   1.800   6.413   2.745
 6458SOL     OW20272   1.530   0.613   4.723
 6458SOL    HW120273   1.447   0.565   4.697
 6458SOL    HW220274   1.508   0.687   4.786
 6459SOL     OW20275   6.967   3.278   3.459
 6459SOL    HW120276   6.934   3.298   3.366
 6459SOL    HW220277   7.021   3.194   3.458
 6460SOL     OW20278   1.593   5.446   5.913
 6460SOL    HW120279   1.525   5.514   5.943
 6460SOL    HW220280   1.684   5.476   5.943
 6461SOL     OW20281   5.841   0.605   2.245
 6461SOL    HW120282   5.748   0.570   2.230
 6461SOL    HW220283   5.904   0.528   2.256
 6462SOL     OW20284   2.837   4.300   5.347
 6462SOL    HW120285   2.848   4.374   5.281
 6462SOL    HW220286   2.745   4.263   5.341
 6463SOL     OW20287   4.831   3.516   1.693
 6463SOL    HW120288   4.864   3.452   1.762
 6463SOL    HW220289   4.731   3.517   1.694
 6464SOL     OW20290   0.548   3.432   3.405
 6464SOL    HW120291   0.509   3.353   3.358
 6464SOL    HW220292   0.496   3.452   3.488
 6465SOL     OW20293   2.685   0.836   2.211
 6465SOL    HW120294   2.616   0.847   2.140
 6465SOL    HW220295   2.647   0.865   2.299
 6466SOL     OW20296   6.421   4.822   6.882
 6466SOL    HW120297   6.512   4.802   6.848
 6466SOL    HW220298   6.363   4.852   6.806
 6467SOL     OW20299   3.226   2.787   6.494
 6467SOL    HW120300   3.247   2.779   6.397
 6467SOL    HW220301   3.166   2.866   6.508
 6468SOL     OW20302   0.705   1.302   6.353
 6468SOL    HW120303   0.661   1.320   6.265
 6468SOL    HW220304   0.801   1.330   6.349
 6469SOL     OW20305   3.438   0.985   0.603
 6469SOL    HW120306   3.425   1.084   0.597
 6469SOL    HW220307   3.527   0.961   0.564
 6470SOL     OW20308   5.611   1.117   6.810
 6470SOL    HW120309   5.707   1.144   6.797
 6470SOL    HW220310   5.600   1.080   6.903
 6471SOL     OW20311   0.255   0.310   4.766
 6471SOL    HW120312   0.301   0.266   4.843
 6471SOL    HW220313   0.189   0.247   4.726
 6472SOL     OW20314   1.033   6.536   0.934
 6472SOL    HW120315   0.954   6.522   0.993
 6472SOL    HW220316   1.003   6.534   0.838
 6473SOL     OW20317   3.399   1.517   2.984
 6473SOL    HW120318   3.330   1.531   3.054
 6473SOL    HW220319   3.482   1.480   3.026
 6474SOL     OW20320   4.757   0.103   5.042
 6474SOL    HW120321   4.687   0.167   5.072
 6474SOL    HW220322   4.715   0.028   4.991
 6475SOL     OW20323   5.494   5.335   4.379
 6475SOL    HW120324   5.532   5.427   4.370
 6475SOL    HW220325   5.555   5.270   4.335
 6476SOL     OW20326   5.377   4.306   4.524
 6476SOL    HW120327   5.380   4.323   4.622
 6476SOL    HW220328   5.342   4.387   4.477
 6477SOL     OW20329   0.870   0.227   0.925
 6477SOL    HW120330   0.940   0.258   0.990
 6477SOL    HW220331   0.910   0.221   0.834
 6478SOL     OW20332   2.451   6.889   0.412
 6478SOL    HW120333   2.381   6.846   0.468
 6478SOL    HW220334   2.467   6.834   0.330
 6479SOL     OW20335   5.019   5.189   4.764
 6479SOL    HW120336   4.931   5.170   4.805
 6479SOL    HW220337   5.006   5.231   4.674
 6480SOL     OW20338   2.247   0.044   4.985
 6480SOL    HW120339   2.229   0.016   4.891
 6480SOL    HW220340   2.205   0.134   5.002
 6481SOL     OW20341   4.134   3.637   1.362
 6481SOL    HW120342   4.234   3.641   1.360
 6481SOL    HW220343   4.104   3.600   1.449
 6482SOL     OW20344   5.343   3.321   4.367
 6482SOL    HW120345   5.396   3.253   4.418
 6482SOL    HW220346   5.401   3.362   4.296
 6483SOL     OW20347   2.143   6.922   5.671
 6483SOL    HW120348   2.047   6.917   5.699
 6483SOL    HW220349   2.149   6.958   5.578
 6484SOL     OW20350   3.308   0.989   4.103
 6484SOL    HW120351   3.320   0.897   4.066
 6484SOL    HW220352   3.217   1.023   4.079
 6485SOL     OW20353   2.443   5.505   5.073
 6485SOL    HW120354   2.453   5.532   5.169
 6485SOL    HW220355   2.499   5.424   5.054
 6486SOL     OW20356   6.767   3.346   2.619
 6486SOL    HW120357   6.824   3.362   2.700
 6486SOL    HW220358   6.760   3.247   2.603
 6487SOL     OW20359   5.922   6.193   4.852
 6487SOL    HW120360   5.981   6.271   4.873
 6487SOL    HW220361   5.974   6.125   4.801
 6488SOL     OW20362   3.951   5.735   2.886
 6488SOL    HW120363   3.932   5.646   2.843
 6488SOL    HW220364   3.992   5.796   2.818
 6489SOL     OW20365   0.502   4.619   5.417
 6489SOL    HW120366   0.528   4.599   5.511
 6489SOL    HW220367   0.502   4.535   5.363
 6490SOL     OW20368   2.178   3.514   6.297
 6490SOL    HW120369   2.115   3.511   6.375
 6490SOL    HW220370   2.129   3.550   6.217
 6491SOL     OW20371   0.725   6.690   1.887
 6491SOL    HW120372   0.708   6.773   1.833
 6491SOL    HW220373   0.695   6.704   1.981
 6492SOL     OW20374   4.035   3.246   3.113
 6492SOL    HW120375   3.967   3.180   3.146
 6492SOL    HW220376   4.050   3.315   3.184
 6493SOL     OW20377   2.634   5.126   4.323
 6493SOL    HW120378   2.600   5.061   4.255
 6493SOL    HW220379   2.718   5.168   4.290
 6494SOL     OW20380   6.130   1.697   2.278
 6494SOL    HW120381   6.180   1.620   2.319
 6494SOL    HW220382   6.142   1.695   2.179
 6495SOL     OW20383   6.749   6.013   2.813
 6495SOL    HW120384   6.701   6.078   2.872
 6495SOL    HW220385   6.684   5.950   2.772
 6496SOL     OW20386   2.861   2.829   1.146
 6496SOL    HW120387   2.952   2.833   1.106
 6496SOL    HW220388   2.866   2.855   1.243
 6497SOL     OW20389   6.975   3.237   0.922
 6497SOL    HW120390   0.015   3.172   0.957
 6497SOL    HW220391   6.896   3.237   0.983
 6498SOL     OW20392   2.956   4.791   4.351
 6498SOL    HW120393   2.872   4.740   4.333
 6498SOL    HW220394   2.939   4.858   4.424
 6499SOL     OW20395   5.242   1.821   2.950
 6499SOL    HW120396   5.321   1.794   3.004
 6499SOL    HW220397   5.271   1.844   2.857
 6500SOL     OW20398   1.731   3.606   3.006
 6500SOL    HW120399   1.711   3.695   2.965
 6500SOL    HW220400   1.724   3.535   2.936
 6501SOL     OW20401   5.921   0.261   2.894
 6501SOL    HW120402   5.951   0.336   2.835
 6501SOL    HW220403   5.855   0.205   2.844
 6502SOL     OW20404   0.814   3.169   3.140
 6502SOL    HW120405   0.801   3.232   3.217
 6502SOL    HW220406   0.893   3.199   3.086
 6503SOL     OW20407   0.861   3.432   5.497
 6503SOL    HW120408   0.819   3.479   5.575
 6503SOL    HW220409   0.905   3.349   5.528
 6504SOL     OW20410   3.971   6.751   6.229
 6504SOL    HW120411   4.019   6.722   6.147
 6504SOL    HW220412   3.885   6.700   6.237
 6505SOL     OW20413   0.704   0.105   6.808
 6505SOL    HW120414   0.661   0.136   6.723
 6505SOL    HW220415   0.797   0.075   6.789
 6506SOL     OW20416   1.309   5.288   2.278
 6506SOL    HW120417   1.246   5.317   2.350
 6506SOL    HW220418   1.272   5.207   2.233
 6507SOL     OW20419   5.268   5.354   0.786
 6507SOL    HW120420   5.268   5.263   0.744
 6507SOL    HW220421   5.182   5.367   0.836
 6508SOL     OW20422   6.650   1.496   4.352
 6508SOL    HW120423   6.568   1.551   4.371
 6508SOL    HW220424   6.718   1.511   4.423
 6509SOL     OW20425   3.088   1.950   6.286
 6509SOL    HW120426   3.087   2.037   6.335
 6509SOL    HW220427   3.078   1.966   6.188
 6510SOL     OW20428   4.454   4.929   4.521
 6510SOL    HW120429   4.362   4.945   4.487
 6510SOL    HW220430   4.488   5.013   4.564
 6511SOL     OW20431   3.782   3.319   0.132
 6511SOL    HW120432   3.699   3.348   0.181
 6511SOL    HW220433   3.813   3.231   0.169
 6512SOL     OW20434   5.002   0.983   2.940
 6512SOL    HW120435   4.984   1.077   2.914
 6512SOL    HW220436   4.920   0.944   2.983
 6513SOL     OW20437   3.308   4.060   1.595
 6513SOL    HW120438   3.237   4.016   1.539
 6513SOL    HW220439   3.269   4.137   1.644
 6514SOL     OW20440   5.801   5.640   5.910
 6514SOL    HW120441   5.720   5.645   5.969
 6514SOL    HW220442   5.847   5.553   5.924
 6515SOL     OW20443   0.518   4.905   2.603
 6515SOL    HW120444   0.542   4.973   2.535
 6515SOL    HW220445   0.424   4.873   2.587
 6516SOL     OW20446   6.063   0.941   3.656
 6516SOL    HW120447   6.013   0.974   3.576
 6516SOL    HW220448   6.148   0.897   3.626
 6517SOL     OW20449   6.816   3.974   1.711
 6517SOL    HW120450   6.864   3.972   1.623
 6517SOL    HW220451   6.829   3.886   1.757
 6518SOL     OW20452   1.268   1.874   2.837
 6518SOL    HW120453   1.212   1.943   2.792
 6518SOL    HW220454   1.363   1.905   2.841
 6519SOL     OW20455   2.560   1.762   2.971
 6519SOL    HW120456   2.502   1.709   2.910
 6519SOL    HW220457   2.644   1.711   2.990
 6520SOL     OW20458   5.668   6.695   6.777
 6520SOL    HW120459   5.727   6.769   6.744
 6520SOL    HW220460   5.643   6.636   6.701
 6521SOL     OW20461   1.633   5.029   4.524
 6521SOL    HW120462   1.583   5.047   4.440
 6521SOL    HW220463   1.614   5.101   4.591
 6522SOL     OW20464   2.573   3.256   5.362
 6522SOL    HW120465   2.493   3.311   5.384
 6522SOL    HW220466   2.545   3.173   5.313
 6523SOL     OW20467   4.854   6.770   0.698
 6523SOL    HW120468   4.797   6.841   0.740
 6523SOL    HW220469   4.842   6.684   0.747
 6524SOL     OW20470   3.909   2.207   1.238
 6524SOL    HW120471   3.891   2.227   1.335
 6524SOL    HW220472   3.845   2.137   1.206
 6525SOL     OW20473   3.163   5.152   3.486
 6525SOL    HW120474   3.142   5.069   3.538
 6525SOL    HW220475   3.224   5.211   3.539
 6526SOL     OW20476   6.341   6.890   0.667
 6526SOL    HW120477   6.361   6.986   0.645
 6526SOL    HW220478   6.343   6.835   0.584
 6527SOL     OW20479   5.152   2.595   0.724
 6527SOL    HW120480   5.068   2.629   0.681
 6527SOL    HW220481   5.135   2.504   0.762
 6528SOL     OW20482   4.201   0.186   0.728
 6528SOL    HW120483   4.190   0.245   0.647
 6528SOL    HW220484   4.156   0.098   0.711
 6529SOL     OW20485   3.483   5.807   1.251
 6529SOL    HW120486   3.386   5.793   1.230
 6529SOL    HW220487   3.500   5.783   1.346
 6530SOL     OW20488   1.179   3.028   4.448
 6530SOL    HW120489   1.166   2.930   4.433
 6530SOL    HW220490   1.274   3.047   4.471
 6531SOL     OW20491   2.996   3.254   4.283
 6531SOL    HW120492   2.915   3.236   4.227
 6531SOL    HW220493   3.078   3.224   4.234
 6532SOL     OW20494   1.148   6.021   0.335
 6532SOL    HW120495   1.190   6.016   0.426
 6532SOL    HW220496   1.199   6.086   0.279
 6533SOL     OW20497   5.948   5.085   1.186
 6533SOL    HW120498   5.897   5.169   1.166
 6533SOL    HW220499   5.969   5.081   1.284
 6534SOL     OW20500   6.672   2.588   4.253
 6534SOL    HW120501   6.583   2.624   4.281
 6534SOL    HW220502   6.739   2.663   4.252
 6535SOL     OW20503   5.303   3.480   6.725
 6535SOL    HW120504   5.355   3.459   6.808
 6535SOL    HW220505   5.295   3.579   6.715
 6536SOL     OW20506   6.996   5.613   6.146
 6536SOL    HW120507   0.019   5.527   6.151
 6536SOL    HW220508   6.900   5.594   6.127
 6537SOL     OW20509   6.592   5.279   3.884
 6537SOL    HW120510   6.622   5.194   3.841
 6537SOL    HW220511   6.553   5.259   3.974
 6538SOL     OW20512   1.085   4.311   3.977
 6538SOL    HW120513   1.179   4.345   3.990
 6538SOL    HW220514   1.029   4.382   3.935
 6539SOL     OW20515   5.958   6.722   5.677
 6539SOL    HW120516   6.054   6.715   5.701
 6539SOL    HW220517   5.906   6.759   5.754
 6540SOL     OW20518   0.802   2.941   5.561
 6540SOL    HW120519   0.722   2.898   5.603
 6540SOL    HW220520   0.809   2.910   5.466
 6541SOL     OW20521   3.671   1.871   6.187
 6541SOL    HW120522   3.705   1.804   6.253
 6541SOL    HW220523   3.571   1.872   6.189
 6542SOL     OW20524   1.715   4.948   1.168
 6542SOL    HW120525   1.770   4.914   1.092
 6542SOL    HW220526   1.638   4.886   1.184
 6543SOL     OW20527   4.435   1.729   3.648
 6543SOL    HW120528   4.506   1.679   3.598
 6543SOL    HW220529   4.369   1.767   3.583
 6544SOL     OW20530   1.103   1.399   0.910
 6544SOL    HW120531   1.141   1.352   0.830
 6544SOL    HW220532   1.113   1.497   0.899
 6545SOL     OW20533   6.515   4.065   0.151
 6545SOL    HW120534   6.547   4.129   0.221
 6545SOL    HW220535   6.416   4.067   0.147
 6546SOL     OW20536   4.061   5.779   4.481
 6546SOL    HW120537   4.018   5.704   4.431
 6546SOL    HW220538   4.138   5.744   4.534
 6547SOL     OW20539   6.586   6.149   4.508
 6547SOL    HW120540   6.546   6.185   4.423
 6547SOL    HW220541   6.587   6.049   4.504
 6548SOL     OW20542   1.859   0.991   5.062
 6548SOL    HW120543   1.808   0.931   5.000
 6548SOL    HW220544   1.807   1.001   5.147
 6549SOL     OW20545   2.284   1.703   1.952
 6549SOL    HW120546   2.277   1.729   1.856
 6549SOL    HW220547   2.211   1.748   2.005
 6550SOL     OW20548   5.831   0.535   1.780
 6550SOL    HW120549   5.780   0.596   1.841
 6550SOL    HW220550   5.919   0.577   1.756
 6551SOL     OW20551   2.323   5.524   1.081
 6551SOL    HW120552   2.297   5.471   1.000
 6551SOL    HW220553   2.375   5.604   1.053
 6552SOL     OW20554   2.487   3.025   6.501
 6552SOL    HW120555   2.481   3.123   6.479
 6552SOL    HW220556   2.519   2.975   6.420
 6553SOL     OW20557   0.855   1.915   3.705
 6553SOL    HW120558   0.786   1.940   3.773
 6553SOL    HW220559   0.906   1.836   3.738
 6554SOL     OW20560   2.549   1.623   3.831
 6554SOL    HW120561   2.542   1.721   3.845
 6554SOL    HW220562   2.475   1.592   3.772
 6555SOL     OW20563   2.066   3.518   1.781
 6555SOL    HW120564   2.065   3.440   1.719
 6555SOL    HW220565   2.130   3.500   1.856
 6556SOL     OW20566   4.834   2.781   3.407
 6556SOL    HW120567   4.872   2.783   3.314
 6556SOL    HW220568   4.736   2.766   3.402
 6557SOL     OW20569   2.086   0.051   2.479
 6557SOL    HW120570   2.043   0.068   2.568
 6557SOL    HW220571   2.052   0.118   2.413
 6558SOL     OW20572   5.015   5.835   0.627
 6558SOL    HW120573   5.104   5.867   0.594
 6558SOL    HW220574   4.943   5.868   0.566
 6559SOL     OW20575   0.487   1.972   6.223
 6559SOL    HW120576   0.537   2.058   6.217
 6559SOL    HW220577   0.462   1.954   6.319
 6560SOL     OW20578   6.859   3.981   6.377
 6560SOL    HW120579   6.896   3.894   6.343
 6560SOL    HW220580   6.815   3.966   6.465
 6561SOL     OW20581   2.189   5.727   6.855
 6561SOL    HW120582   2.179   5.630   6.833
 6561SOL    HW220583   2.138   5.781   6.789
 6562SOL     OW20584   4.991   2.785   1.130
 6562SOL    HW120585   4.938   2.777   1.214
 6562SOL    HW220586   4.932   2.768   1.051
 6563SOL     OW20587   6.160   4.451   5.687
 6563SOL    HW120588   6.181   4.427   5.782
 6563SOL    HW220589   6.178   4.548   5.673
 6564SOL     OW20590   6.289   3.921   2.536
 6564SOL    HW120591   6.383   3.938   2.563
 6564SOL    HW220592   6.254   3.840   2.583
 6565SOL     OW20593   5.718   5.429   2.101
 6565SOL    HW120594   5.701   5.435   2.003
 6565SOL    HW220595   5.793   5.491   2.126
 6566SOL     OW20596   5.684   5.927   4.896
 6566SOL    HW120597   5.612   5.920   4.965
 6566SOL    HW220598   5.648   5.975   4.816
 6567SOL     OW20599   2.719   0.061   2.482
 6567SOL    HW120600   2.702   0.159   2.498
 6567SOL    HW220601   2.683   0.035   2.392
 6568SOL     OW20602   5.209   1.397   1.448
 6568SOL    HW120603   5.119   1.422   1.483
 6568SOL    HW220604   5.201   1.316   1.389
 6569SOL     OW20605   1.076   4.040   3.559
 6569SOL    HW120606   1.045   3.947   3.575
 6569SOL    HW220607   0.999   4.104   3.566
 6570SOL     OW20608   4.620   0.373   2.499
 6570SOL    HW120609   4.715   0.358   2.473
 6570SOL    HW220610   4.561   0.355   2.420
 6571SOL     OW20611   2.330   6.293   3.656
 6571SOL    HW120612   2.231   6.301   3.642
 6571SOL    HW220613   2.349   6.262   3.749
 6572SOL     OW20614   0.892   7.010   3.974
 6572SOL    HW120615   0.891   0.068   3.924
 6572SOL    HW220616   0.888   6.933   3.910
 6573SOL     OW20617   1.063   2.255   3.600
 6573SOL    HW120618   1.062   2.250   3.500
 6573SOL    HW220619   1.123   2.329   3.629
 6574SOL     OW20620   1.646   5.227   1.236
 6574SOL    HW120621   1.653   5.127   1.230
 6574SOL    HW220622   1.551   5.253   1.253
 6575SOL     OW20623   6.855   1.195   4.153
 6575SOL    HW120624   6.828   1.162   4.063
 6575SOL    HW220625   6.795   1.154   4.222
 6576SOL     OW20626   4.265   0.861   3.062
 6576SOL    HW120627   4.323   0.780   3.052
 6576SOL    HW220628   4.180   0.835   3.108
 6577SOL     OW20629   2.778   0.887   5.273
 6577SOL    HW120630   2.850   0.822   5.248
 6577SOL    HW220631   2.692   0.859   5.230
 6578SOL     OW20632   0.872   6.079   0.314
 6578SOL    HW120633   0.967   6.066   0.343
 6578SOL    HW220634   0.870   6.140   0.234
 6579SOL     OW20635   2.512   1.659   2.359
 6579SOL    HW120636   2.588   1.642   2.296
 6579SOL    HW220637   2.431   1.609   2.327
 6580SOL     OW20638   2.837   2.255   6.953
 6580SOL    HW120639   2.875   2.169   6.920
 6580SOL    HW220640   2.884   2.283   0.009
 6581SOL     OW20641   1.092   2.374   2.310
 6581SOL    HW120642   1.107   2.352   2.407
 6581SOL    HW220643   1.178   2.365   2.260
 6582SOL     OW20644   3.528   6.899   2.948
 6582SOL    HW120645   3.498   6.824   2.889
 6582SOL    HW220646   3.543   6.981   2.893
 6583SOL     OW20647   2.104   4.398   0.196
 6583SOL    HW120648   2.066   4.353   0.116
 6583SOL    HW220649   2.194   4.435   0.173
 6584SOL     OW20650   4.779   3.411   5.368
 6584SOL    HW120651   4.793   3.452   5.458
 6584SOL    HW220652   4.742   3.479   5.305
 6585SOL     OW20653   4.616   6.173   1.909
 6585SOL    HW120654   4.537   6.226   1.877
 6585SOL    HW220655   4.597   6.137   2.001
 6586SOL     OW20656   6.600   1.998   6.908
 6586SOL    HW120657   6.651   1.955   6.983
 6586SOL    HW220658   6.507   1.962   6.906
 6587SOL     OW20659   2.733   5.136   5.290
 6587SOL    HW120660   2.820   5.089   5.275
 6587SOL    HW220661   2.675   5.081   5.350
 6588SOL     OW20662   1.926   2.485   0.615
 6588SOL    HW120663   1.994   2.412   0.620
 6588SOL    HW220664   1.834   2.446   0.622
 6589SOL     OW20665   6.377   0.677   0.184
 6589SOL    HW120666   6.320   0.757   0.202
 6589SOL    HW220667   6.321   0.594   0.192
 6590SOL     OW20668   0.429   5.942   4.454
 6590SOL    HW120669   0.486   5.984   4.525
 6590SOL    HW220670   0.485   5.883   4.397
 6591SOL     OW20671   6.078   3.441   3.405
 6591SOL    HW120672   6.112   3.534   3.392
 6591SOL    HW220673   6.002   3.423   3.343
 6592SOL     OW20674   0.002   0.743   4.235
 6592SOL    HW120675   0.058   0.714   4.313
 6592SOL    HW220676   0.026   0.836   4.209
 6593SOL     OW20677   0.604   6.610   3.890
 6593SOL    HW120678   0.608   6.536   3.823
 6593SOL    HW220679   0.615   6.572   3.982
 6594SOL     OW20680   5.944   6.727   6.193
 6594SOL    HW120681   5.865   6.666   6.186
 6594SOL    HW220682   6.020   6.690   6.140
 6595SOL     OW20683   0.610   0.048   4.680
 6595SOL    HW120684   0.703   0.046   4.717
 6595SOL    HW220685   0.552   7.012   4.730
 6596SOL     OW20686   5.221   0.661   3.374
 6596SOL    HW120687   5.310   0.673   3.418
 6596SOL    HW220688   5.234   0.616   3.285
 6597SOL     OW20689   1.144   5.193   1.821
 6597SOL    HW120690   1.146   5.201   1.721
 6597SOL    HW220691   1.059   5.148   1.848
 6598SOL     OW20692   1.963   5.122   1.687
 6598SOL    HW120693   1.916   5.173   1.615
 6598SOL    HW220694   2.053   5.093   1.654
 6599SOL     OW20695   0.183   5.464   0.657
 6599SOL    HW120696   0.135   5.543   0.693
 6599SOL    HW220697   0.163   5.384   0.714
 6600SOL     OW20698   5.340   0.353   4.690
 6600SOL    HW120699   5.305   0.436   4.733
 6600SOL    HW220700   5.334   0.362   4.591
 6601SOL     OW20701   1.168   1.872   4.111
 6601SOL    HW120702   1.243   1.822   4.155
 6601SOL    HW220703   1.205   1.951   4.063
 6602SOL     OW20704   6.543   6.631   1.181
 6602SOL    HW120705   6.619   6.694   1.165
 6602SOL    HW220706   6.520   6.630   1.278
 6603SOL     OW20707   6.982   4.847   2.759
 6603SOL    HW120708   7.018   4.817   2.847
 6603SOL    HW220709   7.011   4.940   2.740
 6604SOL     OW20710   2.414   4.793   3.068
 6604SOL    HW120711   2.332   4.738   3.050
 6604SOL    HW220712   2.446   4.775   3.161
 6605SOL     OW20713   0.021   6.017   0.780
 6605SOL    HW120714   0.081   5.987   0.707
 6605SOL    HW220715   0.073   6.023   0.866
 6606SOL     OW20716   0.530   5.283   3.334
 6606SOL    HW120717   0.568   5.374   3.315
 6606SOL    HW220718   0.603   5.215   3.326
 6607SOL     OW20719   0.965   2.633   4.284
 6607SOL    HW120720   0.930   2.705   4.343
 6607SOL    HW220721   0.898   2.613   4.212
 6608SOL     OW20722   1.135   6.795   5.150
 6608SOL    HW120723   1.226   6.829   5.126
 6608SOL    HW220724   1.115   6.714   5.094
 6609SOL     OW20725   2.062   2.038   6.822
 6609SOL    HW120726   2.102   1.973   6.887
 6609SOL    HW220727   2.089   2.131   6.847
 6610SOL     OW20728   2.698   5.655   6.770
 6610SOL    HW120729   2.728   5.665   6.675
 6610SOL    HW220730   2.761   5.704   6.830
 6611SOL     OW20731   2.531   0.689   4.872
 6611SOL    HW120732   2.441   0.647   4.861
 6611SOL    HW220733   2.602   0.623   4.846
 6612SOL     OW20734   5.530   0.292   6.920
 6612SOL    HW120735   5.621   0.334   6.928
 6612SOL    HW220736   5.518   0.224   6.992
 6613SOL     OW20737   5.672   5.764   0.899
 6613SOL    HW120738   5.629   5.832   0.959
 6613SOL    HW220739   5.753   5.804   0.856
 6614SOL     OW20740   4.178   5.936   1.312
 6614SOL    HW120741   4.167   5.914   1.409
 6614SOL    HW220742   4.102   5.897   1.260
 6615SOL     OW20743   3.403   5.871   5.839
 6615SOL    HW120744   3.321   5.863   5.782
 6615SOL    HW220745   3.387   5.826   5.926
 6616SOL     OW20746   4.187   2.142   0.010
 6616SOL    HW120747   4.251   2.205   0.053
 6616SOL    HW220748   4.098   2.149   0.055
 6617SOL     OW20749   4.465   2.008   4.020
 6617SOL    HW120750   4.392   1.952   3.983
 6617SOL    HW220751   4.447   2.105   3.999
 6618SOL     OW20752   5.584   2.355   4.283
 6618SOL    HW120753   5.612   2.370   4.378
 6618SOL    HW220754   5.491   2.391   4.270
 6619SOL     OW20755   4.572   5.311   3.808
 6619SOL    HW120756   4.519   5.279   3.887
 6619SOL    HW220757   4.640   5.242   3.784
 6620SOL     OW20758   1.253   3.003   3.993
 6620SOL    HW120759   1.303   3.031   4.075
 6620SOL    HW220760   1.177   3.067   3.977
 6621SOL     OW20761   3.658   3.626   3.198
 6621SOL    HW120762   3.620   3.637   3.290
 6621SOL    HW220763   3.596   3.666   3.131
 6622SOL     OW20764   0.045   4.945   0.838
 6622SOL    HW120765   6.996   5.000   0.870
 6622SOL    HW220766   0.129   4.980   0.879
 6623SOL     OW20767   3.128   4.060   3.861
 6623SOL    HW120768   3.090   4.144   3.898
 6623SOL    HW220769   3.154   3.999   3.936
 6624SOL     OW20770   2.638   2.453   2.418
 6624SOL    HW120771   2.605   2.433   2.326
 6624SOL    HW220772   2.566   2.502   2.468
 6625SOL     OW20773   1.108   5.376   6.078
 6625SOL    HW120774   1.091   5.330   6.165
 6625SOL    HW220775   1.066   5.323   6.004
 6626SOL     OW20776   3.354   6.143   5.904
 6626SOL    HW120777   3.435   6.182   5.949
 6626SOL    HW220778   3.372   6.048   5.880
 6627SOL     OW20779   2.209   0.037   4.710
 6627SOL    HW120780   2.243   7.008   4.635
 6627SOL    HW220781   2.153   0.112   4.672
 6628SOL     OW20782   4.466   6.414   4.066
 6628SOL    HW120783   4.452   6.499   4.116
 6628SOL    HW220784   4.385   6.393   4.011
 6629SOL     OW20785   5.630   6.080   5.341
 6629SOL    HW120786   5.712   6.091   5.286
 6629SOL    HW220787   5.644   6.122   5.431
 6630SOL     OW20788   1.808   6.831   0.238
 6630SOL    HW120789   1.847   6.749   0.197
 6630SOL    HW220790   1.874   6.906   0.232
 6631SOL     OW20791   2.628   1.597   5.414
 6631SOL    HW120792   2.636   1.687   5.457
 6631SOL    HW220793   2.625   1.607   5.315
 6632SOL     OW20794   1.253   1.327   5.671
 6632SOL    HW120795   1.349   1.299   5.674
 6632SOL    HW220796   1.233   1.371   5.584
 6633SOL     OW20797   5.106   0.253   6.223
 6633SOL    HW120798   5.189   0.304   6.246
 6633SOL    HW220799   5.041   0.313   6.177
 6634SOL     OW20800   2.869   2.307   4.043
 6634SOL    HW120801   2.897   2.235   3.980
 6634SOL    HW220802   2.947   2.367   4.064
 6635SOL     OW20803   4.532   5.547   6.119
 6635SOL    HW120804   4.460   5.565   6.051
 6635SOL    HW220805   4.493   5.553   6.211
 6636SOL     OW20806   5.154   1.896   1.269
 6636SOL    HW120807   5.130   1.859   1.180
 6636SOL    HW220808   5.104   1.982   1.284
 6637SOL     OW20809   0.613   3.787   0.086
 6637SOL    HW120810   0.602   3.820   7.021
 6637SOL    HW220811   0.644   3.692   0.085
 6638SOL     OW20812   3.499   3.866   4.627
 6638SOL    HW120813   3.492   3.904   4.534
 6638SOL    HW220814   3.410   3.834   4.656
 6639SOL     OW20815   6.434   2.365   3.097
 6639SOL    HW120816   6.493   2.333   3.171
 6639SOL    HW220817   6.338   2.352   3.123
 6640SOL     OW20818   6.776   3.367   4.187
 6640SOL    HW120819   6.740   3.440   4.245
 6640SOL    HW220820   6.854   3.323   4.232
 6641SOL     OW20821   5.893   2.203   0.437
 6641SOL    HW120822   5.873   2.192   0.340
 6641SOL    HW220823   5.874   2.298   0.464
 6642SOL     OW20824   0.609   5.090   6.868
 6642SOL    HW120825   0.668   5.024   6.912
 6642SOL    HW220826   0.600   5.068   6.771
 6643SOL     OW20827   6.426   5.543   6.157
 6643SOL    HW120828   6.373   5.517   6.238
 6643SOL    HW220829   6.365   5.561   6.081
 6644SOL     OW20830   2.066   6.448   2.707
 6644SOL    HW120831   2.146   6.503   2.731
 6644SOL    HW220832   1.997   6.456   2.778
 6645SOL     OW20833   4.887   2.835   5.895
 6645SOL    HW120834   4.936   2.755   5.861
 6645SOL    HW220835   4.924   2.917   5.852
 6646SOL     OW20836   4.546   0.045   6.050
 6646SOL    HW120837   4.615   0.106   6.012
 6646SOL    HW220838   4.455   0.085   6.037
 6647SOL     OW20839   3.506   5.052   0.609
 6647SOL    HW120840   3.527   5.092   0.699
 6647SOL    HW220841   3.433   4.984   0.620
 6648SOL     OW20842   3.213   6.248   4.757
 6648SOL    HW120843   3.228   6.296   4.843
 6648SOL    HW220844   3.156   6.168   4.773
 6649SOL     OW20845   5.420   1.630   5.436
 6649SOL    HW120846   5.433   1.639   5.337
 6649SOL    HW220847   5.322   1.623   5.456
 6650SOL     OW20848   2.872   0.605   4.705
 6650SOL    HW120849   2.790   0.551   4.688
 6650SOL    HW220850   2.947   0.571   4.648
 6651SOL     OW20851   6.429   1.451   3.788
 6651SOL    HW120852   6.507   1.392   3.767
 6651SOL    HW220853   6.362   1.445   3.714
 6652SOL     OW20854   6.911   5.378   6.877
 6652SOL    HW120855   6.845   5.401   6.949
 6652SOL    HW220856   6.920   5.455   6.814
 6653SOL     OW20857   5.425   3.722   6.869
 6653SOL    HW120858   5.498   3.773   6.914
 6653SOL    HW220859   5.359   3.786   6.829
 6654SOL     OW20860   6.557   1.917   3.225
 6654SOL    HW120861   6.527   1.841   3.282
 6654SOL    HW220862   6.646   1.895   3.183
 6655SOL     OW20863   6.333   5.558   1.601
 6655SOL    HW120864   6.328   5.551   1.701
 6655SOL    HW220865   6.279   5.485   1.559
 6656SOL     OW20866   5.908   2.027   2.721
 6656SOL    HW120867   5.958   2.113   2.720
 6656SOL    HW220868   5.835   2.029   2.654
 6657SOL     OW20869   5.139   1.649   3.345
 6657SOL    HW120870   5.104   1.591   3.419
 6657SOL    HW220871   5.213   1.602   3.297
 6658SOL     OW20872   6.639   4.877   3.839
 6658SOL    HW120873   6.550   4.902   3.803
 6658SOL    HW220874   6.681   4.809   3.779
 6659SOL     OW20875   0.755   6.749   0.748
 6659SOL    HW120876   0.696   6.723   0.824
 6659SOL    HW220877   0.823   6.815   0.781
 6660SOL     OW20878   1.777   0.933   3.612
 6660SOL    HW120879   1.740   0.852   3.567
 6660SOL    HW220880   1.872   0.916   3.639
 6661SOL     OW20881   3.688   6.582   3.621
 6661SOL    HW120882   3.670   6.637   3.539
 6661SOL    HW220883   3.715   6.489   3.593
 6662SOL     OW20884   4.089   5.813   1.546
 6662SOL    HW120885   4.064   5.717   1.532
 6662SOL    HW220886   4.122   5.825   1.640
 6663SOL     OW20887   1.681   4.998   5.883
 6663SOL    HW120888   1.618   5.068   5.916
 6663SOL    HW220889   1.660   4.977   5.787
 6664SOL     OW20890   2.488   6.346   1.712
 6664SOL    HW120891   2.586   6.356   1.698
 6664SOL    HW220892   2.457   6.259   1.674
 6665SOL     OW20893   2.989   6.985   0.375
 6665SOL    HW120894   2.960   0.052   0.373
 6665SOL    HW220895   2.913   6.927   0.407
 6666SOL     OW20896   2.475   0.268   7.023
 6666SOL    HW120897   2.431   0.348   6.983
 6666SOL    HW220898   2.452   0.187   6.968
 6667SOL     OW20899   1.263   5.234   0.211
 6667SOL    HW120900   1.329   5.226   0.137
 6667SOL    HW220901   1.185   5.288   0.179
 6668SOL     OW20902   6.755   3.025   5.591
 6668SOL    HW120903   6.808   2.941   5.576
 6668SOL    HW220904   6.686   3.008   5.662
 6669SOL     OW20905   1.003   3.461   3.515
 6669SOL    HW120906   1.086   3.497   3.472
 6669SOL    HW220907   1.028   3.410   3.597
 6670SOL     OW20908   1.628   3.870   0.997
 6670SOL    HW120909   1.704   3.806   1.012
 6670SOL    HW220910   1.614   3.926   1.079
 6671SOL     OW20911   5.740   5.181   0.608
 6671SOL    HW120912   5.662   5.119   0.602
 6671SOL    HW220913   5.733   5.251   0.537
 6672SOL     OW20914   1.761   2.399   1.147
 6672SOL    HW120915   1.858   2.374   1.150
 6672SOL    HW220916   1.752   2.493   1.117
 6673SOL     OW20917   5.600   3.647   4.044
 6673SOL    HW120918   5.641   3.598   4.121
 6673SOL    HW220919   5.501   3.639   4.049
 6674SOL     OW20920   5.942   1.500   0.147
 6674SOL    HW120921   5.984   1.590   0.152
 6674SOL    HW220922   5.843   1.509   0.152
 6675SOL     OW20923   5.876   1.000   0.679
 6675SOL    HW120924   5.849   0.996   0.583
 6675SOL    HW220925   5.885   1.096   0.708
 6676SOL     OW20926   0.659   3.794   5.182
 6676SOL    HW120927   0.669   3.716   5.244
 6676SOL    HW220928   0.675   3.879   5.233
 6677SOL     OW20929   0.386   2.184   0.673
 6677SOL    HW120930   0.434   2.152   0.591
 6677SOL    HW220931   0.319   2.115   0.701
 6678SOL     OW20932   3.339   3.898   6.885
 6678SOL    HW120933   3.428   3.897   6.840
 6678SOL    HW220934   3.326   3.813   6.936
 6679SOL     OW20935   1.442   6.420   3.382
 6679SOL    HW120936   1.346   6.445   3.391
 6679SOL    HW220937   1.498   6.502   3.375
 6680SOL     OW20938   6.154   5.343   1.707
 6680SOL    HW120939   6.083   5.285   1.667
 6680SOL    HW220940   6.244   5.315   1.672
 6681SOL     OW20941   2.894   6.296   0.768
 6681SOL    HW120942   2.867   6.244   0.848
 6681SOL    HW220943   2.942   6.236   0.703
 6682SOL     OW20944   2.141   4.626   6.185
 6682SOL    HW120945   2.136   4.721   6.218
 6682SOL    HW220946   2.074   4.612   6.112
 6683SOL     OW20947   6.719   6.462   5.981
 6683SOL    HW120948   6.798   6.403   6.000
 6683SOL    HW220949   6.677   6.491   6.067
 6684SOL     OW20950   3.075   0.251   5.709
 6684SOL    HW120951   3.169   0.227   5.734
 6684SOL    HW220952   3.015   0.236   5.788
 6685SOL     OW20953   3.985   3.390   0.607
 6685SOL    HW120954   3.995   3.357   0.701
 6685SOL    HW220955   3.966   3.312   0.547
 6686SOL     OW20956   3.838   4.759   5.251
 6686SOL    HW120957   3.931   4.745   5.285
 6686SOL    HW220958   3.838   4.828   5.179
 6687SOL     OW20959   6.929   2.283   0.997
 6687SOL    HW120960   7.020   2.271   1.037
 6687SOL    HW220961   6.875   2.200   1.013
 6688SOL     OW20962   5.568   5.891   0.539
 6688SOL    HW120963   5.614   5.975   0.510
 6688SOL    HW220964   5.627   5.812   0.522
 6689SOL     OW20965   3.576   4.995   5.944
 6689SOL    HW120966   3.642   4.987   5.868
 6689SOL    HW220967   3.520   5.077   5.931
 6690SOL     OW20968   0.416   0.746   0.009
 6690SOL    HW120969   0.410   0.826   0.068
 6690SOL    HW220970   0.357   0.759   6.957
 6691SOL     OW20971   2.405   2.203   2.429
 6691SOL    HW120972   2.331   2.153   2.383
 6691SOL    HW220973   2.369   2.246   2.512
 6692SOL     OW20974   3.948   6.757   2.010
 6692SOL    HW120975   3.928   6.851   2.036
 6692SOL    HW220976   3.957   6.701   2.092
 6693SOL     OW20977   2.900   1.314   5.951
 6693SOL    HW120978   2.938   1.385   6.011
 6693SOL    HW220979   2.970   1.286   5.885
 6694SOL     OW20980   4.646   4.435   1.822
 6694SOL    HW120981   4.601   4.393   1.901
 6694SOL    HW220982   4.583   4.434   1.744
 6695SOL     OW20983   3.016   2.051   0.210
 6695SOL    HW120984   2.934   2.007   0.247
 6695SOL    HW220985   3.094   1.989   0.221
 6696SOL     OW20986   3.822   3.170   5.586
 6696SOL    HW120987   3.873   3.105   5.529
 6696SOL    HW220988   3.886   3.223   5.641
 6697SOL     OW20989   4.682   1.040   2.850
 6697SOL    HW120990   4.729   0.951   2.846
 6697SOL    HW220991   4.583   1.024   2.851
 6698SOL     OW20992   2.448   3.213   1.111
 6698SOL    HW120993   2.511   3.218   1.189
 6698SOL    HW220994   2.354   3.206   1.144
 6699SOL     OW20995   1.415   4.026   4.855
 6699SOL    HW120996   1.368   4.113   4.868
 6699SOL    HW220997   1.512   4.043   4.840
 6700SOL     OW20998   4.709   6.357   1.373
 6700SOL    HW120999   4.780   6.345   1.304
 6700SOL    HW221000   4.624   6.388   1.329
 6701SOL     OW21001   6.436   0.243   1.448
 6701SOL    HW121002   6.429   0.220   1.351
 6701SOL    HW221003   6.506   0.185   1.490
 6702SOL     OW21004   5.074   2.906   1.478
 6702SOL    HW121005   5.023   2.921   1.563
 6702SOL    HW221006   5.042   2.970   1.408
 6703SOL     OW21007   6.757   0.534   1.794
 6703SOL    HW121008   6.747   0.623   1.750
 6703SOL    HW221009   6.777   0.465   1.725
 6704SOL     OW21010   1.835   5.523   6.171
 6704SOL    HW121011   1.885   5.453   6.223
 6704SOL    HW221012   1.875   5.530   6.080
 6705SOL     OW21013   2.133   4.268   3.143
 6705SOL    HW121014   2.145   4.244   3.239
 6705SOL    HW221015   2.065   4.340   3.134
 6706SOL     OW21016   0.655   5.576   1.785
 6706SOL    HW121017   0.631   5.669   1.811
 6706SOL    HW221018   0.728   5.542   1.844
 6707SOL     OW21019   5.672   0.584   2.673
 6707SOL    HW121020   5.632   0.655   2.732
 6707SOL    HW221021   5.749   0.624   2.622
 6708SOL     OW21022   0.464   3.152   0.956
 6708SOL    HW121023   0.392   3.181   1.019
 6708SOL    HW221024   0.531   3.225   0.945
 6709SOL     OW21025   2.045   4.110   2.709
 6709SOL    HW121026   2.064   4.030   2.653
 6709SOL    HW221027   2.088   4.098   2.799
 6710SOL     OW21028   5.076   2.177   1.875
 6710SOL    HW121029   5.093   2.251   1.810
 6710SOL    HW221030   5.097   2.089   1.833
 6711SOL     OW21031   3.880   5.422   6.807
 6711SOL    HW121032   3.835   5.383   6.887
 6711SOL    HW221033   3.838   5.385   6.724
 6712SOL     OW21034   5.926   3.669   0.938
 6712SOL    HW121035   5.986   3.737   0.895
 6712SOL    HW221036   5.970   3.631   1.019
 6713SOL     OW21037   2.450   5.126   4.596
 6713SOL    HW121038   2.413   5.206   4.549
 6713SOL    HW221039   2.520   5.155   4.661
 6714SOL     OW21040   6.077   0.501   3.295
 6714SOL    HW121041   6.155   0.441   3.312
 6714SOL    HW221042   6.068   0.566   3.370
 6715SOL     OW21043   0.662   0.520   4.759
 6715SOL    HW121044   0.593   0.541   4.829
 6715SOL    HW221045   0.616   0.507   4.671
 6716SOL     OW21046   1.891   4.293   1.409
 6716SOL    HW121047   1.923   4.215   1.354
 6716SOL    HW221048   1.835   4.260   1.484
 6717SOL     OW21049   5.696   3.387   6.104
 6717SOL    HW121050   5.720   3.309   6.046
 6717SOL    HW221051   5.604   3.419   6.081
 6718SOL     OW21052   5.307   2.175   0.620
 6718SOL    HW121053   5.298   2.218   0.530
 6718SOL    HW221054   5.285   2.241   0.692
 6719SOL     OW21055   1.173   0.005   0.419
 6719SOL    HW121056   1.173   6.964   0.491
 6719SOL    HW221057   1.253   0.064   0.429
 6720SOL     OW21058   1.850   1.887   4.397
 6720SOL    HW121059   1.854   1.847   4.489
 6720SOL    HW221060   1.900   1.828   4.333
 6721SOL     OW21061   6.740   6.433   0.959
 6721SOL    HW121062   6.693   6.521   0.963
 6721SOL    HW221063   6.804   6.433   0.883
 6722SOL     OW21064   6.814   3.645   1.476
 6722SOL    HW121065   6.880   3.704   1.431
 6722SOL    HW221066   6.821   3.656   1.576
 6723SOL     OW21067   2.382   4.376   3.488
 6723SOL    HW121068   2.430   4.453   3.530
 6723SOL    HW221069   2.358   4.309   3.558
 6724SOL     OW21070   1.860   3.417   5.711
 6724SOL    HW121071   1.857   3.428   5.612
 6724SOL    HW221072   1.768   3.430   5.748
 6725SOL     OW21073   4.411   2.324   3.109
 6725SOL    HW121074   4.378   2.332   3.015
 6725SOL    HW221075   4.348   2.268   3.162
 6726SOL     OW21076   0.033   1.141   0.712
 6726SOL    HW121077   0.093   1.218   0.688
 6726SOL    HW221078   6.989   1.173   0.773
 6727SOL     OW21079   1.038   5.830   5.135
 6727SOL    HW121080   0.945   5.865   5.149
 6727SOL    HW221081   1.040   5.772   5.054
 6728SOL     OW21082   4.020   2.346   5.745
 6728SOL    HW121083   4.106   2.347   5.796
 6728SOL    HW221084   4.016   2.424   5.683
 6729SOL     OW21085   3.919   1.447   2.107
 6729SOL    HW121086   3.831   1.452   2.156
 6729SOL    HW221087   3.930   1.528   2.049
 6730SOL     OW21088   6.362   2.394   1.332
 6730SOL    HW121089   6.269   2.425   1.311
 6730SOL    HW221090   6.407   2.461   1.390
 6731SOL     OW21091   3.941   0.539   5.548
 6731SOL    HW121092   3.979   0.619   5.502
 6731SOL    HW221093   3.994   0.519   5.630
 6732SOL     OW21094   6.815   4.381   6.480
 6732SOL    HW121095   6.807   4.474   6.443
 6732SOL    HW221096   6.897   4.338   6.442
 6733SOL     OW21097   5.975   4.597   5.906
 6733SOL    HW121098   5.985   4.695   5.888
 6733SOL    HW221099   6.059   4.563   5.950
 6734SOL     OW21100   5.544   2.129   4.503
 6734SOL    HW121101   5.589   2.218   4.506
 6734SOL    HW221102   5.605   2.060   4.544
 6735SOL     OW21103   5.145   2.165   4.582
 6735SOL    HW121104   5.084   2.222   4.527
 6735SOL    HW221105   5.210   2.223   4.631
 6736SOL     OW21106   4.451   3.083   1.062
 6736SOL    HW121107   4.416   3.117   0.974
 6736SOL    HW221108   4.501   2.997   1.047
 6737SOL     OW21109   5.941   2.732   1.718
 6737SOL    HW121110   5.903   2.640   1.725
 6737SOL    HW221111   5.992   2.753   1.802
 6738SOL     OW21112   1.604   6.864   2.826
 6738SOL    HW121113   1.638   6.831   2.738
 6738SOL    HW221114   1.634   6.958   2.840
 6739SOL     OW21115   0.467   1.019   6.220
 6739SOL    HW121116   0.565   1.002   6.217
 6739SOL    HW221117   0.425   0.963   6.292
 6740SOL     OW21118   0.999   0.197   1.438
 6740SOL    HW121119   0.921   0.152   1.395
 6740SOL    HW221120   1.058   0.237   1.368
 6741SOL     OW21121   2.557   2.022   0.043
 6741SOL    HW121122   2.587   2.029   6.976
 6741SOL    HW221123   2.463   2.056   0.051
 6742SOL     OW21124   6.212   4.596   2.833
 6742SOL    HW121125   6.173   4.507   2.810
 6742SOL    HW221126   6.302   4.605   2.792
 6743SOL     OW21127   3.828   4.654   6.765
 6743SOL    HW121128   3.896   4.707   6.714
 6743SOL    HW221129   3.839   4.670   6.863
 6744SOL     OW21130   6.655   6.412   5.182
 6744SOL    HW121131   6.679   6.431   5.277
 6744SOL    HW221132   6.698   6.327   5.152
 6745SOL     OW21133   5.754   3.478   4.627
 6745SOL    HW121134   5.734   3.448   4.720
 6745SOL    HW221135   5.711   3.567   4.611
 6746SOL     OW21136   0.905   2.999   2.790
 6746SOL    HW121137   0.922   2.977   2.887
 6746SOL    HW221138   0.908   2.915   2.736
 6747SOL     OW21139   0.813   6.010   5.182
 6747SOL    HW121140   0.814   6.092   5.238
 6747SOL    HW221141   0.720   5.976   5.173
 6748SOL     OW21142   1.670   2.628   4.267
 6748SOL    HW121143   1.605   2.702   4.282
 6748SOL    HW221144   1.634   2.543   4.306
 6749SOL     OW21145   3.264   5.231   2.347
 6749SOL    HW121146   3.227   5.251   2.256
 6749SOL    HW221147   3.191   5.232   2.414
 6750SOL     OW21148   4.178   0.299   5.819
 6750SOL    HW121149   4.157   0.314   5.722
 6750SOL    HW221150   4.131   0.367   5.875
 6751SOL     OW21151   4.337   1.801   4.570
 6751SOL    HW121152   4.430   1.780   4.603
 6751SOL    HW221153   4.271   1.775   4.641
 6752SOL     OW21154   1.990   5.198   2.360
 6752SOL    HW121155   1.903   5.149   2.356
 6752SOL    HW221156   2.059   5.146   2.309
 6753SOL     OW21157   3.318   4.496   6.304
 6753SOL    HW121158   3.400   4.493   6.247
 6753SOL    HW221159   3.264   4.577   6.280
 6754SOL     OW21160   5.605   0.513   0.150
 6754SOL    HW121161   5.660   0.493   0.070
 6754SOL    HW221162   5.633   0.454   0.226
 6755SOL     OW21163   4.001   6.055   5.346
 6755SOL    HW121164   4.054   6.070   5.430
 6755SOL    HW221165   3.915   6.010   5.368
 6756SOL     OW21166   4.354   3.267   5.503
 6756SOL    HW121167   4.442   3.302   5.532
 6756SOL    HW221168   4.282   3.302   5.563
 6757SOL     OW21169   3.422   7.023   1.603
 6757SOL    HW121170   3.455   0.083   1.568
 6757SOL    HW221171   3.500   6.967   1.631
 6758SOL     OW21172   4.911   2.577   3.825
 6758SOL    HW121173   4.868   2.520   3.756
 6758SOL    HW221174   4.998   2.537   3.853
 6759SOL     OW21175   1.810   2.433   2.367
 6759SOL    HW121176   1.712   2.450   2.353
 6759SOL    HW221177   1.838   2.471   2.455
 6760SOL     OW21178   5.144   2.141   5.605
 6760SOL    HW121179   5.201   2.194   5.543
 6760SOL    HW221180   5.075   2.201   5.647
 6761SOL     OW21181   2.928   0.041   4.787
 6761SOL    HW121182   3.024   0.014   4.783
 6761SOL    HW221183   2.871   6.987   4.796
 6762SOL     OW21184   5.816   5.022   4.958
 6762SOL    HW121185   5.744   4.994   5.021
 6762SOL    HW221186   5.880   5.083   5.005
 6763SOL     OW21187   5.389   5.642   4.193
 6763SOL    HW121188   5.478   5.611   4.225
 6763SOL    HW221189   5.386   5.636   4.093
 6764SOL     OW21190   1.368   4.549   2.172
 6764SOL    HW121191   1.320   4.636   2.161
 6764SOL    HW221192   1.374   4.503   2.083
 6765SOL     OW21193   0.144   4.281   2.262
 6765SOL    HW121194   0.124   4.355   2.326
 6765SOL    HW221195   0.060   4.253   2.215
 6766SOL     OW21196   5.708   0.217   1.358
 6766SOL    HW121197   5.760   0.212   1.444
 6766SOL    HW221198   5.707   0.311   1.325
 6767SOL     OW21199   2.858   7.009   1.093
 6767SOL    HW121200   2.936   6.993   1.032
 6767SOL    HW221201   2.834   6.924   1.138
 6768SOL     OW21202   2.242   1.058   6.251
 6768SOL    HW121203   2.228   0.965   6.282
 6768SOL    HW221204   2.165   1.115   6.279
 6769SOL     OW21205   5.386   2.571   1.647
 6769SOL    HW121206   5.354   2.659   1.612
 6769SOL    HW221207   5.398   2.507   1.572
 6770SOL     OW21208   6.813   1.575   1.954
 6770SOL    HW121209   6.813   1.657   2.012
 6770SOL    HW221210   6.719   1.554   1.925
 6771SOL     OW21211   4.181   0.449   4.405
 6771SOL    HW121212   4.228   0.519   4.350
 6771SOL    HW221213   4.209   0.459   4.501
 6772SOL     OW21214   2.781   0.984   5.647
 6772SOL    HW121215   2.786   0.892   5.608
 6772SOL    HW221216   2.724   0.983   5.729
 6773SOL     OW21217   6.677   2.974   2.498
 6773SOL    HW121218   6.582   2.985   2.467
 6773SOL    HW221219   6.738   2.973   2.419
 6774SOL     OW21220   1.562   1.657   5.792
 6774SOL    HW121221   1.487   1.669   5.726
 6774SOL    HW221222   1.534   1.593   5.863
 6775SOL     OW21223   0.070   3.368   0.574
 6775SOL    HW121224   0.046   3.411   0.661
 6775SOL    HW221225   0.076   3.269   0.586
 6776SOL     OW21226   6.394   6.476   5.861
 6776SOL    HW121227   6.400   6.379   5.839
 6776SOL    HW221228   6.474   6.503   5.914
 6777SOL     OW21229   4.772   4.401   0.419
 6777SOL    HW121230   4.798   4.479   0.475
 6777SOL    HW221231   4.694   4.354   0.461
 6778SOL     OW21232   6.673   5.384   3.235
 6778SOL    HW121233   6.731   5.386   3.316
 6778SOL    HW221234   6.601   5.316   3.246
 6779SOL     OW21235   5.307   3.580   6.458
 6779SOL    HW121236   5.389   3.624   6.493
 6779SOL    HW221237   5.297   3.489   6.499
 6780SOL     OW21238   1.310   2.239   1.481
 6780SOL    HW121239   1.308   2.185   1.565
 6780SOL    HW221240   1.323   2.335   1.503
 6781SOL     OW21241   6.347   4.408   5.280
 6781SOL    HW121242   6.260   4.459   5.275
 6781SOL    HW221243   6.339   4.335   5.348
 6782SOL     OW21244   6.338   1.286   4.026
 6782SOL    HW121245   6.319   1.351   3.953
 6782SOL    HW221246   6.398   1.214   3.990
 6783SOL     OW21247   1.198   5.316   6.978
 6783SOL    HW121248   1.118   5.372   6.954
 6783SOL    HW221249   1.231   5.269   6.896
 6784SOL     OW21250   4.159   3.886   0.325
 6784SOL    HW121251   4.093   3.812   0.327
 6784SOL    HW221252   4.251   3.850   0.340
 6785SOL     OW21253   5.111   6.170   1.392
 6785SOL    HW121254   5.169   6.249   1.414
 6785SOL    HW221255   5.165   6.086   1.395
 6786SOL     OW21256   1.866   3.302   5.431
 6786SOL    HW121257   1.899   3.208   5.437
 6786SOL    HW221258   1.768   3.302   5.409
 6787SOL     OW21259   0.892   4.105   2.952
 6787SOL    HW121260   0.809   4.147   2.917
 6787SOL    HW221261   0.956   4.088   2.876
 6788SOL     OW21262   2.707   3.697   1.014
 6788SOL    HW121263   2.689   3.616   1.069
 6788SOL    HW221264   2.704   3.778   1.072
 6789SOL     OW21265   2.041   4.645   3.223
 6789SOL    HW121266   1.997   4.722   3.178
 6789SOL    HW221267   1.976   4.600   3.284
 6790SOL     OW21268   0.954   2.689   1.532
 6790SOL    HW121269   1.038   2.641   1.507
 6790SOL    HW221270   0.966   2.736   1.619
 6791SOL     OW21271   3.407   3.745   5.464
 6791SOL    HW121272   3.374   3.778   5.553
 6791SOL    HW221273   3.507   3.736   5.467
 6792SOL     OW21274   1.162   4.915   1.108
 6792SOL    HW121275   1.086   4.958   1.061
 6792SOL    HW221276   1.130   4.834   1.157
 6793SOL     OW21277   5.749   1.393   0.414
 6793SOL    HW121278   5.671   1.349   0.369
 6793SOL    HW221279   5.738   1.492   0.408
 6794SOL     OW21280   3.424   1.960   5.816
 6794SOL    HW121281   3.363   2.013   5.757
 6794SOL    HW221282   3.459   2.019   5.889
 6795SOL     OW21283   4.388   6.273   0.318
 6795SOL    HW121284   4.288   6.283   0.326
 6795SOL    HW221285   4.421   6.212   0.389
 6796SOL     OW21286   3.872   2.112   2.570
 6796SOL    HW121287   3.775   2.116   2.595
 6796SOL    HW221288   3.914   2.032   2.611
 6797SOL     OW21289   0.124   2.698   3.237
 6797SOL    HW121290   0.187   2.727   3.165
 6797SOL    HW221291   0.042   2.755   3.235
 6798SOL     OW21292   6.365   0.008   1.741
 6798SOL    HW121293   6.315   0.093   1.759
 6798SOL    HW221294   6.330   6.964   1.801
 6799SOL     OW21295   4.227   5.873   2.457
 6799SOL    HW121296   4.298   5.940   2.480
 6799SOL    HW221297   4.162   5.915   2.393
 6800SOL     OW21298   3.538   3.439   6.236
 6800SOL    HW121299   3.577   3.347   6.234
 6800SOL    HW221300   3.493   3.455   6.323
 6801SOL     OW21301   0.051   2.901   3.619
 6801SOL    HW121302   7.013   2.835   3.655
 6801SOL    HW221303   0.123   2.916   3.687
 6802SOL     OW21304   3.430   5.420   2.398
 6802SOL    HW121305   3.362   5.350   2.378
 6802SOL    HW221306   3.513   5.403   2.346
 6803SOL     OW21307   4.896   2.556   6.830
 6803SOL    HW121308   4.982   2.607   6.823
 6803SOL    HW221309   4.915   2.459   6.844
 6804SOL     OW21310   1.205   5.923   3.042
 6804SOL    HW121311   1.181   6.002   2.987
 6804SOL    HW221312   1.304   5.922   3.058
 6805SOL     OW21313   6.411   1.309   6.037
 6805SOL    HW121314   6.466   1.226   6.043
 6805SOL    HW221315   6.408   1.340   5.941
 6806SOL     OW21316   4.848   5.192   5.411
 6806SOL    HW121317   4.868   5.290   5.416
 6806SOL    HW221318   4.794   5.166   5.491
 6807SOL     OW21319   4.509   3.255   0.330
 6807SOL    HW121320   4.500   3.298   0.240
 6807SOL    HW221321   4.606   3.246   0.353
 6808SOL     OW21322   2.923   5.318   3.556
 6808SOL    HW121323   2.911   5.412   3.527
 6808SOL    HW221324   3.008   5.281   3.517
 6809SOL     OW21325   1.049   3.184   6.608
 6809SOL    HW121326   1.059   3.142   6.699
 6809SOL    HW221327   1.083   3.121   6.539
 6810SOL     OW21328   6.429   1.733   3.374
 6810SOL    HW121329   6.337   1.695   3.382
 6810SOL    HW221330   6.496   1.668   3.410
 6811SOL     OW21331   4.733   6.343   2.171
 6811SOL    HW121332   4.677   6.384   2.243
 6811SOL    HW221333   4.679   6.275   2.122
 6812SOL     OW21334   3.797   3.776   3.511
 6812SOL    HW121335   3.856   3.841   3.461
 6812SOL    HW221336   3.820   3.683   3.483
 6813SOL     OW21337   5.351   3.528   0.855
 6813SOL    HW121338   5.352   3.477   0.768
 6813SOL    HW221339   5.270   3.501   0.907
 6814SOL     OW21340   2.145   2.658   0.785
 6814SOL    HW121341   2.099   2.732   0.835
 6814SOL    HW221342   2.206   2.697   0.717
 6815SOL     OW21343   1.555   6.477   6.713
 6815SOL    HW121344   1.462   6.504   6.691
 6815SOL    HW221345   1.615   6.557   6.713
 6816SOL     OW21346   5.119   4.262   1.432
 6816SOL    HW121347   5.029   4.252   1.472
 6816SOL    HW221348   5.182   4.303   1.498
 6817SOL     OW21349   1.706   2.096   5.688
 6817SOL    HW121350   1.783   2.156   5.665
 6817SOL    HW221351   1.666   2.060   5.603
 6818SOL     OW21352   4.124   5.007   0.544
 6818SOL    HW121353   4.181   4.927   0.526
 6818SOL    HW221354   4.165   5.087   0.501
 6819SOL     OW21355   2.513   1.139   3.613
 6819SOL    HW121356   2.574   1.062   3.594
 6819SOL    HW221357   2.546   1.220   3.564
 6820SOL     OW21358   1.337   5.115   5.092
 6820SOL    HW121359   1.252   5.064   5.086
 6820SOL    HW221360   1.403   5.077   5.027
 6821SOL     OW21361   2.261   1.888   4.260
 6821SOL    HW121362   2.264   1.934   4.172
 6821SOL    HW221363   2.354   1.868   4.291
 6822SOL     OW21364   5.560   1.015   5.402
 6822SOL    HW121365   5.543   1.002   5.500
 6822SOL    HW221366   5.501   0.953   5.350
 6823SOL     OW21367   4.181   3.475   2.331
 6823SOL    HW121368   4.134   3.474   2.419
 6823SOL    HW221369   4.269   3.521   2.340
 6824SOL     OW21370   0.591   5.509   4.783
 6824SOL    HW121371   0.635   5.431   4.829
 6824SOL    HW221372   0.572   5.485   4.688
 6825SOL     OW21373   6.073   0.237   4.164
 6825SOL    HW121374   6.088   0.327   4.205
 6825SOL    HW221375   6.018   0.181   4.225
 6826SOL     OW21376   1.370   2.652   3.540
 6826SOL    HW121377   1.427   2.571   3.557
 6826SOL    HW221378   1.304   2.631   3.468
 6827SOL     OW21379   4.300   5.811   5.600
 6827SOL    HW121380   4.331   5.762   5.519
 6827SOL    HW221381   4.228   5.758   5.645
 6828SOL     OW21382   2.305   2.437   1.285
 6828SOL    HW121383   2.213   2.443   1.325
 6828SOL    HW221384   2.315   2.507   1.215
 6829SOL     OW21385   5.728   4.880   4.364
 6829SOL    HW121386   5.806   4.902   4.305
 6829SOL    HW221387   5.684   4.796   4.331
 6830SOL     OW21388   4.627   0.837   3.931
 6830SOL    HW121389   4.719   0.861   3.902
 6830SOL    HW221390   4.591   0.766   3.869
 6831SOL     OW21391   1.281   1.770   6.198
 6831SOL    HW121392   1.244   1.690   6.149
 6831SOL    HW221393   1.303   1.842   6.132
 6832SOL     OW21394   2.896   4.903   1.590
 6832SOL    HW121395   2.894   4.956   1.505
 6832SOL    HW221396   2.879   4.807   1.569
 6833SOL     OW21397   4.625   6.315   7.009
 6833SOL    HW121398   4.550   6.258   0.015
 6833SOL    HW221399   4.628   6.309   6.909
 6834SOL     OW21400   2.483   4.588   2.622
 6834SOL    HW121401   2.571   4.594   2.669
 6834SOL    HW221402   2.413   4.631   2.678
 6835SOL     OW21403   3.846   6.749   4.048
 6835SOL    HW121404   3.750   6.732   4.025
 6835SOL    HW221405   3.904   6.717   3.973
 6836SOL     OW21406   3.240   4.891   0.744
 6836SOL    HW121407   3.164   4.833   0.773
 6836SOL    HW221408   3.279   4.937   0.823
 6837SOL     OW21409   0.817   3.364   3.336
 6837SOL    HW121410   0.728   3.389   3.375
 6837SOL    HW221411   0.889   3.411   3.387
 6838SOL     OW21412   2.344   2.450   0.442
 6838SOL    HW121413   2.365   2.531   0.388
 6838SOL    HW221414   2.335   2.371   0.381
 6839SOL     OW21415   3.631   1.016   2.200
 6839SOL    HW121416   3.689   1.015   2.282
 6839SOL    HW221417   3.590   0.926   2.188
 6840SOL     OW21418   0.833   1.515   5.711
 6840SOL    HW121419   0.917   1.535   5.762
 6840SOL    HW221420   0.850   1.441   5.647
 6841SOL     OW21421   6.395   2.852   5.294
 6841SOL    HW121422   6.312   2.907   5.305
 6841SOL    HW221423   6.472   2.911   5.270
 6842SOL     OW21424   2.696   4.656   2.779
 6842SOL    HW121425   2.689   4.618   2.871
 6842SOL    HW221426   2.783   4.705   2.770
 6843SOL     OW21427   3.207   6.058   1.457
 6843SOL    HW121428   3.220   6.010   1.370
 6843SOL    HW221429   3.237   6.000   1.532
 6844SOL     OW21430   5.591   0.010   5.201
 6844SOL    HW121431   5.655   0.080   5.171
 6844SOL    HW221432   5.517   0.002   5.134
 6845SOL     OW21433   5.865   2.428   3.462
 6845SOL    HW121434   5.772   2.393   3.468
 6845SOL    HW221435   5.926   2.355   3.430
 6846SOL     OW21436   1.467   3.705   0.866
 6846SOL    HW121437   1.533   3.760   0.918
 6846SOL    HW221438   1.386   3.689   0.923
 6847SOL     OW21439   6.630   2.064   3.692
 6847SOL    HW121440   6.577   2.048   3.609
 6847SOL    HW221441   6.725   2.082   3.667
 6848SOL     OW21442   6.743   4.185   4.272
 6848SOL    HW121443   6.753   4.144   4.363
 6848SOL    HW221444   6.743   4.113   4.203
 6849SOL     OW21445   2.664   3.811   5.269
 6849SOL    HW121446   2.737   3.873   5.240
 6849SOL    HW221447   2.575   3.855   5.255
 6850SOL     OW21448   6.043   0.657   4.485
 6850SOL    HW121449   5.962   0.712   4.468
 6850SOL    HW221450   6.101   0.702   4.553
 6851SOL     OW21451   2.392   4.395   3.884
 6851SOL    HW121452   2.330   4.330   3.927
 6851SOL    HW221453   2.404   4.371   3.787
 6852SOL     OW21454   4.535   3.055   0.635
 6852SOL    HW121455   4.509   2.988   0.704
 6852SOL    HW221456   4.510   3.022   0.544
 6853SOL     OW21457   5.502   5.320   5.935
 6853SOL    HW121458   5.534   5.377   6.010
 6853SOL    HW221459   5.510   5.370   5.849
 6854SOL     OW21460   5.866   6.335   5.668
 6854SOL    HW121461   5.814   6.408   5.712
 6854SOL    HW221462   5.934   6.299   5.733
 6855SOL     OW21463   4.926   6.147   2.967
 6855SOL    HW121464   4.841   6.153   2.914
 6855SOL    HW221465   4.995   6.205   2.925
 6856SOL     OW21466   6.638   2.527   1.052
 6856SOL    HW121467   6.635   2.607   1.111
 6856SOL    HW221468   6.683   2.452   1.100
 6857SOL     OW21469   0.809   4.573   5.403
 6857SOL    HW121470   0.798   4.488   5.351
 6857SOL    HW221471   0.725   4.627   5.395
 6858SOL     OW21472   1.328   3.254   1.725
 6858SOL    HW121473   1.326   3.197   1.807
 6858SOL    HW221474   1.388   3.333   1.740
 6859SOL     OW21475   2.363   2.058   0.597
 6859SOL    HW121476   2.283   2.080   0.540
 6859SOL    HW221477   2.430   2.132   0.590
 6860SOL     OW21478   0.213   0.201   6.642
 6860SOL    HW121479   0.228   0.263   6.565
 6860SOL    HW221480   0.285   0.131   6.643
 6861SOL     OW21481   5.987   3.633   0.156
 6861SOL    HW121482   6.060   3.698   0.134
 6861SOL    HW221483   5.982   3.563   0.085
 6862SOL     OW21484   0.372   5.292   2.845
 6862SOL    HW121485   0.338   5.199   2.857
 6862SOL    HW221486   0.365   5.342   2.932
 6863SOL     OW21487   4.905   1.068   5.330
 6863SOL    HW121488   4.999   1.099   5.346
 6863SOL    HW221489   4.856   1.065   5.417
 6864SOL     OW21490   2.408   3.272   6.459
 6864SOL    HW121491   2.425   3.338   6.532
 6864SOL    HW221492   2.310   3.269   6.439
 6865SOL     OW21493   1.813   1.135   2.689
 6865SOL    HW121494   1.837   1.212   2.746
 6865SOL    HW221495   1.845   1.151   2.595
 6866SOL     OW21496   1.485   4.826   6.297
 6866SOL    HW121497   1.430   4.758   6.248
 6866SOL    HW221498   1.506   4.791   6.389
 6867SOL     OW21499   1.619   1.949   6.797
 6867SOL    HW121500   1.623   2.019   6.869
 6867SOL    HW221501   1.686   1.970   6.726
 6868SOL     OW21502   3.876   5.162   3.696
 6868SOL    HW121503   3.881   5.063   3.684
 6868SOL    HW221504   3.969   5.200   3.696
 6869SOL     OW21505   1.089   0.588   5.607
 6869SOL    HW121506   1.124   0.495   5.601
 6869SOL    HW221507   1.149   0.649   5.554
 6870SOL     OW21508   6.461   3.225   5.807
 6870SOL    HW121509   6.421   3.217   5.898
 6870SOL    HW221510   6.531   3.155   5.795
 6871SOL     OW21511   5.971   3.048   3.656
 6871SOL    HW121512   6.035   3.098   3.599
 6871SOL    HW221513   5.913   2.990   3.598
 6872SOL     OW21514   2.303   4.541   1.616
 6872SOL    HW121515   2.293   4.609   1.689
 6872SOL    HW221516   2.334   4.455   1.655
 6873SOL     OW21517   0.152   3.366   2.917
 6873SOL    HW121518   0.116   3.399   3.005
 6873SOL    HW221519   0.191   3.275   2.929
 6874SOL     OW21520   3.491   6.053   1.732
 6874SOL    HW121521   3.469   6.039   1.829
 6874SOL    HW221522   3.425   6.116   1.691
 6875SOL     OW21523   2.784   0.473   6.250
 6875SOL    HW121524   2.790   0.392   6.192
 6875SOL    HW221525   2.700   0.469   6.304
 6876SOL     OW21526   5.954   5.847   3.350
 6876SOL    HW121527   5.978   5.940   3.321
 6876SOL    HW221528   6.026   5.784   3.321
 6877SOL     OW21529   1.384   3.830   1.823
 6877SOL    HW121530   1.341   3.919   1.835
 6877SOL    HW221531   1.482   3.838   1.838
 6878SOL     OW21532   1.523   0.424   3.395
 6878SOL    HW121533   1.526   0.512   3.444
 6878SOL    HW221534   1.468   0.434   3.312
 6879SOL     OW21535   1.557   1.360   1.207
 6879SOL    HW121536   1.571   1.262   1.201
 6879SOL    HW221537   1.498   1.390   1.132
 6880SOL     OW21538   0.940   6.928   0.260
 6880SOL    HW121539   0.976   7.020   0.245
 6880SOL    HW221540   0.956   6.872   0.179
 6881SOL     OW21541   6.646   3.491   1.748
 6881SOL    HW121542   6.590   3.459   1.825
 6881SOL    HW221543   6.645   3.591   1.745
 6882SOL     OW21544   2.824   6.701   6.363
 6882SOL    HW121545   2.775   6.788   6.349
 6882SOL    HW221546   2.806   6.667   6.455
 6883SOL     OW21547   4.625   6.925   0.828
 6883SOL    HW121548   4.621   7.003   0.891
 6883SOL    HW221549   4.546   6.865   0.843
 6884SOL     OW21550   1.435   5.621   2.919
 6884SOL    HW121551   1.464   5.589   3.009
 6884SOL    HW221552   1.411   5.717   2.924
 6885SOL     OW21553   5.444   4.298   4.789
 6885SOL    HW121554   5.436   4.386   4.834
 6885SOL    HW221555   5.476   4.229   4.855
 6886SOL     OW21556   6.032   3.422   0.609
 6886SOL    HW121557   5.978   3.429   0.693
 6886SOL    HW221558   5.978   3.377   0.538
 6887SOL     OW21559   5.343   6.215   5.923
 6887SOL    HW121560   5.413   6.281   5.894
 6887SOL    HW221561   5.381   6.122   5.920
 6888SOL     OW21562   7.022   4.332   1.423
 6888SOL    HW121563   6.934   4.309   1.383
 6888SOL    HW221564   7.013   4.413   1.482
 6889SOL     OW21565   0.601   2.800   5.683
 6889SOL    HW121566   0.621   2.712   5.727
 6889SOL    HW221567   0.503   2.807   5.666
 6890SOL     OW21568   5.090   4.478   4.136
 6890SOL    HW121569   5.116   4.556   4.080
 6890SOL    HW221570   5.058   4.404   4.077
 6891SOL     OW21571   1.483   1.667   0.536
 6891SOL    HW121572   1.460   1.764   0.533
 6891SOL    HW221573   1.543   1.645   0.459
 6892SOL     OW21574   1.224   1.013   5.398
 6892SOL    HW121575   1.252   1.079   5.329
 6892SOL    HW221576   1.128   1.027   5.421
 6893SOL     OW21577   6.054   3.647   1.165
 6893SOL    HW121578   6.154   3.643   1.165
 6893SOL    HW221579   6.021   3.663   1.258
 6894SOL     OW21580   5.542   5.149   0.070
 6894SOL    HW121581   5.603   5.157   0.149
 6894SOL    HW221582   5.504   5.239   0.048
 6895SOL     OW21583   1.256   5.298   2.959
 6895SOL    HW121584   1.248   5.352   3.042
 6895SOL    HW221585   1.291   5.355   2.885
 6896SOL     OW21586   4.602   1.060   6.122
 6896SOL    HW121587   4.622   1.157   6.122
 6896SOL    HW221588   4.665   1.013   6.185
 6897SOL     OW21589   4.431   2.433   4.932
 6897SOL    HW121590   4.346   2.442   4.985
 6897SOL    HW221591   4.508   2.463   4.988
 6898SOL     OW21592   1.972   5.860   1.142
 6898SOL    HW121593   1.878   5.892   1.134
 6898SOL    HW221594   1.974   5.778   1.200
 6899SOL     OW21595   6.254   5.065   2.979
 6899SOL    HW121596   6.260   5.028   3.072
 6899SOL    HW221597   6.198   5.148   2.980
 6900SOL     OW21598   0.573   4.597   4.840
 6900SOL    HW121599   0.661   4.550   4.831
 6900SOL    HW221600   0.503   4.545   4.790
 6901SOL     OW21601   4.776   4.344   6.208
 6901SOL    HW121602   4.875   4.343   6.199
 6901SOL    HW221603   4.734   4.343   6.117
 6902SOL     OW21604   0.529   5.877   5.194
 6902SOL    HW121605   0.490   5.896   5.283
 6902SOL    HW221606   0.458   5.885   5.124
 6903SOL     OW21607   0.708   6.772   4.766
 6903SOL    HW121608   0.771   6.850   4.772
 6903SOL    HW221609   0.614   6.805   4.777
 6904SOL     OW21610   6.757   0.230   6.671
 6904SOL    HW121611   6.826   0.180   6.618
 6904SOL    HW221612   6.799   0.310   6.713
 6905SOL     OW21613   4.470   5.650   5.414
 6905SOL    HW121614   4.509   5.679   5.327
 6905SOL    HW221615   4.471   5.551   5.419
 6906SOL     OW21616   2.342   2.197   3.806
 6906SOL    HW121617   2.340   2.195   3.706
 6906SOL    HW221618   2.291   2.276   3.839
 6907SOL     OW21619   5.606   3.563   0.333
 6907SOL    HW121620   5.534   3.514   0.285
 6907SOL    HW221621   5.618   3.524   0.424
 6908SOL     OW21622   2.837   5.579   1.036
 6908SOL    HW121623   2.811   5.501   0.980
 6908SOL    HW221624   2.757   5.612   1.086
 6909SOL     OW21625   6.259   5.149   2.187
 6909SOL    HW121626   6.226   5.065   2.231
 6909SOL    HW221627   6.194   5.223   2.204
 6910SOL     OW21628   2.061   2.706   2.705
 6910SOL    HW121629   2.019   2.740   2.789
 6910SOL    HW221630   2.161   2.708   2.715
 6911SOL     OW21631   1.815   6.899   5.445
 6911SOL    HW121632   1.716   6.893   5.429
 6911SOL    HW221633   1.860   6.819   5.407
 6912SOL     OW21634   2.259   4.057   6.465
 6912SOL    HW121635   2.247   4.065   6.366
 6912SOL    HW221636   2.173   4.078   6.511
 6913SOL     OW21637   3.748   5.374   6.070
 6913SOL    HW121638   3.760   5.448   6.136
 6913SOL    HW221639   3.808   5.390   5.991
 6914SOL     OW21640   0.879   2.073   2.459
 6914SOL    HW121641   0.861   2.103   2.553
 6914SOL    HW221642   0.798   2.088   2.402
 6915SOL     OW21643   5.871   2.584   3.961
 6915SOL    HW121644   5.788   2.610   3.913
 6915SOL    HW221645   5.919   2.512   3.910
 6916SOL     OW21646   4.447   5.963   5.873
 6916SOL    HW121647   4.417   5.876   5.835
 6916SOL    HW221648   4.546   5.968   5.874
 6917SOL     OW21649   3.398   5.782   2.279
 6917SOL    HW121650   3.486   5.805   2.237
 6917SOL    HW221651   3.401   5.688   2.312
 6918SOL     OW21652   1.390   3.862   6.048
 6918SOL    HW121653   1.333   3.798   6.101
 6918SOL    HW221654   1.410   3.822   5.958
 6919SOL     OW21655   6.244   5.956   3.613
 6919SOL    HW121656   6.291   5.962   3.701
 6919SOL    HW221657   6.146   5.971   3.627
 6920SOL     OW21658   0.004   3.365   5.033
 6920SOL    HW121659   0.064   3.294   4.997
 6920SOL    HW221660   6.942   3.358   4.990
 6921SOL     OW21661   3.428   0.593   5.431
 6921SOL    HW121662   3.362   0.585   5.506
 6921SOL    HW221663   3.521   0.593   5.469
 6922SOL     OW21664   2.832   3.932   6.556
 6922SOL    HW121665   2.745   3.965   6.520
 6922SOL    HW221666   2.862   3.993   6.630
 6923SOL     OW21667   5.147   6.813   2.391
 6923SOL    HW121668   5.056   6.854   2.392
 6923SOL    HW221669   5.176   6.792   2.484
 6924SOL     OW21670   3.216   4.658   1.434
 6924SOL    HW121671   3.215   4.757   1.421
 6924SOL    HW221672   3.192   4.636   1.528
 6925SOL     OW21673   5.957   0.108   4.377
 6925SOL    HW121674   5.991   0.069   4.463
 6925SOL    HW221675   5.867   0.150   4.393
 6926SOL     OW21676   2.478   3.143   0.211
 6926SOL    HW121677   2.500   3.219   0.272
 6926SOL    HW221678   2.470   3.059   0.263
 6927SOL     OW21679   3.563   6.892   5.439
 6927SOL    HW121680   3.608   6.918   5.354
 6927SOL    HW221681   3.567   6.969   5.503
 6928SOL     OW21682   4.223   5.581   0.682
 6928SOL    HW121683   4.169   5.513   0.733
 6928SOL    HW221684   4.221   5.668   0.731
 6929SOL     OW21685   4.370   6.024   3.592
 6929SOL    HW121686   4.337   6.117   3.575
 6929SOL    HW221687   4.433   5.996   3.520
 6930SOL     OW21688   0.617   6.203   2.374
 6930SOL    HW121689   0.664   6.125   2.334
 6930SOL    HW221690   0.637   6.208   2.472
 6931SOL     OW21691   4.295   2.758   0.115
 6931SOL    HW121692   4.359   2.701   0.167
 6931SOL    HW221693   4.267   2.709   0.033
 6932SOL     OW21694   3.976   1.080   6.505
 6932SOL    HW121695   3.885   1.090   6.464
 6932SOL    HW221696   4.045   1.098   6.436
 6933SOL     OW21697   3.648   6.065   5.947
 6933SOL    HW121698   3.654   5.966   5.963
 6933SOL    HW221699   3.693   6.113   6.022
 6934SOL     OW21700   4.343   5.501   6.964
 6934SOL    HW121701   4.423   5.556   6.941
 6934SOL    HW221702   4.263   5.537   6.917
 6935SOL     OW21703   4.171   5.838   2.145
 6935SOL    HW121704   4.076   5.818   2.123
 6935SOL    HW221705   4.207   5.768   2.206
 6936SOL     OW21706   1.283   1.106   0.396
 6936SOL    HW121707   1.210   1.126   0.330
 6936SOL    HW221708   1.331   1.191   0.419
 6937SOL     OW21709   6.872   4.227   0.392
 6937SOL    HW121710   6.863   4.169   0.473
 6937SOL    HW221711   6.929   4.182   0.324
 6938SOL     OW21712   2.600   0.076   5.552
 6938SOL    HW121713   2.584   0.165   5.508
 6938SOL    HW221714   2.698   0.064   5.567
 6939SOL     OW21715   6.429   3.134   3.566
 6939SOL    HW121716   6.487   3.147   3.646
 6939SOL    HW221717   6.334   3.150   3.590
 6940SOL     OW21718   0.327   6.916   0.857
 6940SOL    HW121719   0.277   6.945   0.939
 6940SOL    HW221720   0.262   6.881   0.789
 6941SOL     OW21721   4.045   3.240   2.666
 6941SOL    HW121722   4.038   3.179   2.745
 6941SOL    HW221723   4.029   3.188   2.582
 6942SOL     OW21724   0.653   5.794   2.620
 6942SOL    HW121725   0.584   5.725   2.642
 6942SOL    HW221726   0.636   5.876   2.674
 6943SOL     OW21727   3.532   5.792   5.330
 6943SOL    HW121728   3.489   5.721   5.387
 6943SOL    HW221729   3.464   5.861   5.306
 6944SOL     OW21730   1.190   4.968   6.273
 6944SOL    HW121731   1.258   4.971   6.200
 6944SOL    HW221732   1.126   4.893   6.256
 6945SOL     OW21733   3.993   1.757   1.063
 6945SOL    HW121734   4.078   1.799   1.094
 6945SOL    HW221735   3.919   1.782   1.124
 6946SOL     OW21736   5.918   5.263   3.863
 6946SOL    HW121737   5.987   5.333   3.848
 6946SOL    HW221738   5.838   5.282   3.806
 6947SOL     OW21739   6.120   2.954   5.381
 6947SOL    HW121740   6.024   2.969   5.355
 6947SOL    HW221741   6.127   2.870   5.435
 6948SOL     OW21742   0.674   5.886   0.343
 6948SOL    HW121743   0.587   5.928   0.316
 6948SOL    HW221744   0.744   5.956   0.350
 6949SOL     OW21745   1.644   1.451   3.380
 6949SOL    HW121746   1.594   1.398   3.312
 6949SOL    HW221747   1.616   1.547   3.374
 6950SOL     OW21748   1.990   1.621   3.916
 6950SOL    HW121749   1.954   1.701   3.964
 6950SOL    HW221750   2.089   1.630   3.906
 6951SOL     OW21751   0.879   3.168   0.250
 6951SOL    HW121752   0.823   3.142   0.329
 6951SOL    HW221753   0.821   3.177   0.170
 6952SOL     OW21754   4.930   4.950   3.938
 6952SOL    HW121755   4.893   4.887   4.005
 6952SOL    HW221756   4.984   5.021   3.984
 6953SOL     OW21757   0.550   0.640   1.794
 6953SOL    HW121758   0.554   0.739   1.807
 6953SOL    HW221759   0.630   0.610   1.741
 6954SOL     OW21760   6.900   5.419   6.534
 6954SOL    HW121761   6.908   5.519   6.530
 6954SOL    HW221762   6.978   5.378   6.486
 6955SOL     OW21763   3.781   5.657   3.268
 6955SOL    HW121764   3.784   5.719   3.190
 6955SOL    HW221765   3.691   5.612   3.271
 6956SOL     OW21766   6.386   4.721   3.006
 6956SOL    HW121767   6.305   4.678   2.967
 6956SOL    HW221768   6.451   4.651   3.034
 6957SOL     OW21769   5.199   3.956   5.551
 6957SOL    HW121770   5.289   3.999   5.551
 6957SOL    HW221771   5.196   3.885   5.622
 6958SOL     OW21772   3.341   3.579   1.894
 6958SOL    HW121773   3.255   3.621   1.922
 6958SOL    HW221774   3.389   3.543   1.974
 6959SOL     OW21775   0.079   3.494   3.144
 6959SOL    HW121776   0.150   3.564   3.139
 6959SOL    HW221777   0.003   3.527   3.200
 6960SOL     OW21778   4.952   4.983   0.043
 6960SOL    HW121779   5.019   5.037   0.094
 6960SOL    HW221780   4.963   4.887   0.065
 6961SOL     OW21781   4.722   2.807   4.235
 6961SOL    HW121782   4.722   2.906   4.221
 6961SOL    HW221783   4.716   2.788   4.333
 6962SOL     OW21784   2.617   6.624   0.338
 6962SOL    HW121785   2.569   6.536   0.347
 6962SOL    HW221786   2.684   6.632   0.412
 6963SOL     OW21787   0.526   0.189   7.016
 6963SOL    HW121788   0.444   0.172   6.961
 6963SOL    HW221789   0.605   0.146   6.972
 6964SOL     OW21790   2.942   2.081   5.526
 6964SOL    HW121791   2.921   2.140   5.448
 6964SOL    HW221792   2.858   2.066   5.579
 6965SOL     OW21793   1.753   1.215   0.352
 6965SOL    HW121794   1.656   1.236   0.366
 6965SOL    HW221795   1.792   1.280   0.286
 6966SOL     OW21796   1.137   6.289   0.737
 6966SOL    HW121797   1.081   6.210   0.760
 6966SOL    HW221798   1.101   6.370   0.782
 6967SOL     OW21799   4.132   6.763   0.260
 6967SOL    HW121800   4.033   6.780   0.259
 6967SOL    HW221801   4.148   6.664   0.263
 6968SOL     OW21802   4.681   0.588   1.744
 6968SOL    HW121803   4.667   0.663   1.809
 6968SOL    HW221804   4.752   0.614   1.678
 6969SOL     OW21805   1.541   3.558   2.686
 6969SOL    HW121806   1.539   3.497   2.607
 6969SOL    HW221807   1.604   3.521   2.754
 6970SOL     OW21808   2.895   5.884   5.775
 6970SOL    HW121809   2.973   5.826   5.800
 6970SOL    HW221810   2.905   5.915   5.681
 6971SOL     OW21811   7.014   3.764   0.308
 6971SOL    HW121812   0.023   3.817   0.232
 6971SOL    HW221813   6.931   3.716   0.279
 6972SOL     OW21814   5.839   3.047   1.339
 6972SOL    HW121815   5.916   3.026   1.400
 6972SOL    HW221816   5.840   2.983   1.262
 6973SOL     OW21817   1.110   1.079   2.533
 6973SOL    HW121818   1.167   1.008   2.574
 6973SOL    HW221819   1.165   1.162   2.520
 6974SOL     OW21820   4.007   3.692   2.720
 6974SOL    HW121821   3.946   3.757   2.766
 6974SOL    HW221822   4.030   3.617   2.782
 6975SOL     OW21823   2.900   5.979   5.489
 6975SOL    HW121824   2.901   5.899   5.430
 6975SOL    HW221825   2.816   6.032   5.473
 6976SOL     OW21826   5.149   5.070   5.392
 6976SOL    HW121827   5.211   5.035   5.322
 6976SOL    HW221828   5.071   5.115   5.349
 6977SOL     OW21829   4.416   5.237   2.510
 6977SOL    HW121830   4.380   5.321   2.549
 6977SOL    HW221831   4.341   5.175   2.488
 6978SOL     OW21832   0.357   3.490   0.943
 6978SOL    HW121833   0.320   3.561   0.883
 6978SOL    HW221834   0.442   3.455   0.904
 6979SOL     OW21835   0.988   3.756   2.988
 6979SOL    HW121836   0.998   3.665   3.029
 6979SOL    HW221837   0.928   3.749   2.908
 6980SOL     OW21838   3.009   5.294   2.825
 6980SOL    HW121839   3.000   5.393   2.835
 6980SOL    HW221840   3.050   5.256   2.908
 6981SOL     OW21841   3.997   2.809   6.906
 6981SOL    HW121842   4.050   2.862   6.840
 6981SOL    HW221843   3.998   2.712   6.879
 6982SOL     OW21844   6.795   6.357   2.282
 6982SOL    HW121845   6.854   6.278   2.301
 6982SOL    HW221846   6.825   6.402   2.198
 6983SOL     OW21847   6.833   0.313   4.077
 6983SOL    HW121848   6.887   0.345   4.154
 6983SOL    HW221849   6.782   0.231   4.103
 6984SOL     OW21850   1.654   4.136   3.248
 6984SOL    HW121851   1.604   4.130   3.335
 6984SOL    HW221852   1.597   4.102   3.174
 6985SOL     OW21853   5.007   3.199   0.728
 6985SOL    HW121854   4.928   3.143   0.706
 6985SOL    HW221855   5.090   3.155   0.694
 6986SOL     OW21856   4.806   6.055   5.105
 6986SOL    HW121857   4.892   6.062   5.055
 6986SOL    HW221858   4.822   6.075   5.202
 6987SOL     OW21859   0.278   1.263   6.793
 6987SOL    HW121860   0.180   1.267   6.776
 6987SOL    HW221861   0.317   1.355   6.784
 6988SOL     OW21862   1.044   0.786   6.436
 6988SOL    HW121863   0.948   0.790   6.408
 6988SOL    HW221864   1.080   0.695   6.417
 6989SOL     OW21865   0.439   3.081   2.406
 6989SOL    HW121866   0.405   3.167   2.368
 6989SOL    HW221867   0.538   3.086   2.418
 6990SOL     OW21868   2.841   4.957   6.560
 6990SOL    HW121869   2.887   4.876   6.524
 6990SOL    HW221870   2.867   4.971   6.656
 6991SOL     OW21871   5.325   4.204   4.119
 6991SOL    HW121872   5.236   4.198   4.164
 6991SOL    HW221873   5.373   4.286   4.150
 6992SOL     OW21874   1.814   5.259   5.939
 6992SOL    HW121875   1.796   5.193   6.012
 6992SOL    HW221876   1.738   5.257   5.873
 6993SOL     OW21877   4.592   2.172   1.867
 6993SOL    HW121878   4.524   2.100   1.881
 6993SOL    HW221879   4.557   2.258   1.904
 6994SOL     OW21880   2.186   0.971   2.820
 6994SOL    HW121881   2.180   1.016   2.910
 6994SOL    HW221882   2.177   1.039   2.748
 6995SOL     OW21883   6.562   5.509   0.325
 6995SOL    HW121884   6.513   5.563   0.257
 6995SOL    HW221885   6.509   5.427   0.348
 6996SOL     OW21886   1.542   0.676   6.890
 6996SOL    HW121887   1.491   0.762   6.888
 6996SOL    HW221888   1.553   0.645   6.984
 6997SOL     OW21889   5.768   5.704   6.723
 6997SOL    HW121890   5.707   5.625   6.726
 6997SOL    HW221891   5.837   5.691   6.653
 6998SOL     OW21892   0.401   1.220   5.628
 6998SOL    HW121893   0.423   1.125   5.648
 6998SOL    HW221894   0.312   1.243   5.666
 6999SOL     OW21895   0.891   2.466   6.868
 6999SOL    HW121896   0.957   2.529   6.826
 6999SOL    HW221897   0.802   2.478   6.825
 7000SOL     OW21898   0.861   5.445   2.484
 7000SOL    HW121899   0.919   5.416   2.561
 7000SOL    HW221900   0.792   5.374   2.466
 7001SOL     OW21901   0.846   1.239   3.427
 7001SOL    HW121902   0.788   1.267   3.503
 7001SOL    HW221903   0.888   1.320   3.386
 7002SOL     OW21904   1.486   4.392   3.001
 7002SOL    HW121905   1.534   4.458   3.058
 7002SOL    HW221906   1.541   4.370   2.921
 7003SOL     OW21907   0.140   5.707   6.587
 7003SOL    HW121908   0.117   5.782   6.525
 7003SOL    HW221909   0.118   5.620   6.544
 7004SOL     OW21910   0.849   0.510   6.994
 7004SOL    HW121911   0.799   0.595   6.979
 7004SOL    HW221912   0.896   0.484   6.909
 7005SOL     OW21913   1.980   4.899   0.474
 7005SOL    HW121914   1.973   4.821   0.536
 7005SOL    HW221915   2.076   4.929   0.470
 7006SOL     OW21916   0.936   0.622   3.893
 7006SOL    HW121917   0.925   0.595   3.989
 7006SOL    HW221918   1.032   0.613   3.867
 7007SOL     OW21919   2.084   6.276   6.014
 7007SOL    HW121920   2.059   6.303   5.921
 7007SOL    HW221921   2.001   6.266   6.069
 7008SOL     OW21922   6.351   3.068   2.820
 7008SOL    HW121923   6.446   3.094   2.835
 7008SOL    HW221924   6.291   3.139   2.857
 7009SOL     OW21925   5.501   5.545   2.609
 7009SOL    HW121926   5.569   5.614   2.582
 7009SOL    HW221927   5.422   5.552   2.549
 7010SOL     OW21928   4.747   2.310   2.850
 7010SOL    HW121929   4.697   2.248   2.910
 7010SOL    HW221930   4.840   2.321   2.885
 7011SOL     OW21931   1.924   5.656   6.664
 7011SOL    HW121932   1.942   5.754   6.669
 7011SOL    HW221933   1.977   5.609   6.735
 7012SOL     OW21934   0.766   3.418   0.512
 7012SOL    HW121935   0.774   3.318   0.504
 7012SOL    HW221936   0.779   3.460   0.422
 7013SOL     OW21937   2.572   2.378   0.123
 7013SOL    HW121938   2.653   2.375   0.182
 7013SOL    HW221939   2.587   2.446   0.051
 7014SOL     OW21940   6.880   4.039   1.226
 7014SOL    HW121941   6.805   4.101   1.249
 7014SOL    HW221942   6.934   4.079   1.152
 7015SOL     OW21943   5.708   6.576   0.862
 7015SOL    HW121944   5.780   6.584   0.931
 7015SOL    HW221945   5.625   6.622   0.895
 7016SOL     OW21946   2.701   5.328   0.909
 7016SOL    HW121947   2.653   5.296   0.990
 7016SOL    HW221948   2.708   5.254   0.842
 7017SOL     OW21949   5.671   3.875   7.023
 7017SOL    HW121950   5.613   3.907   0.070
 7017SOL    HW221951   5.728   3.799   0.027
 7018SOL     OW21952   6.623   2.105   4.102
 7018SOL    HW121953   6.535   2.085   4.144
 7018SOL    HW221954   6.632   2.203   4.089
 7019SOL     OW21955   3.237   5.802   2.635
 7019SOL    HW121956   3.163   5.826   2.698
 7019SOL    HW221957   3.283   5.720   2.669
 7020SOL     OW21958   6.765   1.749   0.721
 7020SOL    HW121959   6.713   1.828   0.755
 7020SOL    HW221960   6.739   1.667   0.772
 7021SOL     OW21961   0.921   2.350   4.590
 7021SOL    HW121962   0.948   2.444   4.611
 7021SOL    HW221963   0.948   2.290   4.665
 7022SOL     OW21964   1.820   3.714   1.072
 7022SOL    HW121965   1.888   3.689   1.003
 7022SOL    HW221966   1.867   3.741   1.156
 7023SOL     OW21967   6.577   1.976   1.214
 7023SOL    HW121968   6.494   1.924   1.197
 7023SOL    HW221969   6.557   2.073   1.207
 7024SOL     OW21970   3.538   4.419   5.413
 7024SOL    HW121971   3.532   4.377   5.504
 7024SOL    HW221972   3.500   4.356   5.345
 7025SOL     OW21973   3.821   0.677   1.092
 7025SOL    HW121974   3.868   0.622   1.161
 7025SOL    HW221975   3.849   0.773   1.100
 7026SOL     OW21976   3.246   2.529   1.091
 7026SOL    HW121977   3.306   2.476   1.151
 7026SOL    HW221978   3.160   2.548   1.138
 7027SOL     OW21979   2.709   4.449   0.673
 7027SOL    HW121980   2.800   4.482   0.697
 7027SOL    HW221981   2.703   4.440   0.574
 7028SOL     OW21982   2.833   0.383   2.015
 7028SOL    HW121983   2.747   0.387   1.964
 7028SOL    HW221984   2.848   0.470   2.062
 7029SOL     OW21985   3.379   4.031   2.772
 7029SOL    HW121986   3.448   4.057   2.705
 7029SOL    HW221987   3.289   4.028   2.729
 7030SOL     OW21988   5.631   6.547   4.402
 7030SOL    HW121989   5.593   6.459   4.431
 7030SOL    HW221990   5.611   6.616   4.472
 7031SOL     OW21991   5.403   4.660   1.473
 7031SOL    HW121992   5.417   4.642   1.570
 7031SOL    HW221993   5.375   4.755   1.461
 7032SOL     OW21994   3.496   4.982   3.804
 7032SOL    HW121995   3.408   5.026   3.787
 7032SOL    HW221996   3.516   4.984   3.902
 7033SOL     OW21997   2.752   2.055   5.731
 7033SOL    HW121998   2.655   2.079   5.728
 7033SOL    HW221999   2.799   2.118   5.793
 7034SOL     OW22000   6.718   2.417   3.011
 7034SOL    HW122001   6.640   2.455   3.061
 7034SOL    HW222002   6.786   2.489   2.995
 7035SOL     OW22003   3.765   2.604   0.980
 7035SOL    HW122004   3.791   2.656   1.062
 7035SOL    HW222005   3.675   2.563   0.995
 7036SOL     OW22006   6.726   2.080   2.201
 7036SOL    HW122007   6.751   2.057   2.295
 7036SOL    HW222008   6.638   2.128   2.200
 7037SOL     OW22009   0.563   1.560   5.520
 7037SOL    HW122010   0.567   1.474   5.468
 7037SOL    HW222011   0.562   1.541   5.618
 7038SOL     OW22012   1.800   3.919   6.641
 7038SOL    HW122013   1.787   3.973   6.558
 7038SOL    HW222014   1.779   3.823   6.621
 7039SOL     OW22015   5.924   0.621   1.347
 7039SOL    HW122016   5.853   0.562   1.308
 7039SOL    HW222017   5.881   0.694   1.400
 7040SOL     OW22018   5.334   2.868   4.969
 7040SOL    HW122019   5.398   2.843   4.896
 7040SOL    HW222020   5.344   2.965   4.990
 7041SOL     OW22021   0.761   6.136   3.024
 7041SOL    HW122022   0.683   6.170   3.076
 7041SOL    HW222023   0.838   6.200   3.032
 7042SOL     OW22024   4.428   4.950   5.512
 7042SOL    HW122025   4.423   5.045   5.542
 7042SOL    HW222026   4.391   4.942   5.419
 7043SOL     OW22027   2.602   5.734   0.455
 7043SOL    HW122028   2.578   5.740   0.552
 7043SOL    HW222029   2.529   5.774   0.400
 7044SOL     OW22030   4.830   6.106   5.402
 7044SOL    HW122031   4.925   6.080   5.384
 7044SOL    HW222032   4.819   6.126   5.499
 7045SOL     OW22033   5.286   0.698   1.530
 7045SOL    HW122034   5.324   0.620   1.480
 7045SOL    HW222035   5.203   0.729   1.484
 7046SOL     OW22036   3.285   0.434   1.652
 7046SOL    HW122037   3.235   0.518   1.633
 7046SOL    HW222038   3.282   0.374   1.572
 7047SOL     OW22039   1.006   6.900   1.329
 7047SOL    HW122040   0.921   6.952   1.341
 7047SOL    HW222041   1.064   6.946   1.262
 7048SOL     OW22042   0.644   5.184   4.518
 7048SOL    HW122043   0.732   5.150   4.484
 7048SOL    HW222044   0.652   5.204   4.616
 7049SOL     OW22045   2.959   1.744   4.851
 7049SOL    HW122046   3.006   1.699   4.775
 7049SOL    HW222047   2.900   1.816   4.815
 7050SOL     OW22048   4.274   4.273   0.613
 7050SOL    HW122049   4.226   4.235   0.534
 7050SOL    HW222050   4.234   4.237   0.697
 7051SOL     OW22051   2.164   1.097   2.557
 7051SOL    HW122052   2.096   1.116   2.486
 7051SOL    HW222053   2.245   1.057   2.515
 7052SOL     OW22054   5.741   2.412   2.991
 7052SOL    HW122055   5.670   2.432   2.923
 7052SOL    HW222056   5.787   2.327   2.966
 7053SOL     OW22057   0.661   4.342   2.992
 7053SOL    HW122058   0.638   4.329   3.089
 7053SOL    HW222059   0.602   4.283   2.936
 7054SOL     OW22060   5.251   6.488   0.810
 7054SOL    HW122061   5.251   6.390   0.787
 7054SOL    HW222062   5.254   6.542   0.726
 7055SOL     OW22063   2.094   0.094   6.918
 7055SOL    HW122064   2.087   0.193   6.902
 7055SOL    HW222065   2.107   0.047   6.831
 7056SOL     OW22066   0.660   5.329   1.221
 7056SOL    HW122067   0.561   5.326   1.205
 7056SOL    HW222068   0.681   5.279   1.305
 7057SOL     OW22069   2.869   6.562   4.733
 7057SOL    HW122070   2.795   6.547   4.668
 7057SOL    HW222071   2.957   6.554   4.686
 7058SOL     OW22072   5.893   2.731   5.564
 7058SOL    HW122073   5.823   2.663   5.588
 7058SOL    HW222074   5.878   2.815   5.616
 7059SOL     OW22075   1.923   1.094   4.040
 7059SOL    HW122076   1.991   1.025   4.015
 7059SOL    HW222077   1.965   1.163   4.099
 7060SOL     OW22078   2.740   2.712   0.909
 7060SOL    HW122079   2.643   2.735   0.899
 7060SOL    HW222080   2.779   2.766   0.983
 7061SOL     OW22081   1.090   7.028   0.863
 7061SOL    HW122082   1.155   0.066   0.826
 7061SOL    HW222083   1.011   7.022   0.802
 7062SOL     OW22084   3.325   0.837   5.311
 7062SOL    HW122085   3.401   0.772   5.302
 7062SOL    HW222086   3.269   0.811   5.389
 7063SOL     OW22087   0.263   1.094   1.362
 7063SOL    HW122088   0.318   1.050   1.291
 7063SOL    HW222089   0.263   1.193   1.347
 7064SOL     OW22090   2.728   1.779   5.784
 7064SOL    HW122091   2.743   1.874   5.757
 7064SOL    HW222092   2.630   1.765   5.800
 7065SOL     OW22093   3.020   0.032   2.740
 7065SOL    HW122094   2.963   6.979   2.722
 7065SOL    HW222095   2.974   0.114   2.706
 7066SOL     OW22096   4.161   1.117   1.338
 7066SOL    HW122097   4.149   1.083   1.431
 7066SOL    HW222098   4.143   1.215   1.336
 7067SOL     OW22099   2.794   4.266   6.020
 7067SOL    HW122100   2.768   4.279   6.115
 7067SOL    HW222101   2.798   4.354   5.973
 7068SOL     OW22102   4.709   4.927   3.038
 7068SOL    HW122103   4.610   4.915   3.045
 7068SOL    HW222104   4.730   5.024   3.023
 7069SOL     OW22105   3.683   1.503   5.992
 7069SOL    HW122106   3.731   1.462   5.914
 7069SOL    HW222107   3.590   1.529   5.964
 7070SOL     OW22108   0.536   1.852   5.524
 7070SOL    HW122109   0.569   1.758   5.515
 7070SOL    HW222110   0.596   1.904   5.585
 7071SOL     OW22111   4.079   5.074   6.836
 7071SOL    HW122112   4.039   5.070   6.744
 7071SOL    HW222113   4.009   5.102   6.901
 7072SOL     OW22114   1.630   3.654   5.314
 7072SOL    HW122115   1.713   3.609   5.282
 7072SOL    HW222116   1.652   3.745   5.349
 7073SOL     OW22117   4.185   1.267   4.993
 7073SOL    HW122118   4.190   1.340   5.061
 7073SOL    HW222119   4.097   1.219   5.003
 7074SOL     OW22120   5.874   2.897   2.828
 7074SOL    HW122121   5.898   2.867   2.920
 7074SOL    HW222122   5.891   2.995   2.818
 7075SOL     OW22123   1.854   4.192   2.882
 7075SOL    HW122124   1.878   4.106   2.926
 7075SOL    HW222125   1.893   4.194   2.790
 7076SOL     OW22126   6.770   1.858   1.694
 7076SOL    HW122127   6.789   1.943   1.744
 7076SOL    HW222128   6.718   1.796   1.752
 7077SOL     OW22129   3.788   6.373   2.401
 7077SOL    HW122130   3.701   6.391   2.354
 7077SOL    HW222131   3.772   6.372   2.500
 7078SOL     OW22132   6.723   1.518   0.038
 7078SOL    HW122133   6.685   1.468   0.116
 7078SOL    HW222134   6.822   1.520   0.045
 7079SOL     OW22135   2.744   5.943   4.905
 7079SOL    HW122136   2.693   6.021   4.941
 7079SOL    HW222137   2.769   5.882   4.981
 7080SOL     OW22138   3.779   2.029   6.823
 7080SOL    HW122139   3.876   2.013   6.843
 7080SOL    HW222140   3.725   2.017   6.906
 7081SOL     OW22141   3.226   6.573   6.002
 7081SOL    HW122142   3.156   6.501   6.006
 7081SOL    HW222143   3.305   6.546   6.057
 7082SOL     OW22144   1.501   4.831   2.378
 7082SOL    HW122145   1.527   4.898   2.309
 7082SOL    HW222146   1.564   4.754   2.376
 7083SOL     OW22147   5.817   2.867   3.525
 7083SOL    HW122148   5.759   2.806   3.579
 7083SOL    HW222149   5.866   2.814   3.456
 7084SOL     OW22150   1.287   5.002   0.652
 7084SOL    HW122151   1.275   5.097   0.620
 7084SOL    HW222152   1.200   4.954   0.644
 7085SOL     OW22153   0.445   3.021   1.907
 7085SOL    HW122154   0.493   2.934   1.925
 7085SOL    HW222155   0.410   3.021   1.814
 7086SOL     OW22156   3.706   0.487   3.498
 7086SOL    HW122157   3.756   0.511   3.415
 7086SOL    HW222158   3.610   0.513   3.488
 7087SOL     OW22159   5.865   2.451   4.241
 7087SOL    HW122160   5.774   2.411   4.235
 7087SOL    HW222161   5.893   2.485   4.151
 7088SOL     OW22162   6.075   1.543   5.766
 7088SOL    HW122163   5.987   1.568   5.805
 7088SOL    HW222164   6.100   1.451   5.795
 7089SOL     OW22165   3.522   6.399   2.267
 7089SOL    HW122166   3.503   6.490   2.230
 7089SOL    HW222167   3.540   6.335   2.192
 7090SOL     OW22168   5.669   2.973   1.578
 7090SOL    HW122169   5.680   3.042   1.649
 7090SOL    HW222170   5.732   2.992   1.503
 7091SOL     OW22171   5.757   6.500   6.156
 7091SOL    HW122172   5.735   6.405   6.133
 7091SOL    HW222173   5.692   6.561   6.110
 7092SOL     OW22174   3.600   0.102   5.915
 7092SOL    HW122175   3.501   0.099   5.901
 7092SOL    HW222176   3.643   0.029   5.862
 7093SOL     OW22177   4.677   2.538   0.574
 7093SOL    HW122178   4.591   2.560   0.621
 7093SOL    HW222179   4.659   2.472   0.501
 7094SOL     OW22180   4.340   0.883   5.409
 7094SOL    HW122181   4.372   0.834   5.327
 7094SOL    HW222182   4.322   0.817   5.482
 7095SOL     OW22183   2.550   5.201   3.363
 7095SOL    HW122184   2.525   5.292   3.329
 7095SOL    HW222185   2.553   5.203   3.463
 7096SOL     OW22186   0.073   5.031   0.071
 7096SOL    HW122187   7.003   5.015   0.056
 7096SOL    HW222188   0.085   5.097   0.145
 7097SOL     OW22189   4.852   2.053   3.131
 7097SOL    HW122190   4.774   2.085   3.077
 7097SOL    HW222191   4.937   2.068   3.080
 7098SOL     OW22192   1.438   1.422   2.008
 7098SOL    HW122193   1.388   1.349   2.055
 7098SOL    HW222194   1.535   1.418   2.035
 7099SOL     OW22195   3.147   1.108   5.111
 7099SOL    HW122196   3.221   1.048   5.081
 7099SOL    HW222197   3.060   1.073   5.078
 7100SOL     OW22198   0.607   4.050   1.055
 7100SOL    HW122199   0.558   3.968   1.024
 7100SOL    HW222200   0.543   4.126   1.061
 7101SOL     OW22201   2.828   6.687   4.155
 7101SOL    HW122202   2.895   6.613   4.168
 7101SOL    HW222203   2.873   6.765   4.111
 7102SOL     OW22204   5.206   1.946   2.236
 7102SOL    HW122205   5.223   1.934   2.139
 7102SOL    HW222206   5.108   1.948   2.253
 7103SOL     OW22207   6.848   3.606   4.812
 7103SOL    HW122208   6.896   3.550   4.880
 7103SOL    HW222209   6.757   3.567   4.796
 7104SOL     OW22210   4.460   2.277   4.004
 7104SOL    HW122211   4.467   2.315   4.096
 7104SOL    HW222212   4.515   2.333   3.941
 7105SOL     OW22213   3.047   3.459   1.872
 7105SOL    HW122214   3.054   3.430   1.968
 7105SOL    HW222215   3.075   3.554   1.864
 7106SOL     OW22216   2.550   2.141   2.784
 7106SOL    HW122217   2.571   2.066   2.721
 7106SOL    HW222218   2.564   2.110   2.878
 7107SOL     OW22219   3.749   0.647   0.676
 7107SOL    HW122220   3.658   0.629   0.640
 7107SOL    HW222221   3.744   0.712   0.751
 7108SOL     OW22222   2.321   6.139   2.129
 7108SOL    HW122223   2.405   6.097   2.161
 7108SOL    HW222224   2.323   6.237   2.146
 7109SOL     OW22225   2.243   5.119   5.622
 7109SOL    HW122226   2.301   5.053   5.670
 7109SOL    HW222227   2.152   5.120   5.664
 7110SOL     OW22228   2.674   5.644   5.701
 7110SOL    HW122229   2.726   5.619   5.619
 7110SOL    HW222230   2.707   5.732   5.736
 7111SOL     OW22231   5.792   1.921   3.626
 7111SOL    HW122232   5.742   1.979   3.691
 7111SOL    HW222233   5.818   1.975   3.547
 7112SOL     OW22234   6.569   4.613   4.441
 7112SOL    HW122235   6.513   4.586   4.363
 7112SOL    HW222236   6.666   4.603   4.418
 7113SOL     OW22237   3.451   0.346   5.308
 7113SOL    HW122238   3.462   0.438   5.347
 7113SOL    HW222239   3.359   0.338   5.267
 7114SOL     OW22240   5.876   3.814   0.566
 7114SOL    HW122241   5.831   3.814   0.477
 7114SOL    HW222242   5.966   3.772   0.558
 7115SOL     OW22243   4.901   2.914   6.174
 7115SOL    HW122244   4.896   2.913   6.075
 7115SOL    HW222245   4.827   2.971   6.211
 7116SOL     OW22246   6.832   5.510   4.373
 7116SOL    HW122247   6.874   5.523   4.463
 7116SOL    HW222248   6.774   5.589   4.351
 7117SOL     OW22249   2.931   0.741   2.338
 7117SOL    HW122250   2.865   0.685   2.388
 7117SOL    HW222251   2.887   0.783   2.259
 7118SOL     OW22252   5.348   5.119   5.885
 7118SOL    HW122253   5.412   5.194   5.900
 7118SOL    HW222254   5.338   5.103   5.786
 7119SOL     OW22255   3.244   6.101   4.138
 7119SOL    HW122256   3.219   6.053   4.054
 7119SOL    HW222257   3.162   6.124   4.190
 7120SOL     OW22258   4.754   1.963   2.408
 7120SOL    HW122259   4.765   1.927   2.501
 7120SOL    HW222260   4.656   1.976   2.390
 7121SOL     OW22261   1.127   6.028   1.208
 7121SOL    HW122262   1.222   6.050   1.231
 7121SOL    HW222263   1.065   6.075   1.272
 7122SOL     OW22264   2.251   2.293   6.496
 7122SOL    HW122265   2.207   2.383   6.494
 7122SOL    HW222266   2.272   2.264   6.402
 7123SOL     OW22267   5.505   3.095   5.786
 7123SOL    HW122268   5.407   3.076   5.787
 7123SOL    HW222269   5.555   3.009   5.801
 7124SOL     OW22270   3.682   2.956   5.723
 7124SOL    HW122271   3.750   3.018   5.684
 7124SOL    HW222272   3.729   2.887   5.778
 7125SOL     OW22273   1.513   5.174   1.622
 7125SOL    HW122274   1.577   5.219   1.560
 7125SOL    HW222275   1.542   5.080   1.637
 7126SOL     OW22276   4.040   4.473   0.060
 7126SOL    HW122277   4.096   4.512   0.132
 7126SOL    HW222278   3.994   4.546   0.009
 7127SOL     OW22279   2.149   0.301   5.017
 7127SOL    HW122280   2.094   0.354   4.953
 7127SOL    HW222281   2.240   0.342   5.024
 7128SOL     OW22282   4.588   3.888   0.148
 7128SOL    HW122283   4.687   3.884   0.136
 7128SOL    HW222284   4.556   3.803   0.190
 7129SOL     OW22285   6.636   1.505   0.863
 7129SOL    HW122286   6.593   1.551   0.941
 7129SOL    HW222287   6.728   1.476   0.888
 7130SOL     OW22288   3.342   6.703   3.296
 7130SOL    HW122289   3.278   6.699   3.374
 7130SOL    HW222290   3.340   6.616   3.247
 7131SOL     OW22291   2.469   1.181   2.477
 7131SOL    HW122292   2.557   1.200   2.434
 7131SOL    HW222293   2.400   1.245   2.443
 7132SOL     OW22294   5.450   4.967   2.481
 7132SOL    HW122295   5.422   5.061   2.501
 7132SOL    HW222296   5.381   4.903   2.514
 7133SOL     OW22297   3.230   6.837   2.011
 7133SOL    HW122298   3.306   6.887   1.971
 7133SOL    HW222299   3.206   6.876   2.100
 7134SOL     OW22300   6.276   4.796   5.970
 7134SOL    HW122301   6.242   4.888   5.989
 7134SOL    HW222302   6.280   4.781   5.871
 7135SOL     OW22303   2.576   5.900   6.667
 7135SOL    HW122304   2.542   5.868   6.579
 7135SOL    HW222305   2.558   5.831   6.737
 7136SOL     OW22306   0.980   3.134   2.567
 7136SOL    HW122307   0.995   3.086   2.653
 7136SOL    HW222308   1.058   3.120   2.507
 7137SOL     OW22309   1.492   6.872   2.078
 7137SOL    HW122310   1.437   6.834   2.152
 7137SOL    HW222311   1.531   6.959   2.108
 7138SOL     OW22312   6.554   4.017   0.976
 7138SOL    HW122313   6.578   4.026   0.879
 7138SOL    HW222314   6.533   3.921   0.996
 7139SOL     OW22315   5.808   5.908   1.196
 7139SOL    HW122316   5.793   5.825   1.250
 7139SOL    HW222317   5.722   5.937   1.155
 7140SOL     OW22318   5.795   4.096   0.554
 7140SOL    HW122319   5.823   4.151   0.632
 7140SOL    HW222320   5.829   4.002   0.565
 7141SOL     OW22321   2.045   2.621   0.198
 7141SOL    HW122322   2.053   2.681   0.278
 7141SOL    HW222323   2.059   2.675   0.115
 7142SOL     OW22324   4.145   6.175   6.250
 7142SOL    HW122325   4.210   6.169   6.174
 7142SOL    HW222326   4.105   6.267   6.253
 7143SOL     OW22327   3.283   3.506   5.903
 7143SOL    HW122328   3.248   3.469   5.816
 7143SOL    HW222329   3.209   3.552   5.952
 7144SOL     OW22330   5.904   1.874   6.052
 7144SOL    HW122331   5.810   1.845   6.038
 7144SOL    HW222332   5.965   1.795   6.046
 7145SOL     OW22333   0.545   3.259   6.527
 7145SOL    HW122334   0.547   3.295   6.433
 7145SOL    HW222335   0.638   3.255   6.563
 7146SOL     OW22336   6.979   1.728   4.439
 7146SOL    HW122337   6.924   1.809   4.418
 7146SOL    HW222338   0.027   1.754   4.498
 7147SOL     OW22339   0.064   0.577   0.028
 7147SOL    HW122340   0.050   0.611   6.962
 7147SOL    HW222341   0.018   0.638   0.092
 7148SOL     OW22342   5.840   6.552   0.149
 7148SOL    HW122343   5.745   6.580   0.163
 7148SOL    HW222344   5.889   6.554   0.236
 7149SOL     OW22345   6.736   3.664   0.289
 7149SOL    HW122346   6.687   3.595   0.235
 7149SOL    HW222347   6.672   3.735   0.318
 7150SOL     OW22348   2.240   2.091   0.055
 7150SOL    HW122349   2.288   2.043   7.009
 7150SOL    HW222350   2.181   2.026   0.103
 7151SOL     OW22351   6.416   2.266   6.956
 7151SOL    HW122352   6.404   2.202   0.004
 7151SOL    HW222353   6.394   2.220   6.870
 7152SOL     OW22354   5.725   0.247   4.474
 7152SOL    HW122355   5.706   0.220   4.568
 7152SOL    HW222356   5.662   0.319   4.446
 7153SOL     OW22357   4.774   5.973   0.074
 7153SOL    HW122358   4.861   5.924   0.073
 7153SOL    HW222359   4.701   5.912   0.105
 7154SOL     OW22360   4.987   6.046   2.190
 7154SOL    HW122361   4.916   6.026   2.122
 7154SOL    HW222362   5.006   6.144   2.190
 7155SOL     OW22363   1.466   6.641   1.148
 7155SOL    HW122364   1.492   6.563   1.205
 7155SOL    HW222365   1.367   6.642   1.136
 7156SOL     OW22366   7.001   3.600   5.153
 7156SOL    HW122367   6.904   3.622   5.144
 7156SOL    HW222368   7.024   3.524   5.092
 7157SOL     OW22369   6.935   4.815   5.800
 7157SOL    HW122370   7.011   4.804   5.863
 7157SOL    HW222371   6.849   4.796   5.847
 7158SOL     OW22372   5.024   0.025   3.881
 7158SOL    HW122373   5.056   6.959   3.869
 7158SOL    HW222374   5.055   0.081   3.804
 7159SOL     OW22375   1.099   6.373   3.623
 7159SOL    HW122376   1.151   6.370   3.708
 7159SOL    HW222377   1.027   6.303   3.624
 7160SOL     OW22378   5.935   6.257   2.200
 7160SOL    HW122379   5.920   6.173   2.252
 7160SOL    HW222380   5.880   6.255   2.117
 7161SOL     OW22381   3.891   2.567   1.417
 7161SOL    HW122382   3.961   2.534   1.354
 7161SOL    HW222383   3.924   2.560   1.511
 7162SOL     OW22384   0.595   6.560   6.994
 7162SOL    HW122385   0.583   6.500   0.045
 7162SOL    HW222386   0.558   6.515   6.912
 7163SOL     OW22387   6.739   5.590   0.672
 7163SOL    HW122388   6.782   5.500   0.667
 7163SOL    HW222389   6.742   5.623   0.766
 7164SOL     OW22390   1.282   6.550   6.758
 7164SOL    HW122391   1.211   6.523   6.693
 7164SOL    HW222392   1.240   6.593   6.838
 7165SOL     OW22393   4.347   3.346   6.357
 7165SOL    HW122394   4.251   3.370   6.372
 7165SOL    HW222395   4.357   3.300   6.269
 7166SOL     OW22396   7.002   6.929   5.390
 7166SOL    HW122397   6.947   7.004   5.353
 7166SOL    HW222398   0.040   6.965   5.456
 7167SOL     OW22399   0.571   4.151   5.866
 7167SOL    HW122400   0.626   4.105   5.796
 7167SOL    HW222401   0.631   4.207   5.923
 7168SOL     OW22402   6.499   0.608   2.220
 7168SOL    HW122403   6.442   0.557   2.155
 7168SOL    HW222404   6.558   0.544   2.268
 7169SOL     OW22405   1.996   5.225   5.222
 7169SOL    HW122406   1.973   5.312   5.267
 7169SOL    HW222407   2.095   5.209   5.231
 7170SOL     OW22408   4.297   2.446   1.830
 7170SOL    HW122409   4.267   2.512   1.761
 7170SOL    HW222410   4.372   2.486   1.884
 7171SOL     OW22411   0.267   6.397   1.643
 7171SOL    HW122412   0.286   6.496   1.644
 7171SOL    HW222413   0.263   6.365   1.549
 7172SOL     OW22414   1.326   2.465   3.255
 7172SOL    HW122415   1.420   2.493   3.277
 7172SOL    HW222416   1.270   2.547   3.241
 7173SOL     OW22417   3.502   5.193   4.426
 7173SOL    HW122418   3.521   5.117   4.364
 7173SOL    HW222419   3.472   5.158   4.514
 7174SOL     OW22420   6.577   3.897   2.535
 7174SOL    HW122421   6.640   3.894   2.612
 7174SOL    HW222422   6.589   3.814   2.479
 7175SOL     OW22423   6.100   2.869   5.879
 7175SOL    HW122424   6.115   2.897   5.974
 7175SOL    HW222425   6.084   2.770   5.876
 7176SOL     OW22426   5.969   1.954   6.309
 7176SOL    HW122427   5.896   1.956   6.378
 7176SOL    HW222428   5.928   1.947   6.218
 7177SOL     OW22429   0.708   5.067   3.363
 7177SOL    HW122430   0.655   4.983   3.368
 7177SOL    HW222431   0.786   5.053   3.302
 7178SOL     OW22432   0.383   5.576   5.425
 7178SOL    HW122433   0.478   5.569   5.395
 7178SOL    HW222434   0.371   5.660   5.478
 7179SOL     OW22435   5.496   4.740   5.469
 7179SOL    HW122436   5.462   4.826   5.431
 7179SOL    HW222437   5.548   4.691   5.399
 7180SOL     OW22438   6.332   1.789   2.661
 7180SOL    HW122439   6.401   1.777   2.733
 7180SOL    HW222440   6.377   1.815   2.576
 7181SOL     OW22441   3.661   0.546   0.349
 7181SOL    HW122442   3.636   0.549   0.252
 7181SOL    HW222443   3.595   0.600   0.401
 7182SOL     OW22444   2.357   0.147   2.521
 7182SOL    HW122445   2.267   0.113   2.548
 7182SOL    HW222446   2.426   0.076   2.538
 7183SOL     OW22447   1.596   0.091   0.520
 7183SOL    HW122448   1.652   0.093   0.603
 7183SOL    HW222449   1.615   0.008   0.469
 7184SOL     OW22450   0.296   1.841   4.073
 7184SOL    HW122451   0.341   1.795   3.996
 7184SOL    HW222452   0.202   1.807   4.082
 7185SOL     OW22453   3.535   0.275   3.770
 7185SOL    HW122454   3.486   0.225   3.842
 7185SOL    HW222455   3.524   0.227   3.683
 7186SOL     OW22456   6.296   2.897   1.080
 7186SOL    HW122457   6.372   2.867   1.023
 7186SOL    HW222458   6.247   2.817   1.115
 7187SOL     OW22459   2.929   3.718   3.725
 7187SOL    HW122460   2.924   3.746   3.821
 7187SOL    HW222461   2.979   3.788   3.674
 7188SOL     OW22462   4.538   5.219   6.667
 7188SOL    HW122463   4.599   5.157   6.619
 7188SOL    HW222464   4.482   5.168   6.733
 7189SOL     OW22465   6.956   1.790   6.060
 7189SOL    HW122466   6.908   1.873   6.030
 7189SOL    HW222467   6.907   1.750   6.137
 7190SOL     OW22468   5.353   5.782   0.671
 7190SOL    HW122469   5.331   5.701   0.616
 7190SOL    HW222470   5.430   5.830   0.631
 7191SOL     OW22471   0.091   5.101   2.673
 7191SOL    HW122472   0.143   5.121   2.756
 7191SOL    HW222473   0.073   5.185   2.623
 7192SOL     OW22474   2.938   4.807   5.639
 7192SOL    HW122475   2.888   4.769   5.562
 7192SOL    HW222476   2.978   4.734   5.693
 7193SOL     OW22477   4.383   1.406   4.563
 7193SOL    HW122478   4.324   1.336   4.522
 7193SOL    HW222479   4.340   1.443   4.644
 7194SOL     OW22480   3.627   2.635   5.327
 7194SOL    HW122481   3.603   2.687   5.245
 7194SOL    HW222482   3.550   2.634   5.390
 7195SOL     OW22483   6.636   3.867   5.249
 7195SOL    HW122484   6.723   3.899   5.287
 7195SOL    HW222485   6.561   3.900   5.306
 7196SOL     OW22486   2.971   3.763   1.241
 7196SOL    HW122487   2.983   3.822   1.162
 7196SOL    HW222488   2.899   3.696   1.223
 7197SOL     OW22489   3.273   4.778   6.819
 7197SOL    HW122490   3.196   4.765   6.756
 7197SOL    HW222491   3.353   4.810   6.768
 7198SOL     OW22492   1.612   5.958   1.928
 7198SOL    HW122493   1.680   5.946   1.856
 7198SOL    HW222494   1.587   6.054   1.935
 7199SOL     OW22495   6.151   1.060   3.894
 7199SOL    HW122496   6.101   1.020   3.970
 7199SOL    HW222497   6.107   1.034   3.808
 7200SOL     OW22498   0.530   4.480   6.393
 7200SOL    HW122499   0.473   4.480   6.475
 7200SOL    HW222500   0.609   4.419   6.407
 7201SOL     OW22501   5.570   5.818   5.287
 7201SOL    HW122502   5.649   5.802   5.228
 7201SOL    HW222503   5.576   5.909   5.328
 7202SOL     OW22504   3.895   6.594   5.925
 7202SOL    HW122505   3.905   6.495   5.912
 7202SOL    HW222506   3.801   6.614   5.953
 7203SOL     OW22507   1.057   1.810   1.191
 7203SOL    HW122508   1.106   1.729   1.159
 7203SOL    HW222509   0.959   1.791   1.191
 7204SOL     OW22510   5.006   0.572   2.723
 7204SOL    HW122511   5.030   0.669   2.717
 7204SOL    HW222512   4.955   0.545   2.641
 7205SOL     OW22513   3.680   1.286   3.962
 7205SOL    HW122514   3.723   1.317   4.047
 7205SOL    HW222515   3.582   1.271   3.979
 7206SOL     OW22516   1.525   2.557   6.412
 7206SOL    HW122517   1.540   2.490   6.339
 7206SOL    HW222518   1.609   2.610   6.426
 7207SOL     OW22519   1.451   2.334   3.890
 7207SOL    HW122520   1.532   2.376   3.931
 7207SOL    HW222521   1.479   2.257   3.832
 7208SOL     OW22522   3.391   0.488   3.478
 7208SOL    HW122523   3.386   0.453   3.572
 7208SOL    HW222524   3.315   0.452   3.425
 7209SOL     OW22525   4.472   1.455   3.204
 7209SOL    HW122526   4.417   1.499   3.133
 7209SOL    HW222527   4.505   1.367   3.171
 7210SOL     OW22528   3.397   0.990   5.044
 7210SOL    HW122529   3.448   0.927   5.102
 7210SOL    HW222530   3.423   1.084   5.067
 7211SOL     OW22531   5.361   5.973   6.191
 7211SOL    HW122532   5.334   5.930   6.277
 7211SOL    HW222533   5.299   6.049   6.171
 7212SOL     OW22534   6.908   6.344   4.091
 7212SOL    HW122535   6.870   6.433   4.066
 7212SOL    HW222536   6.858   6.271   4.043
 7213SOL     OW22537   6.001   3.036   0.318
 7213SOL    HW122538   6.011   2.940   0.346
 7213SOL    HW222539   5.913   3.049   0.274
 7214SOL     OW22540   5.878   1.112   5.836
 7214SOL    HW122541   5.798   1.162   5.803
 7214SOL    HW222542   5.888   1.027   5.785
 7215SOL     OW22543   6.724   1.427   3.164
 7215SOL    HW122544   6.813   1.397   3.200
 7215SOL    HW222545   6.652   1.405   3.230
 7216SOL     OW22546   5.874   6.379   4.187
 7216SOL    HW122547   5.777   6.388   4.167
 7216SOL    HW222548   5.892   6.288   4.225
 7217SOL     OW22549   1.429   3.344   3.006
 7217SOL    HW122550   1.508   3.301   3.050
 7217SOL    HW222551   1.450   3.439   2.984
 7218SOL     OW22552   6.486   2.668   6.042
 7218SOL    HW122553   6.420   2.732   6.002
 7218SOL    HW222554   6.437   2.604   6.102
 7219SOL     OW22555   2.680   5.582   1.460
 7219SOL    HW122556   2.625   5.511   1.503
 7219SOL    HW222557   2.714   5.645   1.531
 7220SOL     OW22558   0.671   3.901   4.308
 7220SOL    HW122559   0.646   3.970   4.241
 7220SOL    HW222560   0.747   3.934   4.364
 7221SOL     OW22561   5.339   5.068   3.893
 7221SOL    HW122562   5.410   5.103   3.832
 7221SOL    HW222563   5.292   5.144   3.938
 7222SOL     OW22564   6.224   5.243   3.658
 7222SOL    HW122565   6.197   5.290   3.742
 7222SOL    HW222566   6.145   5.233   3.598
 7223SOL     OW22567   5.971   5.256   1.501
 7223SOL    HW122568   5.893   5.319   1.499
 7223SOL    HW222569   5.946   5.175   1.553
 7224SOL     OW22570   6.225   2.703   3.245
 7224SOL    HW122571   6.199   2.788   3.199
 7224SOL    HW222572   6.298   2.658   3.193
 7225SOL     OW22573   1.438   4.962   0.344
 7225SOL    HW122574   1.421   5.041   0.404
 7225SOL    HW222575   1.430   4.991   0.249
 7226SOL     OW22576   6.665   6.593   0.536
 7226SOL    HW122577   6.661   6.605   0.437
 7226SOL    HW222578   6.759   6.609   0.568
 7227SOL     OW22579   1.958   0.142   1.611
 7227SOL    HW122580   1.964   0.149   1.710
 7227SOL    HW222581   1.900   0.216   1.576
 7228SOL     OW22582   6.220   4.160   3.520
 7228SOL    HW122583   6.205   4.100   3.441
 7228SOL    HW222584   6.135   4.207   3.543
 7229SOL     OW22585   5.436   6.335   5.469
 7229SOL    HW122586   5.514   6.296   5.518
 7229SOL    HW222587   5.390   6.402   5.527
 7230SOL     OW22588   3.193   5.118   0.092
 7230SOL    HW122589   3.179   5.020   0.074
 7230SOL    HW222590   3.149   5.142   0.179
 7231SOL     OW22591   3.872   2.409   0.025
 7231SOL    HW122592   3.826   2.473   0.087
 7231SOL    HW222593   3.898   2.458   6.970
 7232SOL     OW22594   4.162   5.234   3.522
 7232SOL    HW122595   4.122   5.311   3.472
 7232SOL    HW222596   4.261   5.238   3.516
 7233SOL     OW22597   0.293   1.539   6.794
 7233SOL    HW122598   0.280   1.573   6.701
 7233SOL    HW222599   0.214   1.565   6.851
 7234SOL     OW22600   5.317   5.989   4.014
 7234SOL    HW122601   5.219   6.008   4.017
 7234SOL    HW222602   5.366   6.075   3.997
 7235SOL     OW22603   0.157   6.904   1.339
 7235SOL    HW122604   0.126   6.948   1.254
 7235SOL    HW222605   0.097   6.931   1.414
 7236SOL     OW22606   0.624   3.843   2.855
 7236SOL    HW122607   0.710   3.890   2.875
 7236SOL    HW222608   0.586   3.806   2.940
 7237SOL     OW22609   4.590   1.437   6.566
 7237SOL    HW122610   4.671   1.487   6.594
 7237SOL    HW222611   4.616   1.347   6.531
 7238SOL     OW22612   4.737   3.047   0.019
 7238SOL    HW122613   4.655   2.993   0.035
 7238SOL    HW222614   4.714   3.144   0.017
 7239SOL     OW22615   6.592   2.489   2.770
 7239SOL    HW122616   6.497   2.519   2.760
 7239SOL    HW222617   6.606   2.453   2.862
 7240SOL     OW22618   0.245   1.972   0.696
 7240SOL    HW122619   0.312   1.942   0.628
 7240SOL    HW222620   0.155   1.933   0.674
 7241SOL     OW22621   2.520   0.238   3.168
 7241SOL    HW122622   2.429   0.256   3.131
 7241SOL    HW222623   2.587   0.296   3.121
 7242SOL     OW22624   6.496   3.417   5.629
 7242SOL    HW122625   6.594   3.430   5.611
 7242SOL    HW222626   6.484   3.341   5.693
 7243SOL     OW22627   7.025   4.230   6.391
 7243SOL    HW122628   0.095   4.237   6.407
 7243SOL    HW222629   6.999   4.133   6.383
 7244SOL     OW22630   0.028   5.762   0.429
 7244SOL    HW122631   6.959   5.740   0.429
 7244SOL    HW222632   0.055   5.794   0.520
 7245SOL     OW22633   1.873   2.305   6.484
 7245SOL    HW122634   1.885   2.305   6.385
 7245SOL    HW222635   1.941   2.365   6.526
 7246SOL     OW22636   4.687   6.904   4.915
 7246SOL    HW122637   4.605   6.900   4.858
 7246SOL    HW222638   4.755   6.840   4.880
 7247SOL     OW22639   3.381   4.226   5.283
 7247SOL    HW122640   3.307   4.290   5.303
 7247SOL    HW222641   3.362   4.139   5.331
 7248SOL     OW22642   2.487   2.585   4.883
 7248SOL    HW122643   2.558   2.530   4.929
 7248SOL    HW222644   2.524   2.675   4.860
 7249SOL     OW22645   3.553   5.751   3.629
 7249SOL    HW122646   3.578   5.767   3.533
 7249SOL    HW222647   3.474   5.807   3.652
 7250SOL     OW22648   4.942   5.000   5.008
 7250SOL    HW122649   5.037   5.031   5.014
 7250SOL    HW222650   4.912   4.969   5.098
 7251SOL     OW22651   6.923   5.829   3.813
 7251SOL    HW122652   6.964   5.790   3.730
 7251SOL    HW222653   6.938   5.767   3.890
 7252SOL     OW22654   3.800   3.753   1.743
 7252SOL    HW122655   3.736   3.687   1.784
 7252SOL    HW222656   3.760   3.845   1.749
 7253SOL     OW22657   1.419   5.094   6.221
 7253SOL    HW122658   1.458   5.025   6.282
 7253SOL    HW222659   1.419   5.060   6.127
 7254SOL     OW22660   0.485   4.042   4.123
 7254SOL    HW122661   0.446   4.124   4.166
 7254SOL    HW222662   0.413   3.994   4.073
 7255SOL     OW22663   5.029   4.214   0.674
 7255SOL    HW122664   4.941   4.242   0.712
 7255SOL    HW222665   5.022   4.212   0.574
 7256SOL     OW22666   3.317   0.107   3.525
 7256SOL    HW122667   3.372   0.182   3.488
 7256SOL    HW222668   3.222   0.118   3.497
 7257SOL     OW22669   1.146   1.371   4.826
 7257SOL    HW122670   1.084   1.411   4.894
 7257SOL    HW222671   1.240   1.378   4.859
 7258SOL     OW22672   0.562   1.599   3.040
 7258SOL    HW122673   0.500   1.525   3.013
 7258SOL    HW222674   0.514   1.662   3.100
 7259SOL     OW22675   1.419   3.643   2.016
 7259SOL    HW122676   1.382   3.706   1.947
 7259SOL    HW222677   1.501   3.682   2.056
 7260SOL     OW22678   5.696   2.621   0.861
 7260SOL    HW122679   5.610   2.636   0.910
 7260SOL    HW222680   5.704   2.689   0.787
 7261SOL     OW22681   0.528   4.628   6.908
 7261SOL    HW122682   0.456   4.563   6.934
 7261SOL    HW222683   0.610   4.578   6.880
 7262SOL     OW22684   2.858   0.291   4.899
 7262SOL    HW122685   2.870   0.201   4.857
 7262SOL    HW222686   2.947   0.335   4.910
 7263SOL     OW22687   6.745   4.894   6.002
 7263SOL    HW122688   6.725   4.892   5.904
 7263SOL    HW222689   6.768   4.987   6.030
 7264SOL     OW22690   4.653   2.249   1.202
 7264SOL    HW122691   4.734   2.248   1.143
 7264SOL    HW222692   4.669   2.310   1.279
 7265SOL     OW22693   3.268   0.024   5.410
 7265SOL    HW122694   3.324   0.018   5.493
 7265SOL    HW222695   3.311   6.999   5.337
 7266SOL     OW22696   6.480   0.855   2.657
 7266SOL    HW122697   6.527   0.811   2.581
 7266SOL    HW222698   6.381   0.855   2.640
 7267SOL     OW22699   6.724   3.532   5.507
 7267SOL    HW122700   6.648   3.596   5.518
 7267SOL    HW222701   6.741   3.517   5.410
 7268SOL     OW22702   5.511   6.025   4.687
 7268SOL    HW122703   5.460   5.951   4.643
 7268SOL    HW222704   5.452   6.105   4.697
 7269SOL     OW22705   2.751   5.647   4.513
 7269SOL    HW122706   2.688   5.610   4.581
 7269SOL    HW222707   2.758   5.584   4.436
 7270SOL     OW22708   6.868   1.947   4.327
 7270SOL    HW122709   6.804   1.959   4.251
 7270SOL    HW222710   6.960   1.975   4.297
 7271SOL     OW22711   0.640   5.525   3.249
 7271SOL    HW122712   0.720   5.523   3.310
 7271SOL    HW222713   0.669   5.553   3.158
 7272SOL     OW22714   6.774   4.041   2.151
 7272SOL    HW122715   6.775   3.948   2.186
 7272SOL    HW222716   6.681   4.065   2.123
 7273SOL     OW22717   0.569   1.725   4.844
 7273SOL    HW122718   0.630   1.801   4.864
 7273SOL    HW222719   0.622   1.640   4.837
 7274SOL     OW22720   6.944   5.451   0.435
 7274SOL    HW122721   0.010   5.447   0.402
 7274SOL    HW222722   6.913   5.546   0.436
 7275SOL     OW22723   6.968   5.716   3.158
 7275SOL    HW122724   6.940   5.783   3.089
 7275SOL    HW222725   7.001   5.764   3.239
 7276SOL     OW22726   4.852   6.339   3.910
 7276SOL    HW122727   4.938   6.294   3.935
 7276SOL    HW222728   4.826   6.314   3.817
 7277SOL     OW22729   5.345   0.996   7.025
 7277SOL    HW122730   5.368   1.009   0.093
 7277SOL    HW222731   5.248   1.018   7.011
 7278SOL     OW22732   3.922   3.004   1.721
 7278SOL    HW122733   3.959   3.075   1.782
 7278SOL    HW222734   3.979   2.998   1.639
 7279SOL     OW22735   3.573   6.361   5.914
 7279SOL    HW122736   3.563   6.334   5.818
 7279SOL    HW222737   3.667   6.345   5.943
 7280SOL     OW22738   4.187   6.603   6.080
 7280SOL    HW122739   4.274   6.623   6.125
 7280SOL    HW222740   4.199   6.610   5.981
 7281SOL     OW22741   5.657   0.966   6.200
 7281SOL    HW122742   5.649   0.953   6.299
 7281SOL    HW222743   5.738   1.022   6.180
 7282SOL     OW22744   5.756   5.860   3.546
 7282SOL    HW122745   5.715   5.774   3.575
 7282SOL    HW222746   5.806   5.846   3.460
 7283SOL     OW22747   2.317   1.553   2.766
 7283SOL    HW122748   2.409   1.529   2.797
 7283SOL    HW222749   2.259   1.472   2.771
 7284SOL     OW22750   1.182   0.891   3.809
 7284SOL    HW122751   1.188   0.911   3.711
 7284SOL    HW222752   1.114   0.820   3.824
 7285SOL     OW22753   6.342   5.097   1.870
 7285SOL    HW122754   6.274   5.024   1.860
 7285SOL    HW222755   6.330   5.142   1.959
 7286SOL     OW22756   1.513   3.464   0.047
 7286SOL    HW122757   1.523   3.468   0.146
 7286SOL    HW222758   1.478   3.374   0.020
 7287SOL     OW22759   6.147   2.093   6.151
 7287SOL    HW122760   6.084   2.041   6.209
 7287SOL    HW222761   6.198   2.030   6.094
 7288SOL     OW22762   2.485   0.811   6.748
 7288SOL    HW122763   2.495   0.882   6.818
 7288SOL    HW222764   2.557   0.743   6.759
 7289SOL     OW22765   4.548   0.896   3.231
 7289SOL    HW122766   4.471   0.876   3.171
 7289SOL    HW222767   4.633   0.895   3.179
 7290SOL     OW22768   2.328   6.239   4.287
 7290SOL    HW122769   2.306   6.173   4.358
 7290SOL    HW222770   2.337   6.330   4.328
 7291SOL     OW22771   4.038   4.406   1.395
 7291SOL    HW122772   3.966   4.460   1.352
 7291SOL    HW222773   4.048   4.435   1.490
 7292SOL     OW22774   4.068   0.112   5.174
 7292SOL    HW122775   4.144   0.155   5.126
 7292SOL    HW222776   4.001   0.182   5.201
 7293SOL     OW22777   2.587   0.991   5.851
 7293SOL    HW122778   2.569   0.965   5.946
 7293SOL    HW222779   2.572   1.089   5.840
 7294SOL     OW22780   6.102   4.797   6.550
 7294SOL    HW122781   6.184   4.855   6.541
 7294SOL    HW222782   6.050   4.824   6.630
 7295SOL     OW22783   3.990   6.465   1.692
 7295SOL    HW122784   3.911   6.433   1.745
 7295SOL    HW222785   3.996   6.565   1.699
 7296SOL     OW22786   4.482   5.903   0.628
 7296SOL    HW122787   4.477   5.806   0.652
 7296SOL    HW222788   4.395   5.947   0.648
 7297SOL     OW22789   4.656   6.921   2.092
 7297SOL    HW122790   4.682   6.985   2.020
 7297SOL    HW222791   4.619   6.971   2.170
 7298SOL     OW22792   5.254   2.471   4.440
 7298SOL    HW122793   5.323   2.478   4.512
 7298SOL    HW222794   5.190   2.548   4.448
 7299SOL     OW22795   5.387   3.443   0.183
 7299SOL    HW122796   5.309   3.496   0.216
 7299SOL    HW222797   5.378   3.348   0.214
 7300SOL     OW22798   3.996   5.043   0.799
 7300SOL    HW122799   3.898   5.057   0.785
 7300SOL    HW222800   4.044   5.059   0.713
 7301SOL     OW22801   6.145   1.605   6.845
 7301SOL    HW122802   6.110   1.626   6.937
 7301SOL    HW222803   6.074   1.625   6.778
 7302SOL     OW22804   0.282   1.616   6.523
 7302SOL    HW122805   0.376   1.618   6.487
 7302SOL    HW222806   0.221   1.665   6.461
 7303SOL     OW22807   5.400   6.836   1.685
 7303SOL    HW122808   5.423   6.934   1.686
 7303SOL    HW222809   5.301   6.825   1.690
 7304SOL     OW22810   4.010   3.724   4.152
 7304SOL    HW122811   3.914   3.701   4.136
 7304SOL    HW222812   4.068   3.671   4.090
 7305SOL     OW22813   5.797   2.809   6.760
 7305SOL    HW122814   5.892   2.779   6.752
 7305SOL    HW222815   5.790   2.905   6.732
 7306SOL     OW22816   4.492   4.760   1.614
 7306SOL    HW122817   4.592   4.755   1.614
 7306SOL    HW222818   4.455   4.687   1.671
 7307SOL     OW22819   3.731   6.918   1.778
 7307SOL    HW122820   3.829   6.925   1.798
 7307SOL    HW222821   3.709   6.972   1.698
 7308SOL     OW22822   5.226   0.266   4.054
 7308SOL    HW122823   5.194   0.174   4.075
 7308SOL    HW222824   5.151   0.331   4.067
 7309SOL     OW22825   4.692   4.421   6.995
 7309SOL    HW122826   4.702   4.322   7.004
 7309SOL    HW222827   4.751   4.454   6.921
 7310SOL     OW22828   1.498   5.529   1.503
 7310SOL    HW122829   1.550   5.603   1.547
 7310SOL    HW222830   1.558   5.450   1.489
 7311SOL     OW22831   3.163   1.946   2.007
 7311SOL    HW122832   3.117   2.017   2.060
 7311SOL    HW222833   3.258   1.937   2.037
 7312SOL     OW22834   0.172   2.641   6.715
 7312SOL    HW122835   0.229   2.576   6.664
 7312SOL    HW222836   0.088   2.597   6.744
 7313SOL     OW22837   4.259   2.707   6.243
 7313SOL    HW122838   4.341   2.656   6.267
 7313SOL    HW222839   4.245   2.782   6.307
 7314SOL     OW22840   0.790   1.587   4.555
 7314SOL    HW122841   0.823   1.502   4.597
 7314SOL    HW222842   0.830   1.665   4.602
 7315SOL     OW22843   6.757   1.193   6.665
 7315SOL    HW122844   6.762   1.246   6.580
 7315SOL    HW222845   6.691   1.119   6.653
 7316SOL     OW22846   3.908   3.643   3.278
 7316SOL    HW122847   3.954   3.681   3.198
 7316SOL    HW222848   3.811   3.630   3.258
 7317SOL     OW22849   3.486   0.886   3.798
 7317SOL    HW122850   3.583   0.883   3.775
 7317SOL    HW222851   3.466   0.816   3.867
 7318SOL     OW22852   2.225   0.298   0.950
 7318SOL    HW122853   2.151   0.346   0.997
 7318SOL    HW222854   2.312   0.345   0.967
 7319SOL     OW22855   0.130   3.930   5.962
 7319SOL    HW122856   0.133   3.850   6.022
 7319SOL    HW222857   0.063   3.995   5.997
 7320SOL     OW22858   0.400   1.116   2.128
 7320SOL    HW122859   0.375   1.129   2.032
 7320SOL    HW222860   0.455   1.193   2.159
 7321SOL     OW22861   4.227   1.474   4.065
 7321SOL    HW122862   4.145   1.531   4.072
 7321SOL    HW222863   4.260   1.474   3.971
 7322SOL     OW22864   0.847   3.017   1.411
 7322SOL    HW122865   0.782   2.966   1.468
 7322SOL    HW222866   0.796   3.077   1.348
 7323SOL     OW22867   2.516   4.512   2.984
 7323SOL    HW122868   2.512   4.458   3.068
 7323SOL    HW222869   2.451   4.587   2.990
 7324SOL     OW22870   4.784   6.237   2.517
 7324SOL    HW122871   4.815   6.157   2.466
 7324SOL    HW222872   4.859   6.304   2.522
 7325SOL     OW22873   3.085   6.607   6.960
 7325SOL    HW122874   3.041   6.518   6.972
 7325SOL    HW222875   3.044   6.673   7.023
 7326SOL     OW22876   2.854   0.971   4.027
 7326SOL    HW122877   2.785   1.034   3.991
 7326SOL    HW222878   2.809   0.888   4.059
 7327SOL     OW22879   1.723   3.153   5.739
 7327SOL    HW122880   1.693   3.082   5.676
 7327SOL    HW222881   1.769   3.226   5.688
 7328SOL     OW22882   2.052   6.657   6.905
 7328SOL    HW122883   1.981   6.723   6.882
 7328SOL    HW222884   2.070   6.598   6.825
 7329SOL     OW22885   5.040   3.915   1.972
 7329SOL    HW122886   4.989   3.995   1.942
 7329SOL    HW222887   5.019   3.837   1.912
 7330SOL     OW22888   3.812   2.775   1.204
 7330SOL    HW122889   3.726   2.821   1.224
 7330SOL    HW222890   3.844   2.727   1.285
 7331SOL     OW22891   6.656   1.320   1.193
 7331SOL    HW122892   6.746   1.277   1.180
 7331SOL    HW222893   6.588   1.274   1.136
 7332SOL     OW22894   4.321   6.949   0.368
 7332SOL    HW122895   4.261   6.891   0.313
 7332SOL    HW222896   4.361   6.896   0.442
 7333SOL     OW22897   0.254   4.579   2.235
 7333SOL    HW122898   0.195   4.634   2.295
 7333SOL    HW222899   0.211   4.571   2.145
 7334SOL     OW22900   2.732   7.008   2.998
 7334SOL    HW122901   2.720   6.920   2.952
 7334SOL    HW222902   2.817   7.007   3.051
 7335SOL     OW22903   1.813   3.497   3.698
 7335SOL    HW122904   1.794   3.411   3.651
 7335SOL    HW222905   1.900   3.535   3.665
 7336SOL     OW22906   0.773   6.249   4.689
 7336SOL    HW122907   0.807   6.229   4.781
 7336SOL    HW222908   0.749   6.164   4.643
 7337SOL     OW22909   4.905   1.509   1.523
 7337SOL    HW122910   4.879   1.413   1.518
 7337SOL    HW222911   4.858   1.560   1.451
 7338SOL     OW22912   0.255   4.053   0.349
 7338SOL    HW122913   0.269   3.954   0.360
 7338SOL    HW222914   0.194   4.086   0.421
 7339SOL     OW22915   1.793   5.101   5.415
 7339SOL    HW122916   1.871   5.044   5.390
 7339SOL    HW222917   1.826   5.183   5.463
 7340SOL     OW22918   3.416   6.917   6.080
 7340SOL    HW122919   3.499   6.905   6.026
 7340SOL    HW222920   3.439   6.923   6.177
 7341SOL     OW22921   6.042   2.223   0.053
 7341SOL    HW122922   5.964   2.286   0.050
 7341SOL    HW222923   6.079   2.221   0.145
 7342SOL     OW22924   0.383   6.015   1.363
 7342SOL    HW122925   0.462   6.033   1.304
 7342SOL    HW222926   0.408   5.947   1.432
 7343SOL     OW22927   6.410   3.161   1.154
 7343SOL    HW122928   6.349   3.083   1.153
 7343SOL    HW222929   6.480   3.148   1.225
 7344SOL     OW22930   2.327   0.879   5.740
 7344SOL    HW122931   2.341   0.890   5.642
 7344SOL    HW222932   2.306   0.969   5.780
 7345SOL     OW22933   3.911   6.193   0.146
 7345SOL    HW122934   3.860   6.110   0.123
 7345SOL    HW222935   3.860   6.273   0.117
 7346SOL     OW22936   4.533   4.895   2.187
 7346SOL    HW122937   4.608   4.862   2.129
 7346SOL    HW222938   4.570   4.949   2.262
 7347SOL     OW22939   4.422   0.551   5.916
 7347SOL    HW122940   4.508   0.501   5.910
 7347SOL    HW222941   4.392   0.556   6.011
 7348SOL     OW22942   0.662   6.100   0.072
 7348SOL    HW122943   0.622   6.099   7.008
 7348SOL    HW222944   0.608   6.040   0.132
 7349SOL     OW22945   4.655   1.113   1.080
 7349SOL    HW122946   4.602   1.042   1.033
 7349SOL    HW222947   4.707   1.166   1.012
 7350SOL     OW22948   3.774   1.268   5.516
 7350SOL    HW122949   3.772   1.186   5.573
 7350SOL    HW222950   3.691   1.270   5.460
 7351SOL     OW22951   2.365   5.163   4.945
 7351SOL    HW122952   2.410   5.112   5.019
 7351SOL    HW222953   2.433   5.214   4.893
 7352SOL     OW22954   6.054   2.365   4.446
 7352SOL    HW122955   5.974   2.374   4.386
 7352SOL    HW222956   6.099   2.278   4.427
 7353SOL     OW22957   0.152   2.044   6.069
 7353SOL    HW122958   0.165   1.947   6.088
 7353SOL    HW222959   0.124   2.056   5.974
 7354SOL     OW22960   0.872   2.150   2.986
 7354SOL    HW122961   0.896   2.115   3.076
 7354SOL    HW222962   0.914   2.240   2.972
 7355SOL     OW22963   4.239   1.724   0.791
 7355SOL    HW122964   4.177   1.714   0.712
 7355SOL    HW222965   4.243   1.638   0.842
 7356SOL     OW22966   3.713   4.408   5.667
 7356SOL    HW122967   3.693   4.323   5.619
 7356SOL    HW222968   3.798   4.447   5.632
 7357SOL     OW22969   4.420   7.023   1.902
 7357SOL    HW122970   4.386   6.929   1.908
 7357SOL    HW222971   4.351   0.053   1.859
 7358SOL     OW22972   4.161   0.081   2.574
 7358SOL    HW122973   4.117   0.066   2.663
 7358SOL    HW222974   4.206   7.025   2.545
 7359SOL     OW22975   3.197   6.682   2.680
 7359SOL    HW122976   3.144   6.656   2.760
 7359SOL    HW222977   3.151   6.651   2.597
 7360SOL     OW22978   3.037   4.349   6.220
 7360SOL    HW122979   3.057   4.257   6.256
 7360SOL    HW222980   2.965   4.342   6.151
 7361SOL     OW22981   6.559   0.875   3.770
 7361SOL    HW122982   6.548   0.776   3.779
 7361SOL    HW222983   6.623   0.908   3.839
 7362SOL     OW22984   3.227   5.821   0.515
 7362SOL    HW122985   3.151   5.798   0.454
 7362SOL    HW222986   3.270   5.736   0.548
 7363SOL     OW22987   4.445   1.186   1.392
 7363SOL    HW122988   4.356   1.155   1.358
 7363SOL    HW222989   4.474   1.266   1.340
 7364SOL     OW22990   5.522   5.851   1.631
 7364SOL    HW122991   5.507   5.752   1.631
 7364SOL    HW222992   5.585   5.876   1.704
 7365SOL     OW22993   4.918   3.373   2.269
 7365SOL    HW122994   4.981   3.327   2.207
 7365SOL    HW222995   4.830   3.385   2.225
 7366SOL     OW22996   2.654   5.937   3.589
 7366SOL    HW122997   2.648   5.843   3.623
 7366SOL    HW222998   2.631   5.939   3.492
 7367SOL     OW22999   4.724   1.328   0.823
 7367SOL    HW123000   4.775   1.411   0.846
 7367SOL    HW223001   4.788   1.256   0.794
 7368SOL     OW23002   2.947   3.865   2.553
 7368SOL    HW123003   2.912   3.819   2.634
 7368SOL    HW223004   2.877   3.925   2.515
 7369SOL     OW23005   5.065   3.744   6.721
 7369SOL    HW123006   5.051   3.783   6.812
 7369SOL    HW223007   5.083   3.818   6.656
 7370SOL     OW23008   2.517   0.158   4.070
 7370SOL    HW123009   2.608   0.179   4.105
 7370SOL    HW223010   2.451   0.226   4.103
 7371SOL     OW23011   3.865   0.470   3.255
 7371SOL    HW123012   3.802   0.428   3.189
 7371SOL    HW223013   3.837   0.564   3.272
 7372SOL     OW23014   4.304   1.843   5.189
 7372SOL    HW123015   4.368   1.845   5.113
 7372SOL    HW223016   4.222   1.792   5.162
 7373SOL     OW23017   6.675   2.900   4.415
 7373SOL    HW123018   6.634   2.978   4.461
 7373SOL    HW223019   6.646   2.899   4.319
 7374SOL     OW23020   6.911   3.345   6.420
 7374SOL    HW123021   7.003   3.334   6.459
 7374SOL    HW223022   6.915   3.334   6.321
 7375SOL     OW23023   2.865   1.576   1.498
 7375SOL    HW123024   2.862   1.553   1.596
 7375SOL    HW223025   2.775   1.609   1.469
 7376SOL     OW23026   6.492   5.254   0.412
 7376SOL    HW123027   6.409   5.197   0.411
 7376SOL    HW223028   6.564   5.209   0.360
 7377SOL     OW23029   2.879   5.679   0.637
 7377SOL    HW123030   2.825   5.748   0.686
 7377SOL    HW223031   2.850   5.588   0.666
 7378SOL     OW23032   2.388   4.925   5.364
 7378SOL    HW123033   2.472   4.913   5.417
 7378SOL    HW223034   2.313   4.878   5.411
 7379SOL     OW23035   5.312   2.318   2.929
 7379SOL    HW123036   5.336   2.240   2.986
 7379SOL    HW223037   5.306   2.289   2.833
 7380SOL     OW23038   5.296   3.422   1.639
 7380SOL    HW123039   5.346   3.340   1.609
 7380SOL    HW223040   5.320   3.499   1.580
 7381SOL     OW23041   3.958   0.476   1.237
 7381SOL    HW123042   4.042   0.488   1.183
 7381SOL    HW223043   3.894   0.418   1.187
 7382SOL     OW23044   0.560   2.673   0.276
 7382SOL    HW123045   0.656   2.702   0.277
 7382SOL    HW223046   0.555   2.577   0.303
 7383SOL     OW23047   2.299   6.770   0.837
 7383SOL    HW123048   2.329   6.683   0.875
 7383SOL    HW223049   2.208   6.793   0.873
 7384SOL     OW23050   0.030   0.638   6.503
 7384SOL    HW123051   6.963   0.627   6.477
 7384SOL    HW223052   0.076   0.698   6.438
 7385SOL     OW23053   6.598   4.297   2.825
 7385SOL    HW123054   6.552   4.349   2.896
 7385SOL    HW223055   6.622   4.358   2.749
 7386SOL     OW23056   5.905   4.155   0.994
 7386SOL    HW123057   5.940   4.078   1.046
 7386SOL    HW223058   5.863   4.222   1.056
 7387SOL     OW23059   0.237   5.713   4.012
 7387SOL    HW123060   0.204   5.807   4.001
 7387SOL    HW223061   0.333   5.708   3.986
 7388SOL     OW23062   2.229   4.534   3.073
 7388SOL    HW123063   2.290   4.471   3.121
 7388SOL    HW223064   2.163   4.572   3.138
 7389SOL     OW23065   0.438   2.716   1.021
 7389SOL    HW123066   0.339   2.710   1.033
 7389SOL    HW223067   0.484   2.665   1.094
 7390SOL     OW23068   4.466   2.343   4.513
 7390SOL    HW123069   4.484   2.254   4.554
 7390SOL    HW223070   4.494   2.415   4.576
 7391SOL     OW23071   3.150   4.099   2.004
 7391SOL    HW123072   3.235   4.051   1.981
 7391SOL    HW223073   3.102   4.050   2.077
 7392SOL     OW23074   3.520   6.540   0.540
 7392SOL    HW123075   3.604   6.583   0.506
 7392SOL    HW223076   3.471   6.498   0.464
 7393SOL     OW23077   4.176   5.606   3.480
 7393SOL    HW123078   4.177   5.698   3.518
 7393SOL    HW223079   4.267   5.565   3.486
 7394SOL     OW23080   1.490   1.659   0.078
 7394SOL    HW123081   1.457   1.574   0.118
 7394SOL    HW223082   1.508   1.725   0.151
 7395SOL     OW23083   3.193   5.568   0.633
 7395SOL    HW123084   3.117   5.603   0.687
 7395SOL    HW223085   3.238   5.493   0.681
 7396SOL     OW23086   1.039   4.519   2.298
 7396SOL    HW123087   1.005   4.474   2.381
 7396SOL    HW223088   1.118   4.468   2.263
 7397SOL     OW23089   6.283   5.140   5.193
 7397SOL    HW123090   6.342   5.119   5.271
 7397SOL    HW223091   6.336   5.185   5.121
 7398SOL     OW23092   2.749   5.476   1.864
 7398SOL    HW123093   2.689   5.399   1.845
 7398SOL    HW223094   2.837   5.463   1.818
 7399SOL     OW23095   6.696   2.073   6.265
 7399SOL    HW123096   6.615   2.081   6.324
 7399SOL    HW223097   6.677   2.013   6.188
 7400SOL     OW23098   4.172   3.395   5.681
 7400SOL    HW123099   4.124   3.317   5.723
 7400SOL    HW223100   4.105   3.454   5.636
 7401SOL     OW23101   3.080   2.134   4.793
 7401SOL    HW123102   3.078   2.061   4.861
 7401SOL    HW223103   3.149   2.202   4.819
 7402SOL     OW23104   4.252   5.065   4.724
 7402SOL    HW123105   4.277   5.152   4.681
 7402SOL    HW223106   4.326   5.035   4.783
 7403SOL     OW23107   2.455   5.033   4.091
 7403SOL    HW123108   2.519   4.997   4.023
 7403SOL    HW223109   2.387   4.964   4.112
 7404SOL     OW23110   1.936   3.033   1.160
 7404SOL    HW123111   1.915   3.083   1.075
 7404SOL    HW223112   1.974   3.097   1.227
 7405SOL     OW23113   3.002   0.002   5.343
 7405SOL    HW123114   3.101   0.004   5.358
 7405SOL    HW223115   2.981   6.958   5.276
 7406SOL     OW23116   0.846   2.784   4.494
 7406SOL    HW123117   0.832   2.871   4.541
 7406SOL    HW223118   0.770   2.722   4.514
 7407SOL     OW23119   1.083   6.192   4.112
 7407SOL    HW123120   1.134   6.259   4.166
 7407SOL    HW223121   1.101   6.100   4.148
 7408SOL     OW23122   4.049   4.982   5.342
 7408SOL    HW123123   4.020   4.955   5.433
 7408SOL    HW223124   4.149   4.992   5.341
 7409SOL     OW23125   5.698   4.834   1.351
 7409SOL    HW123126   5.686   4.887   1.267
 7409SOL    HW223127   5.796   4.828   1.373
 7410SOL     OW23128   6.183   0.873   0.128
 7410SOL    HW123129   6.157   0.951   0.184
 7410SOL    HW223130   6.166   0.893   0.031
 7411SOL     OW23131   3.766   1.953   5.611
 7411SOL    HW123132   3.693   1.904   5.659
 7411SOL    HW223133   3.810   2.018   5.674
 7412SOL     OW23134   4.677   6.910   6.825
 7412SOL    HW123135   4.580   6.895   6.809
 7412SOL    HW223136   4.690   6.955   6.914
 7413SOL     OW23137   4.896   1.176   3.860
 7413SOL    HW123138   4.895   1.256   3.919
 7413SOL    HW223139   4.898   1.205   3.764
 7414SOL     OW23140   3.279   0.832   4.848
 7414SOL    HW123141   3.335   0.801   4.772
 7414SOL    HW223142   3.337   0.877   4.916
 7415SOL     OW23143   4.037   1.029   5.579
 7415SOL    HW123144   4.091   1.085   5.642
 7415SOL    HW223145   3.948   1.009   5.620
 7416SOL     OW23146   6.923   0.864   2.189
 7416SOL    HW123147   7.000   0.904   2.140
 7416SOL    HW223148   6.949   0.847   2.284
 7417SOL     OW23149   6.622   0.827   1.414
 7417SOL    HW123150   6.667   0.879   1.486
 7417SOL    HW223151   6.589   0.889   1.343
 7418SOL     OW23152   2.363   3.699   6.175
 7418SOL    HW123153   2.404   3.722   6.087
 7418SOL    HW223154   2.408   3.619   6.213
 7419SOL     OW23155   6.952   2.548   4.664
 7419SOL    HW123156   6.918   2.454   4.651
 7419SOL    HW223157   6.876   2.607   4.693
 7420SOL     OW23158   6.520   6.889   7.014
 7420SOL    HW123159   6.538   6.929   6.924
 7420SOL    HW223160   6.607   6.877   0.035
 7421SOL     OW23161   0.178   4.336   1.232
 7421SOL    HW123162   0.127   4.333   1.146
 7421SOL    HW223163   0.113   4.331   1.308
 7422SOL     OW23164   6.771   2.941   1.664
 7422SOL    HW123165   6.855   2.919   1.714
 7422SOL    HW223166   6.748   2.864   1.603
 7423SOL     OW23167   3.932   2.540   5.988
 7423SOL    HW123168   3.845   2.500   6.017
 7423SOL    HW223169   3.988   2.470   5.944
 7424SOL     OW23170   1.133   1.608   4.362
 7424SOL    HW123171   1.063   1.658   4.311
 7424SOL    HW223172   1.223   1.647   4.343
 7425SOL     OW23173   5.666   0.738   0.601
 7425SOL    HW123174   5.714   0.701   0.522
 7425SOL    HW223175   5.709   0.824   0.629
 7426SOL     OW23176   3.677   3.746   5.519
 7426SOL    HW123177   3.696   3.795   5.433
 7426SOL    HW223178   3.742   3.671   5.529
 7427SOL     OW23179   2.892   0.649   1.195
 7427SOL    HW123180   2.910   0.597   1.279
 7427SOL    HW223181   2.794   0.666   1.188
 7428SOL     OW23182   1.032   0.022   5.189
 7428SOL    HW123183   1.068   6.959   5.166
 7428SOL    HW223184   1.108   0.087   5.196
 7429SOL     OW23185   0.174   0.289   2.215
 7429SOL    HW123186   0.257   0.317   2.263
 7429SOL    HW223187   0.192   0.206   2.163
 7430SOL     OW23188   6.485   3.321   2.597
 7430SOL    HW123189   6.401   3.362   2.633
 7430SOL    HW223190   6.564   3.359   2.645
 7431SOL     OW23191   1.026   2.614   4.599
 7431SOL    HW123192   1.088   2.680   4.641
 7431SOL    HW223193   0.940   2.659   4.577
 7432SOL     OW23194   1.252   1.345   2.545
 7432SOL    HW123195   1.282   1.440   2.542
 7432SOL    HW223196   1.237   1.311   2.452
 7433SOL     OW23197   4.097   0.028   5.806
 7433SOL    HW123198   4.175   7.004   5.769
 7433SOL    HW223199   4.126   0.120   5.830
 7434SOL     OW23200   3.765   6.740   2.973
 7434SOL    HW123201   3.683   6.783   2.937
 7434SOL    HW223202   3.832   6.810   2.999
 7435SOL     OW23203   4.422   4.633   3.283
 7435SOL    HW123204   4.348   4.675   3.232
 7435SOL    HW223205   4.508   4.680   3.263
 7436SOL     OW23206   4.538   2.929   6.357
 7436SOL    HW123207   4.602   2.857   6.382
 7436SOL    HW223208   4.454   2.920   6.410
 7437SOL     OW23209   4.003   0.421   1.541
 7437SOL    HW123210   3.977   0.449   1.449
 7437SOL    HW223211   3.930   0.365   1.581
 7438SOL     OW23212   1.447   0.853   6.335
 7438SOL    HW123213   1.493   0.884   6.418
 7438SOL    HW223214   1.499   0.779   6.293
 7439SOL     OW23215   1.480   4.539   5.725
 7439SOL    HW123216   1.384   4.570   5.725
 7439SOL    HW223217   1.520   4.554   5.815
 7440SOL     OW23218   6.428   2.295   4.917
 7440SOL    HW123219   6.361   2.253   4.855
 7440SOL    HW223220   6.382   2.319   5.003
 7441SOL     OW23221   5.207   6.609   0.569
 7441SOL    HW123222   5.196   6.608   0.470
 7441SOL    HW223223   5.192   6.702   0.603
 7442SOL     OW23224   0.183   1.173   6.245
 7442SOL    HW123225   0.136   1.261   6.256
 7442SOL    HW223226   0.272   1.177   6.291
 7443SOL     OW23227   0.276   6.541   0.356
 7443SOL    HW123228   0.345   6.563   0.286
 7443SOL    HW223229   0.286   6.602   0.434
 7444SOL     OW23230   1.074   6.474   6.559
 7444SOL    HW123231   1.024   6.397   6.521
 7444SOL    HW223232   1.018   6.520   6.628
 7445SOL     OW23233   3.892   5.793   2.008
 7445SOL    HW123234   3.914   5.772   1.913
 7445SOL    HW223235   3.897   5.892   2.022
 7446SOL     OW23236   6.106   4.863   0.438
 7446SOL    HW123237   6.041   4.791   0.416
 7446SOL    HW223238   6.059   4.936   0.488
 7447SOL     OW23239   0.049   5.647   0.813
 7447SOL    HW123240   0.103   5.667   0.895
 7447SOL    HW223241   6.987   5.612   0.841
 7448SOL     OW23242   4.924   5.218   6.958
 7448SOL    HW123243   4.929   5.125   6.994
 7448SOL    HW223244   4.927   5.214   6.858
 7449SOL     OW23245   6.497   3.529   6.124
 7449SOL    HW123246   6.536   3.619   6.145
 7449SOL    HW223247   6.422   3.509   6.187
 7450SOL     OW23248   5.093   3.552   0.210
 7450SOL    HW123249   5.040   3.484   0.160
 7450SOL    HW223250   5.131   3.619   0.146
 7451SOL     OW23251   4.492   5.562   2.938
 7451SOL    HW123252   4.500   5.660   2.953
 7451SOL    HW223253   4.560   5.532   2.871
 7452SOL     OW23254   6.832   6.206   7.011
 7452SOL    HW123255   6.801   6.300   7.027
 7452SOL    HW223256   6.828   6.187   6.913
 7453SOL     OW23257   4.327   4.466   6.291
 7453SOL    HW123258   4.309   4.540   6.356
 7453SOL    HW223259   4.386   4.500   6.218
 7454SOL     OW23260   4.198   1.909   1.168
 7454SOL    HW123261   4.175   1.995   1.214
 7454SOL    HW223262   4.261   1.927   1.093
 7455SOL     OW23263   6.057   0.748   2.759
 7455SOL    HW123264   5.977   0.763   2.702
 7455SOL    HW223265   6.069   0.650   2.773
 7456SOL     OW23266   2.824   0.660   5.060
 7456SOL    HW123267   2.741   0.647   5.113
 7456SOL    HW223268   2.803   0.714   4.978
 7457SOL     OW23269   1.474   2.097   2.601
 7457SOL    HW123270   1.491   2.107   2.700
 7457SOL    HW223271   1.543   2.036   2.562
 7458SOL     OW23272   0.078   6.045   4.859
 7458SOL    HW123273   0.024   5.970   4.822
 7458SOL    HW223274   0.027   6.092   4.930
 7459SOL     OW23275   5.309   6.585   2.861
 7459SOL    HW123276   5.341   6.646   2.933
 7459SOL    HW223277   5.386   6.561   2.801
 7460SOL     OW23278   0.427   0.738   1.489
 7460SOL    HW123279   0.436   0.818   1.548
 7460SOL    HW223280   0.508   0.731   1.430
 7461SOL     OW23281   1.562   4.535   5.981
 7461SOL    HW123282   1.637   4.590   5.945
 7461SOL    HW223283   1.598   4.456   6.030
 7462SOL     OW23284   2.269   4.488   7.004
 7462SOL    HW123285   2.242   4.556   6.936
 7462SOL    HW223286   2.212   4.406   6.995
 7463SOL     OW23287   4.654   4.540   0.682
 7463SOL    HW123288   4.702   4.615   0.637
 7463SOL    HW223289   4.602   4.575   0.760
 7464SOL     OW23290   5.477   5.561   5.359
 7464SOL    HW123291   5.451   5.498   5.286
 7464SOL    HW223292   5.489   5.653   5.320
 7465SOL     OW23293   1.282   3.415   6.897
 7465SOL    HW123294   1.244   3.331   6.937
 7465SOL    HW223295   1.379   3.421   6.920
 7466SOL     OW23296   0.764   0.545   5.681
 7466SOL    HW123297   0.853   0.567   5.720
 7466SOL    HW223298   0.702   0.622   5.693
 7467SOL     OW23299   1.381   4.196   4.030
 7467SOL    HW123300   1.308   4.149   4.079
 7467SOL    HW223301   1.449   4.130   3.998
 7468SOL     OW23302   6.136   2.689   4.418
 7468SOL    HW123303   6.107   2.782   4.394
 7468SOL    HW223304   6.061   2.626   4.405
 7469SOL     OW23305   6.935   1.830   6.956
 7469SOL    HW123306   6.957   1.908   7.015
 7469SOL    HW223307   6.849   1.789   6.986
 7470SOL     OW23308   4.912   3.255   3.865
 7470SOL    HW123309   4.967   3.337   3.849
 7470SOL    HW223310   4.826   3.280   3.911
 7471SOL     OW23311   3.216   0.546   6.168
 7471SOL    HW123312   3.158   0.520   6.245
 7471SOL    HW223313   3.204   0.480   6.094
 7472SOL     OW23314   0.260   0.613   5.161
 7472SOL    HW123315   0.211   0.526   5.156
 7472SOL    HW223316   0.356   0.599   5.137
 7473SOL     OW23317   5.110   0.295   3.770
 7473SOL    HW123318   5.053   0.377   3.765
 7473SOL    HW223319   5.170   0.301   3.851
 7474SOL     OW23320   6.145   2.146   2.317
 7474SOL    HW123321   6.050   2.173   2.332
 7474SOL    HW223322   6.198   2.162   2.401
 7475SOL     OW23323   5.385   3.174   1.019
 7475SOL    HW123324   5.288   3.163   0.996
 7475SOL    HW223325   5.414   3.098   1.077
 7476SOL     OW23326   2.516   1.201   2.115
 7476SOL    HW123327   2.585   1.162   2.054
 7476SOL    HW223328   2.475   1.281   2.072
 7477SOL     OW23329   2.111   3.310   5.816
 7477SOL    HW123330   2.027   3.352   5.781
 7477SOL    HW223331   2.190   3.358   5.777
 7478SOL     OW23332   0.888   2.932   6.911
 7478SOL    HW123333   0.812   2.869   6.919
 7478SOL    HW223334   0.879   3.006   6.978
 7479SOL     OW23335   4.731   2.522   2.145
 7479SOL    HW123336   4.735   2.622   2.135
 7479SOL    HW223337   4.819   2.483   2.119
 7480SOL     OW23338   3.807   6.384   1.882
 7480SOL    HW123339   3.738   6.448   1.848
 7480SOL    HW223340   3.769   6.332   1.958
 7481SOL     OW23341   0.688   4.368   6.719
 7481SOL    HW123342   0.711   4.297   6.785
 7481SOL    HW223343   0.746   4.448   6.733
 7482SOL     OW23344   3.958   1.472   4.567
 7482SOL    HW123345   3.990   1.447   4.476
 7482SOL    HW223346   3.917   1.563   4.564
 7483SOL     OW23347   6.354   1.241   5.171
 7483SOL    HW123348   6.420   1.282   5.235
 7483SOL    HW223349   6.369   1.142   5.169
 7484SOL     OW23350   2.311   0.085   5.250
 7484SOL    HW123351   2.270   0.068   5.160
 7484SOL    HW223352   2.331   0.183   5.258
 7485SOL     OW23353   3.774   7.021   6.948
 7485SOL    HW123354   3.740   0.063   7.010
 7485SOL    HW223355   3.812   0.037   6.866
 7486SOL     OW23356   3.958   6.288   1.317
 7486SOL    HW123357   4.038   6.272   1.259
 7486SOL    HW223358   3.914   6.201   1.339
 7487SOL     OW23359   3.545   6.242   4.628
 7487SOL    HW123360   3.635   6.265   4.667
 7487SOL    HW223361   3.507   6.323   4.583
 7488SOL     OW23362   2.266   5.863   3.319
 7488SOL    HW123363   2.295   5.854   3.224
 7488SOL    HW223364   2.226   5.777   3.350
 7489SOL     OW23365   5.264   4.057   6.032
 7489SOL    HW123366   5.283   4.086   5.938
 7489SOL    HW223367   5.210   3.973   6.030
 7490SOL     OW23368   2.125   2.040   1.578
 7490SOL    HW123369   2.039   2.058   1.531
 7490SOL    HW223370   2.172   2.126   1.597
 7491SOL     OW23371   4.059   4.247   5.590
 7491SOL    HW123372   4.033   4.286   5.502
 7491SOL    HW223373   4.136   4.185   5.578
 7492SOL     OW23374   1.388   1.714   3.076
 7492SOL    HW123375   1.427   1.635   3.029
 7492SOL    HW223376   1.347   1.776   3.009
 7493SOL     OW23377   5.713   4.308   4.926
 7493SOL    HW123378   5.684   4.233   4.867
 7493SOL    HW223379   5.782   4.362   4.878
 7494SOL     OW23380   5.604   1.720   2.340
 7494SOL    HW123381   5.596   1.737   2.242
 7494SOL    HW223382   5.700   1.705   2.363
 7495SOL     OW23383   1.522   3.562   4.353
 7495SOL    HW123384   1.513   3.656   4.320
 7495SOL    HW223385   1.539   3.563   4.451
 7496SOL     OW23386   6.164   3.216   3.555
 7496SOL    HW123387   6.198   3.282   3.623
 7496SOL    HW223388   6.123   3.266   3.478
 7497SOL     OW23389   5.909   0.648   0.933
 7497SOL    HW123390   5.960   0.707   0.870
 7497SOL    HW223391   5.963   0.632   1.015
 7498SOL     OW23392   2.264   6.121   2.706
 7498SOL    HW123393   2.262   6.139   2.607
 7498SOL    HW223394   2.172   6.098   2.737
 7499SOL     OW23395   3.128   1.122   2.679
 7499SOL    HW123396   3.133   1.030   2.718
 7499SOL    HW223397   3.167   1.121   2.587
 7500SOL     OW23398   3.703   1.403   5.102
 7500SOL    HW123399   3.637   1.328   5.105
 7500SOL    HW223400   3.655   1.491   5.105
 7501SOL     OW23401   5.821   1.713   5.307
 7501SOL    HW123402   5.765   1.782   5.261
 7501SOL    HW223403   5.897   1.686   5.248
 7502SOL     OW23404   3.681   1.000   4.522
 7502SOL    HW123405   3.697   0.963   4.430
 7502SOL    HW223406   3.605   1.065   4.518
 7503SOL     OW23407   1.082   5.613   0.817
 7503SOL    HW123408   1.109   5.694   0.870
 7503SOL    HW223409   1.116   5.531   0.862
 7504SOL     OW23410   6.041   5.915   5.211
 7504SOL    HW123411   6.005   5.908   5.305
 7504SOL    HW223412   6.005   5.997   5.168
 7505SOL     OW23413   0.660   6.707   6.673
 7505SOL    HW123414   0.668   6.769   6.595
 7505SOL    HW223415   0.580   6.733   6.728
 7506SOL     OW23416   3.804   2.072   4.278
 7506SOL    HW123417   3.845   2.136   4.343
 7506SOL    HW223418   3.777   1.989   4.325
 7507SOL     OW23419   6.493   3.746   5.734
 7507SOL    HW123420   6.590   3.771   5.734
 7507SOL    HW223421   6.451   3.777   5.649
 7508SOL     OW23422   4.120   6.249   0.295
 7508SOL    HW123423   4.045   6.232   0.231
 7508SOL    HW223424   4.094   6.217   0.386
 7509SOL     OW23425   5.604   4.385   3.307
 7509SOL    HW123426   5.684   4.436   3.338
 7509SOL    HW223427   5.578   4.318   3.376
 7510SOL     OW23428   3.743   4.516   1.392
 7510SOL    HW123429   3.742   4.417   1.375
 7510SOL    HW223430   3.650   4.553   1.382
 7511SOL     OW23431   4.379   5.982   4.712
 7511SOL    HW123432   4.362   5.980   4.613
 7511SOL    HW223433   4.477   5.968   4.728
 7512SOL     OW23434   3.681   5.446   0.896
 7512SOL    HW123435   3.658   5.440   0.799
 7512SOL    HW223436   3.618   5.508   0.942
 7513SOL     OW23437   6.974   0.972   2.517
 7513SOL    HW123438   0.011   1.047   2.525
 7513SOL    HW223439   6.880   1.007   2.527
 7514SOL     OW23440   0.374   0.411   0.265
 7514SOL    HW123441   0.305   0.346   0.234
 7514SOL    HW223442   0.434   0.436   0.189
 7515SOL     OW23443   6.928   5.563   4.649
 7515SOL    HW123444   6.919   5.658   4.679
 7515SOL    HW223445   6.959   5.507   4.725
 7516SOL     OW23446   2.119   6.074   4.085
 7516SOL    HW123447   2.141   6.052   3.990
 7516SOL    HW223448   2.202   6.068   4.140
 7517SOL     OW23449   0.449   2.817   0.552
 7517SOL    HW123450   0.459   2.803   0.454
 7517SOL    HW223451   0.463   2.914   0.574
 7518SOL     OW23452   4.201   2.200   4.881
 7518SOL    HW123453   4.174   2.224   4.787
 7518SOL    HW223454   4.210   2.283   4.935
 7519SOL     OW23455   3.174   6.967   4.740
 7519SOL    HW123456   3.116   6.915   4.678
 7519SOL    HW223457   3.222   6.905   4.802
 7520SOL     OW23458   1.509   0.449   0.990
 7520SOL    HW123459   1.479   0.402   0.907
 7520SOL    HW223460   1.593   0.501   0.971
 7521SOL     OW23461   4.638   1.586   5.581
 7521SOL    HW123462   4.650   1.625   5.490
 7521SOL    HW223463   4.727   1.577   5.626
 7522SOL     OW23464   1.347   6.616   4.203
 7522SOL    HW123465   1.273   6.683   4.200
 7522SOL    HW223466   1.311   6.526   4.227
 7523SOL     OW23467   5.143   1.628   6.937
 7523SOL    HW123468   5.166   1.624   0.006
 7523SOL    HW223469   5.095   1.713   6.917
 7524SOL     OW23470   6.971   4.127   4.909
 7524SOL    HW123471   6.958   4.170   4.998
 7524SOL    HW223472   6.882   4.111   4.866
 7525SOL     OW23473   2.549   4.563   5.913
 7525SOL    HW123474   2.642   4.592   5.934
 7525SOL    HW223475   2.487   4.600   5.982
 7526SOL     OW23476   0.858   3.703   1.170
 7526SOL    HW123477   0.918   3.694   1.248
 7526SOL    HW223478   0.841   3.800   1.151
 7527SOL     OW23479   2.797   5.221   2.645
 7527SOL    HW123480   2.743   5.303   2.627
 7527SOL    HW223481   2.885   5.247   2.686
 7528SOL     OW23482   6.684   2.835   0.089
 7528SOL    HW123483   6.724   2.792   0.170
 7528SOL    HW223484   6.758   2.857   0.024
 7529SOL     OW23485   5.771   2.547   4.812
 7529SOL    HW123486   5.714   2.469   4.788
 7529SOL    HW223487   5.741   2.627   4.759
 7530SOL     OW23488   1.890   2.600   3.550
 7530SOL    HW123489   1.854   2.579   3.459
 7530SOL    HW223490   1.824   2.571   3.620
 7531SOL     OW23491   4.472   1.636   4.144
 7531SOL    HW123492   4.424   1.687   4.072
 7531SOL    HW223493   4.411   1.624   4.222
 7532SOL     OW23494   4.230   4.356   5.872
 7532SOL    HW123495   4.183   4.276   5.835
 7532SOL    HW223496   4.220   4.357   5.972
 7533SOL     OW23497   4.425   4.521   0.491
 7533SOL    HW123498   4.391   4.428   0.504
 7533SOL    HW223499   4.487   4.545   0.566
 7534SOL     OW23500   4.336   6.202   4.965
 7534SOL    HW123501   4.274   6.189   4.887
 7534SOL    HW223502   4.284   6.205   5.050
 7535SOL     OW23503   0.060   6.917   5.099
 7535SOL    HW123504   0.035   6.847   5.167
 7535SOL    HW223505   7.008   6.941   5.045
 7536SOL     OW23506   5.670   6.931   3.092
 7536SOL    HW123507   5.666   6.932   2.992
 7536SOL    HW223508   5.704   7.019   3.126
 7537SOL     OW23509   2.586   6.624   1.761
 7537SOL    HW123510   2.537   6.542   1.789
 7537SOL    HW223511   2.576   6.636   1.662
 7538SOL     OW23512   1.349   4.942   6.841
 7538SOL    HW123513   1.339   4.896   6.929
 7538SOL    HW223514   1.355   4.874   6.768
 7539SOL     OW23515   6.472   0.009   5.070
 7539SOL    HW123516   6.418   0.065   5.008
 7539SOL    HW223517   6.519   6.965   5.018
 7540SOL     OW23518   4.939   4.130   3.686
 7540SOL    HW123519   4.874   4.188   3.735
 7540SOL    HW223520   5.011   4.188   3.647
 7541SOL     OW23521   1.858   4.034   0.025
 7541SOL    HW123522   1.932   3.967   0.021
 7541SOL    HW223523   1.770   3.986   0.016
 7542SOL     OW23524   6.042   6.423   4.866
 7542SOL    HW123525   6.138   6.426   4.839
 7542SOL    HW223526   6.031   6.469   4.955
 7543SOL     OW23527   2.118   0.374   6.873
 7543SOL    HW123528   2.216   0.352   6.879
 7543SOL    HW223529   2.106   0.473   6.875
 7544SOL     OW23530   6.436   2.231   6.083
 7544SOL    HW123531   6.411   2.317   6.127
 7544SOL    HW223532   6.418   2.154   6.145
 7545SOL     OW23533   1.105   6.050   4.767
 7545SOL    HW123534   1.102   5.960   4.724
 7545SOL    HW223535   1.136   6.041   4.862
 7546SOL     OW23536   2.308   3.259   1.688
 7546SOL    HW123537   2.337   3.325   1.758
 7546SOL    HW223538   2.389   3.214   1.650
 7547SOL     OW23539   4.036   0.797   2.237
 7547SOL    HW123540   3.951   0.759   2.275
 7547SOL    HW223541   4.019   0.829   2.144
 7548SOL     OW23542   2.670   2.250   6.385
 7548SOL    HW123543   2.607   2.289   6.318
 7548SOL    HW223544   2.729   2.183   6.340
 7549SOL     OW23545   5.099   0.122   5.686
 7549SOL    HW123546   5.178   0.174   5.657
 7549SOL    HW223547   5.086   0.132   5.785
 7550SOL     OW23548   3.000   6.620   4.953
 7550SOL    HW123549   2.979   6.713   4.985
 7550SOL    HW223550   2.934   6.593   4.883
 7551SOL     OW23551   5.958   3.113   6.907
 7551SOL    HW123552   5.988   3.022   6.936
 7551SOL    HW223553   5.989   3.129   6.813
 7552SOL     OW23554   2.825   6.787   4.420
 7552SOL    HW123555   2.761   6.746   4.486
 7552SOL    HW223556   2.805   6.753   4.328
 7553SOL     OW23557   6.503   0.345   5.794
 7553SOL    HW123558   6.586   0.299   5.824
 7553SOL    HW223559   6.510   0.369   5.698
 7554SOL     OW23560   4.863   1.625   1.819
 7554SOL    HW123561   4.842   1.695   1.751
 7554SOL    HW223562   4.915   1.551   1.775
 7555SOL     OW23563   4.323   5.757   4.302
 7555SOL    HW123564   4.404   5.729   4.250
 7555SOL    HW223565   4.252   5.786   4.238
 7556SOL     OW23566   0.664   5.775   0.751
 7556SOL    HW123567   0.674   5.726   0.664
 7556SOL    HW223568   0.712   5.862   0.746
 7557SOL     OW23569   4.533   5.924   0.368
 7557SOL    HW123570   4.631   5.929   0.350
 7557SOL    HW223571   4.517   5.916   0.466
 7558SOL     OW23572   1.961   1.604   4.518
 7558SOL    HW123573   2.016   1.632   4.439
 7558SOL    HW223574   1.866   1.591   4.489
 7559SOL     OW23575   1.698   6.667   5.034
 7559SOL    HW123576   1.712   6.764   5.056
 7559SOL    HW223577   1.619   6.658   4.973
 7560SOL     OW23578   0.501   1.337   5.393
 7560SOL    HW123579   0.454   1.325   5.306
 7560SOL    HW223580   0.463   1.275   5.462
 7561SOL     OW23581   5.389   1.142   5.748
 7561SOL    HW123582   5.469   1.087   5.723
 7561SOL    HW223583   5.308   1.106   5.704
 7562SOL     OW23584   1.771   5.611   3.546
 7562SOL    HW123585   1.784   5.689   3.484
 7562SOL    HW223586   1.859   5.572   3.570
 7563SOL     OW23587   3.337   6.157   3.079
 7563SOL    HW123588   3.260   6.102   3.111
 7563SOL    HW223589   3.307   6.250   3.061
 7564SOL     OW23590   6.138   3.273   6.243
 7564SOL    HW123591   6.205   3.256   6.315
 7564SOL    HW223592   6.046   3.252   6.277
 7565SOL     OW23593   6.425   3.241   5.418
 7565SOL    HW123594   6.416   3.305   5.495
 7565SOL    HW223595   6.335   3.203   5.396
 7566SOL     OW23596   5.379   3.905   1.377
 7566SOL    HW123597   5.452   3.925   1.312
 7566SOL    HW223598   5.390   3.962   1.459
 7567SOL     OW23599   1.693   0.380   3.042
 7567SOL    HW123600   1.724   0.351   3.132
 7567SOL    HW223601   1.603   0.341   3.024
 7568SOL     OW23602   0.269   4.572   1.340
 7568SOL    HW123603   0.338   4.537   1.403
 7568SOL    HW223604   0.232   4.497   1.286
 7569SOL     OW23605   4.500   3.870   1.397
 7569SOL    HW123606   4.405   3.900   1.410
 7569SOL    HW223607   4.560   3.950   1.396
 7570SOL     OW23608   1.253   2.732   2.145
 7570SOL    HW123609   1.264   2.641   2.105
 7570SOL    HW223610   1.158   2.760   2.137
 7571SOL     OW23611   5.363   1.391   3.403
 7571SOL    HW123612   5.368   1.327   3.480
 7571SOL    HW223613   5.299   1.356   3.335
 7572SOL     OW23614   4.315   6.696   2.240
 7572SOL    HW123615   4.389   6.690   2.172
 7572SOL    HW223616   4.231   6.724   2.194
 7573SOL     OW23617   3.554   0.491   5.826
 7573SOL    HW123618   3.494   0.521   5.901
 7573SOL    HW223619   3.644   0.466   5.864
 7574SOL     OW23620   0.515   3.629   2.724
 7574SOL    HW123621   0.566   3.712   2.747
 7574SOL    HW223622   0.488   3.582   2.808
 7575SOL     OW23623   6.772   0.536   6.931
 7575SOL    HW123624   6.693   0.524   6.990
 7575SOL    HW223625   6.850   0.485   6.967
 7576SOL     OW23626   5.104   3.241   6.688
 7576SOL    HW123627   5.129   3.337   6.675
 7576SOL    HW223628   5.091   3.222   6.785
 7577SOL     OW23629   0.009   0.702   5.302
 7577SOL    HW123630   0.050   0.763   5.370
 7577SOL    HW223631   0.081   0.659   5.248
 7578SOL     OW23632   6.283   5.772   2.031
 7578SOL    HW123633   6.321   5.695   1.981
 7578SOL    HW223634   6.346   5.801   2.103
 7579SOL     OW23635   1.261   1.628   6.470
 7579SOL    HW123636   1.349   1.640   6.516
 7579SOL    HW223637   1.261   1.681   6.385
 7580SOL     OW23638   2.093   4.524   2.129
 7580SOL    HW123639   2.160   4.595   2.107
 7580SOL    HW223640   2.084   4.516   2.228
 7581SOL     OW23641   0.337   0.300   0.931
 7581SOL    HW123642   0.420   0.302   0.876
 7581SOL    HW223643   0.359   0.317   1.027
 7582SOL     OW23644   1.302   0.556   5.924
 7582SOL    HW123645   1.303   0.466   5.966
 7582SOL    HW223646   1.219   0.605   5.950
 7583SOL     OW23647   5.669   3.691   2.546
 7583SOL    HW123648   5.574   3.709   2.521
 7583SOL    HW223649   5.672   3.651   2.638
 7584SOL     OW23650   0.426   1.067   3.537
 7584SOL    HW123651   0.478   1.036   3.617
 7584SOL    HW223652   0.485   1.064   3.456
 7585SOL     OW23653   0.637   1.359   6.101
 7585SOL    HW123654   0.715   1.421   6.112
 7585SOL    HW223655   0.635   1.323   6.008
 7586SOL     OW23656   2.442   6.558   3.878
 7586SOL    HW123657   2.528   6.599   3.848
 7586SOL    HW223658   2.378   6.555   3.801
 7587SOL     OW23659   5.950   0.350   1.983
 7587SOL    HW123660   5.932   0.432   1.928
 7587SOL    HW223661   5.865   0.300   1.997
 7588SOL     OW23662   2.027   3.901   4.675
 7588SOL    HW123663   2.087   3.955   4.615
 7588SOL    HW223664   2.053   3.917   4.771
 7589SOL     OW23665   6.592   7.012   2.449
 7589SOL    HW123666   6.509   6.958   2.467
 7589SOL    HW223667   6.635   0.009   2.536
 7590SOL     OW23668   5.701   0.925   6.473
 7590SOL    HW123669   5.780   0.982   6.497
 7590SOL    HW223670   5.617   0.970   6.505
 7591SOL     OW23671   3.860   3.588   4.853
 7591SOL    HW123672   3.856   3.624   4.947
 7591SOL    HW223673   3.796   3.512   4.844
 7592SOL     OW23674   0.088   7.007   3.365
 7592SOL    HW123675   0.053   7.020   3.458
 7592SOL    HW223676   0.036   0.036   3.302
 7593SOL     OW23677   6.622   2.008   6.582
 7593SOL    HW123678   6.686   2.059   6.641
 7593SOL    HW223679   6.664   1.922   6.554
 7594SOL     OW23680   6.893   4.324   5.601
 7594SOL    HW123681   6.824   4.334   5.673
 7594SOL    HW223682   6.925   4.415   5.573
 7595SOL     OW23683   0.396   3.791   0.253
 7595SOL    HW123684   0.371   3.694   0.249
 7595SOL    HW223685   0.476   3.807   0.196
 7596SOL     OW23686   2.911   2.023   6.853
 7596SOL    HW123687   2.904   1.927   6.879
 7596SOL    HW223688   3.007   2.048   6.842
 7597SOL     OW23689   2.403   4.176   0.207
 7597SOL    HW123690   2.364   4.199   0.296
 7597SOL    HW223691   2.440   4.258   0.165
 7598SOL     OW23692   5.082   0.923   2.314
 7598SOL    HW123693   5.034   0.965   2.238
 7598SOL    HW223694   5.015   0.893   2.383
 7599SOL     OW23695   2.886   3.110   0.280
 7599SOL    HW123696   2.864   3.013   0.282
 7599SOL    HW223697   2.898   3.143   0.374
 7600SOL     OW23698   0.037   0.168   4.677
 7600SOL    HW123699   7.019   0.169   4.589
 7600SOL    HW223700   0.000   0.094   4.733
 7601SOL     OW23701   2.970   6.077   0.970
 7601SOL    HW123702   3.012   6.056   0.882
 7601SOL    HW223703   2.936   5.992   1.012
 7602SOL     OW23704   0.040   0.965   1.459
 7602SOL    HW123705   7.008   0.951   1.380
 7602SOL    HW223706   0.128   1.000   1.428
 7603SOL     OW23707   4.228   1.628   6.410
 7603SOL    HW123708   4.288   1.623   6.491
 7603SOL    HW223709   4.210   1.536   6.377
 7604SOL     OW23710   2.531   1.907   5.466
 7604SOL    HW123711   2.511   1.957   5.550
 7604SOL    HW223712   2.577   1.968   5.401
 7605SOL     OW23713   2.654   6.233   6.170
 7605SOL    HW123714   2.709   6.266   6.248
 7605SOL    HW223715   2.715   6.203   6.097
 7606SOL     OW23716   6.398   1.087   3.761
 7606SOL    HW123717   6.456   1.006   3.767
 7606SOL    HW223718   6.317   1.075   3.819
 7607SOL     OW23719   2.152   5.666   5.193
 7607SOL    HW123720   2.195   5.725   5.261
 7607SOL    HW223721   2.193   5.683   5.104
 7608SOL     OW23722   0.511   2.664   6.711
 7608SOL    HW123723   0.429   2.623   6.672
 7608SOL    HW223724   0.560   2.716   6.640
 7609SOL     OW23725   3.243   0.268   4.902
 7609SOL    HW123726   3.170   0.336   4.907
 7609SOL    HW223727   3.324   0.304   4.949
 7610SOL     OW23728   4.256   5.856   4.926
 7610SOL    HW123729   4.330   5.886   4.866
 7610SOL    HW223730   4.240   5.924   4.997
 7611SOL     OW23731   4.499   2.145   0.578
 7611SOL    HW123732   4.456   2.059   0.551
 7611SOL    HW223733   4.597   2.141   0.557
 7612SOL     OW23734   4.893   3.253   2.540
 7612SOL    HW123735   4.871   3.344   2.505
 7612SOL    HW223736   4.879   3.250   2.639
 7613SOL     OW23737   0.136   0.782   6.318
 7613SOL    HW123738   0.215   0.829   6.358
 7613SOL    HW223739   0.084   0.846   6.261
 7614SOL     OW23740   5.654   5.188   6.636
 7614SOL    HW123741   5.593   5.123   6.680
 7614SOL    HW223742   5.715   5.139   6.573
 7615SOL     OW23743   4.896   3.716   6.256
 7615SOL    HW123744   4.888   3.815   6.250
 7615SOL    HW223745   4.990   3.691   6.280
 7616SOL     OW23746   6.890   6.662   2.018
 7616SOL    HW123747   6.873   6.568   2.048
 7616SOL    HW223748   6.973   6.696   2.063
 7617SOL     OW23749   5.348   4.938   3.062
 7617SOL    HW123750   5.362   4.865   3.129
 7617SOL    HW223751   5.287   5.007   3.101
 7618SOL     OW23752   2.754   2.281   0.348
 7618SOL    HW123753   2.836   2.278   0.290
 7618SOL    HW223754   2.698   2.200   0.328
 7619SOL     OW23755   0.779   0.881   4.374
 7619SOL    HW123756   0.732   0.901   4.287
 7619SOL    HW223757   0.712   0.882   4.448
 7620SOL     OW23758   3.312   4.373   0.502
 7620SOL    HW123759   3.281   4.304   0.436
 7620SOL    HW223760   3.404   4.403   0.479
 7621SOL     OW23761   5.757   4.807   0.955
 7621SOL    HW123762   5.787   4.726   1.005
 7621SOL    HW223763   5.717   4.873   1.018
 7622SOL     OW23764   2.188   3.539   0.703
 7622SOL    HW123765   2.272   3.575   0.743
 7622SOL    HW223766   2.176   3.576   0.611
 7623SOL     OW23767   5.293   5.244   3.449
 7623SOL    HW123768   5.205   5.280   3.481
 7623SOL    HW223769   5.366   5.279   3.508
 7624SOL     OW23770   6.560   3.128   3.312
 7624SOL    HW123771   6.492   3.130   3.239
 7624SOL    HW223772   6.514   3.118   3.400
 7625SOL     OW23773   5.033   0.345   1.932
 7625SOL    HW123774   5.097   0.421   1.920
 7625SOL    HW223775   5.083   0.262   1.955
 7626SOL     OW23776   4.817   5.962   0.395
 7626SOL    HW123777   4.831   6.045   0.341
 7626SOL    HW223778   4.832   5.882   0.337
 7627SOL     OW23779   4.354   2.589   5.588
 7627SOL    HW123780   4.261   2.553   5.581
 7627SOL    HW223781   4.380   2.595   5.684
 7628SOL     OW23782   3.785   2.875   0.483
 7628SOL    HW123783   3.834   2.914   0.562
 7628SOL    HW223784   3.696   2.841   0.513
 7629SOL     OW23785   5.603   2.706   3.603
 7629SOL    HW123786   5.544   2.787   3.605
 7629SOL    HW223787   5.577   2.648   3.527
 7630SOL     OW23788   1.786   5.555   3.872
 7630SOL    HW123789   1.818   5.648   3.854
 7630SOL    HW223790   1.836   5.491   3.814
 7631SOL     OW23791   1.372   1.402   6.788
 7631SOL    HW123792   1.281   1.399   6.830
 7631SOL    HW223793   1.380   1.329   6.720
 7632SOL     OW23794   4.063   5.430   0.850
 7632SOL    HW123795   3.995   5.403   0.782
 7632SOL    HW223796   4.026   5.417   0.942
 7633SOL     OW23797   5.571   0.641   1.900
 7633SOL    HW123798   5.516   0.559   1.914
 7633SOL    HW223799   5.518   0.709   1.849
 7634SOL     OW23800   0.501   2.015   6.910
 7634SOL    HW123801   0.549   2.013   6.822
 7634SOL    HW223802   0.566   2.029   6.984
 7635SOL     OW23803   1.542   3.113   5.966
 7635SOL    HW123804   1.627   3.126   6.016
 7635SOL    HW223805   1.561   3.106   5.868
 7636SOL     OW23806   6.876   2.850   3.257
 7636SOL    HW123807   6.861   2.899   3.172
 7636SOL    HW223808   6.930   2.907   3.320
 7637SOL     OW23809   2.004   4.530   4.721
 7637SOL    HW123810   2.048   4.441   4.732
 7637SOL    HW223811   1.973   4.562   4.811
 7638SOL     OW23812   0.167   7.020   1.090
 7638SOL    HW123813   0.136   0.075   1.042
 7638SOL    HW223814   0.123   6.940   1.049
 7639SOL     OW23815   1.790   5.923   0.225
 7639SOL    HW123816   1.797   6.014   0.266
 7639SOL    HW223817   1.758   5.859   0.295
 7640SOL     OW23818   3.430   0.378   0.579
 7640SOL    HW123819   3.385   0.325   0.651
 7640SOL    HW223820   3.525   0.348   0.571
 7641SOL     OW23821   6.382   4.245   5.498
 7641SOL    HW123822   6.313   4.174   5.511
 7641SOL    HW223823   6.420   4.272   5.587
 7642SOL     OW23824   5.322   0.716   4.270
 7642SOL    HW123825   5.236   0.668   4.288
 7642SOL    HW223826   5.328   0.796   4.329
 7643SOL     OW23827   5.287   2.110   3.825
 7643SOL    HW123828   5.188   2.103   3.831
 7643SOL    HW223829   5.325   2.026   3.788
 7644SOL     OW23830   5.579   4.028   0.213
 7644SOL    HW123831   5.673   4.002   0.232
 7644SOL    HW223832   5.531   4.046   0.299
 7645SOL     OW23833   6.333   4.331   6.371
 7645SOL    HW123834   6.276   4.410   6.347
 7645SOL    HW223835   6.356   4.334   6.468
 7646SOL     OW23836   6.221   1.379   2.653
 7646SOL    HW123837   6.189   1.473   2.646
 7646SOL    HW223838   6.188   1.339   2.739
 7647SOL     OW23839   6.686   1.584   4.093
 7647SOL    HW123840   6.601   1.620   4.052
 7647SOL    HW223841   6.665   1.545   4.183
 7648SOL     OW23842   1.760   2.669   0.726
 7648SOL    HW123843   1.830   2.608   0.690
 7648SOL    HW223844   1.788   2.764   0.714
 7649SOL     OW23845   4.277   0.842   0.647
 7649SOL    HW123846   4.346   0.769   0.643
 7649SOL    HW223847   4.187   0.802   0.660
 7650SOL     OW23848   3.681   2.632   0.130
 7650SOL    HW123849   3.737   2.697   0.181
 7650SOL    HW223850   3.610   2.681   0.081
 7651SOL     OW23851   3.296   5.599   5.923
 7651SOL    HW123852   3.345   5.520   5.885
 7651SOL    HW223853   3.318   5.608   6.020
 7652SOL     OW23854   0.586   0.824   4.596
 7652SOL    HW123855   0.575   0.784   4.687
 7652SOL    HW223856   0.507   0.802   4.539
 7653SOL     OW23857   2.028   6.651   5.961
 7653SOL    HW123858   1.992   6.646   6.054
 7653SOL    HW223859   2.089   6.731   5.953
 7654SOL     OW23860   0.144   2.454   6.264
 7654SOL    HW123861   0.055   2.492   6.241
 7654SOL    HW223862   0.134   2.357   6.286
 7655SOL     OW23863   2.768   1.510   5.748
 7655SOL    HW123864   2.748   1.604   5.775
 7655SOL    HW223865   2.741   1.447   5.821
 7656SOL     OW23866   6.032   3.498   6.894
 7656SOL    HW123867   6.006   3.401   6.887
 7656SOL    HW223868   5.986   3.550   6.823
 7657SOL     OW23869   0.900   4.242   5.052
 7657SOL    HW123870   0.849   4.319   5.014
 7657SOL    HW223871   0.961   4.205   4.983
 7658SOL     OW23872   2.475   6.966   0.734
 7658SOL    HW123873   2.416   6.903   0.784
 7658SOL    HW223874   2.451   6.964   0.637
 7659SOL     OW23875   5.624   4.106   5.211
 7659SOL    HW123876   5.672   4.030   5.254
 7659SOL    HW223877   5.676   4.191   5.226
 7660SOL     OW23878   0.174   6.336   5.026
 7660SOL    HW123879   0.218   6.337   4.936
 7660SOL    HW223880   0.233   6.288   5.091
 7661SOL     OW23881   1.837   0.004   5.050
 7661SOL    HW123882   1.796   0.089   5.016
 7661SOL    HW223883   1.897   6.993   4.979
 7662SOL     OW23884   6.855   6.397   2.020
 7662SOL    HW123885   6.801   6.315   2.000
 7662SOL    HW223886   6.911   6.421   1.940
 7663SOL     OW23887   1.811   5.833   3.394
 7663SOL    HW123888   1.877   5.856   3.465
 7663SOL    HW223889   1.732   5.893   3.401
 7664SOL     OW23890   5.463   2.535   2.982
 7664SOL    HW123891   5.397   2.463   2.961
 7664SOL    HW223892   5.505   2.517   3.071
 7665SOL     OW23893   2.011   6.505   5.192
 7665SOL    HW123894   1.986   6.572   5.122
 7665SOL    HW223895   2.097   6.532   5.235
 7666SOL     OW23896   6.618   4.784   4.089
 7666SOL    HW123897   6.620   4.799   3.990
 7666SOL    HW223898   6.599   4.688   4.109
 7667SOL     OW23899   4.960   5.742   1.576
 7667SOL    HW123900   5.008   5.670   1.526
 7667SOL    HW223901   4.885   5.703   1.629
 7668SOL     OW23902   2.066   5.200   0.695
 7668SOL    HW123903   2.119   5.215   0.778
 7668SOL    HW223904   1.974   5.170   0.720
 7669SOL     OW23905   4.580   2.497   6.986
 7669SOL    HW123906   4.638   2.574   6.959
 7669SOL    HW223907   4.484   2.519   6.966
 7670SOL     OW23908   1.195   1.112   1.241
 7670SOL    HW123909   1.195   1.100   1.142
 7670SOL    HW223910   1.160   1.203   1.264
 7671SOL     OW23911   3.872   0.896   2.035
 7671SOL    HW123912   3.898   0.992   2.025
 7671SOL    HW223913   3.778   0.883   2.004
 7672SOL     OW23914   5.939   2.914   3.091
 7672SOL    HW123915   6.038   2.902   3.086
 7672SOL    HW223916   5.898   2.837   3.141
 7673SOL     OW23917   2.177   6.248   5.458
 7673SOL    HW123918   2.088   6.205   5.443
 7673SOL    HW223919   2.164   6.343   5.485
 7674SOL     OW23920   3.923   5.837   3.976
 7674SOL    HW123921   3.903   5.928   4.014
 7674SOL    HW223922   3.881   5.829   3.886
 7675SOL     OW23923   3.846   6.501   2.874
 7675SOL    HW123924   3.923   6.446   2.908
 7675SOL    HW223925   3.833   6.579   2.935
 7676SOL     OW23926   3.314   3.253   4.235
 7676SOL    HW123927   3.380   3.254   4.310
 7676SOL    HW223928   3.328   3.170   4.181
 7677SOL     OW23929   0.280   0.099   0.608
 7677SOL    HW123930   0.363   0.096   0.663
 7677SOL    HW223931   0.303   0.081   0.512
 7678SOL     OW23932   3.406   1.274   5.091
 7678SOL    HW123933   3.390   1.287   5.189
 7678SOL    HW223934   3.339   1.327   5.039
 7679SOL     OW23935   3.421   5.473   4.331
 7679SOL    HW123936   3.444   5.569   4.315
 7679SOL    HW223937   3.489   5.433   4.394
 7680SOL     OW23938   1.627   5.794   3.688
 7680SOL    HW123939   1.687   5.720   3.659
 7680SOL    HW223940   1.534   5.760   3.697
 7681SOL     OW23941   2.249   2.240   5.472
 7681SOL    HW123942   2.225   2.159   5.420
 7681SOL    HW223943   2.165   2.290   5.496
 7682SOL     OW23944   2.740   6.413   1.609
 7682SOL    HW123945   2.790   6.468   1.675
 7682SOL    HW223946   2.679   6.473   1.556
 7683SOL     OW23947   1.503   4.616   4.074
 7683SOL    HW123948   1.449   4.697   4.098
 7683SOL    HW223949   1.543   4.577   4.158
 7684SOL     OW23950   5.042   3.591   1.499
 7684SOL    HW123951   4.966   3.554   1.553
 7684SOL    HW223952   5.117   3.615   1.560
 7685SOL     OW23953   2.022   0.015   6.453
 7685SOL    HW123954   2.086   0.081   6.493
 7685SOL    HW223955   2.043   6.951   6.486
 7686SOL     OW23956   6.607   1.244   4.941
 7686SOL    HW123957   6.508   1.242   4.954
 7686SOL    HW223958   6.632   1.187   4.863
 7687SOL     OW23959   6.452   3.959   5.545
 7687SOL    HW123960   6.509   4.033   5.580
 7687SOL    HW223961   6.356   3.988   5.543
 7688SOL     OW23962   6.544   3.376   0.983
 7688SOL    HW123963   6.481   3.302   1.006
 7688SOL    HW223964   6.592   3.353   0.898
 7689SOL     OW23965   5.280   6.722   3.295
 7689SOL    HW123966   5.317   6.761   3.211
 7689SOL    HW223967   5.355   6.684   3.350
 7690SOL     OW23968   6.503   3.749   2.216
 7690SOL    HW123969   6.426   3.813   2.220
 7690SOL    HW223970   6.482   3.669   2.273
 7691SOL     OW23971   4.641   2.408   3.827
 7691SOL    HW123972   4.706   2.396   3.752
 7691SOL    HW223973   4.674   2.480   3.888
 7692SOL     OW23974   1.700   6.195   2.191
 7692SOL    HW123975   1.640   6.218   2.114
 7692SOL    HW223976   1.732   6.100   2.181
 7693SOL     OW23977   2.524   2.273   0.578
 7693SOL    HW123978   2.623   2.283   0.588
 7693SOL    HW223979   2.486   2.352   0.529
 7694SOL     OW23980   4.939   2.514   1.622
 7694SOL    HW123981   4.941   2.572   1.703
 7694SOL    HW223982   4.859   2.453   1.625
 7695SOL     OW23983   5.201   7.023   4.110
 7695SOL    HW123984   5.264   6.945   4.104
 7695SOL    HW223985   5.131   7.014   4.039
 7696SOL     OW23986   2.062   1.576   5.078
 7696SOL    HW123987   2.047   1.480   5.097
 7696SOL    HW223988   2.052   1.592   4.979
 7697SOL     OW23989   5.802   6.372   3.419
 7697SOL    HW123990   5.788   6.293   3.360
 7697SOL    HW223991   5.722   6.431   3.414
 7698SOL     OW23992   6.207   1.860   1.362
 7698SOL    HW123993   6.274   1.799   1.404
 7698SOL    HW223994   6.128   1.869   1.423
 7699SOL     OW23995   3.546   5.830   6.151
 7699SOL    HW123996   3.586   5.820   6.242
 7699SOL    HW223997   3.610   5.797   6.082
 7700SOL     OW23998   5.497   4.319   1.443
 7700SOL    HW123999   5.583   4.366   1.462
 7700SOL    HW224000   5.478   4.323   1.345
 7701SOL     OW24001   3.646   2.115   6.249
 7701SOL    HW124002   3.604   2.109   6.339
 7701SOL    HW224003   3.652   2.024   6.208
 7702SOL     OW24004   5.954   6.742   5.149
 7702SOL    HW124005   5.863   6.741   5.191
 7702SOL    HW224006   6.008   6.814   5.193
 7703SOL     OW24007   0.401   6.276   0.159
 7703SOL    HW124008   0.426   6.187   0.197
 7703SOL    HW224009   0.462   6.346   0.195
 7704SOL     OW24010   2.023   2.467   4.553
 7704SOL    HW124011   2.062   2.455   4.462
 7704SOL    HW224012   2.066   2.545   4.598
 7705SOL     OW24013   0.800   3.830   0.292
 7705SOL    HW124014   0.754   3.856   0.207
 7705SOL    HW224015   0.835   3.737   0.285
 7706SOL     OW24016   3.512   3.323   2.411
 7706SOL    HW124017   3.545   3.229   2.416
 7706SOL    HW224018   3.587   3.383   2.382
 7707SOL     OW24019   6.243   5.606   5.274
 7707SOL    HW124020   6.231   5.669   5.350
 7707SOL    HW224021   6.242   5.656   5.187
 7708SOL     OW24022   0.900   0.172   3.267
 7708SOL    HW124023   0.938   0.226   3.192
 7708SOL    HW224024   0.818   0.125   3.235
 7709SOL     OW24025   6.407   4.541   1.292
 7709SOL    HW124026   6.338   4.480   1.331
 7709SOL    HW224027   6.467   4.573   1.366
 7710SOL     OW24028   5.772   4.040   3.588
 7710SOL    HW124029   5.837   4.033   3.664
 7710SOL    HW224030   5.772   3.955   3.536
 7711SOL     OW24031   1.065   4.671   3.382
 7711SOL    HW124032   1.130   4.740   3.416
 7711SOL    HW224033   1.009   4.638   3.458
 7712SOL     OW24034   1.265   4.295   4.851
 7712SOL    HW124035   1.315   4.336   4.775
 7712SOL    HW224036   1.303   4.328   4.937
 7713SOL     OW24037   0.474   5.318   0.642
 7713SOL    HW124038   0.406   5.364   0.698
 7713SOL    HW224039   0.565   5.354   0.662
 7714SOL     OW24040   5.545   1.291   5.326
 7714SOL    HW124041   5.566   1.195   5.345
 7714SOL    HW224042   5.449   1.298   5.300
 7715SOL     OW24043   4.090   3.357   6.527
 7715SOL    HW124044   4.005   3.394   6.488
 7715SOL    HW224045   4.122   3.417   6.600
 7716SOL     OW24046   1.875   0.709   0.092
 7716SOL    HW124047   1.900   0.612   0.093
 7716SOL    HW224048   1.928   0.758   0.162
 7717SOL     OW24049   1.024   2.073   5.985
 7717SOL    HW124050   0.973   2.142   5.935
 7717SOL    HW224051   1.065   2.114   6.066
 7718SOL     OW24052   0.399   3.799   3.640
 7718SOL    HW124053   0.387   3.891   3.677
 7718SOL    HW224054   0.475   3.799   3.575
 7719SOL     OW24055   2.276   6.664   5.239
 7719SOL    HW124056   2.349   6.730   5.221
 7719SOL    HW224057   2.229   6.688   5.324
 7720SOL     OW24058   4.086   0.656   6.375
 7720SOL    HW124059   4.065   0.706   6.459
 7720SOL    HW224060   4.105   0.720   6.301
 7721SOL     OW24061   5.438   5.846   2.583
 7721SOL    HW124062   5.527   5.834   2.539
 7721SOL    HW224063   5.376   5.894   2.521
 7722SOL     OW24064   0.298   6.547   4.452
 7722SOL    HW124065   0.322   6.501   4.366
 7722SOL    HW224066   0.221   6.608   4.437
 7723SOL     OW24067   3.208   5.057   6.247
 7723SOL    HW124068   3.280   5.010   6.196
 7723SOL    HW224069   3.149   5.106   6.183
 7724SOL     OW24070   1.329   4.010   6.805
 7724SOL    HW124071   1.351   3.936   6.868
 7724SOL    HW224072   1.404   4.076   6.805
 7725SOL     OW24073   5.672   2.848   5.156
 7725SOL    HW124074   5.594   2.910   5.162
 7725SOL    HW224075   5.639   2.754   5.144
 7726SOL     OW24076   1.639   3.000   0.603
 7726SOL    HW124077   1.618   2.905   0.578
 7726SOL    HW224078   1.558   3.056   0.588
 7727SOL     OW24079   6.220   0.245   3.054
 7727SOL    HW124080   6.148   0.314   3.041
 7727SOL    HW224081   6.183   0.155   3.032
 7728SOL     OW24082   1.578   2.995   5.498
 7728SOL    HW124083   1.566   2.920   5.433
 7728SOL    HW224084   1.492   3.045   5.508
 7729SOL     OW24085   0.431   0.551   2.908
 7729SOL    HW124086   0.441   0.643   2.946
 7729SOL    HW224087   0.344   0.512   2.936
 7730SOL     OW24088   5.662   3.411   6.588
 7730SOL    HW124089   5.585   3.351   6.566
 7730SOL    HW224090   5.713   3.372   6.665
 7731SOL     OW24091   0.126   0.747   5.886
 7731SOL    HW124092   0.143   0.844   5.868
 7731SOL    HW224093   0.127   0.697   5.799
 7732SOL     OW24094   3.937   1.408   0.740
 7732SOL    HW124095   3.911   1.360   0.656
 7732SOL    HW224096   3.895   1.499   0.740
 7733SOL     OW24097   5.566   6.107   1.712
 7733SOL    HW124098   5.659   6.141   1.701
 7733SOL    HW224099   5.551   6.028   1.653
 7734SOL     OW24100   3.401   4.012   3.464
 7734SOL    HW124101   3.404   4.043   3.559
 7734SOL    HW224102   3.316   4.042   3.421
 7735SOL     OW24103   1.108   5.492   1.314
 7735SOL    HW124104   1.014   5.518   1.336
 7735SOL    HW224105   1.160   5.483   1.398
 7736SOL     OW24106   2.167   1.650   0.937
 7736SOL    HW124107   2.183   1.748   0.939
 7736SOL    HW224108   2.176   1.612   1.029
 7737SOL     OW24109   4.500   4.635   6.163
 7737SOL    HW124110   4.450   4.709   6.117
 7737SOL    HW224111   4.576   4.605   6.105
 7738SOL     OW24112   1.742   0.877   5.581
 7738SOL    HW124113   1.695   0.810   5.639
 7738SOL    HW224114   1.812   0.831   5.527
 7739SOL     OW24115   0.701   3.036   6.664
 7739SOL    HW124116   0.776   2.995   6.716
 7739SOL    HW224117   0.730   3.051   6.570
 7740SOL     OW24118   1.814   0.637   3.684
 7740SOL    HW124119   1.829   0.555   3.630
 7740SOL    HW224120   1.901   0.673   3.717
 7741SOL     OW24121   6.209   4.436   5.955
 7741SOL    HW124122   6.164   4.352   5.984
 7741SOL    HW224123   6.280   4.461   6.021
 7742SOL     OW24124   4.575   2.673   3.359
 7742SOL    HW124125   4.483   2.692   3.394
 7742SOL    HW224126   4.585   2.575   3.342
 7743SOL     OW24127   3.391   1.293   6.376
 7743SOL    HW124128   3.308   1.240   6.391
 7743SOL    HW224129   3.457   1.239   6.324
 7744SOL     OW24130   0.181   6.049   4.371
 7744SOL    HW124131   0.183   6.084   4.277
 7744SOL    HW224132   0.274   6.025   4.399
 7745SOL     OW24133   3.324   0.217   0.792
 7745SOL    HW124134   3.257   0.171   0.733
 7745SOL    HW224135   3.296   0.206   0.887
 7746SOL     OW24136   0.033   6.335   1.260
 7746SOL    HW124137   6.985   6.389   1.296
 7746SOL    HW224138   0.103   6.325   1.331
 7747SOL     OW24139   6.553   6.093   0.939
 7747SOL    HW124140   6.631   6.047   0.894
 7747SOL    HW224141   6.486   6.024   0.966
 7748SOL     OW24142   4.211   1.363   6.289
 7748SOL    HW124143   4.309   1.371   6.311
 7748SOL    HW224144   4.189   1.268   6.269
 7749SOL     OW24145   3.086   3.925   3.146
 7749SOL    HW124146   3.049   3.909   3.054
 7749SOL    HW224147   3.168   3.983   3.139
 7750SOL     OW24148   5.648   4.042   5.962
 7750SOL    HW124149   5.691   4.031   6.052
 7750SOL    HW224150   5.704   3.998   5.892
 7751SOL     OW24151   0.382   1.696   3.853
 7751SOL    HW124152   0.378   1.602   3.818
 7751SOL    HW224153   0.341   1.758   3.787
 7752SOL     OW24154   5.098   4.284   6.406
 7752SOL    HW124155   5.125   4.317   6.316
 7752SOL    HW224156   5.164   4.217   6.439
 7753SOL     OW24157   2.030   0.779   4.600
 7753SOL    HW124158   2.087   0.773   4.518
 7753SOL    HW224159   2.012   0.876   4.621
 7754SOL     OW24160   6.954   1.011   0.490
 7754SOL    HW124161   6.991   1.021   0.582
 7754SOL    HW224162   7.017   0.958   0.434
 7755SOL     OW24163   1.316   6.333   5.421
 7755SOL    HW124164   1.319   6.401   5.348
 7755SOL    HW224165   1.379   6.259   5.401
 7756SOL     OW24166   3.451   6.680   2.819
 7756SOL    HW124167   3.363   6.678   2.771
 7756SOL    HW224168   3.483   6.586   2.834
 7757SOL     OW24169   3.844   1.937   5.125
 7757SOL    HW124170   3.834   1.865   5.194
 7757SOL    HW224171   3.793   1.912   5.043
 7758SOL     OW24172   2.703   1.019   6.551
 7758SOL    HW124173   2.637   0.945   6.538
 7758SOL    HW224174   2.676   1.098   6.496
 7759SOL     OW24175   2.128   0.273   4.600
 7759SOL    HW124176   2.120   0.298   4.504
 7759SOL    HW224177   2.084   0.343   4.657
 7760SOL     OW24178   5.365   1.359   2.881
 7760SOL    HW124179   5.298   1.411   2.828
 7760SOL    HW224180   5.426   1.310   2.818
 7761SOL     OW24181   4.798   1.028   6.756
 7761SOL    HW124182   4.796   0.949   6.817
 7761SOL    HW224183   4.716   1.084   6.771
 7762SOL     OW24184   1.824   1.942   0.752
 7762SOL    HW124185   1.794   1.993   0.832
 7762SOL    HW224186   1.924   1.938   0.750
 7763SOL     OW24187   2.075   2.868   0.937
 7763SOL    HW124188   2.077   2.967   0.945
 7763SOL    HW224189   2.078   2.827   1.028
 7764SOL     OW24190   3.840   3.742   2.156
 7764SOL    HW124191   3.936   3.736   2.182
 7764SOL    HW224192   3.795   3.654   2.174
 7765SOL     OW24193   0.475   1.399   2.174
 7765SOL    HW124194   0.394   1.445   2.139
 7765SOL    HW224195   0.475   1.401   2.274
 7766SOL     OW24196   6.285   3.464   0.204
 7766SOL    HW124197   6.306   3.547   0.257
 7766SOL    HW224198   6.264   3.389   0.267
 7767SOL     OW24199   6.148   3.928   5.111
 7767SOL    HW124200   6.206   3.848   5.095
 7767SOL    HW224201   6.170   3.999   5.045
 7768SOL     OW24202   4.533   5.129   1.579
 7768SOL    HW124203   4.572   5.070   1.650
 7768SOL    HW224204   4.589   5.212   1.572
 7769SOL     OW24205   4.610   1.511   3.841
 7769SOL    HW124206   4.599   1.488   3.937
 7769SOL    HW224207   4.637   1.607   3.832
 7770SOL     OW24208   2.463   6.594   1.145
 7770SOL    HW124209   2.421   6.583   1.235
 7770SOL    HW224210   2.399   6.562   1.075
 7771SOL     OW24211   2.650   0.487   4.283
 7771SOL    HW124212   2.735   0.459   4.328
 7771SOL    HW224213   2.592   0.535   4.347
 7772SOL     OW24214   5.697   0.654   6.259
 7772SOL    HW124215   5.649   0.633   6.173
 7772SOL    HW224216   5.658   0.737   6.299
 7773SOL     OW24217   4.343   4.804   6.015
 7773SOL    HW124218   4.335   4.785   5.918
 7773SOL    HW224219   4.254   4.791   6.059
 7774SOL     OW24220   4.323   1.080   0.822
 7774SOL    HW124221   4.271   1.016   0.766
 7774SOL    HW224222   4.300   1.065   0.919
 7775SOL     OW24223   0.952   6.551   1.934
 7775SOL    HW124224   0.862   6.595   1.928
 7775SOL    HW224225   0.983   6.527   1.842
 7776SOL     OW24226   2.865   4.092   1.143
 7776SOL    HW124227   2.939   4.068   1.080
 7776SOL    HW224228   2.812   4.168   1.104
 7777SOL     OW24229   7.027   0.976   6.851
 7777SOL    HW124230   7.001   1.047   6.787
 7777SOL    HW224231   7.024   1.011   6.944
 7778SOL     OW24232   5.814   2.157   2.954
 7778SOL    HW124233   5.752   2.084   2.984
 7778SOL    HW224234   5.889   2.119   2.901
 7779SOL     OW24235   4.542   2.839   0.069
 7779SOL    HW124236   4.445   2.818   0.076
 7779SOL    HW224237   4.596   2.758   0.093
 7780SOL     OW24238   1.691   0.942   3.989
 7780SOL    HW124239   1.773   1.000   3.994
 7780SOL    HW224240   1.661   0.920   4.082
 7781SOL     OW24241   2.556   4.101   5.585
 7781SOL    HW124242   2.568   4.132   5.491
 7781SOL    HW224243   2.558   4.180   5.646
 7782SOL     OW24244   4.825   4.819   6.731
 7782SOL    HW124245   4.778   4.807   6.818
 7782SOL    HW224246   4.924   4.826   6.748
 7783SOL     OW24247   3.431   6.644   6.896
 7783SOL    HW124248   3.516   6.687   6.928
 7783SOL    HW224249   3.362   6.714   6.878
 7784SOL     OW24250   6.692   3.187   0.447
 7784SOL    HW124251   6.740   3.274   0.452
 7784SOL    HW224252   6.612   3.196   0.388
 7785SOL     OW24253   1.611   6.646   6.121
 7785SOL    HW124254   1.565   6.735   6.125
 7785SOL    HW224255   1.596   6.597   6.207
 7786SOL     OW24256   3.940   4.083   4.920
 7786SOL    HW124257   3.999   4.004   4.935
 7786SOL    HW224258   3.935   4.103   4.823
 7787SOL     OW24259   3.301   2.179   5.345
 7787SOL    HW124260   3.246   2.239   5.287
 7787SOL    HW224261   3.341   2.106   5.289
 7788SOL     OW24262   6.822   2.666   1.252
 7788SOL    HW124263   6.911   2.712   1.258
 7788SOL    HW224264   6.833   2.570   1.278
 7789SOL     OW24265   0.710   0.495   2.105
 7789SOL    HW124266   0.790   0.549   2.133
 7789SOL    HW224267   0.713   0.482   2.006
 7790SOL     OW24268   0.337   3.661   3.335
 7790SOL    HW124269   0.309   3.578   3.382
 7790SOL    HW224270   0.421   3.696   3.376
 7791SOL     OW24271   7.007   5.852   6.295
 7791SOL    HW124272   6.918   5.893   6.316
 7791SOL    HW224273   6.993   5.762   6.253
 7792SOL     OW24274   1.548   5.957   6.696
 7792SOL    HW124275   1.546   5.863   6.664
 7792SOL    HW224276   1.455   5.994   6.697
 7793SOL     OW24277   2.398   0.185   6.330
 7793SOL    HW124278   2.335   0.178   6.253
 7793SOL    HW224279   2.455   0.267   6.319
 7794SOL     OW24280   5.399   4.634   2.463
 7794SOL    HW124281   5.367   4.668   2.551
 7794SOL    HW224282   5.334   4.661   2.391
 7795SOL     OW24283   2.377   3.784   6.426
 7795SOL    HW124284   2.309   3.856   6.441
 7795SOL    HW224285   2.364   3.744   6.335
 7796SOL     OW24286   3.913   4.040   3.595
 7796SOL    HW124287   3.959   4.039   3.507
 7796SOL    HW224288   3.818   4.070   3.582
 7797SOL     OW24289   1.754   6.285   4.003
 7797SOL    HW124290   1.815   6.233   3.943
 7797SOL    HW224291   1.745   6.239   4.091
 7798SOL     OW24292   4.832   5.707   5.678
 7798SOL    HW124293   4.924   5.677   5.704
 7798SOL    HW224294   4.832   5.731   5.581
 7799SOL     OW24295   5.318   5.981   1.415
 7799SOL    HW124296   5.391   5.967   1.481
 7799SOL    HW224297   5.356   6.014   1.328
 7800SOL     OW24298   0.870   6.056   2.756
 7800SOL    HW124299   0.846   5.977   2.812
 7800SOL    HW224300   0.941   6.109   2.801
 7801SOL     OW24301   4.286   2.246   5.438
 7801SOL    HW124302   4.359   2.182   5.411
 7801SOL    HW224303   4.299   2.274   5.533
 7802SOL     OW24304   5.983   2.330   6.188
 7802SOL    HW124305   6.030   2.247   6.161
 7802SOL    HW224306   6.028   2.410   6.148
 7803SOL     OW24307   3.233   2.887   6.785
 7803SOL    HW124308   3.326   2.877   6.820
 7803SOL    HW224309   3.225   2.973   6.734
 7804SOL     OW24310   4.832   0.809   5.877
 7804SOL    HW124311   4.738   0.803   5.912
 7804SOL    HW224312   4.855   0.904   5.860
 7805SOL     OW24313   5.454   3.222   1.578
 7805SOL    HW124314   5.524   3.221   1.505
 7805SOL    HW224315   5.497   3.196   1.665
 7806SOL     OW24316   5.533   2.492   0.189
 7806SOL    HW124317   5.475   2.514   0.111
 7806SOL    HW224318   5.629   2.494   0.161
 7807SOL     OW24319   0.853   5.243   6.490
 7807SOL    HW124320   0.883   5.179   6.560
 7807SOL    HW224321   0.811   5.323   6.533
 7808SOL     OW24322   0.157   1.886   5.097
 7808SOL    HW124323   0.225   1.905   5.168
 7808SOL    HW224324   0.086   1.827   5.134
 7809SOL     OW24325   1.249   5.724   5.483
 7809SOL    HW124326   1.241   5.718   5.583
 7809SOL    HW224327   1.312   5.654   5.451
 7810SOL     OW24328   3.083   1.646   7.007
 7810SOL    HW124329   3.182   1.652   7.020
 7810SOL    HW224330   3.040   1.619   0.065
 7811SOL     OW24331   6.623   4.435   5.243
 7811SOL    HW124332   6.680   4.364   5.284
 7811SOL    HW224333   6.529   4.426   5.276
 7812SOL     OW24334   0.956   1.728   4.217
 7812SOL    HW124335   1.034   1.775   4.177
 7812SOL    HW224336   0.911   1.672   4.147
 7813SOL     OW24337   5.763   1.208   1.591
 7813SOL    HW124338   5.687   1.145   1.610
 7813SOL    HW224339   5.730   1.302   1.596
 7814SOL     OW24340   1.648   3.230   4.088
 7814SOL    HW124341   1.671   3.165   4.016
 7814SOL    HW224342   1.588   3.302   4.052
 7815SOL     OW24343   6.936   1.814   5.507
 7815SOL    HW124344   6.988   1.780   5.429
 7815SOL    HW224345   6.848   1.767   5.510
 7816SOL     OW24346   6.843   4.397   4.671
 7816SOL    HW124347   6.754   4.369   4.707
 7816SOL    HW224348   6.829   4.460   4.595
 7817SOL     OW24349   6.034   2.610   5.876
 7817SOL    HW124350   5.951   2.575   5.919
 7817SOL    HW224351   6.050   2.561   5.790
 7818SOL     OW24352   6.336   2.892   3.662
 7818SOL    HW124353   6.355   2.974   3.608
 7818SOL    HW224354   6.398   2.890   3.741
 7819SOL     OW24355   1.769   1.280   0.666
 7819SOL    HW124356   1.819   1.325   0.740
 7819SOL    HW224357   1.832   1.230   0.607
 7820SOL     OW24358   2.501   6.597   5.443
 7820SOL    HW124359   2.488   6.635   5.352
 7820SOL    HW224360   2.462   6.660   5.511
 7821SOL     OW24361   2.918   5.897   1.460
 7821SOL    HW124362   2.834   5.853   1.491
 7821SOL    HW224363   2.914   5.995   1.480
 7822SOL     OW24364   0.442   6.599   4.702
 7822SOL    HW124365   0.460   6.508   4.737
 7822SOL    HW224366   0.363   6.597   4.641
 7823SOL     OW24367   2.449   3.714   5.907
 7823SOL    HW124368   2.480   3.778   5.836
 7823SOL    HW224369   2.499   3.628   5.898
 7824SOL     OW24370   1.426   3.734   5.801
 7824SOL    HW124371   1.443   3.700   5.708
 7824SOL    HW224372   1.340   3.785   5.803
 7825SOL     OW24373   2.099   0.852   0.262
 7825SOL    HW124374   2.010   0.895   0.246
 7825SOL    HW224375   2.149   0.903   0.331
 7826SOL     OW24376   0.436   4.503   6.120
 7826SOL    HW124377   0.408   4.420   6.071
 7826SOL    HW224378   0.456   4.481   6.215
 7827SOL     OW24379   6.169   4.767   3.439
 7827SOL    HW124380   6.130   4.766   3.531
 7827SOL    HW224381   6.202   4.676   3.416
 7828SOL     OW24382   1.201   5.946   5.351
 7828SOL    HW124383   1.131   5.922   5.285
 7828SOL    HW224384   1.230   5.864   5.401
 7829SOL     OW24385   4.469   4.824   1.232
 7829SOL    HW124386   4.404   4.892   1.267
 7829SOL    HW224387   4.442   4.733   1.264
 7830SOL     OW24388   1.601   5.204   3.617
 7830SOL    HW124389   1.513   5.188   3.572
 7830SOL    HW224390   1.674   5.208   3.549
 7831SOL     OW24391   1.527   0.115   6.529
 7831SOL    HW124392   1.444   0.090   6.578
 7831SOL    HW224393   1.516   0.207   6.490
 7832SOL     OW24394   0.441   1.141   4.904
 7832SOL    HW124395   0.439   1.209   4.978
 7832SOL    HW224396   0.349   1.128   4.869
 7833SOL     OW24397   1.158   0.406   2.519
 7833SOL    HW124398   1.108   0.423   2.604
 7833SOL    HW224399   1.254   0.429   2.531
 7834SOL     OW24400   0.963   3.477   4.515
 7834SOL    HW124401   0.922   3.561   4.553
 7834SOL    HW224402   1.055   3.465   4.552
 7835SOL     OW24403   2.423   3.248   5.665
 7835SOL    HW124404   2.399   3.320   5.599
 7835SOL    HW224405   2.514   3.213   5.643
 7836SOL     OW24406   2.997   3.545   4.770
 7836SOL    HW124407   2.973   3.453   4.739
 7836SOL    HW224408   3.079   3.541   4.827
 7837SOL     OW24409   0.409   5.679   0.540
 7837SOL    HW124410   0.507   5.695   0.541
 7837SOL    HW224411   0.391   5.581   0.530
 7838SOL     OW24412   3.827   4.497   0.687
 7838SOL    HW124413   3.915   4.543   0.686
 7838SOL    HW224414   3.798   4.482   0.782
 7839SOL     OW24415   6.237   3.911   4.652
 7839SOL    HW124416   6.304   3.972   4.694
 7839SOL    HW224417   6.152   3.913   4.704
 7840SOL     OW24418   2.481   2.123   3.464
 7840SOL    HW124419   2.465   2.195   3.397
 7840SOL    HW224420   2.553   2.153   3.528
 7841SOL     OW24421   3.760   2.790   6.470
 7841SOL    HW124422   3.682   2.817   6.526
 7841SOL    HW224423   3.742   2.813   6.374
 7842SOL     OW24424   0.724   0.406   1.102
 7842SOL    HW124425   0.729   0.354   1.016
 7842SOL    HW224426   0.655   0.365   1.161
 7843SOL     OW24427   6.672   5.804   2.415
 7843SOL    HW124428   6.723   5.862   2.479
 7843SOL    HW224429   6.728   5.724   2.390
 7844SOL     OW24430   2.842   6.520   2.266
 7844SOL    HW124431   2.850   6.499   2.169
 7844SOL    HW224432   2.895   6.454   2.319
 7845SOL     OW24433   6.987   2.905   1.845
 7845SOL    HW124434   7.021   2.976   1.907
 7845SOL    HW224435   7.008   2.815   1.882
 7846SOL     OW24436   0.260   1.664   0.712
 7846SOL    HW124437   0.191   1.736   0.724
 7846SOL    HW224438   0.275   1.617   0.799
 7847SOL     OW24439   5.778   3.439   5.776
 7847SOL    HW124440   5.743   3.453   5.683
 7847SOL    HW224441   5.863   3.491   5.788
 7848SOL     OW24442   5.113   5.158   0.207
 7848SOL    HW124443   5.203   5.125   0.234
 7848SOL    HW224444   5.093   5.245   0.253
 7849SOL     OW24445   4.730   5.688   6.658
 7849SOL    HW124446   4.640   5.650   6.637
 7849SOL    HW224447   4.722   5.786   6.677
 7850SOL     OW24448   0.196   1.108   3.351
 7850SOL    HW124449   0.251   1.079   3.430
 7850SOL    HW224450   0.100   1.085   3.367
 7851SOL     OW24451   0.773   4.024   0.736
 7851SOL    HW124452   0.797   3.928   0.755
 7851SOL    HW224453   0.781   4.077   0.820
 7852SOL     OW24454   1.028   3.591   5.310
 7852SOL    HW124455   0.986   3.558   5.226
 7852SOL    HW224456   0.990   3.541   5.389
 7853SOL     OW24457   4.360   2.915   1.639
 7853SOL    HW124458   4.417   2.928   1.558
 7853SOL    HW224459   4.351   3.002   1.688
 7854SOL     OW24460   4.000   0.860   1.482
 7854SOL    HW124461   3.937   0.926   1.441
 7854SOL    HW224462   4.078   0.909   1.523
 7855SOL     OW24463   5.306   5.872   3.319
 7855SOL    HW124464   5.344   5.962   3.344
 7855SOL    HW224465   5.255   5.880   3.234
 7856SOL     OW24466   2.277   6.162   6.387
 7856SOL    HW124467   2.202   6.129   6.445
 7856SOL    HW224468   2.262   6.259   6.365
 7857SOL     OW24469   6.822   4.764   0.454
 7857SOL    HW124470   6.730   4.795   0.480
 7857SOL    HW224471   6.817   4.718   0.365
 7858SOL     OW24472   0.421   4.305   6.626
 7858SOL    HW124473   0.517   4.284   6.646
 7858SOL    HW224474   0.405   4.402   6.643
 7859SOL     OW24475   4.793   2.263   1.658
 7859SOL    HW124476   4.857   2.190   1.635
 7859SOL    HW224477   4.727   2.230   1.726
 7860SOL     OW24478   2.589   1.453   2.812
 7860SOL    HW124479   2.590   1.367   2.863
 7860SOL    HW224480   2.614   1.436   2.717
 7861SOL     OW24481   1.834   5.335   0.276
 7861SOL    HW124482   1.861   5.403   0.345
 7861SOL    HW224483   1.739   5.351   0.249
 7862SOL     OW24484   0.589   0.476   6.783
 7862SOL    HW124485   0.688   0.458   6.787
 7862SOL    HW224486   0.554   0.488   6.876
 7863SOL     OW24487   0.890   5.158   3.710
 7863SOL    HW124488   0.905   5.256   3.726
 7863SOL    HW224489   0.795   5.143   3.681
 7864SOL     OW24490   2.930   5.859   5.108
 7864SOL    HW124491   2.895   5.952   5.116
 7864SOL    HW224492   2.948   5.823   5.199
 7865SOL     OW24493   6.025   5.654   4.261
 7865SOL    HW124494   6.110   5.623   4.302
 7865SOL    HW224495   6.019   5.753   4.267
 7866SOL     OW24496   1.357   1.468   5.402
 7866SOL    HW124497   1.399   1.559   5.408
 7866SOL    HW224498   1.285   1.469   5.333
 7867SOL     OW24499   4.324   6.124   1.958
 7867SOL    HW124500   4.285   6.144   2.048
 7867SOL    HW224501   4.325   6.207   1.903
 7868SOL     OW24502   4.019   5.643   1.788
 7868SOL    HW124503   4.025   5.742   1.791
 7868SOL    HW224504   4.073   5.608   1.712
 7869SOL     OW24505   5.592   4.959   0.321
 7869SOL    HW124506   5.599   4.861   0.304
 7869SOL    HW224507   5.682   5.002   0.308
 7870SOL     OW24508   6.895   0.631   3.025
 7870SOL    HW124509   6.897   0.626   3.125
 7870SOL    HW224510   6.805   0.664   2.995
 7871SOL     OW24511   4.736   0.586   0.706
 7871SOL    HW124512   4.759   0.535   0.790
 7871SOL    HW224513   4.755   0.528   0.627
 7872SOL     OW24514   6.434   5.510   3.834
 7872SOL    HW124515   6.466   5.579   3.769
 7872SOL    HW224516   6.506   5.442   3.849
 7873SOL     OW24517   5.404   2.220   6.486
 7873SOL    HW124518   5.341   2.144   6.472
 7873SOL    HW224519   5.369   2.279   6.558
 7874SOL     OW24520   6.282   2.248   0.882
 7874SOL    HW124521   6.279   2.167   0.942
 7874SOL    HW224522   6.245   2.224   0.792
 7875SOL     OW24523   6.665   5.093   0.237
 7875SOL    HW124524   6.717   5.058   0.159
 7875SOL    HW224525   6.703   5.055   0.321
 7876SOL     OW24526   0.975   6.296   2.995
 7876SOL    HW124527   1.052   6.291   3.058
 7876SOL    HW224528   1.007   6.325   2.905
 7877SOL     OW24529   1.354   3.082   1.934
 7877SOL    HW124530   1.330   2.988   1.911
 7877SOL    HW224531   1.291   3.116   2.004
 7878SOL     OW24532   4.030   0.961   2.742
 7878SOL    HW124533   4.105   0.902   2.712
 7878SOL    HW224534   3.997   1.016   2.665
 7879SOL     OW24535   2.430   6.121   1.554
 7879SOL    HW124536   2.379   6.044   1.594
 7879SOL    HW224537   2.415   6.124   1.456
 7880SOL     OW24538   1.475   4.648   2.747
 7880SOL    HW124539   1.506   4.600   2.665
 7880SOL    HW224540   1.451   4.742   2.724
 7881SOL     OW24541   4.599   2.594   3.039
 7881SOL    HW124542   4.595   2.625   2.944
 7881SOL    HW224543   4.573   2.498   3.044
 7882SOL     OW24544   0.453   2.883   0.117
 7882SOL    HW124545   0.406   2.849   0.198
 7882SOL    HW224546   0.387   2.892   0.042
 7883SOL     OW24547   0.048   0.336   4.352
 7883SOL    HW124548   0.105   0.359   4.430
 7883SOL    HW224549   0.035   0.237   4.348
 7884SOL     OW24550   1.120   2.780   4.076
 7884SOL    HW124551   1.032   2.764   4.030
 7884SOL    HW224552   1.152   2.872   4.055
 7885SOL     OW24553   6.402   6.491   0.553
 7885SOL    HW124554   6.421   6.402   0.595
 7885SOL    HW224555   6.484   6.548   0.557
 7886SOL     OW24556   5.029   3.357   0.418
 7886SOL    HW124557   5.007   3.402   0.504
 7886SOL    HW224558   5.062   3.424   0.352
 7887SOL     OW24559   4.267   2.010   6.093
 7887SOL    HW124560   4.295   2.105   6.089
 7887SOL    HW224561   4.265   1.971   6.001
 7888SOL     OW24562   4.584   5.796   3.801
 7888SOL    HW124563   4.510   5.729   3.807
 7888SOL    HW224564   4.561   5.865   3.733
 7889SOL     OW24565   6.090   4.523   3.613
 7889SOL    HW124566   6.040   4.440   3.587
 7889SOL    HW224567   6.183   4.518   3.578
 7890SOL     OW24568   2.114   4.343   3.454
 7890SOL    HW124569   2.057   4.425   3.462
 7890SOL    HW224570   2.210   4.367   3.473
 7891SOL     OW24571   6.900   4.325   2.360
 7891SOL    HW124572   6.932   4.393   2.427
 7891SOL    HW224573   6.877   4.240   2.408
 7892SOL     OW24574   2.324   2.797   4.378
 7892SOL    HW124575   2.388   2.783   4.302
 7892SOL    HW224576   2.261   2.720   4.383
 7893SOL     OW24577   4.890   6.351   1.760
 7893SOL    HW124578   4.933   6.406   1.831
 7893SOL    HW224579   4.821   6.406   1.712
 7894SOL     OW24580   2.818   0.149   0.861
 7894SOL    HW124581   2.724   0.179   0.879
 7894SOL    HW224582   2.829   0.055   0.895
 7895SOL     OW24583   1.651   1.520   4.949
 7895SOL    HW124584   1.705   1.556   4.874
 7895SOL    HW224585   1.686   1.554   5.036
 7896SOL     OW24586   3.892   1.725   0.332
 7896SOL    HW124587   3.812   1.672   0.304
 7896SOL    HW224588   3.923   1.782   0.256
 7897SOL     OW24589   3.267   3.871   0.603
 7897SOL    HW124590   3.346   3.920   0.566
 7897SOL    HW224591   3.261   3.887   0.701
 7898SOL     OW24592   5.425   0.937   4.655
 7898SOL    HW124593   5.390   0.949   4.748
 7898SOL    HW224594   5.493   1.007   4.635
 7899SOL     OW24595   4.664   0.799   1.920
 7899SOL    HW124596   4.652   0.794   2.019
 7899SOL    HW224597   4.762   0.792   1.898
 7900SOL     OW24598   0.794   5.719   0.978
 7900SOL    HW124599   0.749   5.723   0.889
 7900SOL    HW224600   0.884   5.675   0.968
 7901SOL     OW24601   5.582   5.069   1.494
 7901SOL    HW124602   5.606   4.972   1.484
 7901SOL    HW224603   5.625   5.122   1.421
 7902SOL     OW24604   4.485   5.231   6.238
 7902SOL    HW124605   4.428   5.253   6.318
 7902SOL    HW224606   4.469   5.136   6.211
 7903SOL     OW24607   1.483   2.348   1.867
 7903SOL    HW124608   1.504   2.270   1.926
 7903SOL    HW224609   1.566   2.398   1.847
 7904SOL     OW24610   5.470   1.727   3.125
 7904SOL    HW124611   5.508   1.648   3.077
 7904SOL    HW224612   5.474   1.711   3.224
 7905SOL     OW24613   2.955   2.408   1.486
 7905SOL    HW124614   2.872   2.440   1.532
 7905SOL    HW224615   3.035   2.439   1.536
 7906SOL     OW24616   2.033   3.893   6.802
 7906SOL    HW124617   1.948   3.921   6.756
 7906SOL    HW224618   2.055   3.799   6.777
 7907SOL     OW24619   0.378   3.148   3.008
 7907SOL    HW124620   0.430   3.070   3.043
 7907SOL    HW224621   0.397   3.159   2.910
 7908SOL     OW24622   1.175   0.756   2.938
 7908SOL    HW124623   1.129   0.799   3.016
 7908SOL    HW224624   1.155   0.658   2.938
 7909SOL     OW24625   3.577   5.730   5.055
 7909SOL    HW124626   3.582   5.630   5.052
 7909SOL    HW224627   3.557   5.759   5.148
 7910SOL     OW24628   6.579   2.967   5.776
 7910SOL    HW124629   6.580   2.964   5.876
 7910SOL    HW224630   6.497   2.921   5.742
 7911SOL     OW24631   0.257   6.282   6.924
 7911SOL    HW124632   0.171   6.255   6.968
 7911SOL    HW224633   0.328   6.292   6.993
 7912SOL     OW24634   6.771   5.031   5.512
 7912SOL    HW124635   6.803   5.107   5.456
 7912SOL    HW224636   6.847   4.970   5.531
 7913SOL     OW24637   1.780   6.016   6.485
 7913SOL    HW124638   1.814   5.923   6.473
 7913SOL    HW224639   1.759   6.031   6.582
 7914SOL     OW24640   5.814   4.329   1.193
 7914SOL    HW124641   5.793   4.243   1.240
 7914SOL    HW224642   5.741   4.395   1.212
 7915SOL     OW24643   3.180   1.287   2.927
 7915SOL    HW124644   3.211   1.212   2.869
 7915SOL    HW224645   3.231   1.370   2.905
 7916SOL     OW24646   3.339   3.295   5.134
 7916SOL    HW124647   3.358   3.199   5.157
 7916SOL    HW224648   3.422   3.338   5.100
 7917SOL     OW24649   3.658   4.152   3.610
 7917SOL    HW124650   3.602   4.086   3.661
 7917SOL    HW224651   3.612   4.241   3.608
 7918SOL     OW24652   6.129   2.259   1.754
 7918SOL    HW124653   6.035   2.245   1.722
 7918SOL    HW224654   6.127   2.310   1.840
 7919SOL     OW24655   5.723   3.495   2.761
 7919SOL    HW124656   5.791   3.527   2.828
 7919SOL    HW224657   5.742   3.400   2.737
 7920SOL     OW24658   0.234   6.284   0.513
 7920SOL    HW124659   0.160   6.296   0.579
 7920SOL    HW224660   0.225   6.353   0.441
 7921SOL     OW24661   3.592   5.008   1.817
 7921SOL    HW124662   3.509   5.030   1.767
 7921SOL    HW224663   3.597   4.909   1.833
 7922SOL     OW24664   1.667   4.128   4.809
 7922SOL    HW124665   1.724   4.065   4.756
 7922SOL    HW224666   1.726   4.188   4.863
 7923SOL     OW24667   1.970   3.148   2.403
 7923SOL    HW124668   2.066   3.123   2.419
 7923SOL    HW224669   1.953   3.240   2.438
 7924SOL     OW24670   2.792   1.997   3.516
 7924SOL    HW124671   2.878   2.033   3.554
 7924SOL    HW224672   2.741   2.072   3.475
 7925SOL     OW24673   1.406   1.908   0.543
 7925SOL    HW124674   1.334   1.926   0.475
 7925SOL    HW224675   1.465   1.988   0.550
 7926SOL     OW24676   3.485   0.251   1.484
 7926SOL    HW124677   3.528   0.308   1.414
 7926SOL    HW224678   3.500   0.293   1.574
 7927SOL     OW24679   4.538   4.826   4.071
 7927SOL    HW124680   4.481   4.907   4.083
 7927SOL    HW224681   4.514   4.757   4.139
 7928SOL     OW24682   1.006   3.944   1.465
 7928SOL    HW124683   1.096   3.980   1.440
 7928SOL    HW224684   0.935   4.004   1.430
 7929SOL     OW24685   3.206   3.717   4.512
 7929SOL    HW124686   3.217   3.795   4.573
 7929SOL    HW224687   3.112   3.713   4.479
 7930SOL     OW24688   3.281   0.139   1.887
 7930SOL    HW124689   3.221   0.219   1.891
 7930SOL    HW224690   3.232   0.063   1.842
 7931SOL     OW24691   2.246   3.080   5.325
 7931SOL    HW124692   2.328   3.066   5.270
 7931SOL    HW224693   2.248   3.019   5.405
 7932SOL     OW24694   3.029   2.165   1.165
 7932SOL    HW124695   3.012   2.080   1.214
 7932SOL    HW224696   3.060   2.235   1.230
 7933SOL     OW24697   1.448   1.151   6.217
 7933SOL    HW124698   1.474   1.215   6.290
 7933SOL    HW224699   1.461   1.057   6.248
 7934SOL     OW24700   4.237   2.450   5.907
 7934SOL    HW124701   4.286   2.527   5.865
 7934SOL    HW224702   4.304   2.385   5.943
 7935SOL     OW24703   4.742   5.000   2.475
 7935SOL    HW124704   4.761   4.902   2.484
 7935SOL    HW224705   4.821   5.046   2.436
 7936SOL     OW24706   4.107   6.450   2.104
 7936SOL    HW124707   4.089   6.533   2.156
 7936SOL    HW224708   4.097   6.371   2.163
 7937SOL     OW24709   5.646   1.887   6.262
 7937SOL    HW124710   5.662   1.823   6.187
 7937SOL    HW224711   5.584   1.959   6.232
 7938SOL     OW24712   6.503   4.322   4.285
 7938SOL    HW124713   6.562   4.242   4.272
 7938SOL    HW224714   6.538   4.398   4.231
 7939SOL     OW24715   5.935   5.504   4.498
 7939SOL    HW124716   5.956   5.553   4.413
 7939SOL    HW224717   6.014   5.447   4.524
 7940SOL     OW24718   1.414   5.557   0.281
 7940SOL    HW124719   1.343   5.537   0.214
 7940SOL    HW224720   1.372   5.579   0.369
 7941SOL     OW24721   0.856   0.643   1.726
 7941SOL    HW124722   0.917   0.565   1.712
 7941SOL    HW224723   0.830   0.682   1.638
 7942SOL     OW24724   0.697   6.673   1.429
 7942SOL    HW124725   0.599   6.675   1.446
 7942SOL    HW224726   0.719   6.733   1.353
 7943SOL     OW24727   6.385   2.687   6.538
 7943SOL    HW124728   6.390   2.693   6.638
 7943SOL    HW224729   6.291   2.703   6.509
 7944SOL     OW24730   6.321   3.598   1.864
 7944SOL    HW124731   6.335   3.571   1.768
 7944SOL    HW224732   6.236   3.649   1.872
 7945SOL     OW24733   6.313   6.202   6.920
 7945SOL    HW124734   6.267   6.286   6.949
 7945SOL    HW224735   6.255   6.123   6.939
 7946SOL     OW24736   1.412   1.172   5.946
 7946SOL    HW124737   1.422   1.075   5.923
 7946SOL    HW224738   1.429   1.185   6.043
 7947SOL     OW24739   3.119   5.183   6.655
 7947SOL    HW124740   3.091   5.088   6.673
 7947SOL    HW224741   3.052   5.245   6.695
 7948SOL     OW24742   1.610   4.365   4.607
 7948SOL    HW124743   1.633   4.280   4.654
 7948SOL    HW224744   1.546   4.345   4.533
 7949SOL     OW24745   0.407   3.967   4.433
 7949SOL    HW124746   0.353   3.891   4.470
 7949SOL    HW224747   0.445   3.939   4.344
 7950SOL     OW24748   2.809   6.019   3.106
 7950SOL    HW124749   2.799   5.962   3.024
 7950SOL    HW224750   2.742   5.990   3.175
 7951SOL     OW24751   2.329   3.720   0.373
 7951SOL    HW124752   2.248   3.669   0.401
 7951SOL    HW224753   2.410   3.664   0.384
 7952SOL     OW24754   6.118   3.661   0.487
 7952SOL    HW124755   6.080   3.575   0.521
 7952SOL    HW224756   6.215   3.649   0.466
 7953SOL     OW24757   2.245   4.462   1.356
 7953SOL    HW124758   2.280   4.502   1.441
 7953SOL    HW224759   2.264   4.364   1.356
 7954SOL     OW24760   6.104   5.469   3.821
 7954SOL    HW124761   6.134   5.541   3.757
 7954SOL    HW224762   6.123   5.498   3.915
 7955SOL     OW24763   1.584   6.079   6.292
 7955SOL    HW124764   1.541   5.990   6.283
 7955SOL    HW224765   1.661   6.073   6.356
 7956SOL     OW24766   5.391   6.299   3.179
 7956SOL    HW124767   5.350   6.250   3.102
 7956SOL    HW224768   5.330   6.372   3.208
 7957SOL     OW24769   0.526   3.310   1.892
 7957SOL    HW124770   0.470   3.227   1.900
 7957SOL    HW224771   0.594   3.297   1.819
 7958SOL     OW24772   2.061   5.638   3.282
 7958SOL    HW124773   2.015   5.549   3.283
 7958SOL    HW224774   2.015   5.699   3.218
 7959SOL     OW24775   4.614   3.992   1.104
 7959SOL    HW124776   4.585   3.935   1.182
 7959SOL    HW224777   4.678   3.941   1.047
 7960SOL     OW24778   1.662   2.219   1.340
 7960SOL    HW124779   1.576   2.172   1.319
 7960SOL    HW224780   1.695   2.267   1.258
 7961SOL     OW24781   1.608   6.346   6.957
 7961SOL    HW124782   1.679   6.381   7.017
 7961SOL    HW224783   1.598   6.408   6.879
 7962SOL     OW24784   1.391   6.881   2.521
 7962SOL    HW124785   1.315   6.906   2.461
 7962SOL    HW224786   1.382   6.785   2.549
 7963SOL     OW24787   0.215   6.350   6.316
 7963SOL    HW124788   0.302   6.336   6.268
 7963SOL    HW224789   0.232   6.368   6.413
 7964SOL     OW24790   6.334   5.358   3.444
 7964SOL    HW124791   6.288   5.344   3.532
 7964SOL    HW224792   6.411   5.421   3.456
 7965SOL     OW24793   3.785   1.830   1.200
 7965SOL    HW124794   3.710   1.895   1.205
 7965SOL    HW224795   3.827   1.820   1.290
 7966SOL     OW24796   0.314   1.428   3.747
 7966SOL    HW124797   0.347   1.381   3.664
 7966SOL    HW224798   0.215   1.435   3.744
 7967SOL     OW24799   1.843   0.218   4.046
 7967SOL    HW124800   1.799   0.306   4.026
 7967SOL    HW224801   1.822   0.154   3.972
 7968SOL     OW24802   2.334   1.413   7.011
 7968SOL    HW124803   2.267   1.423   6.938
 7968SOL    HW224804   2.322   1.324   0.027
 7969SOL     OW24805   4.255   1.851   3.457
 7969SOL    HW124806   4.270   1.949   3.474
 7969SOL    HW224807   4.163   1.838   3.420
 7970SOL     OW24808   0.340   4.968   3.104
 7970SOL    HW124809   0.325   5.012   3.192
 7970SOL    HW224810   0.423   4.912   3.108
 7971SOL     OW24811   3.639   1.560   3.333
 7971SOL    HW124812   3.610   1.656   3.341
 7971SOL    HW224813   3.654   1.522   3.424
 7972SOL     OW24814   4.744   5.271   1.135
 7972SOL    HW124815   4.699   5.355   1.106
 7972SOL    HW224816   4.723   5.197   1.071
 7973SOL     OW24817   5.925   1.625   3.123
 7973SOL    HW124818   5.945   1.720   3.100
 7973SOL    HW224819   6.009   1.572   3.119
 7974SOL     OW24820   4.575   6.016   4.932
 7974SOL    HW124821   4.656   6.052   4.977
 7974SOL    HW224822   4.502   6.084   4.935
 7975SOL     OW24823   1.746   0.724   2.006
 7975SOL    HW124824   1.834   0.770   1.993
 7975SOL    HW224825   1.697   0.768   2.082
 7976SOL     OW24826   0.243   6.429   5.954
 7976SOL    HW124827   0.219   6.386   6.041
 7976SOL    HW224828   0.234   6.528   5.962
 7977SOL     OW24829   5.389   6.316   1.654
 7977SOL    HW124830   5.457   6.375   1.698
 7977SOL    HW224831   5.411   6.220   1.672
 7978SOL     OW24832   3.412   1.577   5.891
 7978SOL    HW124833   3.367   1.490   5.908
 7978SOL    HW224834   3.352   1.652   5.920
 7979SOL     OW24835   4.678   5.391   4.330
 7979SOL    HW124836   4.652   5.436   4.245
 7979SOL    HW224837   4.737   5.313   4.310
 7980SOL     OW24838   2.651   0.776   0.932
 7980SOL    HW124839   2.648   0.722   1.016
 7980SOL    HW224840   2.558   0.794   0.900
 7981SOL     OW24841   0.654   6.504   2.740
 7981SOL    HW124842   0.749   6.508   2.709
 7981SOL    HW224843   0.644   6.556   2.824
 7982SOL     OW24844   0.150   2.371   1.257
 7982SOL    HW124845   0.204   2.449   1.288
 7982SOL    HW224846   0.142   2.305   1.332
 7983SOL     OW24847   5.282   1.792   1.512
 7983SOL    HW124848   5.223   1.809   1.434
 7983SOL    HW224849   5.234   1.736   1.579
 7984SOL     OW24850   5.463   0.744   6.823
 7984SOL    HW124851   5.532   0.806   6.859
 7984SOL    HW224852   5.386   0.797   6.787
 7985SOL     OW24853   0.534   1.735   0.842
 7985SOL    HW124854   0.585   1.652   0.866
 7985SOL    HW224855   0.457   1.710   0.783
 7986SOL     OW24856   5.100   3.944   0.320
 7986SOL    HW124857   5.130   3.876   0.386
 7986SOL    HW224858   5.093   4.033   0.364
 7987SOL     OW24859   1.024   4.205   5.826
 7987SOL    HW124860   1.107   4.163   5.861
 7987SOL    HW224861   0.984   4.147   5.755
 7988SOL     OW24862   2.359   1.157   4.948
 7988SOL    HW124863   2.415   1.239   4.964
 7988SOL    HW224864   2.410   1.076   4.976
 7989SOL     OW24865   2.639   3.579   6.925
 7989SOL    HW124866   2.580   3.500   6.908
 7989SOL    HW224867   2.732   3.558   6.892
 7990SOL     OW24868   2.244   3.015   4.778
 7990SOL    HW124869   2.300   2.942   4.738
 7990SOL    HW224870   2.290   3.052   4.859
 7991SOL     OW24871   2.418   3.021   5.859
 7991SOL    HW124872   2.330   3.045   5.898
 7991SOL    HW224873   2.437   3.079   5.780
 7992SOL     OW24874   2.593   1.372   6.965
 7992SOL    HW124875   2.618   1.409   6.876
 7992SOL    HW224876   2.500   1.400   6.988
 7993SOL     OW24877   3.252   5.660   6.562
 7993SOL    HW124878   3.339   5.617   6.588
 7993SOL    HW224879   3.261   5.760   6.568
 7994SOL     OW24880   5.444   0.086   4.733
 7994SOL    HW124881   5.407   0.177   4.713
 7994SOL    HW224882   5.543   0.087   4.719
 7995SOL     OW24883   4.177   5.109   2.456
 7995SOL    HW124884   4.099   5.157   2.417
 7995SOL    HW224885   4.147   5.021   2.494
 7996SOL     OW24886   4.926   1.911   5.369
 7996SOL    HW124887   4.968   1.961   5.293
 7996SOL    HW224888   4.997   1.864   5.420
 7997SOL     OW24889   5.102   3.198   0.981
 7997SOL    HW124890   5.069   3.176   0.889
 7997SOL    HW224891   5.025   3.216   1.042
 7998SOL     OW24892   0.129   5.981   6.824
 7998SOL    HW124893   0.117   5.964   6.726
 7998SOL    HW224894   0.188   6.060   6.837
 7999SOL     OW24895   3.346   2.184   6.157
 7999SOL    HW124896   3.363   2.094   6.198
 7999SOL    HW224897   3.412   2.201   6.084
 8000SOL     OW24898   5.204   6.935   5.383
 8000SOL    HW124899   5.165   7.001   5.318
 8000SOL    HW224900   5.137   6.916   5.455
 8001SOL     OW24901   3.019   4.470   1.348
 8001SOL    HW124902   2.993   4.410   1.424
 8001SOL    HW224903   3.098   4.525   1.375
 8002SOL     OW24904   4.755   2.132   5.437
 8002SOL    HW124905   4.804   2.051   5.403
 8002SOL    HW224906   4.784   2.213   5.386
 8003SOL     OW24907   5.217   5.643   3.449
 8003SOL    HW124908   5.266   5.718   3.405
 8003SOL    HW224909   5.185   5.579   3.379
 8004SOL     OW24910   2.060   5.211   3.315
 8004SOL    HW124911   2.099   5.153   3.244
 8004SOL    HW224912   2.025   5.154   3.389
 8005SOL     OW24913   2.580   0.558   2.168
 8005SOL    HW124914   2.642   0.493   2.212
 8005SOL    HW224915   2.574   0.641   2.224
 8006SOL     OW24916   4.966   5.504   3.295
 8006SOL    HW124917   4.891   5.444   3.268
 8006SOL    HW224918   4.985   5.569   3.222
 8007SOL     OW24919   0.941   1.432   3.279
 8007SOL    HW124920   0.885   1.512   3.259
 8007SOL    HW224921   0.954   1.379   3.194
 8008SOL     OW24922   6.559   4.680   1.137
 8008SOL    HW124923   6.509   4.614   1.194
 8008SOL    HW224924   6.560   4.648   1.042
 8009SOL     OW24925   6.348   6.353   3.195
 8009SOL    HW124926   6.297   6.438   3.204
 8009SOL    HW224927   6.308   6.297   3.123
 8010SOL     OW24928   1.952   1.584   5.425
 8010SOL    HW124929   1.968   1.488   5.446
 8010SOL    HW224930   2.028   1.619   5.369
 8011SOL     OW24931   1.798   3.448   0.490
 8011SOL    HW124932   1.794   3.392   0.407
 8011SOL    HW224933   1.861   3.524   0.475
 8012SOL     OW24934   1.906   5.421   3.296
 8012SOL    HW124935   1.837   5.396   3.363
 8012SOL    HW224936   1.975   5.350   3.290
 8013SOL     OW24937   6.087   6.099   3.903
 8013SOL    HW124938   6.018   6.059   3.963
 8013SOL    HW224939   6.102   6.039   3.824
 8014SOL     OW24940   2.682   0.360   5.978
 8014SOL    HW124941   2.691   0.460   5.972
 8014SOL    HW224942   2.588   0.334   5.961
 8015SOL     OW24943   2.090   0.677   0.793
 8015SOL    HW124944   2.092   0.776   0.783
 8015SOL    HW224945   2.045   0.653   0.880
 8016SOL     OW24946   4.639   5.388   1.672
 8016SOL    HW124947   4.692   5.383   1.588
 8016SOL    HW224948   4.701   5.380   1.751
 8017SOL     OW24949   6.120   3.092   4.430
 8017SOL    HW124950   6.062   3.020   4.392
 8017SOL    HW224951   6.098   3.179   4.386
 8018SOL     OW24952   4.916   3.329   3.207
 8018SOL    HW124953   4.962   3.260   3.263
 8018SOL    HW224954   4.832   3.290   3.168
 8019SOL     OW24955   3.773   5.069   1.568
 8019SOL    HW124956   3.716   5.150   1.551
 8019SOL    HW224957   3.714   4.988   1.574
 8020SOL     OW24958   6.345   6.437   6.577
 8020SOL    HW124959   6.329   6.505   6.505
 8020SOL    HW224960   6.264   6.380   6.588
 8021SOL     OW24961   6.252   1.285   2.395
 8021SOL    HW124962   6.212   1.194   2.393
 8021SOL    HW224963   6.235   1.327   2.484
 8022SOL     OW24964   5.953   4.868   4.182
 8022SOL    HW124965   5.928   4.787   4.130
 8022SOL    HW224966   6.033   4.848   4.239
 8023SOL     OW24967   7.013   5.475   3.612
 8023SOL    HW124968   0.004   5.498   3.708
 8023SOL    HW224969   6.935   5.413   3.608
 8024SOL     OW24970   4.857   5.678   3.819
 8024SOL    HW124971   4.908   5.716   3.741
 8024SOL    HW224972   4.765   5.717   3.821
 8025SOL     OW24973   2.497   6.111   0.224
 8025SOL    HW124974   2.503   6.090   0.321
 8025SOL    HW224975   2.438   6.045   0.179
 8026SOL     OW24976   3.081   2.208   0.419
 8026SOL    HW124977   3.036   2.137   0.365
 8026SOL    HW224978   3.108   2.283   0.359
 8027SOL     OW24979   4.178   3.646   5.906
 8027SOL    HW124980   4.206   3.696   5.987
 8027SOL    HW224981   4.257   3.601   5.864
 8028SOL     OW24982   6.149   4.224   1.425
 8028SOL    HW124983   6.233   4.266   1.460
 8028SOL    HW224984   6.172   4.166   1.346
 8029SOL     OW24985   2.897   4.374   5.659
 8029SOL    HW124986   2.962   4.298   5.665
 8029SOL    HW224987   2.907   4.419   5.570
 8030SOL     OW24988   0.449   3.961   2.014
 8030SOL    HW124989   0.489   3.971   2.105
 8030SOL    HW224990   0.393   3.879   2.011
 8031SOL     OW24991   4.078   6.202   0.796
 8031SOL    HW124992   4.043   6.294   0.778
 8031SOL    HW224993   4.132   6.203   0.880
 8032SOL     OW24994   4.276   3.449   5.305
 8032SOL    HW124995   4.309   3.383   5.373
 8032SOL    HW224996   4.337   3.529   5.304
 8033SOL     OW24997   5.548   1.063   2.403
 8033SOL    HW124998   5.509   1.029   2.488
 8033SOL    HW224999   5.511   1.153   2.383
 8034SOL     OW25000   6.942   2.628   5.823
 8034SOL    HW125001   6.997   2.603   5.743
 8034SOL    HW225002   6.898   2.546   5.859
 8035SOL     OW25003   5.869   5.797   6.955
 8035SOL    HW125004   5.915   5.885   6.966
 8035SOL    HW225005   5.837   5.788   6.860
 8036SOL     OW25006   0.987   3.137   1.728
 8036SOL    HW125007   0.963   3.194   1.650
 8036SOL    HW225008   1.004   3.043   1.697
 8037SOL     OW25009   1.592   3.088   1.458
 8037SOL    HW125010   1.498   3.106   1.430
 8037SOL    HW225011   1.645   3.173   1.455
 8038SOL     OW25012   5.774   0.898   3.860
 8038SOL    HW125013   5.866   0.882   3.824
 8038SOL    HW225014   5.708   0.843   3.809
 8039SOL     OW25015   2.281   5.973   3.577
 8039SOL    HW125016   2.380   5.977   3.592
 8039SOL    HW225017   2.262   5.920   3.495
 8040SOL     OW25018   6.259   5.962   6.140
 8040SOL    HW125019   6.347   5.955   6.187
 8040SOL    HW225020   6.254   6.050   6.093
 8041SOL     OW25021   3.415   2.814   0.828
 8041SOL    HW125022   3.335   2.765   0.794
 8041SOL    HW225023   3.438   2.781   0.920
 8042SOL     OW25024   1.666   4.694   6.967
 8042SOL    HW125025   1.625   4.723   0.025
 8042SOL    HW225026   1.763   4.676   6.980
 8043SOL     OW25027   3.055   0.833   1.279
 8043SOL    HW125028   3.125   0.822   1.349
 8043SOL    HW225029   3.004   0.748   1.268
 8044SOL     OW25030   3.274   2.745   1.414
 8044SOL    HW125031   3.220   2.692   1.348
 8044SOL    HW225032   3.259   2.842   1.399
 8045SOL     OW25033   5.577   2.789   4.178
 8045SOL    HW125034   5.510   2.788   4.104
 8045SOL    HW225035   5.582   2.881   4.217
 8046SOL     OW25036   6.476   5.283   5.090
 8046SOL    HW125037   6.462   5.368   5.040
 8046SOL    HW225038   6.534   5.301   5.170
 8047SOL     OW25039   3.162   6.564   4.293
 8047SOL    HW125040   3.219   6.535   4.371
 8047SOL    HW225041   3.206   6.639   4.245
 8048SOL     OW25042   5.374   6.944   5.675
 8048SOL    HW125043   5.457   6.986   5.638
 8048SOL    HW225044   5.294   6.987   5.635
 8049SOL     OW25045   2.587   6.487   6.063
 8049SOL    HW125046   2.572   6.390   6.082
 8049SOL    HW225047   2.582   6.538   6.149
 8050SOL     OW25048   0.559   3.534   1.585
 8050SOL    HW125049   0.496   3.611   1.595
 8050SOL    HW225050   0.585   3.525   1.489
 8051SOL     OW25051   1.902   2.529   4.160
 8051SOL    HW125052   1.897   2.430   4.151
 8051SOL    HW225053   1.814   2.563   4.194
 8052SOL     OW25054   4.416   1.006   2.830
 8052SOL    HW125055   4.384   0.982   2.738
 8052SOL    HW225056   4.357   0.964   2.898
 8053SOL     OW25057   4.738   3.370   1.320
 8053SOL    HW125058   4.735   3.467   1.346
 8053SOL    HW225059   4.669   3.320   1.372
 8054SOL     OW25060   4.843   6.706   4.806
 8054SOL    HW125061   4.940   6.695   4.786
 8054SOL    HW225062   4.814   6.637   4.872
 8055SOL     OW25063   1.281   0.532   4.933
 8055SOL    HW125064   1.208   0.600   4.939
 8055SOL    HW225065   1.344   0.558   4.860
 8056SOL     OW25066   4.970   1.267   2.921
 8056SOL    HW125067   4.917   1.340   2.876
 8056SOL    HW225068   5.067   1.292   2.922
 8057SOL     OW25069   2.984   7.011   3.121
 8057SOL    HW125070   3.014   0.003   3.214
 8057SOL    HW225071   3.063   6.992   3.063
 8058SOL     OW25072   1.932   0.911   3.276
 8058SOL    HW125073   1.891   1.002   3.270
 8058SOL    HW225074   1.861   0.842   3.263
 8059SOL     OW25075   2.116   1.374   3.581
 8059SOL    HW125076   2.045   1.388   3.512
 8059SOL    HW225077   2.073   1.358   3.670
 8060SOL     OW25078   1.338   2.754   5.280
 8060SOL    HW125079   1.423   2.792   5.316
 8060SOL    HW225080   1.292   2.821   5.222
 8061SOL     OW25081   5.139   6.500   2.330
 8061SOL    HW125082   5.080   6.462   2.259
 8061SOL    HW225083   5.112   6.594   2.350
 8062SOL     OW25084   1.651   1.402   1.703
 8062SOL    HW125085   1.635   1.334   1.632
 8062SOL    HW225086   1.566   1.450   1.724
 8063SOL     OW25087   3.320   2.130   5.641
 8063SOL    HW125088   3.222   2.140   5.657
 8063SOL    HW225089   3.337   2.105   5.546
 8064SOL     OW25090   5.123   2.173   6.002
 8064SOL    HW125091   5.183   2.247   5.970
 8064SOL    HW225092   5.036   2.212   6.033
 8065SOL     OW25093   4.255   0.914   6.777
 8065SOL    HW125094   4.303   0.998   6.806
 8065SOL    HW225095   4.236   0.859   6.858
 8066SOL     OW25096   0.024   0.806   1.931
 8066SOL    HW125097   0.094   0.742   1.961
 8066SOL    HW225098   0.014   0.799   1.832
 8067SOL     OW25099   4.271   1.599   2.776
 8067SOL    HW125100   4.251   1.683   2.726
 8067SOL    HW225101   4.370   1.591   2.789
 8068SOL     OW25102   6.156   4.019   3.288
 8068SOL    HW125103   6.206   4.047   3.207
 8068SOL    HW225104   6.074   4.076   3.298
 8069SOL     OW25105   6.728   5.536   2.285
 8069SOL    HW125106   6.728   5.454   2.228
 8069SOL    HW225107   6.795   5.601   2.251
 8070SOL     OW25108   4.118   1.148   2.930
 8070SOL    HW125109   4.072   1.061   2.910
 8070SOL    HW225110   4.049   1.217   2.953
 8071SOL     OW25111   6.415   4.313   6.626
 8071SOL    HW125112   6.359   4.292   6.705
 8071SOL    HW225113   6.494   4.250   6.623
 8072SOL     OW25114   2.991   0.253   3.090
 8072SOL    HW125115   2.923   0.316   3.053
 8072SOL    HW225116   2.955   0.160   3.089
 8073SOL     OW25117   5.490   0.065   6.278
 8073SOL    HW125118   5.540   0.133   6.331
 8073SOL    HW225119   5.484   7.008   6.329
 8074SOL     OW25120   2.895   4.777   0.530
 8074SOL    HW125121   2.939   4.864   0.549
 8074SOL    HW225122   2.962   4.703   0.539
 8075SOL     OW25123   6.213   1.923   3.928
 8075SOL    HW125124   6.312   1.932   3.916
 8075SOL    HW225125   6.169   2.009   3.904
 8076SOL     OW25126   4.658   2.240   6.933
 8076SOL    HW125127   4.602   2.189   6.867
 8076SOL    HW225128   4.616   2.329   6.949
 8077SOL     OW25129   0.482   0.682   6.658
 8077SOL    HW125130   0.399   0.702   6.711
 8077SOL    HW225131   0.521   0.595   6.688
 8078SOL     OW25132   6.633   4.146   1.187
 8078SOL    HW125133   6.580   4.119   1.267
 8078SOL    HW225134   6.609   4.088   1.110
 8079SOL     OW25135   1.629   3.345   0.695
 8079SOL    HW125136   1.681   3.404   0.632
 8079SOL    HW225137   1.551   3.305   0.646
 8080SOL     OW25138   3.632   5.027   6.909
 8080SOL    HW125139   3.687   5.001   6.988
 8080SOL    HW225140   3.605   4.945   6.859
 8081SOL     OW25141   4.982   2.285   4.386
 8081SOL    HW125142   4.892   2.271   4.346
 8081SOL    HW225143   5.050   2.291   4.313
 8082SOL     OW25144   6.692   3.578   5.239
 8082SOL    HW125145   6.614   3.515   5.246
 8082SOL    HW225146   6.658   3.670   5.220
 8083SOL     OW25147   6.707   2.340   5.727
 8083SOL    HW125148   6.804   2.330   5.752
 8083SOL    HW225149   6.694   2.425   5.676
 8084SOL     OW25150   5.816   6.758   5.918
 8084SOL    HW125151   5.720   6.785   5.926
 8084SOL    HW225152   5.863   6.776   6.005
 8085SOL     OW25153   5.140   2.944   1.966
 8085SOL    HW125154   5.218   2.976   1.913
 8085SOL    HW225155   5.166   2.935   2.062
 8086SOL     OW25156   2.720   5.348   0.094
 8086SOL    HW125157   2.685   5.401   0.016
 8086SOL    HW225158   2.727   5.407   0.174
 8087SOL     OW25159   1.891   4.183   0.958
 8087SOL    HW125160   1.959   4.208   0.888
 8087SOL    HW225161   1.800   4.182   0.917
 8088SOL     OW25162   4.466   0.623   3.066
 8088SOL    HW125163   4.433   0.644   3.157
 8088SOL    HW225164   4.558   0.583   3.072
 8089SOL     OW25165   6.885   2.020   0.336
 8089SOL    HW125166   6.865   2.015   0.433
 8089SOL    HW225167   6.970   1.971   0.316
 8090SOL     OW25168   5.452   0.964   4.952
 8090SOL    HW125169   5.387   1.024   4.999
 8090SOL    HW225170   5.543   1.006   4.951
 8091SOL     OW25171   1.594   3.565   4.615
 8091SOL    HW125172   1.603   3.486   4.675
 8091SOL    HW225173   1.684   3.606   4.600
 8092SOL     OW25174   6.358   2.077   4.150
 8092SOL    HW125175   6.351   2.170   4.186
 8092SOL    HW225176   6.266   2.039   4.136
 8093SOL     OW25177   5.783   4.649   0.465
 8093SOL    HW125178   5.803   4.560   0.506
 8093SOL    HW225179   5.786   4.720   0.535
 8094SOL     OW25180   0.776   3.513   4.299
 8094SOL    HW125181   0.697   3.544   4.351
 8094SOL    HW225182   0.855   3.506   4.360
 8095SOL     OW25183   6.599   3.038   4.768
 8095SOL    HW125184   6.533   2.982   4.718
 8095SOL    HW225185   6.561   3.061   4.858
 8096SOL     OW25186   3.704   0.418   0.830
 8096SOL    HW125187   3.666   0.413   0.738
 8096SOL    HW225188   3.782   0.480   0.831
 8097SOL     OW25189   4.783   2.079   4.013
 8097SOL    HW125190   4.775   2.143   4.089
 8097SOL    HW225191   4.696   2.074   3.965
 8098SOL     OW25192   2.308   2.077   4.061
 8098SOL    HW125193   2.305   2.107   3.965
 8098SOL    HW225194   2.284   2.154   4.120
 8099SOL     OW25195   4.299   6.643   3.961
 8099SOL    HW125196   4.299   6.693   3.875
 8099SOL    HW225197   4.262   6.701   4.034
 8100SOL     OW25198   6.328   6.535   1.544
 8100SOL    HW125199   6.236   6.560   1.515
 8100SOL    HW225200   6.393   6.604   1.513
 8101SOL     OW25201   1.244   4.542   2.873
 8101SOL    HW125202   1.337   4.575   2.860
 8101SOL    HW225203   1.190   4.560   2.791
 8102SOL     OW25204   6.548   0.187   5.512
 8102SOL    HW125205   6.500   0.114   5.464
 8102SOL    HW225206   6.552   0.268   5.455
 8103SOL     OW25207   2.878   2.266   2.375
 8103SOL    HW125208   2.808   2.319   2.424
 8103SOL    HW225209   2.909   2.318   2.295
 8104SOL     OW25210   2.541   0.698   5.754
 8104SOL    HW125211   2.494   0.786   5.745
 8104SOL    HW225212   2.615   0.707   5.821
 8105SOL     OW25213   2.325   2.741   2.782
 8105SOL    HW125214   2.305   2.838   2.793
 8105SOL    HW225215   2.322   2.696   2.871
 8106SOL     OW25216   0.660   4.749   6.597
 8106SOL    HW125217   0.721   4.681   6.638
 8106SOL    HW225218   0.576   4.703   6.566
 8107SOL     OW25219   0.715   5.492   6.524
 8107SOL    HW125220   0.677   5.510   6.434
 8107SOL    HW225221   0.644   5.504   6.593
 8108SOL     OW25222   1.889   2.044   6.244
 8108SOL    HW125223   1.904   1.975   6.172
 8108SOL    HW225224   1.880   1.998   6.332
 8109SOL     OW25225   0.067   5.762   5.254
 8109SOL    HW125226   7.026   5.834   5.257
 8109SOL    HW225227   0.025   5.675   5.281
 8110SOL     OW25228   0.581   4.861   0.567
 8110SOL    HW125229   0.515   4.937   0.559
 8110SOL    HW225230   0.608   4.831   0.476
 8111SOL     OW25231   3.509   6.456   4.000
 8111SOL    HW125232   3.532   6.361   3.980
 8111SOL    HW225233   3.417   6.460   4.038
 8112SOL     OW25234   3.759   1.755   4.103
 8112SOL    HW125235   3.853   1.725   4.116
 8112SOL    HW225236   3.756   1.830   4.037
 8113SOL     OW25237   3.127   2.213   6.822
 8113SOL    HW125238   3.221   2.243   6.810
 8113SOL    HW225239   3.070   2.291   6.849
 8114SOL     OW25240   2.318   3.593   1.319
 8114SOL    HW125241   2.344   3.563   1.410
 8114SOL    HW225242   2.229   3.552   1.295
 8115SOL     OW25243   4.187   3.000   1.204
 8115SOL    HW125244   4.262   2.991   1.139
 8115SOL    HW225245   4.215   3.059   1.280
 8116SOL     OW25246   5.682   2.241   5.567
 8116SOL    HW125247   5.736   2.284   5.495
 8116SOL    HW225248   5.598   2.204   5.529
 8117SOL     OW25249   3.315   2.822   4.988
 8117SOL    HW125250   3.308   2.739   4.934
 8117SOL    HW225251   3.406   2.828   5.029
 8118SOL     OW25252   0.536   2.380   4.241
 8118SOL    HW125253   0.496   2.288   4.240
 8118SOL    HW225254   0.465   2.447   4.219
 8119SOL     OW25255   1.103   6.969   2.516
 8119SOL    HW125256   1.040   6.914   2.461
 8119SOL    HW225257   1.107   0.034   2.478
 8120SOL     OW25258   4.761   4.176   2.171
 8120SOL    HW125259   4.687   4.204   2.110
 8120SOL    HW225260   4.849   4.195   2.128
 8121SOL     OW25261   6.784   6.368   3.629
 8121SOL    HW125262   6.736   6.452   3.652
 8121SOL    HW225263   6.811   6.371   3.533
 8122SOL     OW25264   0.091   4.670   1.137
 8122SOL    HW125265   0.161   4.664   1.209
 8122SOL    HW225266   0.063   4.766   1.126
 8123SOL     OW25267   1.333   4.920   5.992
 8123SOL    HW125268   1.237   4.900   5.970
 8123SOL    HW225269   1.383   4.935   5.907
 8124SOL     OW25270   1.227   6.309   2.496
 8124SOL    HW125271   1.304   6.273   2.443
 8124SOL    HW225272   1.141   6.277   2.455
 8125SOL     OW25273   4.417   5.288   4.037
 8125SOL    HW125274   4.424   5.232   4.119
 8125SOL    HW225275   4.322   5.317   4.023
 8126SOL     OW25276   0.042   4.046   1.839
 8126SOL    HW125277   6.980   4.005   1.819
 8126SOL    HW225278   0.096   4.050   1.755
 8127SOL     OW25279   4.343   5.092   6.837
 8127SOL    HW125280   4.244   5.089   6.824
 8127SOL    HW225281   4.365   5.134   6.925
 8128SOL     OW25282   3.845   2.735   5.838
 8128SOL    HW125283   3.918   2.794   5.804
 8128SOL    HW225284   3.882   2.671   5.905
 8129SOL     OW25285   5.441   4.972   6.540
 8129SOL    HW125286   5.344   4.949   6.542
 8129SOL    HW225287   5.487   4.931   6.618
 8130SOL     OW25288   0.423   0.128   6.246
 8130SOL    HW125289   0.335   0.088   6.272
 8130SOL    HW225290   0.427   0.223   6.278
 8131SOL     OW25291   2.577   1.475   1.115
 8131SOL    HW125292   2.615   1.395   1.163
 8131SOL    HW225293   2.539   1.538   1.182
 8132SOL     OW25294   5.334   4.972   3.369
 8132SOL    HW125295   5.306   5.062   3.402
 8132SOL    HW225296   5.434   4.968   3.364
 8133SOL     OW25297   0.647   5.147   2.852
 8133SOL    HW125298   0.592   5.231   2.855
 8133SOL    HW225299   0.613   5.088   2.779
 8134SOL     OW25300   3.441   3.381   1.434
 8134SOL    HW125301   3.444   3.479   1.453
 8134SOL    HW225302   3.535   3.346   1.424
 8135SOL     OW25303   4.153   5.725   2.662
 8135SOL    HW125304   4.198   5.758   2.745
 8135SOL    HW225305   4.188   5.776   2.583
 8136SOL     OW25306   2.654   5.679   1.216
 8136SOL    HW125307   2.678   5.639   1.304
 8136SOL    HW225308   2.555   5.689   1.209
 8137SOL     OW25309   3.513   4.030   5.768
 8137SOL    HW125310   3.553   4.053   5.679
 8137SOL    HW225311   3.540   3.937   5.794
 8138SOL     OW25312   4.125   0.889   4.270
 8138SOL    HW125313   4.196   0.912   4.336
 8138SOL    HW225314   4.103   0.969   4.214
 8139SOL     OW25315   2.164   3.064   5.949
 8139SOL    HW125316   2.145   3.154   5.909
 8139SOL    HW225317   2.084   3.005   5.937
 8140SOL     OW25318   5.379   1.331   1.712
 8140SOL    HW125319   5.342   1.283   1.633
 8140SOL    HW225320   5.390   1.428   1.690
 8141SOL     OW25321   5.670   2.028   4.890
 8141SOL    HW125322   5.642   2.123   4.877
 8141SOL    HW225323   5.752   2.026   4.948
 8142SOL     OW25324   4.286   5.469   0.436
 8142SOL    HW125325   4.368   5.500   0.388
 8142SOL    HW225326   4.267   5.532   0.512
 8143SOL     OW25327   5.334   5.033   0.361
 8143SOL    HW125328   5.426   4.999   0.341
 8143SOL    HW225329   5.327   5.056   0.458
 8144SOL     OW25330   1.726   5.657   6.478
 8144SOL    HW125331   1.641   5.664   6.529
 8144SOL    HW225332   1.803   5.663   6.542
 8145SOL     OW25333   5.329   5.127   5.588
 8145SOL    HW125334   5.333   5.227   5.591
 8145SOL    HW225335   5.250   5.099   5.533
 8146SOL     OW25336   0.262   5.648   6.002
 8146SOL    HW125337   0.274   5.594   6.085
 8146SOL    HW225338   0.271   5.745   6.025
 8147SOL     OW25339   2.644   6.428   4.529
 8147SOL    HW125340   2.631   6.503   4.465
 8147SOL    HW225341   2.573   6.432   4.599
 8148SOL     OW25342   4.650   4.804   0.265
 8148SOL    HW125343   4.581   4.843   0.204
 8148SOL    HW225344   4.662   4.707   0.244
 8149SOL     OW25345   1.545   6.877   4.512
 8149SOL    HW125346   1.453   6.909   4.536
 8149SOL    HW225347   1.540   6.785   4.472
 8150SOL     OW25348   0.438   3.772   0.600
 8150SOL    HW125349   0.379   3.706   0.554
 8150SOL    HW225350   0.482   3.831   0.532
 8151SOL     OW25351   5.932   4.232   2.899
 8151SOL    HW125352   5.975   4.280   2.823
 8151SOL    HW225353   5.988   4.154   2.925
 8152SOL     OW25354   4.765   2.373   4.714
 8152SOL    HW125355   4.827   2.420   4.651
 8152SOL    HW225356   4.759   2.276   4.688
 8153SOL     OW25357   0.286   0.748   1.237
 8153SOL    HW125358   0.319   0.833   1.196
 8153SOL    HW225359   0.301   0.751   1.335
 8154SOL     OW25360   6.787   6.994   5.073
 8154SOL    HW125361   6.746   0.057   5.064
 8154SOL    HW225362   6.779   6.963   5.168
 8155SOL     OW25363   1.385   4.825   4.774
 8155SOL    HW125364   1.457   4.884   4.811
 8155SOL    HW225365   1.427   4.746   4.731
 8156SOL     OW25366   0.807   3.554   0.258
 8156SOL    HW125367   0.740   3.524   0.190
 8156SOL    HW225368   0.896   3.567   0.214
 8157SOL     OW25369   6.208   4.900   5.552
 8157SOL    HW125370   6.131   4.836   5.548
 8157SOL    HW225371   6.288   4.852   5.587
 8158SOL     OW25372   6.875   5.289   5.700
 8158SOL    HW125373   6.956   5.348   5.695
 8158SOL    HW225374   6.900   5.202   5.743
 8159SOL     OW25375   2.279   5.817   4.495
 8159SOL    HW125376   2.228   5.827   4.581
 8159SOL    HW225377   2.295   5.907   4.455
 8160SOL     OW25378   4.872   3.054   3.154
 8160SOL    HW125379   4.896   3.064   3.058
 8160SOL    HW225380   4.831   2.964   3.168
 8161SOL     OW25381   0.255   1.596   1.414
 8161SOL    HW125382   0.315   1.641   1.481
 8161SOL    HW225383   0.160   1.611   1.440
 8162SOL     OW25384   6.523   6.033   6.242
 8162SOL    HW125385   6.585   6.111   6.243
 8162SOL    HW225386   6.501   6.006   6.336
 8163SOL     OW25387   3.051   5.741   5.997
 8163SOL    HW125388   3.137   5.713   5.954
 8163SOL    HW225389   3.029   5.676   6.071
 8164SOL     OW25390   5.480   1.738   0.398
 8164SOL    HW125391   5.553   1.785   0.347
 8164SOL    HW225392   5.439   1.801   0.463
 8165SOL     OW25393   1.310   2.741   5.704
 8165SOL    HW125394   1.226   2.687   5.701
 8165SOL    HW225395   1.295   2.823   5.760
 8166SOL     OW25396   3.261   2.178   3.225
 8166SOL    HW125397   3.220   2.096   3.183
 8166SOL    HW225398   3.360   2.173   3.217
 8167SOL     OW25399   1.988   1.419   2.159
 8167SOL    HW125400   2.060   1.350   2.152
 8167SOL    HW225401   1.999   1.469   2.245
 8168SOL     OW25402   0.831   5.785   2.902
 8168SOL    HW125403   0.745   5.803   2.855
 8168SOL    HW225404   0.814   5.724   2.979
 8169SOL     OW25405   5.165   5.065   6.875
 8169SOL    HW125406   5.213   5.153   6.876
 8169SOL    HW225407   5.078   5.075   6.826
 8170SOL     OW25408   6.991   5.169   3.007
 8170SOL    HW125409   6.907   5.195   2.960
 8170SOL    HW225410   7.026   5.246   3.060
 8171SOL     OW25411   0.784   1.108   2.141
 8171SOL    HW125412   0.731   1.150   2.067
 8171SOL    HW225413   0.881   1.118   2.122
 8172SOL     OW25414   1.283   4.309   0.339
 8172SOL    HW125415   1.239   4.396   0.316
 8172SOL    HW225416   1.300   4.304   0.437
 8173SOL     OW25417   5.358   0.413   1.154
 8173SOL    HW125418   5.368   0.478   1.079
 8173SOL    HW225419   5.282   0.351   1.134
 8174SOL     OW25420   3.009   6.175   3.945
 8174SOL    HW125421   3.017   6.082   3.910
 8174SOL    HW225422   2.941   6.178   4.018
 8175SOL     OW25423   1.331   2.646   6.211
 8175SOL    HW125424   1.394   2.693   6.273
 8175SOL    HW225425   1.383   2.602   6.137
 8176SOL     OW25426   2.572   4.032   0.373
 8176SOL    HW125427   2.532   4.095   0.307
 8176SOL    HW225428   2.565   4.071   0.465
 8177SOL     OW25429   3.480   1.064   1.942
 8177SOL    HW125430   3.529   1.120   2.009
 8177SOL    HW225431   3.537   0.985   1.917
 8178SOL     OW25432   2.570   6.279   0.633
 8178SOL    HW125433   2.557   6.359   0.692
 8178SOL    HW225434   2.484   6.256   0.589
 8179SOL     OW25435   6.437   6.406   4.825
 8179SOL    HW125436   6.422   6.430   4.920
 8179SOL    HW225437   6.512   6.340   4.818
 8180SOL     OW25438   3.059   5.057   0.570
 8180SOL    HW125439   3.121   4.984   0.600
 8180SOL    HW225440   2.986   5.069   0.637
 8181SOL     OW25441   5.987   1.043   6.477
 8181SOL    HW125442   5.987   0.945   6.457
 8181SOL    HW225443   6.067   1.086   6.434
 8182SOL     OW25444   3.348   3.584   2.752
 8182SOL    HW125445   3.328   3.490   2.725
 8182SOL    HW225446   3.274   3.619   2.810
 8183SOL     OW25447   0.704   0.900   5.205
 8183SOL    HW125448   0.801   0.881   5.193
 8183SOL    HW225449   0.669   0.947   5.123
 8184SOL     OW25450   6.537   5.356   4.398
 8184SOL    HW125451   6.589   5.288   4.449
 8184SOL    HW225452   6.600   5.417   4.349
 8185SOL     OW25453   6.747   6.485   4.428
 8185SOL    HW125454   6.830   6.438   4.397
 8185SOL    HW225455   6.707   6.535   4.351
 8186SOL     OW25456   0.547   6.492   6.553
 8186SOL    HW125457   0.612   6.548   6.603
 8186SOL    HW225458   0.487   6.550   6.498
 8187SOL     OW25459   0.785   6.711   4.294
 8187SOL    HW125460   0.723   6.685   4.368
 8187SOL    HW225461   0.794   6.634   4.231
 8188SOL     OW25462   1.849   2.570   2.629
 8188SOL    HW125463   1.925   2.627   2.661
 8188SOL    HW225464   1.786   2.625   2.576
 8189SOL     OW25465   6.787   5.333   3.572
 8189SOL    HW125466   6.752   5.244   3.600
 8189SOL    HW225467   6.711   5.390   3.539
 8190SOL     OW25468   5.404   3.608   2.410
 8190SOL    HW125469   5.388   3.706   2.399
 8190SOL    HW225470   5.338   3.570   2.475
 8191SOL     OW25471   4.422   5.015   0.799
 8191SOL    HW125472   4.431   4.969   0.712
 8191SOL    HW225473   4.368   4.958   0.862
 8192SOL     OW25474   6.543   5.842   2.683
 8192SOL    HW125475   6.465   5.865   2.742
 8192SOL    HW225476   6.511   5.820   2.591
 8193SOL     OW25477   0.968   5.119   4.879
 8193SOL    HW125478   1.002   5.208   4.911
 8193SOL    HW225479   0.992   5.048   4.945
 8194SOL     OW25480   6.063   6.548   1.941
 8194SOL    HW125481   6.152   6.503   1.932
 8194SOL    HW225482   6.008   6.531   1.860
 8195SOL     OW25483   5.995   0.022   3.353
 8195SOL    HW125484   6.027   6.964   3.392
 8195SOL    HW225485   6.036   0.098   3.403
 8196SOL     OW25486   5.579   6.980   2.787
 8196SOL    HW125487   5.528   0.036   2.770
 8196SOL    HW225488   5.530   6.903   2.748
 8197SOL     OW25489   3.768   0.906   3.747
 8197SOL    HW125490   3.853   0.870   3.786
 8197SOL    HW225491   3.766   0.885   3.649
 8198SOL     OW25492   2.107   5.607   0.087
 8198SOL    HW125493   2.109   5.588   7.017
 8198SOL    HW225494   2.046   5.543   0.133
 8199SOL     OW25495   6.036   2.646   6.785
 8199SOL    HW125496   5.999   2.649   6.878
 8199SOL    HW225497   6.124   2.599   6.785
 8200SOL     OW25498   6.056   4.876   0.172
 8200SOL    HW125499   6.146   4.889   0.132
 8200SOL    HW225500   6.049   4.784   0.210
 8201SOL     OW25501   4.913   1.313   5.916
 8201SOL    HW125502   4.831   1.371   5.923
 8201SOL    HW225503   4.978   1.340   5.987
 8202SOL     OW25504   0.236   6.153   2.286
 8202SOL    HW125505   0.239   6.253   2.293
 8202SOL    HW225506   0.267   6.112   2.372
 8203SOL     OW25507   0.736   3.132   0.479
 8203SOL    HW125508   0.735   3.086   0.568
 8203SOL    HW225509   0.668   3.090   0.419
 8204SOL     OW25510   1.070   3.581   0.134
 8204SOL    HW125511   1.165   3.613   0.131
 8204SOL    HW225512   1.009   3.660   0.140
 8205SOL     OW25513   0.165   4.554   6.377
 8205SOL    HW125514   0.247   4.501   6.397
 8205SOL    HW225515   0.134   4.600   6.460
 8206SOL     OW25516   3.335   1.392   0.952
 8206SOL    HW125517   3.355   1.304   0.996
 8206SOL    HW225518   3.272   1.445   1.009
 8207SOL     OW25519   3.711   3.274   3.946
 8207SOL    HW125520   3.788   3.325   3.984
 8207SOL    HW225521   3.711   3.284   3.846
 8208SOL     OW25522   4.223   6.870   5.428
 8208SOL    HW125523   4.139   6.921   5.446
 8208SOL    HW225524   4.223   6.786   5.483
 8209SOL     OW25525   5.040   3.487   3.802
 8209SOL    HW125526   5.139   3.484   3.814
 8209SOL    HW225527   5.018   3.506   3.706
 8210SOL     OW25528   1.532   2.315   5.763
 8210SOL    HW125529   1.580   2.386   5.711
 8210SOL    HW225530   1.553   2.225   5.723
 8211SOL     OW25531   4.067   4.211   1.026
 8211SOL    HW125532   4.127   4.164   1.091
 8211SOL    HW225533   3.977   4.168   1.026
 8212SOL     OW25534   2.085   3.905   2.540
 8212SOL    HW125535   2.077   3.893   2.441
 8212SOL    HW225536   2.159   3.848   2.575
 8213SOL     OW25537   6.701   3.967   0.584
 8213SOL    HW125538   6.766   3.937   0.654
 8213SOL    HW225539   6.620   4.006   0.627
 8214SOL     OW25540   5.059   3.102   3.336
 8214SOL    HW125541   5.043   3.041   3.414
 8214SOL    HW225542   5.003   3.072   3.258
 8215SOL     OW25543   2.961   4.278   1.545
 8215SOL    HW125544   3.014   4.282   1.630
 8215SOL    HW225545   3.010   4.222   1.479
 8216SOL     OW25546   5.328   2.913   5.553
 8216SOL    HW125547   5.278   2.971   5.489
 8216SOL    HW225548   5.271   2.835   5.579
 8217SOL     OW25549   2.048   6.014   6.963
 8217SOL    HW125550   2.035   6.060   0.023
 8217SOL    HW225551   2.139   5.972   6.961
 8218SOL     OW25552   4.287   1.686   0.092
 8218SOL    HW125553   4.367   1.684   0.152
 8218SOL    HW225554   4.223   1.614   0.120
 8219SOL     OW25555   5.554   3.194   6.957
 8219SOL    HW125556   5.516   3.286   6.970
 8219SOL    HW225557   5.519   3.156   6.872
 8220SOL     OW25558   3.897   3.283   1.456
 8220SOL    HW125559   3.983   3.237   1.480
 8220SOL    HW225560   3.820   3.225   1.480
 8221SOL     OW25561   5.654   3.433   3.876
 8221SOL    HW125562   5.612   3.345   3.897
 8221SOL    HW225563   5.611   3.504   3.931
 8222SOL     OW25564   5.831   1.547   2.866
 8222SOL    HW125565   5.874   1.570   2.954
 8222SOL    HW225566   5.833   1.627   2.806
 8223SOL     OW25567   0.893   3.388   6.882
 8223SOL    HW125568   0.858   3.482   6.880
 8223SOL    HW225569   0.975   3.385   6.939
 8224SOL     OW25570   1.095   3.379   2.591
 8224SOL    HW125571   1.155   3.347   2.664
 8224SOL    HW225572   1.038   3.303   2.559
 8225SOL     OW25573   5.289   0.031   1.039
 8225SOL    HW125574   5.243   0.113   1.073
 8225SOL    HW225575   5.388   0.043   1.049
 8226SOL     OW25576   4.199   0.766   6.996
 8226SOL    HW125577   4.244   0.754   0.057
 8226SOL    HW225578   4.173   0.676   6.960
 8227SOL     OW25579   6.339   4.917   3.198
 8227SOL    HW125580   6.335   4.865   3.284
 8227SOL    HW225581   6.355   4.854   3.122
 8228SOL     OW25582   6.820   1.459   3.427
 8228SOL    HW125583   6.791   1.381   3.482
 8228SOL    HW225584   6.894   1.508   3.474
 8229SOL     OW25585   5.867   4.855   6.716
 8229SOL    HW125586   5.827   4.899   6.636
 8229SOL    HW225587   5.822   4.766   6.731
 8230SOL     OW25588   4.893   0.151   2.941
 8230SOL    HW125589   4.804   0.187   2.970
 8230SOL    HW225590   4.930   0.090   3.011
 8231SOL     OW25591   3.368   5.310   1.618
 8231SOL    HW125592   3.268   5.311   1.626
 8231SOL    HW225593   3.402   5.218   1.638
 8232SOL     OW25594   2.913   1.625   0.525
 8232SOL    HW125595   3.002   1.609   0.567
 8232SOL    HW225596   2.848   1.555   0.558
 8233SOL     OW25597   1.015   6.121   5.991
 8233SOL    HW125598   1.018   6.185   5.915
 8233SOL    HW225599   1.105   6.080   6.004
 8234SOL     OW25600   1.575   2.787   6.723
 8234SOL    HW125601   1.507   2.819   6.789
 8234SOL    HW225602   1.546   2.812   6.631
 8235SOL     OW25603   4.712   2.754   6.848
 8235SOL    HW125604   4.794   2.697   6.840
 8235SOL    HW225605   4.737   2.850   6.838
 8236SOL     OW25606   6.460   2.360   1.910
 8236SOL    HW125607   6.520   2.283   1.888
 8236SOL    HW225608   6.511   2.429   1.961
 8237SOL     OW25609   3.815   6.423   5.310
 8237SOL    HW125610   3.721   6.390   5.304
 8237SOL    HW225611   3.837   6.442   5.406
 8238SOL     OW25612   0.823   1.549   5.310
 8238SOL    HW125613   0.771   1.604   5.245
 8238SOL    HW225614   0.771   1.539   5.395
 8239SOL     OW25615   5.082   1.393   6.101
 8239SOL    HW125616   5.143   1.338   6.045
 8239SOL    HW225617   5.102   1.376   6.198
 8240SOL     OW25618   3.070   3.200   2.744
 8240SOL    HW125619   3.084   3.143   2.826
 8240SOL    HW225620   3.051   3.141   2.666
 8241SOL     OW25621   3.738   5.921   1.277
 8241SOL    HW125622   3.792   5.967   1.348
 8241SOL    HW225623   3.651   5.891   1.315
 8242SOL     OW25624   1.924   4.830   4.770
 8242SOL    HW125625   1.900   4.786   4.683
 8242SOL    HW225626   1.939   4.928   4.755
 8243SOL     OW25627   0.162   4.142   4.324
 8243SOL    HW125628   0.215   4.097   4.396
 8243SOL    HW225629   0.071   4.165   4.358
 8244SOL     OW25630   3.338   5.975   5.331
 8244SOL    HW125631   3.275   6.018   5.395
 8244SOL    HW225632   3.335   6.022   5.243
 8245SOL     OW25633   4.645   4.121   1.339
 8245SOL    HW125634   4.698   4.194   1.380
 8245SOL    HW225635   4.648   4.129   1.239
 8246SOL     OW25636   6.206   2.913   5.018
 8246SOL    HW125637   6.169   2.870   5.100
 8246SOL    HW225638   6.179   2.860   4.937
 8247SOL     OW25639   1.302   6.171   0.163
 8247SOL    HW125640   1.400   6.153   0.152
 8247SOL    HW225641   1.268   6.218   0.081
 8248SOL     OW25642   6.667   3.975   3.262
 8248SOL    HW125643   6.697   3.990   3.168
 8248SOL    HW225644   6.735   3.919   3.310
 8249SOL     OW25645   1.225   5.450   3.158
 8249SOL    HW125646   1.248   5.546   3.174
 8249SOL    HW225647   1.200   5.406   3.245
 8250SOL     OW25648   3.138   2.971   2.547
 8250SOL    HW125649   3.210   2.961   2.615
 8250SOL    HW225650   3.061   2.912   2.571
 8251SOL     OW25651   5.848   0.837   4.391
 8251SOL    HW125652   5.872   0.933   4.407
 8251SOL    HW225653   5.776   0.832   4.322
 8252SOL     OW25654   1.341   4.099   4.395
 8252SOL    HW125655   1.399   4.178   4.417
 8252SOL    HW225656   1.280   4.122   4.321
 8253SOL     OW25657   2.598   2.914   6.282
 8253SOL    HW125658   2.684   2.864   6.282
 8253SOL    HW225659   2.606   2.994   6.222
 8254SOL     OW25660   4.625   4.393   2.627
 8254SOL    HW125661   4.620   4.374   2.529
 8254SOL    HW225662   4.554   4.459   2.652
 8255SOL     OW25663   4.645   5.742   3.498
 8255SOL    HW125664   4.733   5.764   3.456
 8255SOL    HW225665   4.660   5.686   3.580
 8256SOL     OW25666   5.642   1.942   3.021
 8256SOL    HW125667   5.659   1.887   3.103
 8256SOL    HW225668   5.582   1.892   2.959
 8257SOL     OW25669   6.367   4.515   3.949
 8257SOL    HW125670   6.394   4.589   4.012
 8257SOL    HW225671   6.446   4.456   3.932
 8258SOL     OW25672   5.633   1.867   0.801
 8258SOL    HW125673   5.692   1.824   0.869
 8258SOL    HW225674   5.687   1.934   0.748
 8259SOL     OW25675   4.870   0.588   1.271
 8259SOL    HW125676   4.887   0.494   1.242
 8259SOL    HW225677   4.946   0.646   1.241
 8260SOL     OW25678   3.358   5.415   6.180
 8260SOL    HW125679   3.342   5.336   6.239
 8260SOL    HW225680   3.296   5.488   6.205
 8261SOL     OW25681   4.560   1.381   1.254
 8261SOL    HW125682   4.642   1.333   1.224
 8261SOL    HW225683   4.502   1.400   1.175
 8262SOL     OW25684   6.440   2.653   2.112
 8262SOL    HW125685   6.362   2.596   2.140
 8262SOL    HW225686   6.415   2.705   2.030
 8263SOL     OW25687   6.402   2.102   0.186
 8263SOL    HW125688   6.380   2.005   0.192
 8263SOL    HW225689   6.330   2.155   0.231
 8264SOL     OW25690   1.178   4.260   2.208
 8264SOL    HW125691   1.082   4.232   2.204
 8264SOL    HW225692   1.220   4.221   2.290
 8265SOL     OW25693   2.295   0.433   2.187
 8265SOL    HW125694   2.212   0.448   2.133
 8265SOL    HW225695   2.375   0.453   2.132
 8266SOL     OW25696   2.654   0.817   2.767
 8266SOL    HW125697   2.728   0.801   2.702
 8266SOL    HW225698   2.617   0.909   2.753
 8267SOL     OW25699   6.847   2.599   1.764
 8267SOL    HW125700   6.826   2.636   1.673
 8267SOL    HW225701   6.945   2.606   1.781
 8268SOL     OW25702   1.845   4.318   0.004
 8268SOL    HW125703   1.862   4.222   7.007
 8268SOL    HW225704   1.763   4.323   0.061
 8269SOL     OW25705   5.737   2.275   6.982
 8269SOL    HW125706   5.639   2.260   6.969
 8269SOL    HW225707   5.777   2.305   6.896
 8270SOL     OW25708   1.728   6.195   4.251
 8270SOL    HW125709   1.723   6.129   4.327
 8270SOL    HW225710   1.807   6.255   4.265
 8271SOL     OW25711   0.581   2.031   3.418
 8271SOL    HW125712   0.535   2.099   3.476
 8271SOL    HW225713   0.527   1.947   3.415
 8272SOL     OW25714   3.936   1.920   3.870
 8272SOL    HW125715   3.837   1.927   3.880
 8272SOL    HW225716   3.974   2.011   3.850
 8273SOL     OW25717   1.928   6.185   0.512
 8273SOL    HW125718   1.860   6.187   0.438
 8273SOL    HW225719   1.973   6.095   0.514
 8274SOL     OW25720   5.266   3.792   3.544
 8274SOL    HW125721   5.209   3.816   3.622
 8274SOL    HW225722   5.322   3.871   3.519
 8275SOL     OW25723   6.957   2.440   0.362
 8275SOL    HW125724   7.010   2.356   0.370
 8275SOL    HW225725   6.964   2.492   0.448
 8276SOL     OW25726   1.584   1.700   3.252
 8276SOL    HW125727   1.499   1.691   3.199
 8276SOL    HW225728   1.659   1.724   3.191
 8277SOL     OW25729   0.083   0.801   0.899
 8277SOL    HW125730   0.108   0.811   0.803
 8277SOL    HW225731   0.093   0.705   0.926
 8278SOL     OW25732   0.773   2.639   0.654
 8278SOL    HW125733   0.687   2.644   0.705
 8278SOL    HW225734   0.849   2.634   0.718
 8279SOL     OW25735   0.138   6.872   3.987
 8279SOL    HW125736   0.054   6.820   3.973
 8279SOL    HW225737   0.160   6.873   4.084
 8280SOL     OW25738   3.555   2.819   6.629
 8280SOL    HW125739   3.497   2.738   6.618
 8280SOL    HW225740   3.498   2.897   6.657
 8281SOL     OW25741   3.996   4.648   1.811
 8281SOL    HW125742   3.929   4.578   1.785
 8281SOL    HW225743   3.952   4.738   1.810
 8282SOL     OW25744   6.932   3.345   6.151
 8282SOL    HW125745   6.953   3.254   6.116
 8282SOL    HW225746   6.914   3.407   6.074
 8283SOL     OW25747   2.220   2.359   5.771
 8283SOL    HW125748   2.178   2.410   5.696
 8283SOL    HW225749   2.304   2.405   5.799
 8284SOL     OW25750   6.592   4.898   1.886
 8284SOL    HW125751   6.543   4.812   1.877
 8284SOL    HW225752   6.533   4.973   1.857
 8285SOL     OW25753   3.521   3.169   4.413
 8285SOL    HW125754   3.484   3.076   4.411
 8285SOL    HW225755   3.615   3.167   4.380
 8286SOL     OW25756   0.672   2.112   0.082
 8286SOL    HW125757   0.624   2.200   0.076
 8286SOL    HW225758   0.754   2.115   0.025
 8287SOL     OW25759   1.297   0.415   4.378
 8287SOL    HW125760   1.325   0.319   4.391
 8287SOL    HW225761   1.209   0.417   4.331
 8288SOL     OW25762   2.523   1.121   3.141
 8288SOL    HW125763   2.427   1.135   3.167
 8288SOL    HW225764   2.546   1.025   3.154
 8289SOL     OW25765   1.029   6.515   0.176
 8289SOL    HW125766   0.988   6.458   0.105
 8289SOL    HW225767   0.960   6.537   0.245
 8290SOL     OW25768   6.396   2.140   1.465
 8290SOL    HW125769   6.489   2.141   1.429
 8290SOL    HW225770   6.342   2.212   1.420
 8291SOL     OW25771   4.202   0.578   1.901
 8291SOL    HW125772   4.278   0.643   1.902
 8291SOL    HW225773   4.120   0.623   1.866
 8292SOL     OW25774   2.662   0.814   6.265
 8292SOL    HW125775   2.615   0.832   6.352
 8292SOL    HW225776   2.605   0.755   6.208
 8293SOL     OW25777   6.387   5.430   5.431
 8293SOL    HW125778   6.475   5.402   5.394
 8293SOL    HW225779   6.338   5.485   5.364
 8294SOL     OW25780   6.493   2.601   0.282
 8294SOL    HW125781   6.530   2.678   0.336
 8294SOL    HW225782   6.458   2.636   0.195
 8295SOL     OW25783   5.317   2.358   5.934
 8295SOL    HW125784   5.403   2.321   5.896
 8295SOL    HW225785   5.334   2.396   6.024
 8296SOL     OW25786   0.538   5.229   5.585
 8296SOL    HW125787   0.505   5.135   5.594
 8296SOL    HW225788   0.460   5.290   5.574
 8297SOL     OW25789   1.379   3.847   3.944
 8297SOL    HW125790   1.437   3.768   3.927
 8297SOL    HW225791   1.429   3.931   3.921
 8298SOL     OW25792   4.119   2.208   2.756
 8298SOL    HW125793   4.173   2.211   2.672
 8298SOL    HW225794   4.023   2.229   2.735
 8299SOL     OW25795   5.851   1.286   1.350
 8299SOL    HW125796   5.921   1.253   1.286
 8299SOL    HW225797   5.871   1.253   1.442
 8300SOL     OW25798   1.003   5.458   2.751
 8300SOL    HW125799   1.051   5.370   2.751
 8300SOL    HW225800   1.059   5.526   2.799
 8301SOL     OW25801   3.760   0.750   6.001
 8301SOL    HW125802   3.706   0.745   5.917
 8301SOL    HW225803   3.794   0.659   6.025
 8302SOL     OW25804   6.994   5.668   6.818
 8302SOL    HW125805   7.007   5.687   6.916
 8302SOL    HW225806   0.035   5.717   6.766
 8303SOL     OW25807   0.069   0.526   1.000
 8303SOL    HW125808   0.148   0.469   0.979
 8303SOL    HW225809   0.016   0.542   0.916
 8304SOL     OW25810   7.027   3.404   0.305
 8304SOL    HW125811   6.943   3.353   0.287
 8304SOL    HW225812   0.038   3.374   0.392
 8305SOL     OW25813   3.236   5.999   2.297
 8305SOL    HW125814   3.284   6.078   2.335
 8305SOL    HW225815   3.300   5.924   2.282
 8306SOL     OW25816   2.317   1.678   3.218
 8306SOL    HW125817   2.395   1.739   3.233
 8306SOL    HW225818   2.283   1.690   3.125
 8307SOL     OW25819   3.489   6.506   1.204
 8307SOL    HW125820   3.530   6.430   1.152
 8307SOL    HW225821   3.391   6.509   1.185
 8308SOL     OW25822   3.065   0.628   1.648
 8308SOL    HW125823   2.989   0.668   1.699
 8308SOL    HW225824   3.030   0.582   1.567
 8309SOL     OW25825   6.148   6.411   2.203
 8309SOL    HW125826   6.060   6.363   2.194
 8309SOL    HW225827   6.223   6.346   2.191
 8310SOL     OW25828   6.608   4.833   6.521
 8310SOL    HW125829   6.651   4.755   6.567
 8310SOL    HW225830   6.591   4.810   6.426
 8311SOL     OW25831   6.562   1.060   6.117
 8311SOL    HW125832   6.567   1.057   6.217
 8311SOL    HW225833   6.595   0.973   6.080
 8312SOL     OW25834   4.613   5.911   1.733
 8312SOL    HW125835   4.636   5.819   1.700
 8312SOL    HW225836   4.520   5.910   1.770
 8313SOL     OW25837   3.663   1.704   3.043
 8313SOL    HW125838   3.614   1.733   2.961
 8313SOL    HW225839   3.669   1.605   3.046
 8314SOL     OW25840   6.748   0.162   4.553
 8314SOL    HW125841   6.791   0.085   4.506
 8314SOL    HW225842   6.709   0.130   4.639
 8315SOL     OW25843   5.566   4.423   0.352
 8315SOL    HW125844   5.503   4.360   0.399
 8315SOL    HW225845   5.646   4.438   0.410
 8316SOL     OW25846   2.768   5.029   6.290
 8316SOL    HW125847   2.790   4.985   6.377
 8316SOL    HW225848   2.693   5.093   6.303
 8317SOL     OW25849   2.359   4.762   1.784
 8317SOL    HW125850   2.373   4.791   1.689
 8317SOL    HW225851   2.447   4.751   1.829
 8318SOL     OW25852   3.302   1.375   6.043
 8318SOL    HW125853   3.250   1.289   6.050
 8318SOL    HW225854   3.356   1.388   6.126
 8319SOL     OW25855   2.172   0.817   5.175
 8319SOL    HW125856   2.111   0.865   5.112
 8319SOL    HW225857   2.233   0.883   5.219
 8320SOL     OW25858   3.273   5.021   0.993
 8320SOL    HW125859   3.247   4.944   1.052
 8320SOL    HW225860   3.206   5.094   1.001
 8321SOL     OW25861   6.528   1.481   1.635
 8321SOL    HW125862   6.515   1.579   1.616
 8321SOL    HW225863   6.626   1.461   1.637
 8322SOL     OW25864   5.454   6.328   0.544
 8322SOL    HW125865   5.527   6.380   0.587
 8322SOL    HW225866   5.493   6.249   0.496
 8323SOL     OW25867   1.195   0.854   1.750
 8323SOL    HW125868   1.228   0.792   1.680
 8323SOL    HW225869   1.122   0.911   1.712
 8324SOL     OW25870   6.638   0.698   2.906
 8324SOL    HW125871   6.594   0.702   2.816
 8324SOL    HW225872   6.570   0.680   2.976
 8325SOL     OW25873   3.196   3.590   4.957
 8325SOL    HW125874   3.247   3.573   5.041
 8325SOL    HW225875   3.259   3.586   4.879
 8326SOL     OW25876   4.672   2.725   5.651
 8326SOL    HW125877   4.676   2.628   5.677
 8326SOL    HW225878   4.593   2.768   5.696
 8327SOL     OW25879   4.750   2.470   6.000
 8327SOL    HW125880   4.704   2.389   5.963
 8327SOL    HW225881   4.756   2.463   6.100
 8328SOL     OW25882   1.702   2.281   3.944
 8328SOL    HW125883   1.769   2.261   4.016
 8328SOL    HW225884   1.744   2.265   3.854
 8329SOL     OW25885   1.301   4.370   5.125
 8329SOL    HW125886   1.249   4.401   5.204
 8329SOL    HW225887   1.305   4.270   5.126
 8330SOL     OW25888   2.757   0.101   6.506
 8330SOL    HW125889   2.736   0.057   6.419
 8330SOL    HW225890   2.854   0.122   6.511
 8331SOL     OW25891   1.938   0.287   0.470
 8331SOL    HW125892   2.029   0.250   0.488
 8331SOL    HW225893   1.910   0.263   0.377
 8332SOL     OW25894   4.951   6.510   3.156
 8332SOL    HW125895   4.894   6.590   3.177
 8332SOL    HW225896   4.933   6.479   3.063
 8333SOL     OW25897   2.491   4.430   5.152
 8333SOL    HW125898   2.579   4.469   5.125
 8333SOL    HW225899   2.441   4.494   5.210
 8334SOL     OW25900   6.538   0.064   2.912
 8334SOL    HW125901   6.445   0.029   2.899
 8334SOL    HW225902   6.538   0.163   2.900
 8335SOL     OW25903   6.340   5.490   4.941
 8335SOL    HW125904   6.275   5.415   4.953
 8335SOL    HW225905   6.295   5.577   4.963
 8336SOL     OW25906   1.496   1.560   2.745
 8336SOL    HW125907   1.442   1.618   2.685
 8336SOL    HW225908   1.454   1.470   2.752
 8337SOL     OW25909   6.299   6.675   2.869
 8337SOL    HW125910   6.260   6.654   2.959
 8337SOL    HW225911   6.276   6.769   2.845
 8338SOL     OW25912   3.032   5.654   0.394
 8338SOL    HW125913   3.072   5.564   0.379
 8338SOL    HW225914   2.989   5.658   0.484
 8339SOL     OW25915   5.512   0.817   2.904
 8339SOL    HW125916   5.422   0.780   2.925
 8339SOL    HW225917   5.569   0.818   2.986
 8340SOL     OW25918   5.313   3.911   2.072
 8340SOL    HW125919   5.325   3.811   2.066
 8340SOL    HW225920   5.229   3.937   2.026
 8341SOL     OW25921   1.771   0.566   6.808
 8341SOL    HW125922   1.678   0.603   6.811
 8341SOL    HW225923   1.773   0.477   6.854
 8342SOL     OW25924   5.516   6.661   1.051
 8342SOL    HW125925   5.600   6.704   1.083
 8342SOL    HW225926   5.438   6.717   1.076
 8343SOL     OW25927   6.982   4.231   4.484
 8343SOL    HW125928   6.907   4.169   4.508
 8343SOL    HW225929   6.977   4.313   4.541
 8344SOL     OW25930   3.889   0.221   4.622
 8344SOL    HW125931   3.831   0.199   4.544
 8344SOL    HW225932   3.900   0.141   4.680
 8345SOL     OW25933   5.590   1.319   3.259
 8345SOL    HW125934   5.520   1.335   3.329
 8345SOL    HW225935   5.564   1.367   3.175
 8346SOL     OW25936   4.028   5.250   2.005
 8346SOL    HW125937   4.050   5.176   1.942
 8346SOL    HW225938   4.090   5.327   1.989
 8347SOL     OW25939   2.850   5.377   3.863
 8347SOL    HW125940   2.923   5.410   3.923
 8347SOL    HW225941   2.890   5.325   3.787
 8348SOL     OW25942   2.393   0.129   0.321
 8348SOL    HW125943   2.428   0.041   0.351
 8348SOL    HW225944   2.335   0.117   0.240
 8349SOL     OW25945   5.996   4.742   2.881
 8349SOL    HW125946   6.076   4.697   2.839
 8349SOL    HW225947   5.915   4.724   2.825
 8350SOL     OW25948   6.597   0.740   4.504
 8350SOL    HW125949   6.514   0.791   4.482
 8350SOL    HW225950   6.663   0.748   4.429
 8351SOL     OW25951   2.165   6.822   2.439
 8351SOL    HW125952   2.140   6.919   2.443
 8351SOL    HW225953   2.096   6.768   2.487
 8352SOL     OW25954   5.642   6.164   2.264
 8352SOL    HW125955   5.620   6.111   2.182
 8352SOL    HW225956   5.627   6.261   2.246
 8353SOL     OW25957   2.228   3.867   1.324
 8353SOL    HW125958   2.256   3.773   1.343
 8353SOL    HW225959   2.258   3.893   1.233
 8354SOL     OW25960   3.113   0.105   0.679
 8354SOL    HW125961   3.038   0.165   0.650
 8354SOL    HW225962   3.104   0.017   0.633
 8355SOL     OW25963   2.186   1.688   0.343
 8355SOL    HW125964   2.244   1.611   0.317
 8355SOL    HW225965   2.188   1.699   0.443
 8356SOL     OW25966   2.481   4.895   0.523
 8356SOL    HW125967   2.571   4.876   0.483
 8356SOL    HW225968   2.440   4.810   0.555
 8357SOL     OW25969   3.243   6.545   2.165
 8357SOL    HW125970   3.218   6.506   2.077
 8357SOL    HW225971   3.328   6.596   2.157
 8358SOL     OW25972   3.212   1.728   5.413
 8358SOL    HW125973   3.221   1.665   5.490
 8358SOL    HW225974   3.299   1.730   5.362
 8359SOL     OW25975   3.988   4.837   4.306
 8359SOL    HW125976   4.065   4.870   4.361
 8359SOL    HW225977   4.007   4.853   4.209
 8360SOL     OW25978   4.286   0.641   3.276
 8360SOL    HW125979   4.239   0.553   3.285
 8360SOL    HW225980   4.249   0.706   3.343
 8361SOL     OW25981   1.430   0.633   2.975
 8361SOL    HW125982   1.417   0.569   2.900
 8361SOL    HW225983   1.348   0.689   2.986
 8362SOL     OW25984   3.735   3.198   0.489
 8362SOL    HW125985   3.777   3.112   0.458
 8362SOL    HW225986   3.701   3.186   0.583
 8363SOL     OW25987   0.137   2.638   1.817
 8363SOL    HW125988   0.185   2.633   1.729
 8363SOL    HW225989   0.162   2.559   1.872
 8364SOL     OW25990   6.898   4.961   5.192
 8364SOL    HW125991   6.994   4.975   5.216
 8364SOL    HW225992   6.886   4.868   5.156
 8365SOL     OW25993   2.075   4.088   5.817
 8365SOL    HW125994   2.107   4.152   5.747
 8365SOL    HW225995   2.126   4.002   5.809
 8366SOL     OW25996   2.033   6.574   1.333
 8366SOL    HW125997   1.963   6.627   1.381
 8366SOL    HW225998   2.077   6.631   1.264
 8367SOL     OW25999   4.980   5.718   3.563
 8367SOL    HW126000   5.072   5.685   3.541
 8367SOL    HW226001   4.927   5.728   3.479
 8368SOL     OW26002   2.788   5.146   5.969
 8368SOL    HW126003   2.787   5.219   5.901
 8368SOL    HW226004   2.695   5.125   5.998
 8369SOL     OW26005   1.598   1.677   1.928
 8369SOL    HW126006   1.625   1.602   1.990
 8369SOL    HW226007   1.555   1.638   1.847
 8370SOL     OW26008   2.400   0.815   0.581
 8370SOL    HW126009   2.487   0.767   0.594
 8370SOL    HW226010   2.414   0.893   0.520
 8371SOL     OW26011   1.540   2.691   0.091
 8371SOL    HW126012   1.470   2.632   0.130
 8371SOL    HW226013   1.629   2.647   0.098
 8372SOL     OW26014   5.956   0.722   0.112
 8372SOL    HW126015   6.028   0.792   0.120
 8372SOL    HW226016   5.950   0.692   0.017
 8373SOL     OW26017   2.139   6.467   3.449
 8373SOL    HW126018   2.069   6.400   3.475
 8373SOL    HW226019   2.125   6.493   3.353
 8374SOL     OW26020   6.787   2.014   5.943
 8374SOL    HW126021   6.801   2.011   5.844
 8374SOL    HW226022   6.691   1.999   5.964
 8375SOL     OW26023   4.122   0.390   6.349
 8375SOL    HW126024   4.123   0.346   6.439
 8375SOL    HW226025   4.116   0.489   6.360
 8376SOL     OW26026   4.780   0.438   4.019
 8376SOL    HW126027   4.733   0.524   4.039
 8376SOL    HW226028   4.712   0.369   3.993
 8377SOL     OW26029   4.378   4.715   0.298
 8377SOL    HW126030   4.292   4.765   0.308
 8377SOL    HW226031   4.378   4.636   0.360
 8378SOL     OW26032   5.400   3.603   3.432
 8378SOL    HW126033   5.351   3.683   3.465
 8378SOL    HW226034   5.341   3.522   3.440
 8379SOL     OW26035   5.363   3.079   3.064
 8379SOL    HW126036   5.358   2.979   3.067
 8379SOL    HW226037   5.376   3.109   2.970
 8380SOL     OW26038   5.732   1.351   4.663
 8380SOL    HW126039   5.646   1.309   4.633
 8380SOL    HW226040   5.758   1.315   4.753
 8381SOL     OW26041   2.101   5.278   4.879
 8381SOL    HW126042   2.168   5.215   4.918
 8381SOL    HW226043   2.014   5.269   4.928
 8382SOL     OW26044   0.706   4.418   1.503
 8382SOL    HW126045   0.753   4.349   1.448
 8382SOL    HW226046   0.756   4.433   1.588
 8383SOL     OW26047   3.525   1.355   5.349
 8383SOL    HW126048   3.583   1.426   5.388
 8383SOL    HW226049   3.453   1.332   5.415
 8384SOL     OW26050   0.523   0.212   1.743
 8384SOL    HW126051   0.433   0.178   1.768
 8384SOL    HW226052   0.566   0.148   1.678
 8385SOL     OW26053   4.484   2.115   1.506
 8385SOL    HW126054   4.410   2.071   1.454
 8385SOL    HW226055   4.497   2.208   1.473
 8386SOL     OW26056   0.293   2.242   1.697
 8386SOL    HW126057   0.203   2.281   1.679
 8386SOL    HW226058   0.350   2.308   1.747
 8387SOL     OW26059   0.664   2.366   2.976
 8387SOL    HW126060   0.644   2.297   3.046
 8387SOL    HW226061   0.653   2.326   2.885
 8388SOL     OW26062   1.385   6.957   2.910
 8388SOL    HW126063   1.361   6.910   2.996
 8388SOL    HW226064   1.454   6.904   2.861
 8389SOL     OW26065   6.599   2.368   4.054
 8389SOL    HW126066   6.562   2.369   3.961
 8389SOL    HW226067   6.688   2.414   4.055
 8390SOL     OW26068   6.571   2.691   6.786
 8390SOL    HW126069   6.665   2.681   6.753
 8390SOL    HW226070   6.557   2.786   6.817
 8391SOL     OW26071   6.181   0.485   0.463
 8391SOL    HW126072   6.206   0.542   0.541
 8391SOL    HW226073   6.152   0.395   0.496
 8392SOL     OW26074   3.753   2.950   4.575
 8392SOL    HW126075   3.790   3.017   4.512
 8392SOL    HW226076   3.656   2.935   4.555
 8393SOL     OW26077   5.473   0.427   0.474
 8393SOL    HW126078   5.413   0.347   0.475
 8393SOL    HW226079   5.564   0.400   0.443
 8394SOL     OW26080   4.988   3.614   3.167
 8394SOL    HW126081   4.957   3.524   3.198
 8394SOL    HW226082   5.084   3.626   3.193
 8395SOL     OW26083   1.728   1.467   6.121
 8395SOL    HW126084   1.805   1.406   6.101
 8395SOL    HW226085   1.761   1.547   6.170
 8396SOL     OW26086   5.203   5.096   4.237
 8396SOL    HW126087   5.179   5.181   4.284
 8396SOL    HW226088   5.301   5.095   4.218
 8397SOL     OW26089   5.821   6.384   3.094
 8397SOL    HW126090   5.742   6.393   3.033
 8397SOL    HW226091   5.810   6.301   3.150
 8398SOL     OW26092   5.657   1.746   6.015
 8398SOL    HW126093   5.647   1.651   6.045
 8398SOL    HW226094   5.603   1.762   5.933
 8399SOL     OW26095   0.296   3.953   3.037
 8399SOL    HW126096   0.211   3.978   2.992
 8399SOL    HW226097   0.297   3.855   3.055
 8400SOL     OW26098   1.325   0.750   4.096
 8400SOL    HW126099   1.265   0.803   4.156
 8400SOL    HW226100   1.296   0.761   4.001
 8401SOL     OW26101   1.801   0.234   6.136
 8401SOL    HW126102   1.808   0.151   6.192
 8401SOL    HW226103   1.886   0.285   6.142
 8402SOL     OW26104   3.089   1.195   5.788
 8402SOL    HW126105   3.180   1.205   5.748
 8402SOL    HW226106   3.080   1.104   5.828
 8403SOL     OW26107   5.662   4.128   6.477
 8403SOL    HW126108   5.627   4.203   6.533
 8403SOL    HW226109   5.755   4.149   6.448
 8404SOL     OW26110   1.866   0.982   0.223
 8404SOL    HW126111   1.811   1.055   0.264
 8404SOL    HW226112   1.824   0.954   0.137
 8405SOL     OW26113   3.252   6.721   5.531
 8405SOL    HW126114   3.260   6.767   5.620
 8405SOL    HW226115   3.281   6.626   5.540
 8406SOL     OW26116   6.315   0.899   6.056
 8406SOL    HW126117   6.355   0.825   6.109
 8406SOL    HW226118   6.357   0.986   6.083
 8407SOL     OW26119   5.073   0.122   5.231
 8407SOL    HW126120   4.992   0.148   5.284
 8407SOL    HW226121   5.068   0.164   5.140
 8408SOL     OW26122   3.599   2.045   1.253
 8408SOL    HW126123   3.620   2.114   1.322
 8408SOL    HW226124   3.510   2.004   1.273
 8409SOL     OW26125   4.794   2.808   1.820
 8409SOL    HW126126   4.773   2.879   1.888
 8409SOL    HW226127   4.714   2.792   1.763
 8410SOL     OW26128   6.675   2.191   1.430
 8410SOL    HW126129   6.744   2.135   1.475
 8410SOL    HW226130   6.644   2.263   1.493
 8411SOL     OW26131   0.702   5.208   1.463
 8411SOL    HW126132   0.672   5.114   1.448
 8411SOL    HW226133   0.801   5.210   1.476
 8412SOL     OW26134   2.311   2.453   0.018
 8412SOL    HW126135   2.372   2.379   7.021
 8412SOL    HW226136   2.282   2.502   6.963
 8413SOL     OW26137   3.898   5.715   5.408
 8413SOL    HW126138   3.977   5.724   5.349
 8413SOL    HW226139   3.847   5.801   5.409
 8414SOL     OW26140   1.310   0.151   0.811
 8414SOL    HW126141   1.368   0.092   0.867
 8414SOL    HW226142   1.369   0.212   0.757
 8415SOL     OW26143   3.754   1.387   6.233
 8415SOL    HW126144   3.815   1.434   6.298
 8415SOL    HW226145   3.743   1.444   6.151
 8416SOL     OW26146   0.080   2.065   5.476
 8416SOL    HW126147   0.100   2.143   5.417
 8416SOL    HW226148   7.015   2.074   5.514
 8417SOL     OW26149   1.236   3.282   5.759
 8417SOL    HW126150   1.168   3.240   5.819
 8417SOL    HW226151   1.278   3.212   5.702
 8418SOL     OW26152   6.480   6.437   2.891
 8418SOL    HW126153   6.495   6.428   2.792
 8418SOL    HW226154   6.405   6.500   2.908
 8419SOL     OW26155   4.111   1.499   3.618
 8419SOL    HW126156   4.131   1.520   3.523
 8419SOL    HW226157   4.139   1.405   3.638
 8420SOL     OW26158   4.033   1.372   2.538
 8420SOL    HW126159   4.116   1.360   2.593
 8420SOL    HW226160   3.956   1.391   2.599
 8421SOL     OW26161   5.064   0.462   6.614
 8421SOL    HW126162   4.975   0.417   6.619
 8421SOL    HW226163   5.136   0.393   6.618
 8422SOL     OW26164   5.510   1.279   4.348
 8422SOL    HW126165   5.580   1.240   4.289
 8422SOL    HW226166   5.468   1.357   4.301
 8423SOL     OW26167   6.473   5.764   0.204
 8423SOL    HW126168   6.514   5.829   0.140
 8423SOL    HW226169   6.373   5.773   0.200
 8424SOL     OW26170   2.470   0.327   5.196
 8424SOL    HW126171   2.436   0.378   5.118
 8424SOL    HW226172   2.561   0.361   5.221
 8425SOL     OW26173   2.977   3.078   1.918
 8425SOL    HW126174   2.972   3.160   1.975
 8425SOL    HW226175   2.952   3.101   1.824
 8426SOL     OW26176   3.343   3.545   2.177
 8426SOL    HW126177   3.403   3.616   2.214
 8426SOL    HW226178   3.395   3.461   2.165
 8427SOL     OW26179   4.000   3.784   2.466
 8427SOL    HW126180   4.069   3.755   2.400
 8427SOL    HW226181   4.029   3.757   2.558
 8428SOL     OW26182   4.526   1.443   1.697
 8428SOL    HW126183   4.603   1.424   1.637
 8428SOL    HW226184   4.555   1.435   1.793
 8429SOL     OW26185   3.466   6.164   5.498
 8429SOL    HW126186   3.366   6.162   5.506
 8429SOL    HW226187   3.504   6.078   5.530
 8430SOL     OW26188   5.027   6.303   6.123
 8430SOL    HW126189   4.968   6.337   6.050
 8430SOL    HW226190   5.102   6.249   6.084
 8431SOL     OW26191   2.890   2.730   6.553
 8431SOL    HW126192   2.925   2.715   6.645
 8431SOL    HW226193   2.892   2.644   6.502
 8432SOL     OW26194   6.458   5.370   5.935
 8432SOL    HW126195   6.415   5.370   6.025
 8432SOL    HW226196   6.397   5.328   5.868
 8433SOL     OW26197   4.489   1.712   0.285
 8433SOL    HW126198   4.477   1.808   0.308
 8433SOL    HW226199   4.586   1.692   0.270
 8434SOL     OW26200   3.022   6.207   4.320
 8434SOL    HW126201   2.974   6.140   4.376
 8434SOL    HW226202   3.073   6.269   4.379
 8435SOL     OW26203   6.632   1.288   3.705
 8435SOL    HW126204   6.563   1.217   3.720
 8435SOL    HW226205   6.719   1.246   3.682
 8436SOL     OW26206   1.855   4.758   2.315
 8436SOL    HW126207   1.834   4.726   2.223
 8436SOL    HW226208   1.943   4.806   2.313
 8437SOL     OW26209   1.607   5.437   0.151
 8437SOL    HW126210   1.573   5.363   0.093
 8437SOL    HW226211   1.529   5.492   0.183
 8438SOL     OW26212   0.725   4.451   2.494
 8438SOL    HW126213   0.656   4.477   2.427
 8438SOL    HW226214   0.752   4.532   2.547
 8439SOL     OW26215   5.441   4.754   2.892
 8439SOL    HW126216   5.416   4.827   2.957
 8439SOL    HW226217   5.484   4.679   2.942
 8440SOL     OW26218   2.297   1.998   2.779
 8440SOL    HW126219   2.289   2.042   2.868
 8440SOL    HW226220   2.390   2.009   2.744
 8441SOL     OW26221   0.484   3.010   6.365
 8441SOL    HW126222   0.494   3.048   6.273
 8441SOL    HW226223   0.484   3.083   6.433
 8442SOL     OW26224   3.265   2.725   6.220
 8442SOL    HW126225   3.227   2.663   6.151
 8442SOL    HW226226   3.344   2.773   6.181
 8443SOL     OW26227   2.115   4.009   3.337
 8443SOL    HW126228   2.052   4.045   3.406
 8443SOL    HW226229   2.068   4.006   3.248
 8444SOL     OW26230   5.223   6.217   5.311
 8444SOL    HW126231   5.291   6.258   5.371
 8444SOL    HW226232   5.253   6.225   5.216
 8445SOL     OW26233   4.830   6.678   6.333
 8445SOL    HW126234   4.796   6.764   6.373
 8445SOL    HW226235   4.897   6.637   6.395
 8446SOL     OW26236   6.508   6.087   4.196
 8446SOL    HW126237   6.444   6.012   4.182
 8446SOL    HW226238   6.457   6.172   4.213
 8447SOL     OW26239   4.000   2.188   3.844
 8447SOL    HW126240   4.095   2.215   3.857
 8447SOL    HW226241   3.978   2.186   3.747
 8448SOL     OW26242   3.019   6.910   2.400
 8448SOL    HW126243   3.016   6.942   2.306
 8448SOL    HW226244   2.927   6.882   2.429
 8449SOL     OW26245   6.959   2.285   4.091
 8449SOL    HW126246   6.925   2.199   4.053
 8449SOL    HW226247   6.953   2.357   4.021
 8450SOL     OW26248   6.766   0.977   0.125
 8450SOL    HW126249   6.754   0.992   0.223
 8450SOL    HW226250   6.827   1.046   0.088
 8451SOL     OW26251   4.683   2.823   0.352
 8451SOL    HW126252   4.632   2.761   0.412
 8451SOL    HW226253   4.619   2.875   0.295
 8452SOL     OW26254   4.845   0.926   6.234
 8452SOL    HW126255   4.903   0.915   6.315
 8452SOL    HW226256   4.898   0.903   6.153
 8453SOL     OW26257   0.269   0.626   0.423
 8453SOL    HW126258   0.355   0.670   0.451
 8453SOL    HW226259   0.289   0.539   0.379
 8454SOL     OW26260   6.595   6.152   0.213
 8454SOL    HW126261   6.637   6.066   0.242
 8454SOL    HW226262   6.663   6.208   0.166
 8455SOL     OW26263   6.647   0.962   2.849
 8455SOL    HW126264   6.666   0.871   2.886
 8455SOL    HW226265   6.569   0.956   2.786
 8456SOL     OW26266   6.145   0.451   1.622
 8456SOL    HW126267   6.112   0.373   1.571
 8456SOL    HW226268   6.168   0.526   1.559
 8457SOL     OW26269   6.232   6.628   4.983
 8457SOL    HW126270   6.318   6.599   5.024
 8457SOL    HW226271   6.241   6.634   4.884
 8458SOL     OW26272   1.679   6.099   0.824
 8458SOL    HW126273   1.613   6.141   0.886
 8458SOL    HW226274   1.649   6.113   0.729
 8459SOL     OW26275   1.473   6.335   3.964
 8459SOL    HW126276   1.564   6.299   3.943
 8459SOL    HW226277   1.457   6.330   4.062
 8460SOL     OW26278   3.985   3.826   3.841
 8460SOL    HW126279   3.965   3.887   3.918
 8460SOL    HW226280   3.971   3.876   3.755
 8461SOL     OW26281   6.381   3.831   3.981
 8461SOL    HW126282   6.400   3.854   3.886
 8461SOL    HW226283   6.462   3.788   4.022
 8462SOL     OW26284   2.646   2.279   2.064
 8462SOL    HW126285   2.744   2.281   2.042
 8462SOL    HW226286   2.613   2.373   2.075
 8463SOL     OW26287   6.432   0.547   1.279
 8463SOL    HW126288   6.383   0.484   1.340
 8463SOL    HW226289   6.531   0.532   1.288
 8464SOL     OW26290   6.891   1.316   4.719
 8464SOL    HW126291   6.987   1.291   4.725
 8464SOL    HW226292   6.876   1.370   4.636
 8465SOL     OW26293   2.310   0.661   0.148
 8465SOL    HW126294   2.308   0.646   0.247
 8465SOL    HW226295   2.249   0.737   0.125
 8466SOL     OW26296   1.029   0.162   3.524
 8466SOL    HW126297   1.009   0.069   3.555
 8466SOL    HW226298   0.986   0.178   3.435
 8467SOL     OW26299   3.477   4.969   1.263
 8467SOL    HW126300   3.550   4.905   1.240
 8467SOL    HW226301   3.512   5.063   1.258
 8468SOL     OW26302   5.065   2.716   0.123
 8468SOL    HW126303   5.137   2.675   0.066
 8468SOL    HW226304   5.053   2.660   0.205
 8469SOL     OW26305   5.420   1.886   5.077
 8469SOL    HW126306   5.454   1.889   4.983
 8469SOL    HW226307   5.320   1.894   5.076
 8470SOL     OW26308   1.540   3.118   6.588
 8470SOL    HW126309   1.635   3.097   6.568
 8470SOL    HW226310   1.483   3.038   6.568
 8471SOL     OW26311   3.811   2.145   5.837
 8471SOL    HW126312   3.839   2.088   5.914
 8471SOL    HW226313   3.880   2.216   5.822
 8472SOL     OW26314   1.342   5.813   2.360
 8472SOL    HW126315   1.307   5.744   2.297
 8472SOL    HW226316   1.292   5.899   2.348
 8473SOL     OW26317   6.766   5.681   6.644
 8473SOL    HW126318   6.780   5.757   6.580
 8473SOL    HW226319   6.850   5.665   6.696
 8474SOL     OW26320   4.069   5.949   0.206
 8474SOL    HW126321   4.009   5.879   0.244
 8474SOL    HW226322   4.059   6.033   0.259
 8475SOL     OW26323   5.017   1.496   2.721
 8475SOL    HW126324   4.985   1.566   2.785
 8475SOL    HW226325   5.108   1.520   2.687
 8476SOL     OW26326   4.731   0.524   3.025
 8476SOL    HW126327   4.826   0.549   3.042
 8476SOL    HW226328   4.720   0.501   2.928
 8477SOL     OW26329   2.567   1.324   3.449
 8477SOL    HW126330   2.619   1.336   3.365
 8477SOL    HW226331   2.481   1.375   3.443
 8478SOL     OW26332   1.086   1.952   6.301
 8478SOL    HW126333   1.125   1.997   6.382
 8478SOL    HW226334   1.156   1.895   6.257
 8479SOL     OW26335   5.481   6.654   1.890
 8479SOL    HW126336   5.453   6.718   1.818
 8479SOL    HW226337   5.542   6.701   1.954
 8480SOL     OW26338   2.563   0.494   1.906
 8480SOL    HW126339   2.467   0.488   1.879
 8480SOL    HW226340   2.571   0.543   1.993
 8481SOL     OW26341   3.660   0.137   5.614
 8481SOL    HW126342   3.573   0.095   5.637
 8481SOL    HW226343   3.669   0.142   5.514
 8482SOL     OW26344   6.051   1.141   1.209
 8482SOL    HW126345   6.016   1.062   1.259
 8482SOL    HW226346   6.134   1.174   1.252
 8483SOL     OW26347   4.587   6.213   1.584
 8483SOL    HW126348   4.628   6.256   1.503
 8483SOL    HW226349   4.504   6.165   1.558
 8484SOL     OW26350   6.937   4.876   6.274
 8484SOL    HW126351   6.903   4.926   6.353
 8484SOL    HW226352   6.878   4.797   6.257
 8485SOL     OW26353   2.089   3.002   6.229
 8485SOL    HW126354   2.112   3.062   6.152
 8485SOL    HW226355   2.142   2.917   6.221
 8486SOL     OW26356   4.520   0.268   1.396
 8486SOL    HW126357   4.441   0.318   1.430
 8486SOL    HW226358   4.551   0.308   1.310
 8487SOL     OW26359   5.100   0.638   0.939
 8487SOL    HW126360   5.065   0.728   0.912
 8487SOL    HW226361   5.034   0.568   0.913
 8488SOL     OW26362   0.331   4.965   6.778
 8488SOL    HW126363   0.397   4.926   6.713
 8488SOL    HW226364   0.336   4.913   6.864
 8489SOL     OW26365   3.286   0.198   3.149
 8489SOL    HW126366   3.198   0.194   3.102
 8489SOL    HW226367   3.316   0.106   3.171
 8490SOL     OW26368   4.384   5.128   2.017
 8490SOL    HW126369   4.439   5.177   1.949
 8490SOL    HW226370   4.304   5.183   2.042
 8491SOL     OW26371   6.569   0.539   0.989
 8491SOL    HW126372   6.490   0.495   1.031
 8491SOL    HW226373   6.653   0.501   1.029
 8492SOL     OW26374   6.295   4.269   4.455
 8492SOL    HW126375   6.267   4.174   4.462
 8492SOL    HW226376   6.380   4.275   4.402
 8493SOL     OW26377   4.559   3.319   0.752
 8493SOL    HW126378   4.532   3.230   0.716
 8493SOL    HW226379   4.644   3.310   0.803
 8494SOL     OW26380   2.963   6.243   6.567
 8494SOL    HW126381   2.911   6.184   6.505
 8494SOL    HW226382   2.915   6.330   6.577
 8495SOL     OW26383   0.175   3.680   6.057
 8495SOL    HW126384   0.272   3.664   6.077
 8495SOL    HW226385   0.150   3.628   5.975
 8496SOL     OW26386   1.268   1.655   4.605
 8496SOL    HW126387   1.215   1.608   4.535
 8496SOL    HW226388   1.335   1.592   4.644
 8497SOL     OW26389   5.717   3.034   4.665
 8497SOL    HW126390   5.714   3.046   4.764
 8497SOL    HW226391   5.759   3.115   4.623
 8498SOL     OW26392   6.095   1.050   2.437
 8498SOL    HW126393   6.125   1.034   2.532
 8498SOL    HW226394   5.998   1.074   2.437
 8499SOL     OW26395   0.101   3.967   0.818
 8499SOL    HW126396   0.104   4.030   0.740
 8499SOL    HW226397   0.191   3.964   0.862
 8500SOL     OW26398   1.610   0.663   5.144
 8500SOL    HW126399   1.582   0.673   5.049
 8500SOL    HW226400   1.571   0.737   5.198
 8501SOL     OW26401   3.271   3.180   6.458
 8501SOL    HW126402   3.296   3.137   6.371
 8501SOL    HW226403   3.334   3.255   6.478
 8502SOL     OW26404   0.182   6.561   1.110
 8502SOL    HW126405   0.277   6.530   1.112
 8502SOL    HW226406   0.122   6.481   1.097
 8503SOL     OW26407   4.144   5.847   3.605
 8503SOL    HW126408   4.060   5.899   3.621
 8503SOL    HW226409   4.221   5.911   3.600
 8504SOL     OW26410   1.486   4.930   2.817
 8504SOL    HW126411   1.442   4.993   2.753
 8504SOL    HW226412   1.534   4.982   2.888
 8505SOL     OW26413   4.221   1.846   2.616
 8505SOL    HW126414   4.122   1.850   2.625
 8505SOL    HW226415   4.246   1.846   2.519
 8506SOL     OW26416   0.788   5.039   0.667
 8506SOL    HW126417   0.785   5.130   0.626
 8506SOL    HW226418   0.725   4.978   0.618
 8507SOL     OW26419   2.620   6.883   4.280
 8507SOL    HW126420   2.702   6.922   4.324
 8507SOL    HW226421   2.554   6.857   4.350
 8508SOL     OW26422   1.188   3.663   6.449
 8508SOL    HW126423   1.152   3.591   6.508
 8508SOL    HW226424   1.133   3.669   6.365
 8509SOL     OW26425   6.935   2.974   4.210
 8509SOL    HW126426   6.955   2.931   4.299
 8509SOL    HW226427   6.836   2.982   4.199
 8510SOL     OW26428   5.556   6.526   3.278
 8510SOL    HW126429   5.521   6.436   3.252
 8510SOL    HW226430   5.611   6.564   3.204
 8511SOL     OW26431   6.271   4.927   0.837
 8511SOL    HW126432   6.226   4.851   0.792
 8511SOL    HW226433   6.305   4.992   0.769
 8512SOL     OW26434   4.203   2.775   0.615
 8512SOL    HW126435   4.180   2.827   0.697
 8512SOL    HW226436   4.144   2.695   0.608
 8513SOL     OW26437   0.377   3.667   1.145
 8513SOL    HW126438   0.303   3.735   1.142
 8513SOL    HW226439   0.374   3.612   1.062
 8514SOL     OW26440   2.267   2.730   5.018
 8514SOL    HW126441   2.317   2.815   5.006
 8514SOL    HW226442   2.322   2.666   5.072
 8515SOL     OW26443   2.984   1.577   0.230
 8515SOL    HW126444   2.937   1.625   0.304
 8515SOL    HW226445   2.934   1.494   0.207
 8516SOL     OW26446   0.131   4.360   5.438
 8516SOL    HW126447   0.163   4.393   5.349
 8516SOL    HW226448   0.073   4.280   5.425
 8517SOL     OW26449   1.167   2.357   5.966
 8517SOL    HW126450   1.157   2.324   6.060
 8517SOL    HW226451   1.077   2.368   5.924
 8518SOL     OW26452   5.856   5.012   0.290
 8518SOL    HW126453   5.867   5.111   0.298
 8518SOL    HW226454   5.939   4.973   0.251
 8519SOL     OW26455   1.743   3.932   1.496
 8519SOL    HW126456   1.815   3.922   1.564
 8519SOL    HW226457   1.705   3.842   1.474
 8520SOL     OW26458   3.005   3.659   6.428
 8520SOL    HW126459   3.024   3.576   6.376
 8520SOL    HW226460   2.958   3.725   6.370
 8521SOL     OW26461   2.016   0.432   4.829
 8521SOL    HW126462   2.015   0.532   4.830
 8521SOL    HW226463   1.923   0.398   4.817
 8522SOL     OW26464   0.174   0.382   0.657
 8522SOL    HW126465   0.202   0.293   0.694
 8522SOL    HW226466   0.205   0.454   0.719
 8523SOL     OW26467   4.196   2.218   1.742
 8523SOL    HW126468   4.097   2.227   1.731
 8523SOL    HW226469   4.235   2.306   1.769
 8524SOL     OW26470   2.161   6.334   4.678
 8524SOL    HW126471   2.180   6.268   4.751
 8524SOL    HW226472   2.075   6.380   4.696
 8525SOL     OW26473   6.233   2.700   3.544
 8525SOL    HW126474   6.258   2.785   3.591
 8525SOL    HW226475   6.243   2.712   3.446
 8526SOL     OW26476   0.606   5.147   6.392
 8526SOL    HW126477   0.564   5.154   6.302
 8526SOL    HW226478   0.703   5.174   6.386
 8527SOL     OW26479   1.319   0.933   6.697
 8527SOL    HW126480   1.361   0.938   6.788
 8527SOL    HW226481   1.344   1.015   6.645
 8528SOL     OW26482   6.130   6.676   0.511
 8528SOL    HW126483   6.171   6.753   0.461
 8528SOL    HW226484   6.065   6.711   0.578
 8529SOL     OW26485   0.972   6.832   7.002
 8529SOL    HW126486   0.996   6.929   7.010
 8529SOL    HW226487   1.053   6.780   6.976
 8530SOL     OW26488   3.511   3.791   2.641
 8530SOL    HW126489   3.528   3.862   2.709
 8530SOL    HW226490   3.471   3.711   2.685
 8531SOL     OW26491   6.281   5.739   3.424
 8531SOL    HW126492   6.196   5.703   3.461
 8531SOL    HW226493   6.294   5.833   3.456
 8532SOL     OW26494   3.535   5.288   0.464
 8532SOL    HW126495   3.521   5.360   0.531
 8532SOL    HW226496   3.548   5.200   0.510
 8533SOL     OW26497   2.306   5.812   5.369
 8533SOL    HW126498   2.392   5.844   5.330
 8533SOL    HW226499   2.291   5.856   5.457
 8534SOL     OW26500   2.055   3.202   1.967
 8534SOL    HW126501   2.126   3.271   1.974
 8534SOL    HW226502   2.057   3.162   1.875
 8535SOL     OW26503   6.294   6.422   1.872
 8535SOL    HW126504   6.354   6.470   1.936
 8535SOL    HW226505   6.350   6.365   1.810
 8536SOL     OW26506   2.773   0.673   4.093
 8536SOL    HW126507   2.857   0.683   4.146
 8536SOL    HW226508   2.719   0.597   4.129
 8537SOL     OW26509   5.817   1.067   3.215
 8537SOL    HW126510   5.761   1.102   3.140
 8537SOL    HW226511   5.846   1.142   3.274
 8538SOL     OW26512   0.648   2.809   6.949
 8538SOL    HW126513   0.583   2.814   7.024
 8538SOL    HW226514   0.621   2.737   6.885
 8539SOL     OW26515   5.716   3.771   1.895
 8539SOL    HW126516   5.703   3.865   1.927
 8539SOL    HW226517   5.770   3.771   1.810
 8540SOL     OW26518   4.164   0.241   1.003
 8540SOL    HW126519   4.134   0.329   1.039
 8540SOL    HW226520   4.168   0.245   0.903
 8541SOL     OW26521   1.098   3.179   3.032
 8541SOL    HW126522   1.111   3.269   3.076
 8541SOL    HW226523   1.145   3.178   2.944
 8542SOL     OW26524   2.408   4.896   6.466
 8542SOL    HW126525   2.455   4.832   6.406
 8542SOL    HW226526   2.439   4.883   6.560
 8543SOL     OW26527   4.036   1.957   6.890
 8543SOL    HW126528   4.111   2.008   6.931
 8543SOL    HW226529   4.071   1.875   6.846
 8544SOL     OW26530   6.383   2.590   4.286
 8544SOL    HW126531   6.304   2.600   4.347
 8544SOL    HW226532   6.420   2.498   4.296
 8545SOL     OW26533   4.601   6.883   5.663
 8545SOL    HW126534   4.574   6.792   5.634
 8545SOL    HW226535   4.645   6.931   5.586
 8546SOL     OW26536   4.791   1.783   5.943
 8546SOL    HW126537   4.830   1.718   5.878
 8546SOL    HW226538   4.863   1.843   5.978
 8547SOL     OW26539   1.473   4.390   1.967
 8547SOL    HW126540   1.417   4.315   1.931
 8547SOL    HW226541   1.566   4.357   1.982
 8548SOL     OW26542   6.033   2.138   5.498
 8548SOL    HW126543   6.070   2.079   5.425
 8548SOL    HW226544   6.044   2.092   5.586
 8549SOL     OW26545   4.931   2.505   4.546
 8549SOL    HW126546   4.920   2.586   4.488
 8549SOL    HW226547   4.944   2.425   4.489
 8550SOL     OW26548   2.257   5.183   5.278
 8550SOL    HW126549   2.290   5.255   5.339
 8550SOL    HW226550   2.311   5.100   5.293
 8551SOL     OW26551   2.838   5.147   0.696
 8551SOL    HW126552   2.873   5.089   0.770
 8551SOL    HW226553   2.742   5.126   0.680
 8552SOL     OW26554   3.082   6.625   3.834
 8552SOL    HW126555   3.029   6.685   3.773
 8552SOL    HW226556   3.175   6.660   3.842
 8553SOL     OW26557   6.202   5.756   0.231
 8553SOL    HW126558   6.156   5.800   0.309
 8553SOL    HW226559   6.150   5.675   0.204
 8554SOL     OW26560   5.446   4.216   7.023
 8554SOL    HW126561   5.468   4.131   0.044
 8554SOL    HW226562   5.527   4.275   7.022
 8555SOL     OW26563   1.890   6.757   4.067
 8555SOL    HW126564   1.883   6.813   4.150
 8555SOL    HW226565   1.836   6.798   3.994
 8556SOL     OW26566   5.299   0.276   5.574
 8556SOL    HW126567   5.358   0.356   5.581
 8556SOL    HW226568   5.352   0.197   5.542
 8557SOL     OW26569   6.887   2.039   1.522
 8557SOL    HW126570   6.889   1.939   1.526
 8557SOL    HW226571   6.971   2.073   1.481
 8558SOL     OW26572   1.742   4.339   2.375
 8558SOL    HW126573   1.769   4.358   2.469
 8558SOL    HW226574   1.742   4.423   2.322
 8559SOL     OW26575   1.420   1.453   4.704
 8559SOL    HW126576   1.492   1.499   4.756
 8559SOL    HW226577   1.439   1.355   4.700
 8560SOL     OW26578   6.405   2.881   0.616
 8560SOL    HW126579   6.418   2.843   0.708
 8560SOL    HW226580   6.323   2.938   0.615
 8561SOL     OW26581   5.156   5.684   6.007
 8561SOL    HW126582   5.220   5.705   6.081
 8561SOL    HW226583   5.192   5.719   5.921
 8562SOL     OW26584   4.182   1.434   4.773
 8562SOL    HW126585   4.123   1.403   4.698
 8562SOL    HW226586   4.196   1.359   4.838
 8563SOL     OW26587   2.085   2.722   5.911
 8563SOL    HW126588   2.021   2.646   5.898
 8563SOL    HW226589   2.101   2.736   6.009
 8564SOL     OW26590   0.581   5.473   4.509
 8564SOL    HW126591   0.667   5.427   4.490
 8564SOL    HW226592   0.519   5.462   4.431
 8565SOL     OW26593   3.853   1.105   1.477
 8565SOL    HW126594   3.828   1.159   1.397
 8565SOL    HW226595   3.912   1.160   1.536
 8566SOL     OW26596   1.354   4.719   4.408
 8566SOL    HW126597   1.451   4.730   4.429
 8566SOL    HW226598   1.303   4.799   4.440
 8567SOL     OW26599   5.147   6.279   6.756
 8567SOL    HW126600   5.210   6.254   6.830
 8567SOL    HW226601   5.078   6.343   6.791
 8568SOL     OW26602   5.050   6.223   0.499
 8568SOL    HW126603   4.964   6.274   0.491
 8568SOL    HW226604   5.118   6.262   0.436
 8569SOL     OW26605   2.377   0.992   5.257
 8569SOL    HW126606   2.443   0.956   5.192
 8569SOL    HW226607   2.397   1.089   5.275
 8570SOL     OW26608   6.717   4.155   6.033
 8570SOL    HW126609   6.766   4.207   5.963
 8570SOL    HW226610   6.716   4.206   6.118
 8571SOL     OW26611   0.841   4.591   6.724
 8571SOL    HW126612   0.873   4.649   6.799
 8571SOL    HW226613   0.916   4.573   6.662
 8572SOL     OW26614   2.777   4.671   6.650
 8572SOL    HW126615   2.744   4.591   6.600
 8572SOL    HW226616   2.807   4.741   6.585
 8573SOL     OW26617   2.757   5.463   4.304
 8573SOL    HW126618   2.792   5.379   4.263
 8573SOL    HW226619   2.779   5.540   4.244
 8574SOL     OW26620   0.961   4.414   4.448
 8574SOL    HW126621   1.061   4.419   4.443
 8574SOL    HW226622   0.933   4.378   4.537
 8575SOL     OW26623   2.742   2.913   5.889
 8575SOL    HW126624   2.732   2.919   5.790
 8575SOL    HW226625   2.652   2.895   5.930
 8576SOL     OW26626   1.817   0.451   0.092
 8576SOL    HW126627   1.834   0.380   0.160
 8576SOL    HW226628   1.833   0.415   0.000
 8577SOL     OW26629   6.285   5.270   4.472
 8577SOL    HW126630   6.378   5.301   4.450
 8577SOL    HW226631   6.231   5.266   4.389
 8578SOL     OW26632   4.531   0.746   4.419
 8578SOL    HW126633   4.495   0.772   4.508
 8578SOL    HW226634   4.594   0.669   4.430
 8579SOL     OW26635   7.004   4.502   2.558
 8579SOL    HW126636   0.073   4.522   2.573
 8579SOL    HW226637   6.956   4.500   2.646
 8580SOL     OW26638   1.323   6.093   5.811
 8580SOL    HW126639   1.320   6.006   5.763
 8580SOL    HW226640   1.411   6.102   5.858
 8581SOL     OW26641   3.313   3.642   0.006
 8581SOL    HW126642   3.404   3.657   0.047
 8581SOL    HW226643   3.252   3.604   0.076
 8582SOL     OW26644   2.922   5.746   6.929
 8582SOL    HW126645   2.950   5.811   6.859
 8582SOL    HW226646   2.991   5.741   7.000
 8583SOL     OW26647   5.801   6.894   4.236
 8583SOL    HW126648   5.840   6.959   4.302
 8583SOL    HW226649   5.806   6.801   4.273
 8584SOL     OW26650   1.052   5.646   6.080
 8584SOL    HW126651   1.029   5.681   5.989
 8584SOL    HW226652   1.050   5.546   6.078
 8585SOL     OW26653   1.140   0.897   0.796
 8585SOL    HW126654   1.215   0.865   0.737
 8585SOL    HW226655   1.063   0.924   0.739
 8586SOL     OW26656   3.888   5.317   2.959
 8586SOL    HW126657   3.910   5.378   2.882
 8586SOL    HW226658   3.933   5.229   2.945
 8587SOL     OW26659   0.348   0.949   1.062
 8587SOL    HW126660   0.332   0.987   0.971
 8587SOL    HW226661   0.444   0.963   1.087
 8588SOL     OW26662   4.222   3.525   0.016
 8588SOL    HW126663   4.236   3.602   6.982
 8588SOL    HW226664   4.130   3.528   0.053
 8589SOL     OW26665   3.933   1.156   3.861
 8589SOL    HW126666   3.917   1.087   3.790
 8589SOL    HW226667   3.868   1.231   3.849
 8590SOL     OW26668   4.947   3.901   5.928
 8590SOL    HW126669   5.029   3.845   5.935
 8590SOL    HW226670   4.866   3.843   5.942
 8591SOL     OW26671   0.180   2.869   0.738
 8591SOL    HW126672   0.258   2.912   0.693
 8591SOL    HW226673   0.212   2.794   0.796
 8592SOL     OW26674   6.789   5.693   0.407
 8592SOL    HW126675   6.749   5.689   0.498
 8592SOL    HW226676   6.720   5.668   0.339
 8593SOL     OW26677   1.213   5.164   3.798
 8593SOL    HW126678   1.228   5.237   3.865
 8593SOL    HW226679   1.248   5.077   3.834
 8594SOL     OW26680   3.785   3.604   2.538
 8594SOL    HW126681   3.706   3.653   2.574
 8594SOL    HW226682   3.851   3.669   2.501
 8595SOL     OW26683   1.292   2.508   2.725
 8595SOL    HW126684   1.262   2.602   2.708
 8595SOL    HW226685   1.377   2.491   2.675
 8596SOL     OW26686   6.757   3.922   2.743
 8596SOL    HW126687   6.752   4.008   2.793
 8596SOL    HW226688   6.806   3.854   2.798
 8597SOL     OW26689   1.959   2.026   1.068
 8597SOL    HW126690   2.045   2.008   1.020
 8597SOL    HW226691   1.897   2.075   1.007
 8598SOL     OW26692   6.094   3.039   1.784
 8598SOL    HW126693   6.000   3.044   1.819
 8598SOL    HW226694   6.133   3.130   1.780
 8599SOL     OW26695   0.471   2.370   0.834
 8599SOL    HW126696   0.443   2.301   0.768
 8599SOL    HW226697   0.479   2.459   0.787
 8600SOL     OW26698   0.081   3.251   5.842
 8600SOL    HW126699   0.080   3.278   5.745
 8600SOL    HW226700   7.015   3.239   5.874
 8601SOL     OW26701   0.782   0.268   4.670
 8601SOL    HW126702   0.746   0.356   4.701
 8601SOL    HW226703   0.706   0.206   4.651
 8602SOL     OW26704   1.033   6.730   2.126
 8602SOL    HW126705   0.990   6.812   2.088
 8602SOL    HW226706   1.010   6.651   2.069
 8603SOL     OW26707   5.088   3.836   2.391
 8603SOL    HW126708   5.181   3.865   2.414
 8603SOL    HW226709   5.048   3.901   2.326
 8604SOL     OW26710   6.318   2.617   3.855
 8604SOL    HW126711   6.271   2.631   3.767
 8604SOL    HW226712   6.335   2.705   3.898
 8605SOL     OW26713   1.881   5.346   1.227
 8605SOL    HW126714   1.797   5.293   1.214
 8605SOL    HW226715   1.947   5.292   1.279
 8606SOL     OW26716   4.282   5.519   4.901
 8606SOL    HW126717   4.244   5.430   4.925
 8606SOL    HW226718   4.210   5.588   4.902
 8607SOL     OW26719   3.120   6.809   0.695
 8607SOL    HW126720   3.054   6.750   0.648
 8607SOL    HW226721   3.096   6.815   0.792
 8608SOL     OW26722   5.768   6.422   3.853
 8608SOL    HW126723   5.820   6.378   3.780
 8608SOL    HW226724   5.743   6.354   3.922
 8609SOL     OW26725   5.117   6.388   5.583
 8609SOL    HW126726   5.152   6.297   5.560
 8609SOL    HW226727   5.173   6.457   5.539
 8610SOL     OW26728   0.177   0.585   4.731
 8610SOL    HW126729   0.187   0.486   4.736
 8610SOL    HW226730   0.101   0.614   4.789
 8611SOL     OW26731   1.679   1.650   2.422
 8611SOL    HW126732   1.619   1.587   2.372
 8611SOL    HW226733   1.689   1.735   2.369
 8612SOL     OW26734   5.198   3.100   4.679
 8612SOL    HW126735   5.133   3.038   4.637
 8612SOL    HW226736   5.173   3.195   4.657
 8613SOL     OW26737   1.375   1.120   1.459
 8613SOL    HW126738   1.318   1.142   1.538
 8613SOL    HW226739   1.316   1.098   1.381
 8614SOL     OW26740   1.461   2.918   3.579
 8614SOL    HW126741   1.425   2.830   3.547
 8614SOL    HW226742   1.551   2.904   3.619
 8615SOL     OW26743   4.096   2.315   6.378
 8615SOL    HW126744   4.073   2.412   6.369
 8615SOL    HW226745   4.045   2.276   6.455
 8616SOL     OW26746   0.641   3.384   0.903
 8616SOL    HW126747   0.659   3.441   0.824
 8616SOL    HW226748   0.718   3.388   0.967
 8617SOL     OW26749   6.410   3.435   0.499
 8617SOL    HW126750   6.330   3.382   0.528
 8617SOL    HW226751   6.471   3.448   0.578
 8618SOL     OW26752   2.573   0.848   3.176
 8618SOL    HW126753   2.596   0.774   3.113
 8618SOL    HW226754   2.527   0.810   3.257
 8619SOL     OW26755   3.889   5.737   0.878
 8619SOL    HW126756   3.799   5.780   0.873
 8619SOL    HW226757   3.878   5.640   0.901
 8620SOL     OW26758   5.624   5.552   4.286
 8620SOL    HW126759   5.662   5.620   4.349
 8620SOL    HW226760   5.698   5.497   4.248
 8621SOL     OW26761   5.107   1.511   3.855
 8621SOL    HW126762   5.200   1.477   3.857
 8621SOL    HW226763   5.043   1.436   3.869
 8622SOL     OW26764   5.041   5.262   5.686
 8622SOL    HW126765   4.962   5.323   5.695
 8622SOL    HW226766   5.106   5.281   5.760
 8623SOL     OW26767   5.963   1.401   3.751
 8623SOL    HW126768   5.878   1.358   3.718
 8623SOL    HW226769   5.985   1.366   3.842
 8624SOL     OW26770   0.097   2.877   2.884
 8624SOL    HW126771   0.088   2.939   2.962
 8624SOL    HW226772   0.131   2.928   2.805
 8625SOL     OW26773   3.369   1.806   6.761
 8625SOL    HW126774   3.437   1.835   6.693
 8625SOL    HW226775   3.293   1.760   6.714
 8626SOL     OW26776   3.374   3.360   1.706
 8626SOL    HW126777   3.390   3.391   1.613
 8626SOL    HW226778   3.368   3.439   1.768
 8627SOL     OW26779   2.735   0.637   6.009
 8627SOL    HW126780   2.721   0.614   6.105
 8627SOL    HW226781   2.830   0.664   5.994
 8628SOL     OW26782   6.167   0.668   1.458
 8628SOL    HW126783   6.075   0.652   1.425
 8628SOL    HW226784   6.232   0.665   1.382
 8629SOL     OW26785   1.538   6.349   3.656
 8629SOL    HW126786   1.467   6.325   3.590
 8629SOL    HW226787   1.498   6.354   3.747
 8630SOL     OW26788   5.677   5.161   4.249
 8630SOL    HW126789   5.759   5.161   4.193
 8630SOL    HW226790   5.648   5.066   4.266
 8631SOL     OW26791   3.980   6.899   2.975
 8631SOL    HW126792   3.960   6.990   3.012
 8631SOL    HW226793   4.072   6.898   2.935
 8632SOL     OW26794   2.337   0.736   2.779
 8632SOL    HW126795   2.353   0.682   2.862
 8632SOL    HW226796   2.308   0.828   2.806
 8633SOL     OW26797   6.280   6.617   3.147
 8633SOL    HW126798   6.184   6.626   3.175
 8633SOL    HW226799   6.338   6.666   3.213
 8634SOL     OW26800   4.598   6.836   1.311
 8634SOL    HW126801   4.570   6.762   1.372
 8634SOL    HW226802   4.670   6.803   1.250
 8635SOL     OW26803   5.909   3.677   5.559
 8635SOL    HW126804   5.873   3.589   5.529
 8635SOL    HW226805   6.008   3.670   5.573
 8636SOL     OW26806   5.915   4.680   1.659
 8636SOL    HW126807   5.950   4.621   1.731
 8636SOL    HW226808   5.831   4.641   1.621
 8637SOL     OW26809   0.569   0.897   1.968
 8637SOL    HW126810   0.574   0.975   2.030
 8637SOL    HW226811   0.558   0.813   2.021
 8638SOL     OW26812   6.046   4.427   0.359
 8638SOL    HW126813   6.070   4.506   0.302
 8638SOL    HW226814   6.125   4.398   0.412
 8639SOL     OW26815   5.608   2.595   3.848
 8639SOL    HW126816   5.513   2.601   3.877
 8639SOL    HW226817   5.615   2.620   3.751
 8640SOL     OW26818   5.108   5.609   1.063
 8640SOL    HW126819   5.206   5.630   1.063
 8640SOL    HW226820   5.057   5.687   1.029
 8641SOL     OW26821   5.087   5.173   4.007
 8641SOL    HW126822   5.111   5.147   4.101
 8641SOL    HW226823   5.122   5.265   3.988
 8642SOL     OW26824   4.630   1.011   0.757
 8642SOL    HW126825   4.659   1.076   0.687
 8642SOL    HW226826   4.530   1.014   0.767
 8643SOL     OW26827   4.843   0.125   0.494
 8643SOL    HW126828   4.842   0.219   0.528
 8643SOL    HW226829   4.755   0.082   0.512
 8644SOL     OW26830   6.211   2.633   5.137
 8644SOL    HW126831   6.274   2.683   5.196
 8644SOL    HW226832   6.220   2.535   5.153
 8645SOL     OW26833   6.377   3.577   2.393
 8645SOL    HW126834   6.386   3.572   2.492
 8645SOL    HW226835   6.286   3.609   2.369
 8646SOL     OW26836   4.366   5.889   0.153
 8646SOL    HW126837   4.420   5.879   0.237
 8646SOL    HW226838   4.286   5.945   0.172
 8647SOL     OW26839   5.233   4.787   2.279
 8647SOL    HW126840   5.145   4.823   2.309
 8647SOL    HW226841   5.228   4.763   2.182
 8648SOL     OW26842   6.457   1.005   4.859
 8648SOL    HW126843   6.416   1.025   4.770
 8648SOL    HW226844   6.555   0.989   4.848
 8649SOL     OW26845   6.618   3.050   5.357
 8649SOL    HW126846   6.549   3.116   5.387
 8649SOL    HW226847   6.694   3.049   5.422
 8650SOL     OW26848   0.539   5.446   2.091
 8650SOL    HW126849   0.616   5.509   2.106
 8650SOL    HW226850   0.497   5.465   2.003
 8651SOL     OW26851   4.801   3.048   1.009
 8651SOL    HW126852   4.778   3.145   1.007
 8651SOL    HW226853   4.855   3.025   0.928
 8652SOL     OW26854   1.257   3.027   4.768
 8652SOL    HW126855   1.303   3.093   4.708
 8652SOL    HW226856   1.300   3.028   4.858
 8653SOL     OW26857   5.208   3.766   6.081
 8653SOL    HW126858   5.307   3.776   6.083
 8653SOL    HW226859   5.180   3.695   6.145
 8654SOL     OW26860   2.133   4.395   1.889
 8654SOL    HW126861   2.105   4.435   1.976
 8654SOL    HW226862   2.147   4.297   1.900
 8655SOL     OW26863   5.192   6.780   2.699
 8655SOL    HW126864   5.105   6.816   2.733
 8655SOL    HW226865   5.222   6.704   2.757
 8656SOL     OW26866   6.975   2.523   2.680
 8656SOL    HW126867   0.034   2.557   2.716
 8656SOL    HW226868   6.960   2.561   2.588
 8657SOL     OW26869   2.589   5.554   0.757
 8657SOL    HW126870   2.521   5.608   0.806
 8657SOL    HW226871   2.638   5.495   0.821
 8658SOL     OW26872   0.759   6.697   5.417
 8658SOL    HW126873   0.792   6.616   5.368
 8658SOL    HW226874   0.765   6.680   5.516
 8659SOL     OW26875   3.607   6.974   3.582
 8659SOL    HW126876   3.516   6.931   3.583
 8659SOL    HW226877   3.598   0.043   3.560
 8660SOL     OW26878   5.071   4.525   6.980
 8660SOL    HW126879   4.979   4.516   6.940
 8660SOL    HW226880   5.097   4.438   7.022
 8661SOL     OW26881   6.249   2.573   2.541
 8661SOL    HW126882   6.304   2.639   2.489
 8661SOL    HW226883   6.152   2.585   2.518
 8662SOL     OW26884   0.398   1.268   0.176
 8662SOL    HW126885   0.477   1.272   0.114
 8662SOL    HW226886   0.379   1.359   0.212
 8663SOL     OW26887   2.665   5.598   6.502
 8663SOL    HW126888   2.569   5.613   6.478
 8663SOL    HW226889   2.682   5.500   6.514
 8664SOL     OW26890   4.820   4.190   1.600
 8664SOL    HW126891   4.826   4.286   1.574
 8664SOL    HW226892   4.728   4.170   1.633
 8665SOL     OW26893   5.467   5.477   3.565
 8665SOL    HW126894   5.458   5.576   3.569
 8665SOL    HW226895   5.559   5.450   3.595
 8666SOL     OW26896   0.289   5.282   4.843
 8666SOL    HW126897   0.360   5.326   4.899
 8666SOL    HW226898   0.199   5.308   4.877
 8667SOL     OW26899   5.086   2.867   3.127
 8667SOL    HW126900   5.110   2.953   3.172
 8667SOL    HW226901   5.012   2.883   3.061
 8668SOL     OW26902   3.116   0.550   4.610
 8668SOL    HW126903   3.189   0.618   4.602
 8668SOL    HW226904   3.128   0.480   4.540
 8669SOL     OW26905   3.306   6.938   7.014
 8669SOL    HW126906   3.216   6.927   0.027
 8669SOL    HW226907   3.300   6.921   6.915
 8670SOL     OW26908   3.868   5.519   2.767
 8670SOL    HW126909   3.774   5.495   2.794
 8670SOL    HW226910   3.907   5.444   2.713
 8671SOL     OW26911   6.029   4.754   1.131
 8671SOL    HW126912   6.125   4.754   1.105
 8671SOL    HW226913   6.002   4.846   1.160
 8672SOL     OW26914   4.057   5.672   4.866
 8672SOL    HW126915   3.973   5.698   4.817
 8672SOL    HW226916   4.117   5.751   4.874
 8673SOL     OW26917   5.083   2.283   0.015
 8673SOL    HW126918   5.141   2.203   0.001
 8673SOL    HW226919   5.008   2.282   6.978
 8674SOL     OW26920   6.489   6.995   2.156
 8674SOL    HW126921   6.494   6.998   2.256
 8674SOL    HW226922   6.542   6.917   2.123
 8675SOL     OW26923   2.761   2.443   1.682
 8675SOL    HW126924   2.830   2.437   1.753
 8675SOL    HW226925   2.713   2.356   1.674
 8676SOL     OW26926   5.353   1.391   3.878
 8676SOL    HW126927   5.443   1.434   3.881
 8676SOL    HW226928   5.354   1.309   3.937
 8677SOL     OW26929   2.199   4.113   5.269
 8677SOL    HW126930   2.247   4.108   5.357
 8677SOL    HW226931   2.259   4.079   5.197
 8678SOL     OW26932   1.337   1.938   5.989
 8678SOL    HW126933   1.276   1.924   5.911
 8678SOL    HW226934   1.429   1.961   5.956
 8679SOL     OW26935   6.311   2.347   5.190
 8679SOL    HW126936   6.245   2.277   5.218
 8679SOL    HW226937   6.351   2.389   5.272
 8680SOL     OW26938   0.387   3.297   5.845
 8680SOL    HW126939   0.451   3.370   5.822
 8680SOL    HW226940   0.383   3.286   5.944
 8681SOL     OW26941   3.925   3.793   1.506
 8681SOL    HW126942   3.908   3.710   1.453
 8681SOL    HW226943   3.900   3.778   1.601
 8682SOL     OW26944   1.677   5.823   2.385
 8682SOL    HW126945   1.686   5.881   2.304
 8682SOL    HW226946   1.583   5.790   2.392
 8683SOL     OW26947   4.287   3.634   6.602
 8683SOL    HW126948   4.365   3.572   6.608
 8683SOL    HW226949   4.298   3.709   6.667
 8684SOL     OW26950   6.048   2.365   3.866
 8684SOL    HW126951   6.122   2.377   3.932
 8684SOL    HW226952   6.077   2.397   3.776
 8685SOL     OW26953   0.501   2.373   5.578
 8685SOL    HW126954   0.531   2.411   5.490
 8685SOL    HW226955   0.504   2.273   5.573
 8686SOL     OW26956   6.003   1.056   4.810
 8686SOL    HW126957   5.915   1.026   4.846
 8686SOL    HW226958   6.030   1.142   4.853
 8687SOL     OW26959   3.616   1.122   2.649
 8687SOL    HW126960   3.586   1.118   2.744
 8687SOL    HW226961   3.672   1.204   2.635
 8688SOL     OW26962   0.148   6.472   2.063
 8688SOL    HW126963   0.082   6.475   1.988
 8688SOL    HW226964   0.241   6.464   2.026
 8689SOL     OW26965   4.873   4.497   1.975
 8689SOL    HW126966   4.810   4.494   1.897
 8689SOL    HW226967   4.881   4.406   2.016
 8690SOL     OW26968   1.335   0.488   2.007
 8690SOL    HW126969   1.414   0.474   1.948
 8690SOL    HW226970   1.323   0.586   2.023
 8691SOL     OW26971   5.452   1.062   6.545
 8691SOL    HW126972   5.454   1.156   6.511
 8691SOL    HW226973   5.445   1.063   6.644
 8692SOL     OW26974   1.767   1.894   3.636
 8692SOL    HW126975   1.753   1.813   3.693
 8692SOL    HW226976   1.807   1.867   3.548
 8693SOL     OW26977   5.334   2.453   6.615
 8693SOL    HW126978   5.377   2.539   6.585
 8693SOL    HW226979   5.237   2.455   6.589
 8694SOL     OW26980   3.428   1.062   5.869
 8694SOL    HW126981   3.406   1.045   5.965
 8694SOL    HW226982   3.372   1.002   5.811
 8695SOL     OW26983   4.081   3.541   4.692
 8695SOL    HW126984   4.076   3.640   4.685
 8695SOL    HW226985   4.001   3.507   4.741
 8696SOL     OW26986   2.425   5.098   6.989
 8696SOL    HW126987   2.469   5.040   0.030
 8696SOL    HW226988   2.413   5.045   6.905
 8697SOL     OW26989   5.098   5.641   6.934
 8697SOL    HW126990   5.062   5.730   6.961
 8697SOL    HW226991   5.094   5.633   6.835
 8698SOL     OW26992   6.090   5.872   5.725
 8698SOL    HW126993   6.089   5.885   5.626
 8698SOL    HW226994   5.996   5.864   5.758
 8699SOL     OW26995   2.490   1.454   4.217
 8699SOL    HW126996   2.429   1.522   4.177
 8699SOL    HW226997   2.536   1.404   4.144
 8700SOL     OW26998   2.912   0.212   5.913
 8700SOL    HW126999   2.913   0.135   5.978
 8700SOL    HW227000   2.837   0.274   5.936
 8701SOL     OW27001   1.116   0.486   3.047
 8701SOL    HW127002   1.126   0.441   2.958
 8701SOL    HW227003   1.021   0.514   3.060
 8702SOL     OW27004   4.168   0.158   6.221
 8702SOL    HW127005   4.148   0.220   6.297
 8702SOL    HW227006   4.215   0.209   6.149
 8703SOL     OW27007   1.342   4.151   1.402
 8703SOL    HW127008   1.401   4.106   1.468
 8703SOL    HW227009   1.398   4.188   1.327
 8704SOL     OW27010   0.984   4.373   2.506
 8704SOL    HW127011   1.022   4.401   2.594
 8704SOL    HW227012   0.890   4.406   2.498
 8705SOL     OW27013   4.152   6.431   4.714
 8705SOL    HW127014   4.163   6.332   4.726
 8705SOL    HW227015   4.103   6.448   4.629
 8706SOL     OW27016   5.212   0.228   6.693
 8706SOL    HW127017   5.309   0.230   6.667
 8706SOL    HW227018   5.177   0.135   6.682
 8707SOL     OW27019   3.953   1.504   5.349
 8707SOL    HW127020   3.919   1.526   5.257
 8707SOL    HW227021   3.890   1.441   5.393
 8708SOL     OW27022   3.351   1.986   1.315
 8708SOL    HW127023   3.266   1.990   1.261
 8708SOL    HW227024   3.339   2.038   1.399
 8709SOL     OW27025   5.399   3.294   6.541
 8709SOL    HW127026   5.370   3.351   6.618
 8709SOL    HW227027   5.375   3.199   6.560
 8710SOL     OW27028   6.201   3.952   4.376
 8710SOL    HW127029   6.102   3.957   4.361
 8710SOL    HW227030   6.220   3.897   4.457
 8711SOL     OW27031   2.319   1.586   3.681
 8711SOL    HW127032   2.251   1.659   3.674
 8711SOL    HW227033   2.286   1.505   3.631
 8712SOL     OW27034   2.935   0.131   6.762
 8712SOL    HW127035   2.938   0.032   6.776
 8712SOL    HW227036   2.948   0.152   6.665
 8713SOL     OW27037   6.065   5.006   3.348
 8713SOL    HW127038   6.108   4.917   3.335
 8713SOL    HW227039   6.122   5.076   3.304
 8714SOL     OW27040   1.980   1.282   3.837
 8714SOL    HW127041   1.927   1.205   3.872
 8714SOL    HW227042   2.054   1.304   3.900
 8715SOL     OW27043   5.256   0.049   3.008
 8715SOL    HW127044   5.159   0.023   2.999
 8715SOL    HW227045   5.269   0.140   2.970
 8716SOL     OW27046   1.430   1.160   2.083
 8716SOL    HW127047   1.349   1.132   2.032
 8716SOL    HW227048   1.511   1.124   2.039
 8717SOL     OW27049   4.575   3.795   0.721
 8717SOL    HW127050   4.672   3.818   0.735
 8717SOL    HW227051   4.546   3.824   0.630
 8718SOL     OW27052   6.735   2.758   6.193
 8718SOL    HW127053   6.692   2.798   6.274
 8718SOL    HW227054   6.668   2.700   6.146
 8719SOL     OW27055   0.103   0.757   4.970
 8719SOL    HW127056   0.093   0.855   4.955
 8719SOL    HW227057   0.152   0.740   5.055
 8720SOL     OW27058   4.954   3.074   5.778
 8720SOL    HW127059   4.910   3.140   5.839
 8720SOL    HW227060   4.922   3.090   5.684
 8721SOL     OW27061   6.615   0.490   4.890
 8721SOL    HW127062   6.660   0.464   4.805
 8721SOL    HW227063   6.541   0.554   4.870
 8722SOL     OW27064   3.970   2.579   0.512
 8722SOL    HW127065   3.890   2.560   0.569
 8722SOL    HW227066   3.940   2.608   0.421
 8723SOL     OW27067   0.195   5.834   0.654
 8723SOL    HW127068   0.139   5.772   0.709
 8723SOL    HW227069   0.271   5.783   0.614
 8724SOL     OW27070   3.988   5.979   6.355
 8724SOL    HW127071   4.000   5.980   6.454
 8724SOL    HW227072   4.040   6.055   6.314
 8725SOL     OW27073   2.315   6.775   6.930
 8725SOL    HW127074   2.323   6.783   0.002
 8725SOL    HW227075   2.220   6.757   6.906
 8726SOL     OW27076   0.620   6.428   0.229
 8726SOL    HW127077   0.712   6.460   0.252
 8726SOL    HW227078   0.595   6.353   0.291
 8727SOL     OW27079   5.075   6.623   1.920
 8727SOL    HW127080   4.977   6.635   1.930
 8727SOL    HW227081   5.124   6.688   1.979
 8728SOL     OW27082   2.604   5.791   5.230
 8728SOL    HW127083   2.600   5.764   5.134
 8728SOL    HW227084   2.559   5.722   5.287
 8729SOL     OW27085   4.707   5.654   5.030
 8729SOL    HW127086   4.796   5.684   5.066
 8729SOL    HW227087   4.695   5.692   4.938
 8730SOL     OW27088   5.610   6.478   1.477
 8730SOL    HW127089   5.613   6.460   1.575
 8730SOL    HW227090   5.651   6.401   1.428
 8731SOL     OW27091   1.156   2.007   3.698
 8731SOL    HW127092   1.088   1.934   3.706
 8731SOL    HW227093   1.110   2.094   3.683
 8732SOL     OW27094   6.746   6.576   2.717
 8732SOL    HW127095   6.658   6.624   2.716
 8732SOL    HW227096   6.787   6.578   2.626
 8733SOL     OW27097   6.874   0.009   0.314
 8733SOL    HW127098   6.873   6.974   0.392
 8733SOL    HW227099   6.865   0.103   0.347
 8734SOL     OW27100   5.958   6.929   1.025
 8734SOL    HW127101   6.010   6.898   0.945
 8734SOL    HW227102   5.950   7.028   1.022
 8735SOL     OW27103   0.283   3.533   5.623
 8735SOL    HW127104   0.314   3.440   5.608
 8735SOL    HW227105   0.256   3.573   5.535
 8736SOL     OW27106   0.444   5.260   5.846
 8736SOL    HW127107   0.513   5.244   5.775
 8736SOL    HW227108   0.488   5.258   5.936
 8737SOL     OW27109   3.751   5.345   0.016
 8737SOL    HW127110   3.745   5.393   0.103
 8737SOL    HW227111   3.666   5.293   0.000
 8738SOL     OW27112   0.824   3.713   4.625
 8738SOL    HW127113   0.734   3.756   4.619
 8738SOL    HW227114   0.881   3.764   4.690
 8739SOL     OW27115   1.309   3.091   5.567
 8739SOL    HW127116   1.255   3.112   5.485
 8739SOL    HW227117   1.271   3.010   5.612
 8740SOL     OW27118   0.709   5.654   0.515
 8740SOL    HW127119   0.716   5.731   0.452
 8740SOL    HW227120   0.720   5.568   0.464
 8741SOL     OW27121   1.571   3.396   2.015
 8741SOL    HW127122   1.506   3.471   2.000
 8741SOL    HW227123   1.643   3.400   1.946
 8742SOL     OW27124   4.695   5.004   1.771
 8742SOL    HW127125   4.683   5.043   1.862
 8742SOL    HW227126   4.792   5.004   1.747
 8743SOL     OW27127   3.745   5.732   2.623
 8743SOL    HW127128   3.647   5.712   2.629
 8743SOL    HW227129   3.797   5.660   2.670
 8744SOL     OW27130   2.369   3.432   5.475
 8744SOL    HW127131   2.278   3.403   5.445
 8744SOL    HW227132   2.366   3.528   5.505
 8745SOL     OW27133   5.136   1.696   5.445
 8745SOL    HW127134   5.118   1.690   5.347
 8745SOL    HW227135   5.115   1.609   5.489
 8746SOL     OW27136   5.299   3.481   4.893
 8746SOL    HW127137   5.208   3.498   4.932
 8746SOL    HW227138   5.309   3.383   4.876
 8747SOL     OW27139   1.202   1.238   4.109
 8747SOL    HW127140   1.236   1.198   4.025
 8747SOL    HW227141   1.279   1.261   4.169
 8748SOL     OW27142   2.820   1.647   6.597
 8748SOL    HW127143   2.848   1.685   6.509
 8748SOL    HW227144   2.750   1.706   6.638
 8749SOL     OW27145   4.258   0.781   3.784
 8749SOL    HW127146   4.298   0.858   3.834
 8749SOL    HW227147   4.328   0.712   3.766
 8750SOL     OW27148   2.324   6.714   4.686
 8750SOL    HW127149   2.375   6.632   4.711
 8750SOL    HW227150   2.287   6.756   4.769
 8751SOL     OW27151   1.507   6.127   2.649
 8751SOL    HW127152   1.544   6.178   2.727
 8751SOL    HW227153   1.500   6.187   2.569
 8752SOL     OW27154   1.866   1.080   6.782
 8752SOL    HW127155   1.812   1.146   6.730
 8752SOL    HW227156   1.956   1.118   6.800
 8753SOL     OW27157   5.079   2.273   4.905
 8753SOL    HW127158   5.057   2.366   4.876
 8753SOL    HW227159   5.012   2.210   4.866
 8754SOL     OW27160   1.713   0.983   5.319
 8754SOL    HW127161   1.630   0.937   5.286
 8754SOL    HW227162   1.739   0.945   5.407
 8755SOL     OW27163   1.756   2.621   1.010
 8755SOL    HW127164   1.773   2.632   0.912
 8755SOL    HW227165   1.745   2.710   1.053
 8756SOL     OW27166   3.477   5.017   5.029
 8756SOL    HW127167   3.552   5.029   5.093
 8756SOL    HW227168   3.390   5.030   5.077
 8757SOL     OW27169   3.084   5.461   3.127
 8757SOL    HW127170   3.070   5.363   3.142
 8757SOL    HW227171   3.140   5.499   3.200
 8758SOL     OW27172   4.903   6.913   2.402
 8758SOL    HW127173   4.833   6.985   2.397
 8758SOL    HW227174   4.860   6.827   2.427
 8759SOL     OW27175   5.314   0.264   5.887
 8759SOL    HW127176   5.267   0.287   5.801
 8759SOL    HW227177   5.277   0.321   5.960
 8760SOL     OW27178   1.700   2.826   3.720
 8760SOL    HW127179   1.739   2.742   3.684
 8760SOL    HW227180   1.689   2.818   3.819
 8761SOL     OW27181   4.936   5.999   1.830
 8761SOL    HW127182   4.933   5.901   1.846
 8761SOL    HW227183   5.026   6.035   1.855
 8762SOL     OW27184   2.299   4.812   1.295
 8762SOL    HW127185   2.247   4.803   1.380
 8762SOL    HW227186   2.259   4.754   1.224
 8763SOL     OW27187   6.749   6.194   6.741
 8763SOL    HW127188   6.836   6.180   6.694
 8763SOL    HW227189   6.730   6.292   6.747
 8764SOL     OW27190   2.362   2.035   6.650
 8764SOL    HW127191   2.323   2.127   6.641
 8764SOL    HW227192   2.452   2.033   6.607
 8765SOL     OW27193   5.750   0.397   4.936
 8765SOL    HW127194   5.756   0.449   4.851
 8765SOL    HW227195   5.803   0.442   5.008
 8766SOL     OW27196   2.383   4.347   2.786
 8766SOL    HW127197   2.352   4.422   2.727
 8766SOL    HW227198   2.454   4.382   2.847
 8767SOL     OW27199   4.000   0.786   5.458
 8767SOL    HW127200   4.036   0.782   5.364
 8767SOL    HW227201   4.024   0.874   5.499
 8768SOL     OW27202   1.357   4.315   1.166
 8768SOL    HW127203   1.339   4.229   1.119
 8768SOL    HW227204   1.447   4.350   1.138
 8769SOL     OW27205   1.763   0.186   6.661
 8769SOL    HW127206   1.672   0.161   6.628
 8769SOL    HW227207   1.796   0.266   6.610
 8770SOL     OW27208   6.073   2.266   3.342
 8770SOL    HW127209   6.146   2.210   3.380
 8770SOL    HW227210   6.111   2.323   3.269
 8771SOL     OW27211   2.925   3.340   4.537
 8771SOL    HW127212   2.955   3.297   4.451
 8771SOL    HW227213   2.880   3.272   4.594
 8772SOL     OW27214   0.023   0.343   6.767
 8772SOL    HW127215   0.011   0.343   6.867
 8772SOL    HW227216   0.095   0.278   6.743
 8773SOL     OW27217   3.158   1.783   3.275
 8773SOL    HW127218   3.214   1.701   3.284
 8773SOL    HW227219   3.068   1.766   3.314
 8774SOL     OW27220   1.593   1.498   0.727
 8774SOL    HW127221   1.629   1.411   0.693
 8774SOL    HW227222   1.565   1.555   0.649
 8775SOL     OW27223   6.209   6.291   4.032
 8775SOL    HW127224   6.300   6.278   3.993
 8775SOL    HW227225   6.143   6.234   3.983
 8776SOL     OW27226   3.205   3.001   5.572
 8776SOL    HW127227   3.207   2.910   5.612
 8776SOL    HW227228   3.289   3.050   5.597
 8777SOL     OW27229   6.166   5.341   2.981
 8777SOL    HW127230   6.078   5.380   2.951
 8777SOL    HW227231   6.240   5.402   2.952
 8778SOL     OW27232   1.260   3.247   2.778
 8778SOL    HW127233   1.326   3.263   2.851
 8778SOL    HW227234   1.268   3.152   2.746
 8779SOL     OW27235   1.727   5.202   0.841
 8779SOL    HW127236   1.700   5.230   0.749
 8779SOL    HW227237   1.649   5.158   0.887
 8780SOL     OW27238   2.076   6.116   4.865
 8780SOL    HW127239   2.017   6.091   4.789
 8780SOL    HW227240   2.034   6.190   4.917
 8781SOL     OW27241   0.633   2.593   2.393
 8781SOL    HW127242   0.538   2.590   2.364
 8781SOL    HW227243   0.643   2.549   2.483
 8782SOL     OW27244   5.235   0.941   4.462
 8782SOL    HW127245   5.223   1.039   4.448
 8782SOL    HW227246   5.281   0.925   4.549
 8783SOL     OW27247   6.263   2.210   5.655
 8783SOL    HW127248   6.282   2.295   5.704
 8783SOL    HW227249   6.233   2.141   5.720
 8784SOL     OW27250   4.639   4.173   6.374
 8784SOL    HW127251   4.626   4.229   6.456
 8784SOL    HW227252   4.661   4.232   6.296
 8785SOL     OW27253   5.431   3.998   6.333
 8785SOL    HW127254   5.500   4.061   6.367
 8785SOL    HW227255   5.466   3.951   6.252
 8786SOL     OW27256   1.950   5.247   6.542
 8786SOL    HW127257   1.862   5.291   6.520
 8786SOL    HW227258   1.940   5.148   6.534
 8787SOL     OW27259   1.348   2.535   6.900
 8787SOL    HW127260   1.329   2.546   6.802
 8787SOL    HW227261   1.420   2.466   6.912
 8788SOL     OW27262   1.688   1.806   5.145
 8788SOL    HW127263   1.684   1.885   5.205
 8788SOL    HW227264   1.677   1.722   5.199
 8789SOL     OW27265   6.976   1.548   0.389
 8789SOL    HW127266   6.896   1.599   0.418
 8789SOL    HW227267   6.975   1.457   0.429
 8790SOL     OW27268   4.414   1.016   0.416
 8790SOL    HW127269   4.418   0.991   0.319
 8790SOL    HW227270   4.374   0.941   0.468
 8791SOL     OW27271   6.295   5.799   5.924
 8791SOL    HW127272   6.234   5.817   5.847
 8791SOL    HW227273   6.266   5.854   6.002
 8792SOL     OW27274   5.778   6.706   2.310
 8792SOL    HW127275   5.710   6.773   2.341
 8792SOL    HW227276   5.860   6.712   2.367
 8793SOL     OW27277   1.079   5.194   2.789
 8793SOL    HW127278   1.055   5.100   2.768
 8793SOL    HW227279   1.110   5.200   2.884
 8794SOL     OW27280   2.070   6.341   1.677
 8794SOL    HW127281   2.150   6.308   1.727
 8794SOL    HW227282   2.065   6.440   1.684
 8795SOL     OW27283   3.882   6.879   4.596
 8795SOL    HW127284   3.847   6.972   4.605
 8795SOL    HW227285   3.858   6.842   4.506
 8796SOL     OW27286   3.868   1.754   4.544
 8796SOL    HW127287   3.945   1.810   4.514
 8796SOL    HW227288   3.793   1.763   4.478
 8797SOL     OW27289   6.525   5.676   0.549
 8797SOL    HW127290   6.529   5.634   0.459
 8797SOL    HW227291   6.600   5.640   0.605
 8798SOL     OW27292   3.313   3.336   5.419
 8798SOL    HW127293   3.295   3.279   5.339
 8798SOL    HW227294   3.353   3.423   5.389
 8799SOL     OW27295   4.198   1.005   2.330
 8799SOL    HW127296   4.284   1.018   2.281
 8799SOL    HW227297   4.148   0.928   2.290
 8800SOL     OW27298   4.238   3.846   0.960
 8800SOL    HW127299   4.284   3.917   1.014
 8800SOL    HW227300   4.183   3.788   1.021
 8801SOL     OW27301   3.080   0.403   5.496
 8801SOL    HW127302   3.101   0.343   5.573
 8801SOL    HW227303   2.984   0.392   5.471
 8802SOL     OW27304   1.507   6.607   0.866
 8802SOL    HW127305   1.562   6.681   0.828
 8802SOL    HW227306   1.489   6.625   0.962
 8803SOL     OW27307   3.465   6.412   2.645
 8803SOL    HW127308   3.446   6.508   2.623
 8803SOL    HW227309   3.496   6.405   2.740
 8804SOL     OW27310   3.585   0.538   1.492
 8804SOL    HW127311   3.529   0.618   1.515
 8804SOL    HW227312   3.635   0.555   1.407
 8805SOL     OW27313   6.998   0.480   3.656
 8805SOL    HW127314   6.951   0.564   3.682
 8805SOL    HW227315   7.013   0.424   3.737
 8806SOL     OW27316   1.836   4.966   6.560
 8806SOL    HW127317   1.796   4.894   6.617
 8806SOL    HW227318   1.813   4.948   6.464
 8807SOL     OW27319   1.224   5.429   6.443
 8807SOL    HW127320   1.142   5.468   6.486
 8807SOL    HW227321   1.199   5.385   6.357
 8808SOL     OW27322   5.450   2.567   0.949
 8808SOL    HW127323   5.411   2.514   1.024
 8808SOL    HW227324   5.385   2.637   0.921
 8809SOL     OW27325   5.680   4.390   0.110
 8809SOL    HW127326   5.684   4.483   0.072
 8809SOL    HW227327   5.633   4.393   0.199
 8810SOL     OW27328   5.645   1.535   4.197
 8810SOL    HW127329   5.591   1.576   4.270
 8810SOL    HW227330   5.706   1.604   4.157
 8811SOL     OW27331   0.539   0.517   3.257
 8811SOL    HW127332   0.514   0.430   3.214
 8811SOL    HW227333   0.626   0.506   3.305
 8812SOL     OW27334   2.773   0.473   0.183
 8812SOL    HW127335   2.797   0.404   0.115
 8812SOL    HW227336   2.676   0.464   0.207
 8813SOL     OW27337   0.494   5.402   0.954
 8813SOL    HW127338   0.585   5.378   0.922
 8813SOL    HW227339   0.486   5.502   0.963
 8814SOL     OW27340   6.313   6.808   6.234
 8814SOL    HW127341   6.268   6.897   6.233
 8814SOL    HW227342   6.340   6.783   6.141
 8815SOL     OW27343   6.555   4.950   3.560
 8815SOL    HW127344   6.536   4.857   3.529
 8815SOL    HW227345   6.471   4.992   3.594
 8816SOL     OW27346   0.386   5.238   2.197
 8816SOL    HW127347   0.316   5.283   2.253
 8816SOL    HW227348   0.433   5.306   2.141
 8817SOL     OW27349   1.910   4.060   4.920
 8817SOL    HW127350   2.002   4.021   4.921
 8817SOL    HW227351   1.849   4.002   4.974
 8818SOL     OW27352   6.873   5.300   5.425
 8818SOL    HW127353   6.856   5.286   5.523
 8818SOL    HW227354   6.967   5.272   5.404
 8819SOL     OW27355   0.432   1.742   4.602
 8819SOL    HW127356   0.462   1.686   4.525
 8819SOL    HW227357   0.474   1.707   4.686
 8820SOL     OW27358   1.718   2.536   3.751
 8820SOL    HW127359   1.627   2.494   3.741
 8820SOL    HW227360   1.767   2.492   3.826
 8821SOL     OW27361   1.720   6.143   6.780
 8821SOL    HW127362   1.672   6.214   6.833
 8821SOL    HW227363   1.658   6.068   6.761
 8822SOL     OW27364   1.432   1.957   3.631
 8822SOL    HW127365   1.343   1.965   3.676
 8822SOL    HW227366   1.496   1.910   3.692
 8823SOL     OW27367   2.732   5.962   0.054
 8823SOL    HW127368   2.820   5.918   0.040
 8823SOL    HW227369   2.714   6.027   7.008
 8824SOL     OW27370   5.017   3.929   1.411
 8824SOL    HW127371   5.094   3.952   1.471
 8824SOL    HW227372   4.931   3.939   1.461
 8825SOL     OW27373   2.185   1.879   6.238
 8825SOL    HW127374   2.099   1.867   6.188
 8825SOL    HW227375   2.166   1.878   6.336
 8826SOL     OW27376   5.369   6.628   1.372
 8826SOL    HW127377   5.449   6.634   1.433
 8826SOL    HW227378   5.375   6.699   1.302
 8827SOL     OW27379   6.965   0.926   3.905
 8827SOL    HW127380   7.013   0.949   3.821
 8827SOL    HW227381   6.883   0.983   3.913
 8828SOL     OW27382   1.419   5.296   2.584
 8828SOL    HW127383   1.511   5.265   2.561
 8828SOL    HW227384   1.419   5.396   2.593
 8829SOL     OW27385   6.912   0.464   1.552
 8829SOL    HW127386   6.971   0.449   1.631
 8829SOL    HW227387   6.960   0.518   1.483
 8830SOL     OW27388   1.167   1.668   1.715
 8830SOL    HW127389   1.120   1.691   1.630
 8830SOL    HW227390   1.100   1.665   1.790
 8831SOL     OW27391   0.281   0.241   1.197
 8831SOL    HW127392   0.234   0.254   1.285
 8831SOL    HW227393   0.259   0.151   1.160
 8832SOL     OW27394   6.123   0.478   1.170
 8832SOL    HW127395   6.106   0.411   1.242
 8832SOL    HW227396   6.084   0.566   1.197
 8833SOL     OW27397   6.689   5.687   0.906
 8833SOL    HW127398   6.680   5.776   0.860
 8833SOL    HW227399   6.601   5.661   0.946
 8834SOL     OW27400   6.658   4.308   4.947
 8834SOL    HW127401   6.733   4.267   5.000
 8834SOL    HW227402   6.602   4.365   5.007
 8835SOL     OW27403   1.200   2.023   0.406
 8835SOL    HW127404   1.254   2.093   0.360
 8835SOL    HW227405   1.110   2.016   0.363
 8836SOL     OW27406   4.940   2.033   1.516
 8836SOL    HW127407   4.891   1.953   1.552
 8836SOL    HW227408   4.910   2.050   1.422
 8837SOL     OW27409   0.757   3.064   2.235
 8837SOL    HW127410   0.672   3.015   2.216
 8837SOL    HW227411   0.793   3.102   2.150
 8838SOL     OW27412   1.883   6.457   2.907
 8838SOL    HW127413   1.864   6.385   2.974
 8838SOL    HW227414   1.878   6.546   2.951
 8839SOL     OW27415   5.868   5.476   5.065
 8839SOL    HW127416   5.956   5.448   5.102
 8839SOL    HW227417   5.858   5.575   5.075
 8840SOL     OW27418   4.260   0.612   2.227
 8840SOL    HW127419   4.186   0.676   2.245
 8840SOL    HW227420   4.226   0.534   2.175
 8841SOL     OW27421   4.568   0.115   3.339
 8841SOL    HW127422   4.630   0.126   3.416
 8841SOL    HW227423   4.578   0.191   3.275
 8842SOL     OW27424   1.673   1.875   2.260
 8842SOL    HW127425   1.717   1.890   2.172
 8842SOL    HW227426   1.659   1.962   2.306
 8843SOL     OW27427   0.167   2.484   3.916
 8843SOL    HW127428   0.100   2.461   3.846
 8843SOL    HW227429   0.243   2.535   3.875
 8844SOL     OW27430   5.931   1.696   6.690
 8844SOL    HW127431   5.978   1.775   6.651
 8844SOL    HW227432   5.845   1.681   6.640
 8845SOL     OW27433   5.553   2.933   0.059
 8845SOL    HW127434   5.555   3.008   7.021
 8845SOL    HW227435   5.459   2.913   0.085
 8846SOL     OW27436   3.239   5.160   4.293
 8846SOL    HW127437   3.322   5.205   4.327
 8846SOL    HW227438   3.224   5.075   4.344
 8847SOL     OW27439   2.079   2.210   3.646
 8847SOL    HW127440   2.126   2.162   3.572
 8847SOL    HW227441   2.115   2.303   3.653
 8848SOL     OW27442   0.465   1.383   4.025
 8848SOL    HW127443   0.558   1.418   4.020
 8848SOL    HW227444   0.411   1.420   3.950
 8849SOL     OW27445   2.252   6.331   1.896
 8849SOL    HW127446   2.344   6.338   1.858
 8849SOL    HW227447   2.247   6.254   1.959
 8850SOL     OW27448   3.576   1.926   0.368
 8850SOL    HW127449   3.622   1.984   0.301
 8850SOL    HW227450   3.505   1.978   0.415
 8851SOL     OW27451   2.311   4.189   1.271
 8851SOL    HW127452   2.304   4.147   1.180
 8851SOL    HW227453   2.315   4.117   1.340
 8852SOL     OW27454   0.895   2.818   5.003
 8852SOL    HW127455   0.933   2.852   4.918
 8852SOL    HW227456   0.939   2.863   5.081
 8853SOL     OW27457   5.131   0.213   1.113
 8853SOL    HW127458   5.096   0.133   1.161
 8853SOL    HW227459   5.061   0.285   1.112
 8854SOL     OW27460   7.000   2.834   5.003
 8854SOL    HW127461   0.069   2.851   4.985
 8854SOL    HW227462   6.945   2.890   4.941
 8855SOL     OW27463   5.325   5.241   1.193
 8855SOL    HW127464   5.339   5.147   1.165
 8855SOL    HW227465   5.387   5.301   1.143
 8856SOL     OW27466   6.072   0.629   5.513
 8856SOL    HW127467   6.062   0.537   5.477
 8856SOL    HW227468   6.137   0.681   5.457
 8857SOL     OW27469   6.812   2.735   0.324
 8857SOL    HW127470   6.874   2.663   0.355
 8857SOL    HW227471   6.742   2.750   0.393
 8858SOL     OW27472   0.546   5.024   4.937
 8858SOL    HW127473   0.474   5.067   4.992
 8858SOL    HW227474   0.542   4.925   4.949
 8859SOL     OW27475   0.393   6.284   3.570
 8859SOL    HW127476   0.491   6.292   3.587
 8859SOL    HW227477   0.343   6.341   3.636
 8860SOL     OW27478   7.007   2.245   3.453
 8860SOL    HW127479   6.945   2.191   3.511
 8860SOL    HW227480   0.063   2.194   3.438
 8861SOL     OW27481   3.651   2.950   1.001
 8861SOL    HW127482   3.588   2.980   1.074
 8861SOL    HW227483   3.600   2.899   0.932
 8862SOL     OW27484   4.715   4.849   4.501
 8862SOL    HW127485   4.756   4.887   4.585
 8862SOL    HW227486   4.619   4.877   4.496
 8863SOL     OW27487   1.875   3.489   2.081
 8863SOL    HW127488   1.821   3.415   2.120
 8863SOL    HW227489   1.893   3.469   1.984
 8864SOL     OW27490   6.845   2.309   4.646
 8864SOL    HW127491   6.772   2.263   4.698
 8864SOL    HW227492   6.816   2.321   4.552
 8865SOL     OW27493   2.793   1.349   0.659
 8865SOL    HW127494   2.798   1.411   0.737
 8865SOL    HW227495   2.876   1.292   0.656
 8866SOL     OW27496   6.058   1.354   2.066
 8866SOL    HW127497   6.056   1.254   2.058
 8866SOL    HW227498   6.026   1.394   1.981
 8867SOL     OW27499   5.908   1.806   4.296
 8867SOL    HW127500   5.830   1.811   4.358
 8867SOL    HW227501   5.881   1.761   4.211
 8868SOL     OW27502   0.386   2.948   4.083
 8868SOL    HW127503   0.470   2.905   4.048
 8868SOL    HW227504   0.321   2.960   4.008
 8869SOL     OW27505   3.459   0.321   2.963
 8869SOL    HW127506   3.406   0.403   2.945
 8869SOL    HW227507   3.421   0.273   3.042
 8870SOL     OW27508   0.882   1.208   1.416
 8870SOL    HW127509   0.898   1.267   1.337
 8870SOL    HW227510   0.800   1.153   1.400
 8871SOL     OW27511   6.852   6.353   0.270
 8871SOL    HW127512   6.850   6.265   0.317
 8871SOL    HW227513   6.944   6.370   0.235
 8872SOL     OW27514   6.349   5.548   3.202
 8872SOL    HW127515   6.379   5.637   3.234
 8872SOL    HW227516   6.394   5.476   3.254
 8873SOL     OW27517   1.736   2.102   3.063
 8873SOL    HW127518   1.801   2.156   3.009
 8873SOL    HW227519   1.652   2.089   3.009
 8874SOL     OW27520   2.127   6.275   0.301
 8874SOL    HW127521   2.057   6.284   0.372
 8874SOL    HW227522   2.154   6.179   0.293
 8875SOL     OW27523   6.676   2.914   4.151
 8875SOL    HW127524   6.585   2.875   4.134
 8875SOL    HW227525   6.732   2.905   4.068
 8876SOL     OW27526   5.095   0.353   0.319
 8876SOL    HW127527   5.114   0.430   0.380
 8876SOL    HW227528   5.109   0.267   0.369
 8877SOL     OW27529   0.910   4.482   2.079
 8877SOL    HW127530   0.991   4.499   2.023
 8877SOL    HW227531   0.933   4.500   2.175
 8878SOL     OW27532   4.847   3.861   2.551
 8878SOL    HW127533   4.934   3.846   2.504
 8878SOL    HW227534   4.771   3.838   2.491
 8879SOL     OW27535   6.373   4.539   3.478
 8879SOL    HW127536   6.351   4.516   3.383
 8879SOL    HW227537   6.413   4.459   3.523
 8880SOL     OW27538   3.905   1.715   2.898
 8880SOL    HW127539   3.981   1.735   2.959
 8880SOL    HW227540   3.821   1.704   2.951
 8881SOL     OW27541   4.273   5.880   2.869
 8881SOL    HW127542   4.226   5.947   2.926
 8881SOL    HW227543   4.367   5.868   2.902
 8882SOL     OW27544   3.810   1.332   6.830
 8882SOL    HW127545   3.817   1.417   6.883
 8882SOL    HW227546   3.792   1.354   6.734
 8883SOL     OW27547   0.447   6.790   3.071
 8883SOL    HW127548   0.355   6.829   3.083
 8883SOL    HW227549   0.439   6.697   3.037
 8884SOL     OW27550   4.434   1.734   5.735
 8884SOL    HW127551   4.454   1.642   5.767
 8884SOL    HW227552   4.462   1.742   5.639
 8885SOL     OW27553   4.771   5.495   0.880
 8885SOL    HW127554   4.708   5.464   0.809
 8885SOL    HW227555   4.725   5.494   0.968
 8886SOL     OW27556   4.780   6.764   1.099
 8886SOL    HW127557   4.729   6.848   1.080
 8886SOL    HW227558   4.772   6.702   1.021
 8887SOL     OW27559   4.279   0.839   2.636
 8887SOL    HW127560   4.305   0.825   2.540
 8887SOL    HW227561   4.292   0.754   2.686
 8888SOL     OW27562   3.801   1.671   2.479
 8888SOL    HW127563   3.769   1.593   2.532
 8888SOL    HW227564   3.725   1.711   2.429
 8889SOL     OW27565   2.105   4.348   6.628
 8889SOL    HW127566   2.169   4.270   6.634
 8889SOL    HW227567   2.052   4.340   6.544
 8890SOL     OW27568   2.300   5.909   7.026
 8890SOL    HW127569   2.269   5.828   6.977
 8890SOL    HW227570   2.377   5.885   0.058
 8891SOL     OW27571   5.483   3.497   5.083
 8891SOL    HW127572   5.466   3.432   5.157
 8891SOL    HW227573   5.407   3.495   5.018
 8892SOL     OW27574   2.444   4.870   5.781
 8892SOL    HW127575   2.531   4.918   5.778
 8892SOL    HW227576   2.428   4.836   5.874
 8893SOL     OW27577   0.373   4.821   5.292
 8893SOL    HW127578   0.406   4.747   5.350
 8893SOL    HW227579   0.400   4.804   5.198
 8894SOL     OW27580   5.866   2.481   2.047
 8894SOL    HW127581   5.836   2.482   1.952
 8894SOL    HW227582   5.926   2.402   2.063
 8895SOL     OW27583   0.728   3.301   2.091
 8895SOL    HW127584   0.659   3.322   2.021
 8895SOL    HW227585   0.713   3.359   2.171
 8896SOL     OW27586   0.707   0.728   3.798
 8896SOL    HW127587   0.791   0.684   3.829
 8896SOL    HW227588   0.638   0.659   3.779
 8897SOL     OW27589   1.290   4.485   4.277
 8897SOL    HW127590   1.300   4.575   4.320
 8897SOL    HW227591   1.212   4.486   4.215
 8898SOL     OW27592   6.134   4.933   1.916
 8898SOL    HW127593   6.073   4.993   1.968
 8898SOL    HW227594   6.192   4.881   1.979
 8899SOL     OW27595   1.443   4.475   2.465
 8899SOL    HW127596   1.531   4.451   2.424
 8899SOL    HW227597   1.380   4.506   2.394
 8900SOL     OW27598   4.422   1.839   4.939
 8900SOL    HW127599   4.452   1.932   4.917
 8900SOL    HW227600   4.447   1.778   4.864
 8901SOL     OW27601   0.943   5.217   5.647
 8901SOL    HW127602   1.019   5.151   5.649
 8901SOL    HW227603   0.925   5.243   5.552
 8902SOL     OW27604   1.449   4.153   6.339
 8902SOL    HW127605   1.524   4.123   6.280
 8902SOL    HW227606   1.448   4.098   6.422
 8903SOL     OW27607   0.685   0.799   3.520
 8903SOL    HW127608   0.708   0.792   3.618
 8903SOL    HW227609   0.729   0.880   3.482
 8904SOL     OW27610   5.780   0.910   1.725
 8904SOL    HW127611   5.735   0.978   1.783
 8904SOL    HW227612   5.860   0.874   1.773
 8905SOL     OW27613   1.883   5.014   1.405
 8905SOL    HW127614   1.962   5.044   1.351
 8905SOL    HW227615   1.805   4.998   1.344
 8906SOL     OW27616   6.920   1.641   6.552
 8906SOL    HW127617   6.965   1.565   6.506
 8906SOL    HW227618   6.975   1.724   6.541
 8907SOL     OW27619   2.968   2.932   5.401
 8907SOL    HW127620   2.927   3.021   5.382
 8907SOL    HW227621   3.033   2.940   5.476
 8908SOL     OW27622   2.044   6.483   5.532
 8908SOL    HW127623   1.964   6.537   5.508
 8908SOL    HW227624   2.108   6.540   5.583
 8909SOL     OW27625   1.686   6.248   1.650
 8909SOL    HW127626   1.603   6.193   1.654
 8909SOL    HW227627   1.748   6.220   1.723
 8910SOL     OW27628   0.956   0.986   3.525
 8910SOL    HW127629   1.043   0.940   3.505
 8910SOL    HW227630   0.946   1.066   3.465
 8911SOL     OW27631   5.520   2.833   4.474
 8911SOL    HW127632   5.540   2.928   4.449
 8911SOL    HW227633   5.513   2.777   4.392
 8912SOL     OW27634   3.542   3.775   3.421
 8912SOL    HW127635   3.612   3.789   3.491
 8912SOL    HW227636   3.482   3.855   3.417
 8913SOL     OW27637   4.943   5.549   0.611
 8913SOL    HW127638   4.917   5.535   0.707
 8913SOL    HW227639   4.954   5.647   0.593
 8914SOL     OW27640   5.209   4.662   4.889
 8914SOL    HW127641   5.132   4.670   4.952
 8914SOL    HW227642   5.181   4.608   4.809
 8915SOL     OW27643   2.725   1.712   3.256
 8915SOL    HW127644   2.651   1.780   3.261
 8915SOL    HW227645   2.795   1.735   3.323
 8916SOL     OW27646   6.398   6.785   2.521
 8916SOL    HW127647   6.432   6.764   2.613
 8916SOL    HW227648   6.449   6.732   2.454
 8917SOL     OW27649   5.762   2.769   0.002
 8917SOL    HW127650   5.688   2.826   0.039
 8917SOL    HW227651   5.764   2.779   6.930
 8918SOL     OW27652   1.912   3.278   3.152
 8918SOL    HW127653   1.964   3.228   3.082
 8918SOL    HW227654   1.955   3.366   3.168
 8919SOL     OW27655   0.236   1.991   3.105
 8919SOL    HW127656   0.297   2.023   3.033
 8919SOL    HW227657   0.173   2.064   3.130
 8920SOL     OW27658   1.863   2.150   0.211
 8920SOL    HW127659   1.869   2.097   0.295
 8920SOL    HW227660   1.935   2.220   0.211
 8921SOL     OW27661   2.151   1.747   2.300
 8921SOL    HW127662   2.126   1.730   2.395
 8921SOL    HW227663   2.224   1.684   2.273
 8922SOL     OW27664   3.470   5.632   3.890
 8922SOL    HW127665   3.476   5.536   3.918
 8922SOL    HW227666   3.450   5.637   3.792
 8923SOL     OW27667   2.653   2.351   3.868
 8923SOL    HW127668   2.722   2.329   3.938
 8923SOL    HW227669   2.618   2.443   3.884
 8924SOL     OW27670   6.340   4.685   4.781
 8924SOL    HW127671   6.297   4.761   4.733
 8924SOL    HW227672   6.348   4.607   4.719
 8925SOL     OW27673   1.207   5.761   3.810
 8925SOL    HW127674   1.274   5.835   3.806
 8925SOL    HW227675   1.218   5.710   3.895
 8926SOL     OW27676   5.817   2.647   6.370
 8926SOL    HW127677   5.802   2.640   6.271
 8926SOL    HW227678   5.853   2.561   6.405
 8927SOL     OW27679   1.339   1.480   6.145
 8927SOL    HW127680   1.385   1.479   6.057
 8927SOL    HW227681   1.402   1.512   6.216
 8928SOL     OW27682   6.471   5.913   5.070
 8928SOL    HW127683   6.564   5.887   5.097
 8928SOL    HW227684   6.419   5.943   5.150
 8929SOL     OW27685   0.915   1.198   2.768
 8929SOL    HW127686   0.998   1.173   2.718
 8929SOL    HW227687   0.880   1.118   2.817
 8930SOL     OW27688   2.182   5.068   2.189
 8930SOL    HW127689   2.238   4.999   2.235
 8930SOL    HW227690   2.112   5.023   2.133
 8931SOL     OW27691   4.793   3.792   7.014
 8931SOL    HW127692   4.832   3.841   6.936
 8931SOL    HW227693   4.845   3.813   0.069
 8932SOL     OW27694   1.128   3.159   2.117
 8932SOL    HW127695   1.134   3.245   2.066
 8932SOL    HW227696   1.055   3.102   2.078
 8933SOL     OW27697   5.102   2.660   5.247
 8933SOL    HW127698   5.074   2.754   5.267
 8933SOL    HW227699   5.031   2.614   5.193
 8934SOL     OW27700   2.765   5.845   2.238
 8934SOL    HW127701   2.804   5.784   2.169
 8934SOL    HW227702   2.833   5.863   2.309
 8935SOL     OW27703   0.541   5.865   6.460
 8935SOL    HW127704   0.581   5.953   6.433
 8935SOL    HW227705   0.481   5.832   6.387
 8936SOL     OW27706   4.446   3.425   0.124
 8936SOL    HW127707   4.504   3.490   0.075
 8936SOL    HW227708   4.351   3.440   0.099
 8937SOL     OW27709   0.437   1.980   6.495
 8937SOL    HW127710   0.506   1.928   6.546
 8937SOL    HW227711   0.349   1.973   6.543
 8938SOL     OW27712   5.286   5.280   1.840
 8938SOL    HW127713   5.373   5.258   1.797
 8938SOL    HW227714   5.243   5.197   1.874
 8939SOL     OW27715   6.330   1.803   4.672
 8939SOL    HW127716   6.418   1.756   4.677
 8939SOL    HW227717   6.306   1.818   4.576
 8940SOL     OW27718   5.008   6.631   1.489
 8940SOL    HW127719   5.080   6.562   1.476
 8940SOL    HW227720   5.050   6.716   1.522
 8941SOL     OW27721   4.325   1.928   0.279
 8941SOL    HW127722   4.259   1.972   0.340
 8941SOL    HW227723   4.277   1.886   0.202
 8942SOL     OW27724   0.952   2.354   5.627
 8942SOL    HW127725   1.024   2.285   5.617
 8942SOL    HW227726   0.917   2.353   5.720
 8943SOL     OW27727   5.063   3.094   0.349
 8943SOL    HW127728   5.044   3.189   0.375
 8943SOL    HW227729   5.025   3.076   0.258
 8944SOL     OW27730   4.501   5.636   0.653
 8944SOL    HW127731   4.406   5.606   0.649
 8944SOL    HW227732   4.561   5.557   0.656
 8945SOL     OW27733   2.361   0.634   3.951
 8945SOL    HW127734   2.268   0.601   3.940
 8945SOL    HW227735   2.425   0.571   3.907
 8946SOL     OW27736   3.852   0.323   5.381
 8946SOL    HW127737   3.763   0.301   5.341
 8946SOL    HW227738   3.840   0.379   5.462
 8947SOL     OW27739   2.898   3.208   6.101
 8947SOL    HW127740   2.923   3.183   6.007
 8947SOL    HW227741   2.974   3.188   6.162
 8948SOL     OW27742   5.237   5.462   3.725
 8948SOL    HW127743   5.158   5.460   3.663
 8948SOL    HW227744   5.321   5.471   3.671
 8949SOL     OW27745   1.730   5.207   6.221
 8949SOL    HW127746   1.821   5.248   6.212
 8949SOL    HW227747   1.661   5.279   6.225
 8950SOL     OW27748   5.403   2.688   5.188
 8950SOL    HW127749   5.329   2.676   5.255
 8950SOL    HW227750   5.367   2.733   5.106
 8951SOL     OW27751   2.468   1.181   5.669
 8951SOL    HW127752   2.472   1.098   5.614
 8951SOL    HW227753   2.536   1.247   5.636
 8952SOL     OW27754   5.210   6.420   3.784
 8952SOL    HW127755   5.138   6.415   3.715
 8952SOL    HW227756   5.168   6.423   3.875
 8953SOL     OW27757   1.402   5.840   6.049
 8953SOL    HW127758   1.356   5.917   6.094
 8953SOL    HW227759   1.486   5.817   6.100
 8954SOL     OW27760   2.589   6.808   5.758
 8954SOL    HW127761   2.686   6.834   5.757
 8954SOL    HW227762   2.578   6.720   5.804
 8955SOL     OW27763   0.206   2.994   3.837
 8955SOL    HW127764   0.156   2.945   3.909
 8955SOL    HW227765   0.184   3.092   3.844
 8956SOL     OW27766   1.457   0.469   3.854
 8956SOL    HW127767   1.525   0.542   3.855
 8956SOL    HW227768   1.365   0.507   3.861
 8957SOL     OW27769   3.417   5.737   1.894
 8957SOL    HW127770   3.428   5.681   1.976
 8957SOL    HW227771   3.399   5.678   1.815
 8958SOL     OW27772   2.742   0.160   4.603
 8958SOL    HW127773   2.808   0.115   4.663
 8958SOL    HW227774   2.649   0.129   4.625
 8959SOL     OW27775   2.878   5.778   6.552
 8959SOL    HW127776   2.783   5.752   6.535
 8959SOL    HW227777   2.922   5.803   6.466
 8960SOL     OW27778   4.126   5.654   1.149
 8960SOL    HW127779   4.074   5.740   1.147
 8960SOL    HW227780   4.070   5.581   1.111
 8961SOL     OW27781   0.486   3.010   4.953
 8961SOL    HW127782   0.531   2.921   4.964
 8961SOL    HW227783   0.513   3.049   4.865
 8962SOL     OW27784   4.477   0.634   3.791
 8962SOL    HW127785   4.517   0.573   3.722
 8962SOL    HW227786   4.459   0.582   3.875
 8963SOL     OW27787   1.517   0.799   4.917
 8963SOL    HW127788   1.590   0.852   4.875
 8963SOL    HW227789   1.437   0.857   4.933
 8964SOL     OW27790   1.184   2.483   3.736
 8964SOL    HW127791   1.269   2.537   3.739
 8964SOL    HW227792   1.183   2.419   3.813
 8965SOL     OW27793   1.592   4.489   1.184
 8965SOL    HW127794   1.691   4.486   1.175
 8965SOL    HW227795   1.567   4.492   1.281
 8966SOL     OW27796   3.644   1.902   4.440
 8966SOL    HW127797   3.619   1.935   4.532
 8966SOL    HW227798   3.561   1.890   4.386
 8967SOL     OW27799   5.242   6.352   0.366
 8967SOL    HW127800   5.203   6.442   0.347
 8967SOL    HW227801   5.332   6.364   0.409
 8968SOL     OW27802   6.099   4.575   3.908
 8968SOL    HW127803   6.196   4.553   3.920
 8968SOL    HW227804   6.069   4.543   3.818
 8969SOL     OW27805   6.514   0.109   4.129
 8969SOL    HW127806   6.419   0.132   4.111
 8969SOL    HW227807   6.536   0.020   4.088
 8970SOL     OW27808   3.257   3.052   1.915
 8970SOL    HW127809   3.314   2.970   1.916
 8970SOL    HW227810   3.161   3.026   1.909
 8971SOL     OW27811   2.676   6.782   2.858
 8971SOL    HW127812   2.738   6.833   2.799
 8971SOL    HW227813   2.673   6.686   2.830
 8972SOL     OW27814   5.556   0.203   5.834
 8972SOL    HW127815   5.456   0.203   5.842
 8972SOL    HW227816   5.586   0.114   5.799
 8973SOL     OW27817   1.714   4.216   6.655
 8973SOL    HW127818   1.786   4.272   6.695
 8973SOL    HW227819   1.743   4.183   6.565
 8974SOL     OW27820   1.230   2.682   4.395
 8974SOL    HW127821   1.138   2.680   4.354
 8974SOL    HW227822   1.222   2.699   4.493
 8975SOL     OW27823   3.696   1.065   6.442
 8975SOL    HW127824   3.702   0.967   6.423
 8975SOL    HW227825   3.638   1.109   6.374
 8976SOL     OW27826   1.026   6.490   4.003
 8976SOL    HW127827   0.982   6.409   4.042
 8976SOL    HW227828   1.104   6.462   3.948
 8977SOL     OW27829   6.306   2.194   0.557
 8977SOL    HW127830   6.319   2.235   0.467
 8977SOL    HW227831   6.296   2.095   0.547
 8978SOL     OW27832   5.872   4.174   3.274
 8978SOL    HW127833   5.889   4.205   3.180
 8978SOL    HW227834   5.797   4.107   3.274
 8979SOL     OW27835   0.703   5.197   4.768
 8979SOL    HW127836   0.645   5.141   4.827
 8979SOL    HW227837   0.797   5.191   4.799
 8980SOL     OW27838   2.983   3.205   3.649
 8980SOL    HW127839   3.032   3.290   3.627
 8980SOL    HW227840   2.910   3.190   3.582
 8981SOL     OW27841   3.133   2.479   5.413
 8981SOL    HW127842   3.042   2.521   5.401
 8981SOL    HW227843   3.151   2.418   5.335
 8982SOL     OW27844   2.680   4.627   0.250
 8982SOL    HW127845   2.775   4.637   0.220
 8982SOL    HW227846   2.639   4.718   0.262
 8983SOL     OW27847   4.644   4.314   1.042
 8983SOL    HW127848   4.552   4.296   1.075
 8983SOL    HW227849   4.699   4.353   1.116
 8984SOL     OW27850   1.486   6.269   2.402
 8984SOL    HW127851   1.502   6.368   2.404
 8984SOL    HW227852   1.542   6.228   2.330
 8985SOL     OW27853   2.876   3.119   6.711
 8985SOL    HW127854   2.813   3.193   6.735
 8985SOL    HW227855   2.851   3.082   6.622
 8986SOL     OW27856   2.076   5.951   2.342
 8986SOL    HW127857   2.015   5.934   2.420
 8986SOL    HW227858   2.038   5.907   2.260
 8987SOL     OW27859   5.270   6.263   2.454
 8987SOL    HW127860   5.230   6.329   2.391
 8987SOL    HW227861   5.304   6.310   2.535
 8988SOL     OW27862   0.315   3.916   5.205
 8988SOL    HW127863   0.307   3.992   5.141
 8988SOL    HW227864   0.411   3.905   5.232
 8989SOL     OW27865   1.781   2.574   0.112
 8989SOL    HW127866   1.808   2.497   0.054
 8989SOL    HW227867   1.854   2.594   0.178
 8990SOL     OW27868   0.462   4.232   4.508
 8990SOL    HW127869   0.439   4.136   4.493
 8990SOL    HW227870   0.463   4.281   4.421
 8991SOL     OW27871   1.047   2.203   4.794
 8991SOL    HW127872   1.112   2.175   4.723
 8991SOL    HW227873   1.097   2.236   4.874
 8992SOL     OW27874   6.281   1.364   1.680
 8992SOL    HW127875   6.314   1.275   1.711
 8992SOL    HW227876   6.359   1.426   1.669
 8993SOL     OW27877   4.469   2.621   1.057
 8993SOL    HW127878   4.526   2.700   1.036
 8993SOL    HW227879   4.383   2.627   1.005
 8994SOL     OW27880   1.969   5.784   2.126
 8994SOL    HW127881   2.063   5.773   2.094
 8994SOL    HW227882   1.931   5.695   2.149
 8995SOL     OW27883   0.603   0.745   0.899
 8995SOL    HW127884   0.567   0.693   0.977
 8995SOL    HW227885   0.540   0.734   0.821
 8996SOL     OW27886   4.250   5.870   6.125
 8996SOL    HW127887   4.348   5.889   6.115
 8996SOL    HW227888   4.236   5.812   6.206
 8997SOL     OW27889   5.239   6.462   4.791
 8997SOL    HW127890   5.195   6.543   4.753
 8997SOL    HW227891   5.334   6.483   4.814
 8998SOL     OW27892   0.067   4.108   5.250
 8998SOL    HW127893   0.146   4.115   5.189
 8998SOL    HW227894   0.098   4.112   5.345
 8999SOL     OW27895   4.318   6.232   6.675
 8999SOL    HW127896   4.237   6.276   6.713
 8999SOL    HW227897   4.296   6.194   6.585
 9000SOL     OW27898   1.290   3.617   1.151
 9000SOL    HW127899   1.263   3.586   1.243
 9000SOL    HW227900   1.213   3.666   1.109
 9001SOL     OW27901   2.128   5.167   0.984
 9001SOL    HW127902   2.114   5.226   1.064
 9001SOL    HW227903   2.215   5.119   0.993
 9002SOL     OW27904   6.528   6.561   6.195
 9002SOL    HW127905   6.506   6.464   6.185
 9002SOL    HW227906   6.453   6.617   6.161
 9003SOL     OW27907   4.805   6.553   0.875
 9003SOL    HW127908   4.890   6.518   0.913
 9003SOL    HW227909   4.757   6.479   0.826
 9004SOL     OW27910   6.231   4.126   2.035
 9004SOL    HW127911   6.329   4.105   2.038
 9004SOL    HW227912   6.214   4.214   2.078
 9005SOL     OW27913   4.766   1.056   5.105
 9005SOL    HW127914   4.762   0.961   5.075
 9005SOL    HW227915   4.812   1.061   5.194
 9006SOL     OW27916   3.802   6.638   6.791
 9006SOL    HW127917   3.715   6.665   6.831
 9006SOL    HW227918   3.859   6.719   6.776
 9007SOL     OW27919   0.398   0.218   3.418
 9007SOL    HW127920   0.324   0.284   3.429
 9007SOL    HW227921   0.434   0.224   3.325
 9008SOL     OW27922   6.935   5.252   1.750
 9008SOL    HW127923   6.994   5.332   1.752
 9008SOL    HW227924   6.949   5.198   1.833
 9009SOL     OW27925   2.988   6.093   2.237
 9009SOL    HW127926   2.987   6.106   2.138
 9009SOL    HW227927   3.076   6.054   2.265
 9010SOL     OW27928   2.242   4.961   4.590
 9010SOL    HW127929   2.324   5.019   4.593
 9010SOL    HW227930   2.257   4.884   4.528
 9011SOL     OW27931   2.207   1.266   2.160
 9011SOL    HW127932   2.262   1.313   2.090
 9011SOL    HW227933   2.252   1.180   2.185
 9012SOL     OW27934   2.189   6.016   0.240
 9012SOL    HW127935   2.138   5.939   0.279
 9012SOL    HW227936   2.233   5.987   0.154
 9013SOL     OW27937   2.443   0.318   4.541
 9013SOL    HW127938   2.396   0.306   4.454
 9013SOL    HW227939   2.380   0.300   4.616
 9014SOL     OW27940   5.586   3.285   3.221
 9014SOL    HW127941   5.596   3.185   3.217
 9014SOL    HW227942   5.489   3.309   3.214
 9015SOL     OW27943   3.922   6.574   6.456
 9015SOL    HW127944   3.879   6.664   6.453
 9015SOL    HW227945   4.017   6.583   6.487
 9016SOL     OW27946   5.021   5.005   5.754
 9016SOL    HW127947   5.025   5.093   5.706
 9016SOL    HW227948   5.049   5.017   5.849
 9017SOL     OW27949   3.246   0.911   5.686
 9017SOL    HW127950   3.188   0.914   5.768
 9017SOL    HW227951   3.188   0.910   5.604
 9018SOL     OW27952   2.431   5.452   0.320
 9018SOL    HW127953   2.443   5.502   0.234
 9018SOL    HW227954   2.518   5.446   0.367
 9019SOL     OW27955   0.164   4.350   4.906
 9019SOL    HW127956   0.140   4.292   4.829
 9019SOL    HW227957   0.134   4.444   4.888
 9020SOL     OW27958   5.363   5.789   3.661
 9020SOL    HW127959   5.338   5.884   3.682
 9020SOL    HW227960   5.296   5.750   3.599
 9021SOL     OW27961   6.544   1.735   4.459
 9021SOL    HW127962   6.601   1.807   4.500
 9021SOL    HW227963   6.500   1.772   4.377
 9022SOL     OW27964   4.859   3.249   6.471
 9022SOL    HW127965   4.787   3.190   6.509
 9022SOL    HW227966   4.931   3.261   6.539
 9023SOL     OW27967   0.078   4.472   0.945
 9023SOL    HW127968   0.107   4.546   1.006
 9023SOL    HW227969   0.158   4.422   0.913
 9024SOL     OW27970   1.962   4.313   6.398
 9024SOL    HW127971   1.896   4.383   6.369
 9024SOL    HW227972   2.036   4.307   6.331
 9025SOL     OW27973   0.839   6.143   1.773
 9025SOL    HW127974   0.906   6.072   1.794
 9025SOL    HW227975   0.886   6.230   1.758
 9026SOL     OW27976   5.728   1.630   6.477
 9026SOL    HW127977   5.650   1.691   6.491
 9026SOL    HW227978   5.747   1.624   6.379
 9027SOL     OW27979   6.992   4.178   2.774
 9027SOL    HW127980   7.018   4.265   2.815
 9027SOL    HW227981   6.971   4.192   2.677
 9028SOL     OW27982   2.804   5.135   0.270
 9028SOL    HW127983   2.903   5.145   0.279
 9028SOL    HW227984   2.767   5.211   0.218
 9029SOL     OW27985   4.107   6.282   5.210
 9029SOL    HW127986   4.085   6.202   5.267
 9029SOL    HW227987   4.049   6.283   5.129
 9030SOL     OW27988   3.028   2.100   2.161
 9030SOL    HW127989   3.096   2.143   2.220
 9030SOL    HW227990   2.969   2.170   2.121
 9031SOL     OW27991   5.222   6.286   5.010
 9031SOL    HW127992   5.321   6.286   5.023
 9031SOL    HW227993   5.198   6.348   4.935
 9032SOL     OW27994   4.965   3.034   1.252
 9032SOL    HW127995   5.023   2.989   1.184
 9032SOL    HW227996   4.876   3.055   1.212
 9033SOL     OW27997   0.349   6.046   2.892
 9033SOL    HW127998   0.265   6.041   2.947
 9033SOL    HW227999   0.325   6.077   2.800
 9034SOL     OW28000   4.342   6.620   5.095
 9034SOL    HW128001   4.386   6.697   5.141
 9034SOL    HW228002   4.247   6.643   5.075
 9035SOL     OW28003   2.296   5.903   5.629
 9035SOL    HW128004   2.327   5.891   5.723
 9035SOL    HW228005   2.233   5.981   5.625
 9036SOL     OW28006   0.229   4.764   4.889
 9036SOL    HW128007   0.156   4.747   4.956
 9036SOL    HW228008   0.203   4.725   4.801
 9037SOL     OW28009   6.537   1.155   2.406
 9037SOL    HW128010   6.494   1.072   2.369
 9037SOL    HW228011   6.532   1.228   2.338
 9038SOL     OW28012   3.034   4.130   5.603
 9038SOL    HW128013   3.017   4.081   5.518
 9038SOL    HW228014   2.977   4.093   5.676
 9039SOL     OW28015   4.791   6.729   6.056
 9039SOL    HW128016   4.707   6.775   6.027
 9039SOL    HW228017   4.798   6.732   6.156
 9040SOL     OW28018   2.666   2.360   1.143
 9040SOL    HW128019   2.649   2.438   1.203
 9040SOL    HW228020   2.689   2.393   1.052
 9041SOL     OW28021   6.499   2.297   3.815
 9041SOL    HW128022   6.523   2.203   3.788
 9041SOL    HW228023   6.420   2.328   3.762
 9042SOL     OW28024   6.785   5.227   6.676
 9042SOL    HW128025   6.837   5.292   6.620
 9042SOL    HW228026   6.799   5.248   6.773
 9043SOL     OW28027   2.844   2.878   1.656
 9043SOL    HW128028   2.872   2.956   1.712
 9043SOL    HW228029   2.906   2.801   1.672
 9044SOL     OW28030   2.498   1.304   0.274
 9044SOL    HW128031   2.525   1.400   0.288
 9044SOL    HW228032   2.580   1.247   0.267
 9045SOL     OW28033   3.498   0.491   4.784
 9045SOL    HW128034   3.511   0.416   4.849
 9045SOL    HW228035   3.403   0.493   4.753
 9046SOL     OW28036   4.072   3.488   1.593
 9046SOL    HW128037   4.005   3.417   1.570
 9046SOL    HW228038   4.048   3.529   1.681
 9047SOL     OW28039   0.511   4.235   5.495
 9047SOL    HW128040   0.443   4.245   5.568
 9047SOL    HW228041   0.602   4.255   5.532
 9048SOL     OW28042   0.970   3.192   5.557
 9048SOL    HW128043   1.044   3.205   5.622
 9048SOL    HW228044   0.933   3.100   5.565
 9049SOL     OW28045   0.220   6.638   5.001
 9049SOL    HW128046   0.150   6.670   4.937
 9049SOL    HW228047   0.201   6.543   5.026
 9050SOL     OW28048   0.934   3.796   0.035
 9050SOL    HW128049   1.005   3.750   7.010
 9050SOL    HW228050   0.946   3.895   0.029
 9051SOL     OW28051   1.574   0.451   1.902
 9051SOL    HW128052   1.617   0.382   1.960
 9051SOL    HW228053   1.604   0.542   1.930
 9052SOL     OW28054   1.772   2.598   6.668
 9052SOL    HW128055   1.701   2.668   6.666
 9052SOL    HW228056   1.862   2.642   6.671
 9053SOL     OW28057   0.374   1.362   0.479
 9053SOL    HW128058   0.452   1.422   0.462
 9053SOL    HW228059   0.319   1.353   0.396
 9054SOL     OW28060   1.680   4.722   3.285
 9054SOL    HW128061   1.645   4.713   3.192
 9054SOL    HW228062   1.717   4.814   3.297
 9055SOL     OW28063   0.788   3.180   7.020
 9055SOL    HW128064   0.703   3.165   6.970
 9055SOL    HW228065   0.842   3.251   6.975
 9056SOL     OW28066   5.229   1.212   4.421
 9056SOL    HW128067   5.162   1.284   4.404
 9056SOL    HW228068   5.319   1.243   4.393
 9057SOL     OW28069   5.099   1.138   4.137
 9057SOL    HW128070   5.060   1.060   4.186
 9057SOL    HW228071   5.039   1.218   4.147
 9058SOL     OW28072   1.486   6.423   5.819
 9058SOL    HW128073   1.413   6.469   5.870
 9058SOL    HW228074   1.461   6.418   5.722
 9059SOL     OW28075   2.245   1.967   3.491
 9059SOL    HW128076   2.336   2.002   3.512
 9059SOL    HW228077   2.219   1.993   3.398
 9060SOL     OW28078   5.840   1.931   5.610
 9060SOL    HW128079   5.866   1.984   5.690
 9060SOL    HW228080   5.778   1.986   5.553
 9061SOL     OW28081   2.685   4.713   4.313
 9061SOL    HW128082   2.622   4.641   4.285
 9061SOL    HW228083   2.647   4.761   4.392
 9062SOL     OW28084   1.267   6.316   1.296
 9062SOL    HW128085   1.258   6.398   1.353
 9062SOL    HW228086   1.349   6.265   1.323
 9063SOL     OW28087   2.347   1.380   1.943
 9063SOL    HW128088   2.352   1.479   1.928
 9063SOL    HW228089   2.354   1.333   1.855
 9064SOL     OW28090   4.196   3.793   0.652
 9064SOL    HW128091   4.220   3.756   0.742
 9064SOL    HW228092   4.210   3.892   0.651
 9065SOL     OW28093   3.118   1.341   0.387
 9065SOL    HW128094   3.051   1.319   0.457
 9065SOL    HW228095   3.178   1.414   0.419
 9066SOL     OW28096   5.691   6.644   0.433
 9066SOL    HW128097   5.735   6.726   0.470
 9066SOL    HW228098   5.668   6.659   0.337
 9067SOL     OW28099   7.025   1.144   2.023
 9067SOL    HW128100   0.029   1.111   2.112
 9067SOL    HW228101   0.036   1.088   1.950
 9068SOL     OW28102   7.016   6.672   5.736
 9068SOL    HW128103   0.080   6.659   5.699
 9068SOL    HW228104   6.968   6.742   5.683
 9069SOL     OW28105   1.030   3.168   5.934
 9069SOL    HW128106   1.086   3.180   6.016
 9069SOL    HW228107   0.942   3.215   5.947
 9070SOL     OW28108   1.547   4.581   4.763
 9070SOL    HW128109   1.568   4.506   4.700
 9070SOL    HW228110   1.612   4.580   4.839
 9071SOL     OW28111   5.156   5.379   6.971
 9071SOL    HW128112   5.084   5.309   6.977
 9071SOL    HW228113   5.115   5.470   6.981
 9072SOL     OW28114   5.179   4.539   1.330
 9072SOL    HW128115   5.233   4.581   1.403
 9072SOL    HW228116   5.143   4.451   1.362
 9073SOL     OW28117   1.745   6.900   1.186
 9073SOL    HW128118   1.807   6.876   1.111
 9073SOL    HW228119   1.798   6.915   1.270
 9074SOL     OW28120   0.810   1.224   0.847
 9074SOL    HW128121   0.899   1.179   0.851
 9074SOL    HW228122   0.743   1.171   0.899
 9075SOL     OW28123   6.470   0.193   1.169
 9075SOL    HW128124   6.409   0.259   1.125
 9075SOL    HW228125   6.445   0.100   1.140
 9076SOL     OW28126   2.028   2.415   5.547
 9076SOL    HW128127   1.986   2.495   5.504
 9076SOL    HW228128   1.965   2.375   5.613
 9077SOL     OW28129   5.468   5.515   2.218
 9077SOL    HW128130   5.552   5.467   2.192
 9077SOL    HW228131   5.471   5.609   2.185
 9078SOL     OW28132   5.068   2.795   4.940
 9078SOL    HW128133   5.031   2.886   4.919
 9078SOL    HW228134   5.166   2.803   4.963
 9079SOL     OW28135   1.248   0.619   6.298
 9079SOL    HW128136   1.279   0.656   6.385
 9079SOL    HW228137   1.235   0.693   6.232
 9080SOL     OW28138   4.448   1.309   0.845
 9080SOL    HW128139   4.407   1.219   0.832
 9080SOL    HW228140   4.547   1.303   0.832
 9081SOL     OW28141   5.668   5.762   4.093
 9081SOL    HW128142   5.575   5.771   4.057
 9081SOL    HW228143   5.682   5.669   4.128
 9082SOL     OW28144   1.716   0.230   2.006
 9082SOL    HW128145   1.806   0.185   2.012
 9082SOL    HW228146   1.652   0.184   2.067
 9083SOL     OW28147   3.907   4.900   2.991
 9083SOL    HW128148   3.815   4.916   3.027
 9083SOL    HW228149   3.964   4.857   3.061
 9084SOL     OW28150   3.495   3.752   2.388
 9084SOL    HW128151   3.502   3.762   2.487
 9084SOL    HW228152   3.575   3.792   2.344
 9085SOL     OW28153   2.081   1.927   0.654
 9085SOL    HW128154   2.122   1.837   0.639
 9085SOL    HW228155   2.141   1.998   0.619
 9086SOL     OW28156   6.546   3.718   1.095
 9086SOL    HW128157   6.644   3.724   1.076
 9086SOL    HW228158   6.515   3.624   1.080
 9087SOL     OW28159   5.190   4.324   2.307
 9087SOL    HW128160   5.122   4.389   2.339
 9087SOL    HW228161   5.202   4.251   2.374
 9088SOL     OW28162   6.336   4.847   2.064
 9088SOL    HW128163   6.385   4.789   1.999
 9088SOL    HW228164   6.372   4.833   2.156
 9089SOL     OW28165   5.192   0.598   5.998
 9089SOL    HW128166   5.223   0.606   5.903
 9089SOL    HW228167   5.264   0.630   6.060
 9090SOL     OW28168   0.071   2.545   4.447
 9090SOL    HW128169   0.012   2.537   4.527
 9090SOL    HW228170   0.085   2.455   4.407
 9091SOL     OW28171   4.269   2.836   6.532
 9091SOL    HW128172   4.336   2.845   6.605
 9091SOL    HW228173   4.263   2.922   6.481
 9092SOL     OW28174   0.090   3.872   5.680
 9092SOL    HW128175   0.033   3.794   5.652
 9092SOL    HW228176   0.077   3.888   5.778
 9093SOL     OW28177   2.868   6.006   4.489
 9093SOL    HW128178   2.769   6.008   4.504
 9093SOL    HW228179   2.910   5.943   4.554
 9094SOL     OW28180   0.897   4.202   0.317
 9094SOL    HW128181   0.983   4.151   0.319
 9094SOL    HW228182   0.879   4.239   0.408
 9095SOL     OW28183   0.598   0.726   5.941
 9095SOL    HW128184   0.539   0.807   5.940
 9095SOL    HW228185   0.692   0.752   5.965
 9096SOL     OW28186   6.648   4.892   4.432
 9096SOL    HW128187   6.604   4.900   4.343
 9096SOL    HW228188   6.605   4.819   4.485
 9097SOL     OW28189   0.723   4.065   1.349
 9097SOL    HW128190   0.724   4.045   1.251
 9097SOL    HW228191   0.666   3.999   1.397
 9098SOL     OW28192   1.875   5.678   4.433
 9098SOL    HW128193   1.868   5.597   4.491
 9098SOL    HW228194   1.953   5.668   4.371
 9099SOL     OW28195   1.608   0.597   6.510
 9099SOL    HW128196   1.691   0.547   6.486
 9099SOL    HW228197   1.629   0.667   6.578
 9100SOL     OW28198   1.314   5.306   4.500
 9100SOL    HW128199   1.287   5.262   4.586
 9100SOL    HW228200   1.395   5.260   4.464
 9101SOL     OW28201   5.782   2.404   1.215
 9101SOL    HW128202   5.709   2.371   1.155
 9101SOL    HW228203   5.841   2.328   1.240
 9102SOL     OW28204   3.757   0.916   3.464
 9102SOL    HW128205   3.662   0.948   3.473
 9102SOL    HW228206   3.818   0.995   3.458
 9103SOL     OW28207   5.474   1.076   1.346
 9103SOL    HW128208   5.564   1.052   1.310
 9103SOL    HW228209   5.468   1.049   1.442
 9104SOL     OW28210   5.254   3.080   6.053
 9104SOL    HW128211   5.312   3.017   6.105
 9104SOL    HW228212   5.243   3.045   5.960
 9105SOL     OW28213   2.795   0.726   0.333
 9105SOL    HW128214   2.880   0.681   0.358
 9105SOL    HW228215   2.757   0.681   0.252
 9106SOL     OW28216   2.836   2.509   6.386
 9106SOL    HW128217   2.788   2.446   6.447
 9106SOL    HW228218   2.865   2.461   6.304
 9107SOL     OW28219   4.132   0.512   0.998
 9107SOL    HW128220   4.219   0.551   0.970
 9107SOL    HW228221   4.075   0.495   0.918
 9108SOL     OW28222   5.797   6.892   4.941
 9108SOL    HW128223   5.809   6.988   4.965
 9108SOL    HW228224   5.878   6.840   4.967
 9109SOL     OW28225   5.448   3.547   2.808
 9109SOL    HW128226   5.526   3.494   2.774
 9109SOL    HW228227   5.383   3.561   2.734
 9110SOL     OW28228   0.931   5.825   1.810
 9110SOL    HW128229   0.988   5.859   1.885
 9110SOL    HW228230   0.846   5.787   1.846
 9111SOL     OW28231   4.853   3.461   5.645
 9111SOL    HW128232   4.867   3.408   5.729
 9111SOL    HW228233   4.937   3.458   5.590
 9112SOL     OW28234   0.521   4.802   1.543
 9112SOL    HW128235   0.449   4.747   1.587
 9112SOL    HW228236   0.525   4.779   1.446
 9113SOL     OW28237   5.111   6.685   4.729
 9113SOL    HW128238   5.065   6.663   4.643
 9113SOL    HW228239   5.186   6.749   4.711
 9114SOL     OW28240   6.811   1.413   6.132
 9114SOL    HW128241   6.831   1.316   6.147
 9114SOL    HW228242   6.772   1.425   6.040
 9115SOL     OW28243   5.038   3.531   4.682
 9115SOL    HW128244   4.986   3.607   4.644
 9115SOL    HW228245   5.134   3.540   4.656
 9116SOL     OW28246   0.303   5.403   3.091
 9116SOL    HW128247   0.211   5.433   3.113
 9116SOL    HW228248   0.349   5.371   3.174
 9117SOL     OW28249   1.481   0.113   6.848
 9117SOL    HW128250   1.480   0.209   6.878
 9117SOL    HW228251   1.488   0.053   6.928
 9118SOL     OW28252   0.569   4.832   0.990
 9118SOL    HW128253   0.611   4.766   0.927
 9118SOL    HW228254   0.499   4.884   0.941
 9119SOL     OW28255   3.854   2.300   0.939
 9119SOL    HW128256   3.808   2.388   0.946
 9119SOL    HW228257   3.795   2.228   0.977
 9120SOL     OW28258   6.902   4.781   4.843
 9120SOL    HW128259   6.864   4.771   4.935
 9120SOL    HW228260   6.836   4.831   4.786
 9121SOL     OW28261   4.305   1.387   5.614
 9121SOL    HW128262   4.241   1.449   5.569
 9121SOL    HW228263   4.361   1.341   5.546
 9122SOL     OW28264   0.238   1.741   2.254
 9122SOL    HW128265   0.253   1.826   2.203
 9122SOL    HW228266   0.241   1.761   2.352
 9123SOL     OW28267   1.174   6.663   4.495
 9123SOL    HW128268   1.077   6.665   4.517
 9123SOL    HW228269   1.193   6.589   4.431
 9124SOL     OW28270   2.335   5.349   6.934
 9124SOL    HW128271   2.431   5.374   6.917
 9124SOL    HW228272   2.328   5.249   6.944
 9125SOL     OW28273   4.583   6.947   1.667
 9125SOL    HW128274   4.538   6.983   1.748
 9125SOL    HW228275   4.527   6.875   1.626
 9126SOL     OW28276   3.359   6.411   6.723
 9126SOL    HW128277   3.387   6.482   6.788
 9126SOL    HW228278   3.268   6.433   6.687
 9127SOL     OW28279   6.241   3.699   6.380
 9127SOL    HW128280   6.266   3.602   6.369
 9127SOL    HW228281   6.190   3.729   6.300
 9128SOL     OW28282   5.293   3.025   6.572
 9128SOL    HW128283   5.219   3.080   6.611
 9128SOL    HW228284   5.258   2.935   6.546
 9129SOL     OW28285   0.744   2.119   1.765
 9129SOL    HW128286   0.777   2.211   1.785
 9129SOL    HW228287   0.820   2.054   1.771
 9130SOL     OW28288   3.360   4.174   6.623
 9130SOL    HW128289   3.386   4.077   6.628
 9130SOL    HW228290   3.349   4.200   6.527
 9131SOL     OW28291   6.009   3.342   1.392
 9131SOL    HW128292   5.971   3.250   1.387
 9131SOL    HW228293   6.038   3.370   1.300
 9132SOL     OW28294   0.841   4.930   3.857
 9132SOL    HW128295   0.811   4.966   3.945
 9132SOL    HW228296   0.878   5.004   3.801
 9133SOL     OW28297   5.667   6.753   0.163
 9133SOL    HW128298   5.599   6.720   0.098
 9133SOL    HW228299   5.708   6.837   0.130
 9134SOL     OW28300   4.400   4.136   6.581
 9134SOL    HW128301   4.403   4.042   6.617
 9134SOL    HW228302   4.475   4.189   6.621
 9135SOL     OW28303   6.954   5.070   2.269
 9135SOL    HW128304   6.875   5.069   2.331
 9135SOL    HW228305   7.018   4.998   2.295
 9136SOL     OW28306   6.842   5.346   0.172
 9136SOL    HW128307   6.893   5.261   0.184
 9136SOL    HW228308   6.877   5.415   0.234
 9137SOL     OW28309   5.629   5.407   6.799
 9137SOL    HW128310   5.722   5.405   6.837
 9137SOL    HW228311   5.615   5.327   6.741
 9138SOL     OW28312   1.982   3.966   5.341
 9138SOL    HW128313   2.069   3.995   5.300
 9138SOL    HW228314   1.906   3.991   5.280
 9139SOL     OW28315   0.766   0.106   1.278
 9139SOL    HW128316   0.693   0.174   1.269
 9139SOL    HW228317   0.780   0.060   1.191
 9140SOL     OW28318   0.373   4.335   2.409
 9140SOL    HW128319   0.445   4.376   2.352
 9140SOL    HW228320   0.298   4.303   2.351
 9141SOL     OW28321   0.083   5.962   3.955
 9141SOL    HW128322   0.098   6.061   3.946
 9141SOL    HW228323   0.017   5.932   3.887
 9142SOL     OW28324   2.334   5.582   3.033
 9142SOL    HW128325   2.237   5.566   3.053
 9142SOL    HW228326   2.345   5.673   2.993
 9143SOL     OW28327   5.223   3.539   2.619
 9143SOL    HW128328   5.153   3.532   2.547
 9143SOL    HW228329   5.204   3.474   2.692
 9144SOL     OW28330   2.644   4.893   5.471
 9144SOL    HW128331   2.646   4.868   5.567
 9144SOL    HW228332   2.660   4.813   5.414
 9145SOL     OW28333   2.733   5.517   6.170
 9145SOL    HW128334   2.721   5.599   6.226
 9145SOL    HW228335   2.646   5.491   6.129
 9146SOL     OW28336   5.144   1.158   4.683
 9146SOL    HW128337   5.045   1.145   4.692
 9146SOL    HW228338   5.163   1.203   4.596
 9147SOL     OW28339   3.858   0.074   6.673
 9147SOL    HW128340   3.935   0.010   6.672
 9147SOL    HW228341   3.893   0.167   6.675
 9148SOL     OW28342   3.059   5.853   1.828
 9148SOL    HW128343   3.107   5.838   1.914
 9148SOL    HW228344   3.004   5.936   1.834
 9149SOL     OW28345   1.225   4.008   2.082
 9149SOL    HW128346   1.181   4.088   2.122
 9149SOL    HW228347   1.253   3.946   2.154
 9150SOL     OW28348   4.126   3.150   0.551
 9150SOL    HW128349   4.138   3.073   0.489
 9150SOL    HW228350   4.189   3.224   0.526
 9151SOL     OW28351   2.329   4.808   3.617
 9151SOL    HW128352   2.417   4.851   3.600
 9151SOL    HW228353   2.272   4.813   3.535
 9152SOL     OW28354   1.356   4.983   2.548
 9152SOL    HW128355   1.386   5.070   2.508
 9152SOL    HW228356   1.389   4.907   2.493
 9153SOL     OW28357   0.561   3.011   1.285
 9153SOL    HW128358   0.481   2.997   1.227
 9153SOL    HW228359   0.576   3.109   1.297
 9154SOL     OW28360   4.356   5.422   2.158
 9154SOL    HW128361   4.316   5.480   2.229
 9154SOL    HW228362   4.298   5.426   2.076
 9155SOL     OW28363   0.154   0.058   2.075
 9155SOL    HW128364   0.215   7.025   2.025
 9155SOL    HW228365   0.069   0.010   2.097
 9156SOL     OW28366   0.129   4.633   5.479
 9156SOL    HW128367   0.125   4.534   5.467
 9156SOL    HW228368   0.187   4.673   5.408
 9157SOL     OW28369   2.367   4.880   4.843
 9157SOL    HW128370   2.304   4.913   4.773
 9157SOL    HW228371   2.361   4.938   4.924
 9158SOL     OW28372   0.072   2.468   3.604
 9158SOL    HW128373   0.034   2.403   3.538
 9158SOL    HW228374   0.167   2.488   3.581
 9159SOL     OW28375   2.007   0.423   3.233
 9159SOL    HW128376   2.090   0.412   3.288
 9159SOL    HW228377   1.940   0.354   3.260
 9160SOL     OW28378   0.081   3.309   0.061
 9160SOL    HW128379   0.181   3.313   0.061
 9160SOL    HW228380   0.046   3.346   0.147
 9161SOL     OW28381   6.242   3.328   3.782
 9161SOL    HW128382   6.229   3.281   3.869
 9161SOL    HW228383   6.324   3.387   3.788
 9162SOL     OW28384   5.696   2.604   2.236
 9162SOL    HW128385   5.743   2.636   2.318
 9162SOL    HW228386   5.758   2.547   2.182
 9163SOL     OW28387   0.128   3.583   2.698
 9163SOL    HW128388   0.166   3.539   2.779
 9163SOL    HW228389   0.139   3.523   2.619
 9164SOL     OW28390   4.580   0.763   1.160
 9164SOL    HW128391   4.638   0.684   1.179
 9164SOL    HW228392   4.558   0.810   1.245
 9165SOL     OW28393   6.723   6.853   0.154
 9165SOL    HW128394   6.707   6.758   0.179
 9165SOL    HW228395   6.788   6.894   0.218
 9166SOL     OW28396   4.125   5.549   1.518
 9166SOL    HW128397   4.214   5.571   1.479
 9166SOL    HW228398   4.108   5.451   1.510
 9167SOL     OW28399   0.257   3.360   5.197
 9167SOL    HW128400   0.207   3.412   5.128
 9167SOL    HW228401   0.215   3.270   5.208
 9168SOL     OW28402   6.178   6.904   4.966
 9168SOL    HW128403   6.120   6.823   4.977
 9168SOL    HW228404   6.274   6.877   4.969
 9169SOL     OW28405   5.908   5.284   0.293
 9169SOL    HW128406   5.849   5.365   0.291
 9169SOL    HW228407   5.981   5.298   0.360
 9170SOL     OW28408   0.719   6.462   4.105
 9170SOL    HW128409   0.718   6.393   4.176
 9170SOL    HW228410   0.772   6.429   4.026
 9171SOL     OW28411   4.197   5.476   6.563
 9171SOL    HW128412   4.135   5.510   6.493
 9171SOL    HW228413   4.170   5.512   6.652
 9172SOL     OW28414   5.411   6.812   6.431
 9172SOL    HW128415   5.345   6.769   6.370
 9172SOL    HW228416   5.492   6.753   6.438
 9173SOL     OW28417   5.880   4.174   0.027
 9173SOL    HW128418   5.832   4.253   0.067
 9173SOL    HW228419   5.840   4.153   6.966
 9174SOL     OW28420   5.396   5.349   0.350
 9174SOL    HW128421   5.369   5.402   0.270
 9174SOL    HW228422   5.394   5.251   0.328
 9175SOL     OW28423   2.607   0.511   1.478
 9175SOL    HW128424   2.632   0.447   1.551
 9175SOL    HW228425   2.523   0.480   1.433
 9176SOL     OW28426   1.290   6.737   2.229
 9176SOL    HW128427   1.196   6.757   2.203
 9176SOL    HW228428   1.290   6.686   2.315
 9177SOL     OW28429   0.246   5.882   3.284
 9177SOL    HW128430   0.176   5.861   3.352
 9177SOL    HW228431   0.300   5.800   3.266
 9178SOL     OW28432   0.972   2.604   0.857
 9178SOL    HW128433   1.001   2.696   0.884
 9178SOL    HW228434   1.034   2.537   0.895
 9179SOL     OW28435   3.812   6.295   2.686
 9179SOL    HW128436   3.804   6.371   2.751
 9179SOL    HW228437   3.721   6.261   2.663
 9180SOL     OW28438   0.728   1.258   3.693
 9180SOL    HW128439   0.820   1.229   3.722
 9180SOL    HW228440   0.659   1.199   3.737
 9181SOL     OW28441   3.313   1.822   2.488
 9181SOL    HW128442   3.241   1.891   2.476
 9181SOL    HW228443   3.276   1.731   2.471
 9182SOL     OW28444   5.989   0.448   2.699
 9182SOL    HW128445   5.960   0.526   2.644
 9182SOL    HW228446   5.988   0.365   2.643
 9183SOL     OW28447   2.587   1.569   6.011
 9183SOL    HW128448   2.565   1.472   6.001
 9183SOL    HW228449   2.510   1.624   5.981
 9184SOL     OW28450   3.019   6.352   6.947
 9184SOL    HW128451   2.927   6.336   6.910
 9184SOL    HW228452   3.029   6.302   0.005
 9185SOL     OW28453   0.709   1.496   4.843
 9185SOL    HW128454   0.782   1.456   4.899
 9185SOL    HW228455   0.652   1.423   4.806
 9186SOL     OW28456   5.085   6.425   6.393
 9186SOL    HW128457   5.072   6.426   6.293
 9186SOL    HW228458   5.123   6.337   6.421
 9187SOL     OW28459   4.387   3.169   1.300
 9187SOL    HW128460   4.401   3.143   1.205
 9187SOL    HW228461   4.475   3.174   1.347
 9188SOL     OW28462   1.580   0.738   2.656
 9188SOL    HW128463   1.602   0.642   2.672
 9188SOL    HW228464   1.598   0.761   2.560
 9189SOL     OW28465   3.037   0.569   0.322
 9189SOL    HW128466   2.964   0.524   0.271
 9189SOL    HW228467   3.069   0.649   0.271
 9190SOL     OW28468   3.243   1.098   6.130
 9190SOL    HW128469   3.294   1.016   6.154
 9190SOL    HW228470   3.150   1.092   6.168
 9191SOL     OW28471   5.739   0.059   1.760
 9191SOL    HW128472   5.785   0.118   1.695
 9191SOL    HW228473   5.731   0.105   1.848
 9192SOL     OW28474   4.212   4.752   3.168
 9192SOL    HW128475   4.167   4.719   3.085
 9192SOL    HW228476   4.143   4.780   3.235
 9193SOL     OW28477   3.618   3.569   1.840
 9193SOL    HW128478   3.627   3.487   1.897
 9193SOL    HW228479   3.521   3.589   1.825
 9194SOL     OW28480   2.737   4.999   2.784
 9194SOL    HW128481   2.759   5.082   2.732
 9194SOL    HW228482   2.812   4.933   2.775
 9195SOL     OW28483   0.630   3.554   3.160
 9195SOL    HW128484   0.582   3.516   3.239
 9195SOL    HW228485   0.703   3.614   3.191
 9196SOL     OW28486   5.875   5.430   3.105
 9196SOL    HW128487   5.850   5.455   3.012
 9196SOL    HW228488   5.958   5.478   3.132
 9197SOL     OW28489   5.042   2.281   6.312
 9197SOL    HW128490   5.029   2.191   6.272
 9197SOL    HW228491   4.975   2.295   6.386
 9198SOL     OW28492   6.737   3.878   4.758
 9198SOL    HW128493   6.779   3.801   4.808
 9198SOL    HW228494   6.649   3.901   4.800
 9199SOL     OW28495   0.424   3.390   0.242
 9199SOL    HW128496   0.420   3.303   0.194
 9199SOL    HW228497   0.342   3.444   0.220
 9200SOL     OW28498   4.203   6.161   2.208
 9200SOL    HW128499   4.166   6.069   2.193
 9200SOL    HW228500   4.144   6.210   2.272
 9201SOL     OW28501   0.543   2.906   2.181
 9201SOL    HW128502   0.486   2.848   2.124
 9201SOL    HW228503   0.486   2.961   2.241
 9202SOL     OW28504   1.930   6.011   3.009
 9202SOL    HW128505   1.904   6.000   2.913
 9202SOL    HW228506   1.941   5.921   3.051
 9203SOL     OW28507   6.035   2.521   0.060
 9203SOL    HW128508   6.121   2.497   0.014
 9203SOL    HW228509   6.055   2.561   0.149
 9204SOL     OW28510   5.154   3.979   1.665
 9204SOL    HW128511   5.135   3.904   1.729
 9204SOL    HW228512   5.252   3.984   1.647
 9205SOL     OW28513   4.908   2.671   0.606
 9205SOL    HW128514   4.921   2.758   0.559
 9205SOL    HW228515   4.827   2.625   0.569
 9206SOL     OW28516   0.410   0.817   4.392
 9206SOL    HW128517   0.404   0.915   4.410
 9206SOL    HW228518   0.473   0.801   4.316
 9207SOL     OW28519   5.873   6.254   0.110
 9207SOL    HW128520   5.965   6.268   0.146
 9207SOL    HW228521   5.815   6.331   0.138
 9208SOL     OW28522   5.856   3.777   1.668
 9208SOL    HW128523   5.911   3.857   1.644
 9208SOL    HW228524   5.916   3.705   1.704
 9209SOL     OW28525   4.779   0.572   4.465
 9209SOL    HW128526   4.767   0.615   4.554
 9209SOL    HW228527   4.842   0.494   4.473
 9210SOL     OW28528   1.599   6.868   0.402
 9210SOL    HW128529   1.575   6.785   0.452
 9210SOL    HW228530   1.665   6.845   0.330
 9211SOL     OW28531   4.664   1.318   6.172
 9211SOL    HW128532   4.731   1.364   6.114
 9211SOL    HW228533   4.604   1.386   6.215
 9212SOL     OW28534   5.928   3.112   6.023
 9212SOL    HW128535   5.863   3.127   5.949
 9212SOL    HW228536   5.926   3.189   6.086
 9213SOL     OW28537   0.509   0.024   3.113
 9213SOL    HW128538   0.463   6.965   3.127
 9213SOL    HW228539   0.598   0.008   3.069
 9214SOL     OW28540   1.673   1.172   4.941
 9214SOL    HW128541   1.713   1.104   5.002
 9214SOL    HW228542   1.745   1.222   4.894
 9215SOL     OW28543   6.567   4.350   3.914
 9215SOL    HW128544   6.539   4.254   3.916
 9215SOL    HW228545   6.665   4.356   3.895
 9216SOL     OW28546   1.906   6.697   3.035
 9216SOL    HW128547   1.843   6.764   3.073
 9216SOL    HW228548   1.963   6.741   2.965
 9217SOL     OW28549   4.425   1.887   0.598
 9217SOL    HW128550   4.372   1.822   0.543
 9217SOL    HW228551   4.458   1.841   0.681
 9218SOL     OW28552   5.457   5.938   5.942
 9218SOL    HW128553   5.388   5.893   5.885
 9218SOL    HW228554   5.429   5.933   6.038
 9219SOL     OW28555   3.943   3.133   5.061
 9219SOL    HW128556   3.898   3.062   5.114
 9219SOL    HW228557   4.025   3.164   5.109
 9220SOL     OW28558   0.027   6.530   3.462
 9220SOL    HW128559   0.081   6.599   3.414
 9220SOL    HW228560   6.992   6.486   3.397
 9221SOL     OW28561   2.839   1.062   2.127
 9221SOL    HW128562   2.777   1.114   2.068
 9221SOL    HW228563   2.841   0.966   2.097
 9222SOL     OW28564   2.234   6.358   3.038
 9222SOL    HW128565   2.181   6.285   3.081
 9222SOL    HW228566   2.251   6.336   2.942
 9223SOL     OW28567   5.684   3.099   4.921
 9223SOL    HW128568   5.634   3.085   5.007
 9223SOL    HW228569   5.688   3.197   4.900
 9224SOL     OW28570   2.223   5.684   2.362
 9224SOL    HW128571   2.216   5.589   2.332
 9224SOL    HW228572   2.160   5.700   2.437
 9225SOL     OW28573   0.439   6.199   5.510
 9225SOL    HW128574   0.525   6.149   5.514
 9225SOL    HW228575   0.424   6.246   5.597
 9226SOL     OW28576   6.946   6.006   5.219
 9226SOL    HW128577   6.901   6.086   5.179
 9226SOL    HW228578   0.013   6.029   5.241
 9227SOL     OW28579   4.825   2.769   0.906
 9227SOL    HW128580   4.739   2.810   0.937
 9227SOL    HW228581   4.842   2.795   0.811
 9228SOL     OW28582   3.252   3.436   3.861
 9228SOL    HW128583   3.213   3.348   3.890
 9228SOL    HW228584   3.220   3.457   3.769
 9229SOL     OW28585   7.013   5.912   1.831
 9229SOL    HW128586   6.996   5.916   1.929
 9229SOL    HW228587   7.024   6.004   1.795
 9230SOL     OW28588   2.688   6.395   4.871
 9230SOL    HW128589   2.755   6.438   4.810
 9230SOL    HW228590   2.720   6.303   4.895
 9231SOL     OW28591   4.945   5.219   1.944
 9231SOL    HW128592   4.949   5.302   1.887
 9231SOL    HW228593   4.917   5.243   2.037
 9232SOL     OW28594   1.300   4.863   1.518
 9232SOL    HW128595   1.385   4.814   1.537
 9232SOL    HW228596   1.244   4.865   1.602
 9233SOL     OW28597   1.056   0.953   6.654
 9233SOL    HW128598   1.064   0.895   6.572
 9233SOL    HW228599   1.147   0.976   6.688
 9234SOL     OW28600   2.619   3.929   0.853
 9234SOL    HW128601   2.653   3.849   0.901
 9234SOL    HW228602   2.519   3.924   0.845
 9235SOL     OW28603   0.558   2.132   3.147
 9235SOL    HW128604   0.569   2.090   3.237
 9235SOL    HW228605   0.598   2.072   3.078
 9236SOL     OW28606   2.659   2.857   6.635
 9236SOL    HW128607   2.717   2.802   6.575
 9236SOL    HW228608   2.614   2.929   6.581
 9237SOL     OW28609   6.654   5.975   3.763
 9237SOL    HW128610   6.683   6.070   3.768
 9237SOL    HW228611   6.733   5.915   3.772
 9238SOL     OW28612   2.293   1.744   5.532
 9238SOL    HW128613   2.385   1.775   5.507
 9238SOL    HW228614   2.250   1.702   5.452
 9239SOL     OW28615   2.050   6.150   6.543
 9239SOL    HW128616   1.953   6.164   6.522
 9239SOL    HW228617   2.096   6.239   6.549
 9240SOL     OW28618   3.599   1.608   5.527
 9240SOL    HW128619   3.603   1.627   5.625
 9240SOL    HW228620   3.535   1.671   5.483
 9241SOL     OW28621   5.591   5.430   0.054
 9241SOL    HW128622   5.516   5.482   0.093
 9241SOL    HW228623   5.590   5.440   6.982
 9242SOL     OW28624   1.741   3.117   0.009
 9242SOL    HW128625   1.730   3.022   7.007
 9242SOL    HW228626   1.660   3.169   7.013
 9243SOL     OW28627   1.809   6.925   6.718
 9243SOL    HW128628   1.891   6.930   6.662
 9243SOL    HW228629   1.774   7.018   6.734
 9244SOL     OW28630   3.347   6.304   6.325
 9244SOL    HW128631   3.395   6.272   6.406
 9244SOL    HW228632   3.310   6.395   6.342
 9245SOL     OW28633   0.747   4.199   3.295
 9245SOL    HW128634   0.832   4.149   3.279
 9245SOL    HW228635   0.767   4.283   3.346
 9246SOL     OW28636   4.527   2.334   0.325
 9246SOL    HW128637   4.593   2.282   0.271
 9246SOL    HW228638   4.514   2.290   0.414
 9247SOL     OW28639   3.124   6.624   2.420
 9247SOL    HW128640   3.167   6.584   2.339
 9247SOL    HW228641   3.058   6.694   2.391
 9248SOL     OW28642   2.640   0.354   6.579
 9248SOL    HW128643   2.649   0.260   6.547
 9248SOL    HW228644   2.719   0.379   6.635
 9249SOL     OW28645   2.832   1.773   6.954
 9249SOL    HW128646   2.919   1.725   6.966
 9249SOL    HW228647   2.773   1.757   0.005
 9250SOL     OW28648   0.418   3.774   1.694
 9250SOL    HW128649   0.470   3.858   1.676
 9250SOL    HW228650   0.394   3.771   1.791
 9251SOL     OW28651   3.446   1.860   0.993
 9251SOL    HW128652   3.374   1.792   0.979
 9251SOL    HW228653   3.405   1.948   1.015
 9252SOL     OW28654   6.101   1.244   5.082
 9252SOL    HW128655   6.045   1.261   5.162
 9252SOL    HW228656   6.198   1.242   5.108
 9253SOL     OW28657   2.566   5.252   3.687
 9253SOL    HW128658   2.546   5.278   3.781
 9253SOL    HW228659   2.640   5.185   3.685
 9254SOL     OW28660   6.687   5.786   1.918
 9254SOL    HW128661   6.690   5.688   1.900
 9254SOL    HW228662   6.757   5.832   1.863
 9255SOL     OW28663   0.448   2.467   1.402
 9255SOL    HW128664   0.521   2.496   1.339
 9255SOL    HW228665   0.426   2.371   1.384
 9256SOL     OW28666   0.954   6.563   0.650
 9256SOL    HW128667   1.017   6.609   0.588
 9256SOL    HW228668   0.875   6.622   0.667
 9257SOL     OW28669   6.416   6.375   5.552
 9257SOL    HW128670   6.498   6.406   5.505
 9257SOL    HW228671   6.440   6.338   5.642
 9258SOL     OW28672   4.882   3.782   3.527
 9258SOL    HW128673   4.889   3.682   3.526
 9258SOL    HW228674   4.886   3.816   3.433
 9259SOL     OW28675   1.431   2.867   6.484
 9259SOL    HW128676   1.483   2.905   6.407
 9259SOL    HW228677   1.334   2.889   6.472
 9260SOL     OW28678   5.560   4.658   5.225
 9260SOL    HW128679   5.496   4.651   5.148
 9260SOL    HW228680   5.632   4.589   5.214
 9261SOL     OW28681   1.215   3.209   0.753
 9261SOL    HW128682   1.118   3.223   0.736
 9261SOL    HW228683   1.257   3.295   0.783
 9262SOL     OW28684   6.716   6.737   5.875
 9262SOL    HW128685   6.738   6.649   5.918
 9262SOL    HW228686   6.751   6.737   5.781
 9263SOL     OW28687   1.906   4.404   3.045
 9263SOL    HW128688   1.937   4.466   2.973
 9263SOL    HW228689   1.873   4.319   3.004
 9264SOL     OW28690   6.205   4.055   5.571
 9264SOL    HW128691   6.176   4.118   5.643
 9264SOL    HW228692   6.125   4.026   5.518
 9265SOL     OW28693   3.854   0.460   2.236
 9265SOL    HW128694   3.757   0.466   2.213
 9265SOL    HW228695   3.865   0.420   2.327
 9266SOL     OW28696   0.309   4.741   0.786
 9266SOL    HW128697   0.298   4.744   0.885
 9266SOL    HW228698   0.316   4.834   0.750
 9267SOL     OW28699   0.025   0.951   3.632
 9267SOL    HW128700   0.084   0.880   3.670
 9267SOL    HW228701   0.010   0.934   3.535
 9268SOL     OW28702   0.025   0.299   0.403
 9268SOL    HW128703   6.965   0.344   0.392
 9268SOL    HW228704   0.056   0.307   0.498
 9269SOL     OW28705   3.658   6.959   1.243
 9269SOL    HW128706   3.757   6.950   1.236
 9269SOL    HW228707   3.618   6.872   1.271
 9270SOL     OW28708   2.113   1.008   4.926
 9270SOL    HW128709   2.027   1.051   4.952
 9270SOL    HW228710   2.184   1.077   4.915
 9271SOL     OW28711   1.250   5.327   5.760
 9271SOL    HW128712   1.184   5.397   5.785
 9271SOL    HW228713   1.312   5.362   5.690
 9272SOL     OW28714   6.613   6.997   6.094
 9272SOL    HW128715   6.646   6.929   6.158
 9272SOL    HW228716   6.530   0.012   6.130
 9273SOL     OW28717   5.547   3.789   3.722
 9273SOL    HW128718   5.570   3.738   3.805
 9273SOL    HW228719   5.550   3.887   3.741
 9274SOL     OW28720   6.627   2.821   2.252
 9274SOL    HW128721   6.637   2.761   2.332
 9274SOL    HW228722   6.573   2.774   2.182
 9275SOL     OW28723   4.284   1.408   0.556
 9275SOL    HW128724   4.382   1.421   0.546
 9275SOL    HW228725   4.262   1.379   0.649
 9276SOL     OW28726   1.630   3.685   1.417
 9276SOL    HW128727   1.586   3.638   1.493
 9276SOL    HW228728   1.613   3.634   1.332
 9277SOL     OW28729   3.469   6.002   2.897
 9277SOL    HW128730   3.504   6.046   2.814
 9277SOL    HW228731   3.420   6.069   2.952
 9278SOL     OW28732   1.139   6.958   4.834
 9278SOL    HW128733   1.173   6.958   4.740
 9278SOL    HW228734   1.214   6.935   4.896
 9279SOL     OW28735   4.207   5.455   2.583
 9279SOL    HW128736   4.184   5.547   2.614
 9279SOL    HW228737   4.126   5.413   2.541
 9280SOL     OW28738   1.319   4.064   2.419
 9280SOL    HW128739   1.338   3.966   2.426
 9280SOL    HW228740   1.222   4.081   2.438
 9281SOL     OW28741   1.377   5.225   0.481
 9281SOL    HW128742   1.313   5.258   0.550
 9281SOL    HW228743   1.366   5.277   0.397
 9282SOL     OW28744   1.925   0.429   3.533
 9282SOL    HW128745   2.024   0.432   3.522
 9282SOL    HW228746   1.885   0.376   3.459
 9283SOL     OW28747   5.053   4.775   6.217
 9283SOL    HW128748   5.088   4.775   6.124
 9283SOL    HW228749   5.056   4.682   6.254
 9284SOL     OW28750   3.604   6.286   1.062
 9284SOL    HW128751   3.635   6.276   0.968
 9284SOL    HW228752   3.588   6.195   1.101
 9285SOL     OW28753   6.574   6.374   3.387
 9285SOL    HW128754   6.544   6.367   3.292
 9285SOL    HW228755   6.546   6.292   3.438
 9286SOL     OW28756   5.214   5.448   2.114
 9286SOL    HW128757   5.232   5.408   2.024
 9286SOL    HW228758   5.300   5.467   2.160
 9287SOL     OW28759   4.279   4.621   6.840
 9287SOL    HW128760   4.339   4.587   6.768
 9287SOL    HW228761   4.326   4.616   6.928
 9288SOL     OW28762   3.200   0.971   4.370
 9288SOL    HW128763   3.240   0.973   4.278
 9288SOL    HW228764   3.145   1.053   4.385
 9289SOL     OW28765   4.471   6.202   2.317
 9289SOL    HW128766   4.485   6.295   2.351
 9289SOL    HW228767   4.376   6.191   2.289
 9290SOL     OW28768   5.513   0.789   3.504
 9290SOL    HW128769   5.572   0.718   3.466
 9290SOL    HW228770   5.523   0.791   3.604
 9291SOL     OW28771   0.306   5.341   5.547
 9291SOL    HW128772   0.321   5.428   5.500
 9291SOL    HW228773   0.208   5.326   5.559
 9292SOL     OW28774   2.511   1.400   0.609
 9292SOL    HW128775   2.458   1.441   0.683
 9292SOL    HW228776   2.604   1.383   0.641
 9293SOL     OW28777   3.587   1.179   6.223
 9293SOL    HW128778   3.622   1.271   6.207
 9293SOL    HW228779   3.612   1.120   6.146
 9294SOL     OW28780   5.548   6.156   6.468
 9294SOL    HW128781   5.625   6.220   6.470
 9294SOL    HW228782   5.576   6.070   6.509
 9295SOL     OW28783   6.299   1.303   3.024
 9295SOL    HW128784   6.318   1.237   3.096
 9295SOL    HW228785   6.385   1.345   2.993
 9296SOL     OW28786   1.832   2.625   5.471
 9296SOL    HW128787   1.836   2.694   5.544
 9296SOL    HW228788   1.760   2.559   5.491
 9297SOL     OW28789   0.204   5.144   1.899
 9297SOL    HW128790   0.212   5.164   1.802
 9297SOL    HW228791   0.293   5.157   1.943
 9298SOL     OW28792   6.366   3.803   0.703
 9298SOL    HW128793   6.436   3.732   0.692
 9298SOL    HW228794   6.277   3.767   0.679
 9299SOL     OW28795   4.273   2.269   3.825
 9299SOL    HW128796   4.322   2.285   3.910
 9299SOL    HW228797   4.292   2.343   3.760
 9300SOL     OW28798   2.559   6.052   5.096
 9300SOL    HW128799   2.587   5.962   5.130
 9300SOL    HW228800   2.468   6.074   5.131
 9301SOL     OW28801   0.637   3.303   4.141
 9301SOL    HW128802   0.674   3.381   4.191
 9301SOL    HW228803   0.553   3.272   4.186
 9302SOL     OW28804   3.407   5.955   3.919
 9302SOL    HW128805   3.441   5.884   3.980
 9302SOL    HW228806   3.402   5.920   3.826
 9303SOL     OW28807   3.016   3.770   0.584
 9303SOL    HW128808   3.103   3.819   0.580
 9303SOL    HW228809   2.997   3.743   0.678
 9304SOL     OW28810   6.083   5.641   6.923
 9304SOL    HW128811   5.995   5.687   6.939
 9304SOL    HW228812   6.101   5.578   6.999
 9305SOL     OW28813   2.531   1.837   1.796
 9305SOL    HW128814   2.448   1.866   1.749
 9305SOL    HW228815   2.570   1.916   1.845
 9306SOL     OW28816   6.102   7.003   3.038
 9306SOL    HW128817   6.012   6.962   3.050
 9306SOL    HW228818   6.167   6.932   3.011
 9307SOL     OW28819   2.323   3.308   0.726
 9307SOL    HW128820   2.309   3.403   0.757
 9307SOL    HW228821   2.247   3.252   0.757
 9308SOL     OW28822   2.699   2.991   0.672
 9308SOL    HW128823   2.659   3.074   0.632
 9308SOL    HW228824   2.698   2.998   0.771
 9309SOL     OW28825   3.209   5.278   6.400
 9309SOL    HW128826   3.176   5.261   6.493
 9309SOL    HW228827   3.195   5.196   6.345
 9310SOL     OW28828   6.146   0.090   6.043
 9310SOL    HW128829   6.066   0.058   5.992
 9310SOL    HW228830   6.220   0.110   5.979
 9311SOL     OW28831   5.203   4.453   0.334
 9311SOL    HW128832   5.230   4.420   0.243
 9311SOL    HW228833   5.219   4.551   0.340
 9312SOL     OW28834   6.438   3.075   4.406
 9312SOL    HW128835   6.401   3.003   4.348
 9312SOL    HW228836   6.381   3.156   4.399
 9313SOL     OW28837   7.007   0.338   1.989
 9313SOL    HW128838   0.037   0.326   2.070
 9313SOL    HW228839   6.968   0.430   1.991
 9314SOL     OW28840   5.611   4.073   2.319
 9314SOL    HW128841   5.583   4.168   2.321
 9314SOL    HW228842   5.602   4.037   2.226
 9315SOL     OW28843   5.097   5.300   5.103
 9315SOL    HW128844   5.109   5.354   5.186
 9315SOL    HW228845   5.106   5.360   5.023
 9316SOL     OW28846   5.217   5.986   6.887
 9316SOL    HW128847   5.292   6.023   6.942
 9316SOL    HW228848   5.252   5.956   6.798
 9317SOL     OW28849   3.088   6.224   3.410
 9317SOL    HW128850   3.102   6.317   3.445
 9317SOL    HW228851   3.006   6.185   3.450
 9318SOL     OW28852   3.315   6.742   4.139
 9318SOL    HW128853   3.316   6.720   4.042
 9318SOL    HW228854   3.308   6.841   4.151
 9319SOL     OW28855   3.814   2.500   0.719
 9319SOL    HW128856   3.828   2.556   0.800
 9319SOL    HW228857   3.716   2.489   0.703
 9320SOL     OW28858   6.710   0.890   6.552
 9320SOL    HW128859   6.716   0.826   6.475
 9320SOL    HW228860   6.749   0.848   6.634
 9321SOL     OW28861   1.184   2.514   4.135
 9321SOL    HW128862   1.223   2.501   4.226
 9321SOL    HW228863   1.157   2.610   4.124
 9322SOL     OW28864   5.361   3.436   0.480
 9322SOL    HW128865   5.317   3.367   0.424
 9322SOL    HW228866   5.296   3.511   0.498
 9323SOL     OW28867   0.139   3.065   5.198
 9323SOL    HW128868   0.072   3.068   5.272
 9323SOL    HW228869   0.162   2.970   5.178
 9324SOL     OW28870   0.516   3.863   1.345
 9324SOL    HW128871   0.477   3.789   1.290
 9324SOL    HW228872   0.442   3.925   1.374
 9325SOL     OW28873   6.750   3.040   2.742
 9325SOL    HW128874   6.708   3.031   2.652
 9325SOL    HW228875   6.745   2.952   2.790
 9326SOL     OW28876   3.920   4.798   1.204
 9326SOL    HW128877   3.967   4.884   1.186
 9326SOL    HW228878   3.981   4.736   1.253
 9327SOL     OW28879   1.901   2.406   3.228
 9327SOL    HW128880   1.825   2.341   3.227
 9327SOL    HW228881   1.967   2.380   3.157
 9328SOL     OW28882   1.174   0.533   3.763
 9328SOL    HW128883   1.211   0.580   3.683
 9328SOL    HW228884   1.194   0.436   3.757
 9329SOL     OW28885   1.505   5.364   6.209
 9329SOL    HW128886   1.471   5.272   6.190
 9329SOL    HW228887   1.458   5.430   6.150
 9330SOL     OW28888   0.584   6.677   0.541
 9330SOL    HW128889   0.627   6.711   0.624
 9330SOL    HW228890   0.605   6.579   0.530
 9331SOL     OW28891   2.947   5.676   4.891
 9331SOL    HW128892   2.949   5.726   4.804
 9331SOL    HW228893   2.942   5.741   4.967
 9332SOL     OW28894   5.980   6.637   0.754
 9332SOL    HW128895   5.884   6.622   0.779
 9332SOL    HW228896   6.027   6.549   0.749
 9333SOL     OW28897   0.631   5.711   1.442
 9333SOL    HW128898   0.629   5.743   1.348
 9333SOL    HW228899   0.707   5.647   1.453
 9334SOL     OW28900   0.411   6.079   6.642
 9334SOL    HW128901   0.432   6.039   6.731
 9334SOL    HW228902   0.494   6.116   6.601
 9335SOL     OW28903   6.825   3.740   1.116
 9335SOL    HW128904   6.916   3.701   1.109
 9335SOL    HW228905   6.830   3.833   1.154
 9336SOL     OW28906   4.520   5.694   5.773
 9336SOL    HW128907   4.612   5.657   5.777
 9336SOL    HW228908   4.488   5.696   5.678
 9337SOL     OW28909   3.272   1.838   4.956
 9337SOL    HW128910   3.173   1.831   4.947
 9337SOL    HW228911   3.295   1.918   5.011
 9338SOL     OW28912   4.378   0.329   2.031
 9338SOL    HW128913   4.281   0.336   2.057
 9338SOL    HW228914   4.386   0.343   1.932
 9339SOL     OW28915   0.160   3.692   4.258
 9339SOL    HW128916   0.092   3.633   4.213
 9339SOL    HW228917   0.121   3.783   4.271
 9340SOL     OW28918   3.063   4.820   1.952
 9340SOL    HW128919   2.988   4.755   1.964
 9340SOL    HW228920   3.137   4.798   2.014
 9341SOL     OW28921   5.080   5.435   1.735
 9341SOL    HW128922   5.148   5.371   1.772
 9341SOL    HW228923   5.111   5.529   1.749
 9342SOL     OW28924   2.971   0.866   4.753
 9342SOL    HW128925   3.069   0.852   4.744
 9342SOL    HW228926   2.926   0.778   4.771
 9343SOL     OW28927   5.673   3.833   1.076
 9343SOL    HW128928   5.680   3.932   1.083
 9343SOL    HW228929   5.764   3.793   1.070
 9344SOL     OW28930   5.513   6.045   5.075
 9344SOL    HW128931   5.555   6.050   5.165
 9344SOL    HW228932   5.484   6.136   5.046
 9345SOL     OW28933   0.019   5.137   6.846
 9345SOL    HW128934   0.058   5.114   6.935
 9345SOL    HW228935   7.000   5.225   6.852
 9346SOL     OW28936   5.607   0.451   2.214
 9346SOL    HW128937   5.569   0.405   2.134
 9346SOL    HW228938   5.535   0.466   2.282
 9347SOL     OW28939   5.433   0.315   1.980
 9347SOL    HW128940   5.424   0.243   1.911
 9347SOL    HW228941   5.419   0.276   2.071
 9348SOL     OW28942   2.123   4.769   2.362
 9348SOL    HW128943   2.214   4.805   2.342
 9348SOL    HW228944   2.130   4.672   2.386
 9349SOL     OW28945   1.548   4.400   1.506
 9349SOL    HW128946   1.588   4.324   1.455
 9349SOL    HW228947   1.589   4.405   1.596
 9350SOL     OW28948   6.542   0.493   0.057
 9350SOL    HW128949   6.488   0.577   0.061
 9350SOL    HW228950   6.485   0.415   0.081
 9351SOL     OW28951   3.584   4.525   6.480
 9351SOL    HW128952   3.503   4.467   6.494
 9351SOL    HW228953   3.660   4.489   6.534
 9352SOL     OW28954   2.390   1.672   6.642
 9352SOL    HW128955   2.335   1.683   6.725
 9352SOL    HW228956   2.487   1.676   6.666
 9353SOL     OW28957   1.436   3.070   2.393
 9353SOL    HW128958   1.487   3.100   2.313
 9353SOL    HW228959   1.485   3.096   2.476
 9354SOL     OW28960   5.404   2.149   2.618
 9354SOL    HW128961   5.361   2.071   2.665
 9354SOL    HW228962   5.334   2.198   2.565
 9355SOL     OW28963   0.763   2.656   2.127
 9355SOL    HW128964   0.695   2.700   2.068
 9355SOL    HW228965   0.718   2.623   2.210
 9356SOL     OW28966   4.540   2.544   1.936
 9356SOL    HW128967   4.533   2.629   1.884
 9356SOL    HW228968   4.619   2.549   1.997
 9357SOL     OW28969   1.638   3.959   6.849
 9357SOL    HW128970   1.693   3.946   6.767
 9357SOL    HW228971   1.569   3.887   6.855
 9358SOL     OW28972   4.934   4.966   3.599
 9358SOL    HW128973   5.000   4.976   3.674
 9358SOL    HW228974   4.921   4.869   3.578
 9359SOL     OW28975   4.034   5.905   5.924
 9359SOL    HW128976   4.122   5.927   5.965
 9359SOL    HW228977   4.017   5.806   5.933
 9360SOL     OW28978   0.597   0.730   5.509
 9360SOL    HW128979   0.692   0.741   5.480
 9360SOL    HW228980   0.556   0.653   5.462
 9361SOL     OW28981   1.920   1.205   2.452
 9361SOL    HW128982   1.932   1.304   2.450
 9361SOL    HW228983   1.888   1.173   2.363
 9362SOL     OW28984   1.330   2.094   3.066
 9362SOL    HW128985   1.263   2.075   2.995
 9362SOL    HW228986   1.282   2.122   3.150
 9363SOL     OW28987   0.534   6.468   2.363
 9363SOL    HW128988   0.596   6.389   2.373
 9363SOL    HW228989   0.452   6.439   2.315
 9364SOL     OW28990   5.617   4.151   0.943
 9364SOL    HW128991   5.591   4.151   1.040
 9364SOL    HW228992   5.716   4.139   0.936
 9365SOL     OW28993   3.070   1.211   4.366
 9365SOL    HW128994   3.053   1.184   4.461
 9365SOL    HW228995   3.035   1.303   4.350
 9366SOL     OW28996   2.446   1.661   1.276
 9366SOL    HW128997   2.432   1.748   1.230
 9366SOL    HW228998   2.521   1.669   1.342
 9367SOL     OW28999   4.565   6.213   4.390
 9367SOL    HW129000   4.468   6.195   4.377
 9367SOL    HW229001   4.613   6.205   4.302
 9368SOL     OW29002   6.094   3.067   1.014
 9368SOL    HW129003   6.157   3.002   1.057
 9368SOL    HW229004   6.136   3.158   1.013
 9369SOL     OW29005   0.574   3.062   6.088
 9369SOL    HW129006   0.635   2.984   6.100
 9369SOL    HW229007   0.511   3.044   6.013
 9370SOL     OW29008   5.955   5.511   2.536
 9370SOL    HW129009   5.887   5.479   2.602
 9370SOL    HW229010   6.020   5.437   2.518
 9371SOL     OW29011   1.360   0.193   0.446
 9371SOL    HW129012   1.373   0.190   0.347
 9371SOL    HW229013   1.446   0.172   0.492
 9372SOL     OW29014   5.038   5.345   0.971
 9372SOL    HW129015   5.059   5.438   0.999
 9372SOL    HW229016   4.949   5.343   0.925
 9373SOL     OW29017   4.763   2.918   4.876
 9373SOL    HW129018   4.677   2.954   4.839
 9373SOL    HW229019   4.804   2.986   4.937
 9374SOL     OW29020   4.571   4.700   6.633
 9374SOL    HW129021   4.500   4.770   6.642
 9374SOL    HW229022   4.660   4.740   6.654
 9375SOL     OW29023   6.400   6.003   3.857
 9375SOL    HW129024   6.487   5.979   3.813
 9375SOL    HW229025   6.350   5.919   3.880
 9376SOL     OW29026   2.615   3.401   1.732
 9376SOL    HW129027   2.670   3.357   1.804
 9376SOL    HW229028   2.527   3.428   1.771
 9377SOL     OW29029   6.900   4.280   3.505
 9377SOL    HW129030   6.806   4.249   3.520
 9377SOL    HW229031   6.913   4.304   3.409
 9378SOL     OW29032   3.816   5.430   1.649
 9378SOL    HW129033   3.813   5.425   1.749
 9378SOL    HW229034   3.894   5.486   1.620
 9379SOL     OW29035   4.449   4.626   5.303
 9379SOL    HW129036   4.399   4.594   5.223
 9379SOL    HW229037   4.444   4.556   5.375
 9380SOL     OW29038   0.196   5.477   6.381
 9380SOL    HW129039   0.132   5.401   6.372
 9380SOL    HW229040   0.285   5.442   6.411
 9381SOL     OW29041   0.403   0.942   0.211
 9381SOL    HW129042   0.304   0.956   0.202
 9381SOL    HW229043   0.444   1.024   0.251
 9382SOL     OW29044   6.374   2.786   2.417
 9382SOL    HW129045   6.289   2.835   2.438
 9382SOL    HW229046   6.421   2.831   2.342
 9383SOL     OW29047   0.264   5.020   0.994
 9383SOL    HW129048   0.266   5.119   1.005
 9383SOL    HW229049   0.233   4.978   1.079
 9384SOL     OW29050   3.114   6.702   1.811
 9384SOL    HW129051   3.162   6.746   1.886
 9384SOL    HW229052   3.035   6.758   1.784
 9385SOL     OW29053   4.275   0.024   3.386
 9385SOL    HW129054   4.369   0.055   3.378
 9385SOL    HW229055   4.249   7.003   3.302
 9386SOL     OW29056   3.705   0.061   4.482
 9386SOL    HW129057   3.627   0.070   4.543
 9386SOL    HW229058   3.675   0.023   4.394
 9387SOL     OW29059   4.520   5.900   1.017
 9387SOL    HW129060   4.524   5.999   1.025
 9387SOL    HW229061   4.611   5.865   0.996
 9388SOL     OW29062   6.725   0.036   1.184
 9388SOL    HW129063   6.778   0.083   1.255
 9388SOL    HW229064   6.640   0.086   1.167
 9389SOL     OW29065   3.203   1.321   0.726
 9389SOL    HW129066   3.170   1.408   0.689
 9389SOL    HW229067   3.247   1.337   0.814
 9390SOL     OW29068   4.127   6.636   1.210
 9390SOL    HW129069   4.179   6.636   1.124
 9390SOL    HW229070   4.031   6.655   1.191
 9391SOL     OW29071   5.420   0.226   3.834
 9391SOL    HW129072   5.505   0.270   3.864
 9391SOL    HW229073   5.349   0.241   3.902
 9392SOL     OW29074   0.639   0.261   5.053
 9392SOL    HW129075   0.732   0.284   5.022
 9392SOL    HW229076   0.589   0.345   5.074
 9393SOL     OW29077   5.151   1.922   5.012
 9393SOL    HW129078   5.104   2.001   5.053
 9393SOL    HW229079   5.201   1.952   4.931
 9394SOL     OW29080   6.334   1.599   2.426
 9394SOL    HW129081   6.416   1.650   2.402
 9394SOL    HW229082   6.357   1.503   2.441
 9395SOL     OW29083   1.516   2.958   0.211
 9395SOL    HW129084   1.437   2.932   0.266
 9395SOL    HW229085   1.568   2.876   0.186
 9396SOL     OW29086   0.896   1.363   5.005
 9396SOL    HW129087   0.931   1.445   5.050
 9396SOL    HW229088   0.814   1.331   5.052
 9397SOL     OW29089   1.910   1.933   1.308
 9397SOL    HW129090   1.919   1.971   1.216
 9397SOL    HW229091   1.983   1.866   1.323
 9398SOL     OW29092   2.680   1.955   1.462
 9398SOL    HW129093   2.754   2.016   1.490
 9398SOL    HW229094   2.592   1.994   1.491
 9399SOL     OW29095   0.500   0.940   5.670
 9399SOL    HW129096   0.538   0.864   5.616
 9399SOL    HW229097   0.493   0.913   5.766
 9400SOL     OW29098   4.739   1.659   4.402
 9400SOL    HW129099   4.660   1.671   4.343
 9400SOL    HW229100   4.717   1.688   4.495
 9401SOL     OW29101   4.470   0.231   4.264
 9401SOL    HW129102   4.521   0.190   4.340
 9401SOL    HW229103   4.372   0.223   4.281
 9402SOL     OW29104   2.662   4.339   6.269
 9402SOL    HW129105   2.591   4.296   6.325
 9402SOL    HW229106   2.689   4.426   6.310
 9403SOL     OW29107   6.457   0.083   3.600
 9403SOL    HW129108   6.422   0.171   3.635
 9403SOL    HW229109   6.408   0.059   3.517
 9404SOL     OW29110   2.466   4.502   4.571
 9404SOL    HW129111   2.425   4.428   4.624
 9404SOL    HW229112   2.524   4.558   4.631
 9405SOL     OW29113   0.415   0.610   1.035
 9405SOL    HW129114   0.352   0.650   1.101
 9405SOL    HW229115   0.366   0.591   0.950
 9406SOL     OW29116   6.523   2.105   5.825
 9406SOL    HW129117   6.502   2.118   5.922
 9406SOL    HW229118   6.586   2.176   5.795
 9407SOL     OW29119   3.309   5.336   3.636
 9407SOL    HW129120   3.354   5.309   3.721
 9407SOL    HW229121   3.368   5.400   3.586
 9408SOL     OW29122   3.754   1.552   0.163
 9408SOL    HW129123   3.738   1.548   0.064
 9408SOL    HW229124   3.833   1.496   0.187
 9409SOL     OW29125   6.129   3.954   3.707
 9409SOL    HW129126   6.107   3.991   3.797
 9409SOL    HW229127   6.175   4.023   3.652
 9410SOL     OW29128   4.401   7.019   1.330
 9410SOL    HW129129   4.426   0.074   1.381
 9410SOL    HW229130   4.481   6.960   1.321
 9411SOL     OW29131   5.353   4.365   2.545
 9411SOL    HW129132   5.381   4.442   2.486
 9411SOL    HW229133   5.285   4.397   2.611
 9412SOL     OW29134   6.733   1.605   2.954
 9412SOL    HW129135   6.730   1.542   3.032
 9412SOL    HW229136   6.731   1.552   2.869
 9413SOL     OW29137   4.329   5.460   3.734
 9413SOL    HW129138   4.421   5.434   3.765
 9413SOL    HW229139   4.288   5.385   3.682
 9414SOL     OW29140   2.415   0.174   1.266
 9414SOL    HW129141   2.373   0.134   1.185
 9414SOL    HW229142   2.404   0.273   1.264
 9415SOL     OW29143   1.034   6.424   1.674
 9415SOL    HW129144   0.980   6.407   1.592
 9415SOL    HW229145   1.125   6.384   1.663
 9416SOL     OW29146   1.656   2.202   2.318
 9416SOL    HW129147   1.752   2.175   2.306
 9416SOL    HW229148   1.635   2.209   2.415
 9417SOL     OW29149   0.906   0.518   4.137
 9417SOL    HW129150   0.905   0.578   4.217
 9417SOL    HW229151   0.814   0.484   4.119
 9418SOL     OW29152   3.904   4.311   0.476
 9418SOL    HW129153   3.917   4.321   0.575
 9418SOL    HW229154   3.814   4.346   0.451
 9419SOL     OW29155   3.084   6.086   3.187
 9419SOL    HW129156   3.076   6.156   3.257
 9419SOL    HW229157   2.994   6.052   3.163
 9420SOL     OW29158   1.402   0.523   2.612
 9420SOL    HW129159   1.425   0.620   2.619
 9420SOL    HW229160   1.451   0.482   2.535
 9421SOL     OW29161   1.953   4.597   5.034
 9421SOL    HW129162   2.007   4.681   5.042
 9421SOL    HW229163   2.014   4.518   5.043
 9422SOL     OW29164   3.368   1.106   2.519
 9422SOL    HW129165   3.458   1.122   2.560
 9422SOL    HW229166   3.369   1.018   2.470
 9423SOL     OW29167   4.842   6.893   5.832
 9423SOL    HW129168   4.763   6.886   5.771
 9423SOL    HW229169   4.816   6.863   5.924
 9424SOL     OW29170   3.845   5.822   3.690
 9424SOL    HW129171   3.902   5.740   3.702
 9424SOL    HW229172   3.750   5.795   3.677
 9425SOL     OW29173   0.424   5.645   2.356
 9425SOL    HW129174   0.383   5.662   2.445
 9425SOL    HW229175   0.439   5.731   2.308
 9426SOL     OW29176   3.631   6.215   0.784
 9426SOL    HW129177   3.574   6.242   0.707
 9426SOL    HW229178   3.713   6.168   0.751
 9427SOL     OW29179   4.020   4.929   4.764
 9427SOL    HW129180   4.111   4.968   4.753
 9427SOL    HW229181   4.011   4.847   4.707
 9428SOL     OW29182   4.307   6.775   1.833
 9428SOL    HW129183   4.210   6.753   1.829
 9428SOL    HW229184   4.360   6.701   1.790
 9429SOL     OW29185   0.431   3.184   2.720
 9429SOL    HW129186   0.528   3.159   2.719
 9429SOL    HW229187   0.415   3.257   2.653
 9430SOL     OW29188   6.176   6.809   1.783
 9430SOL    HW129189   6.105   6.738   1.784
 9430SOL    HW229190   6.227   6.806   1.869
 9431SOL     OW29191   5.569   4.505   1.019
 9431SOL    HW129192   5.489   4.545   0.975
 9431SOL    HW229193   5.650   4.521   0.963
 9432SOL     OW29194   6.064   6.374   2.559
 9432SOL    HW129195   6.047   6.419   2.471
 9432SOL    HW229196   6.123   6.431   2.615
 9433SOL     OW29197   2.252   5.297   4.402
 9433SOL    HW129198   2.350   5.317   4.400
 9433SOL    HW229199   2.201   5.380   4.425
 9434SOL     OW29200   5.780   4.535   3.943
 9434SOL    HW129201   5.850   4.558   4.012
 9434SOL    HW229202   5.714   4.609   3.937
 9435SOL     OW29203   3.064   2.736   5.681
 9435SOL    HW129204   3.133   2.679   5.725
 9435SOL    HW229205   3.007   2.680   5.621
 9436SOL     OW29206   3.767   2.296   5.294
 9436SOL    HW129207   3.687   2.354   5.282
 9436SOL    HW229208   3.782   2.279   5.392
 9437SOL     OW29209   0.578   6.388   4.869
 9437SOL    HW129210   0.487   6.355   4.845
 9437SOL    HW229211   0.646   6.339   4.815
 9438SOL     OW29212   0.423   6.657   1.472
 9438SOL    HW129213   0.354   6.634   1.404
 9438SOL    HW229214   0.403   6.748   1.510
 9439SOL     OW29215   1.703   2.516   1.820
 9439SOL    HW129216   1.746   2.508   1.910
 9439SOL    HW229217   1.774   2.518   1.750
 9440SOL     OW29218   3.603   6.129   3.377
 9440SOL    HW129219   3.507   6.157   3.376
 9440SOL    HW229220   3.608   6.030   3.386
 9441SOL     OW29221   1.383   5.565   6.044
 9441SOL    HW129222   1.289   5.534   6.054
 9441SOL    HW229223   1.384   5.660   6.013
 9442SOL     OW29224   1.769   1.881   1.999
 9442SOL    HW129225   1.772   1.958   1.935
 9442SOL    HW229226   1.732   1.800   1.953
 9443SOL     OW29227   0.760   2.043   1.476
 9443SOL    HW129228   0.746   2.090   1.389
 9443SOL    HW229229   0.751   2.109   1.551
 9444SOL     OW29230   1.691   4.570   4.999
 9444SOL    HW129231   1.655   4.510   5.070
 9444SOL    HW229232   1.790   4.579   5.009
 9445SOL     OW29233   5.382   1.872   2.432
 9445SOL    HW129234   5.336   1.907   2.351
 9445SOL    HW229235   5.470   1.832   2.406
 9446SOL     OW29236   4.772   5.176   0.499
 9446SOL    HW129237   4.746   5.150   0.406
 9446SOL    HW229238   4.795   5.094   0.552
 9447SOL     OW29239   5.925   1.180   1.807
 9447SOL    HW129240   5.886   1.151   1.894
 9447SOL    HW229241   5.861   1.162   1.733
 9448SOL     OW29242   6.896   6.647   0.660
 9448SOL    HW129243   6.850   6.688   0.740
 9448SOL    HW229244   6.994   6.666   0.665
 9449SOL     OW29245   5.996   5.159   5.116
 9449SOL    HW129246   6.024   5.247   5.154
 9449SOL    HW229247   6.052   5.086   5.156
 9450SOL     OW29248   1.267   6.359   4.264
 9450SOL    HW129249   1.334   6.295   4.225
 9450SOL    HW229250   1.283   6.368   4.362
 9451SOL     OW29251   3.953   3.502   4.455
 9451SOL    HW129252   3.877   3.565   4.439
 9451SOL    HW229253   4.011   3.536   4.529
 9452SOL     OW29254   3.350   4.515   0.914
 9452SOL    HW129255   3.282   4.509   0.841
 9452SOL    HW229256   3.339   4.437   0.976
 9453SOL     OW29257   2.737   6.527   1.105
 9453SOL    HW129258   2.644   6.551   1.134
 9453SOL    HW229259   2.760   6.577   1.022
 9454SOL     OW29260   2.426   1.774   6.183
 9454SOL    HW129261   2.329   1.790   6.202
 9454SOL    HW229262   2.465   1.714   6.252
 9455SOL     OW29263   1.399   1.764   1.252
 9455SOL    HW129264   1.384   1.859   1.279
 9455SOL    HW229265   1.492   1.754   1.217
 9456SOL     OW29266   1.290   2.908   0.356
 9456SOL    HW129267   1.196   2.930   0.381
 9456SOL    HW229268   1.303   2.809   0.358
 9457SOL     OW29269   6.267   3.786   0.138
 9457SOL    HW129270   6.280   3.885   0.142
 9457SOL    HW229271   6.267   3.748   0.230
 9458SOL     OW29272   1.675   5.850   3.949
 9458SOL    HW129273   1.667   5.822   3.853
 9458SOL    HW229274   1.772   5.846   3.976
 9459SOL     OW29275   3.648   5.867   0.873
 9459SOL    HW129276   3.587   5.835   0.801
 9459SOL    HW229277   3.597   5.924   0.937
 9460SOL     OW29278   1.195   3.437   5.060
 9460SOL    HW129279   1.256   3.491   5.118
 9460SOL    HW229280   1.111   3.488   5.043
 9461SOL     OW29281   1.114   0.169   2.384
 9461SOL    HW129282   1.046   0.175   2.311
 9461SOL    HW229283   1.141   0.261   2.413
 9462SOL     OW29284   0.084   3.040   3.403
 9462SOL    HW129285   0.075   3.005   3.496
 9462SOL    HW229286   0.148   2.983   3.352
 9463SOL     OW29287   5.412   1.977   5.686
 9463SOL    HW129288   5.315   1.981   5.660
 9463SOL    HW229289   5.466   1.948   5.607
 9464SOL     OW29290   3.754   6.919   6.247
 9464SOL    HW129291   3.841   6.883   6.214
 9464SOL    HW229292   3.753   7.019   6.236
 9465SOL     OW29293   4.602   0.223   4.029
 9465SOL    HW129294   4.540   0.163   3.978
 9465SOL    HW229295   4.566   0.236   4.121
 9466SOL     OW29296   3.366   2.007   0.531
 9466SOL    HW129297   3.296   1.970   0.592
 9466SOL    HW229298   3.324   2.031   0.443
 9467SOL     OW29299   0.730   3.268   2.442
 9467SOL    HW129300   0.798   3.260   2.515
 9467SOL    HW229301   0.744   3.196   2.375
 9468SOL     OW29302   0.787   2.999   6.389
 9468SOL    HW129303   0.736   2.958   6.313
 9468SOL    HW229304   0.842   3.075   6.355
 9469SOL     OW29305   0.865   3.971   2.360
 9469SOL    HW129306   0.841   4.068   2.371
 9469SOL    HW229307   0.850   3.944   2.265
 9470SOL     OW29308   5.995   3.650   1.868
 9470SOL    HW129309   5.925   3.603   1.922
 9470SOL    HW229310   6.033   3.725   1.922
 9471SOL     OW29311   0.248   2.302   6.006
 9471SOL    HW129312   0.272   2.327   6.100
 9471SOL    HW229313   0.239   2.203   5.999
 9472SOL     OW29314   6.138   2.072   5.187
 9472SOL    HW129315   6.124   2.038   5.095
 9472SOL    HW229316   6.109   2.003   5.253
 9473SOL     OW29317   2.668   4.609   5.373
 9473SOL    HW129318   2.687   4.544   5.299
 9473SOL    HW229319   2.608   4.566   5.440
 9474SOL     OW29320   3.680   5.402   4.511
 9474SOL    HW129321   3.667   5.303   4.520
 9474SOL    HW229322   3.645   5.448   4.592
 9475SOL     OW29323   2.552   3.337   1.376
 9475SOL    HW129324   2.561   3.337   1.475
 9475SOL    HW229325   2.575   3.428   1.341
 9476SOL     OW29326   2.723   3.198   5.593
 9476SOL    HW129327   2.815   3.229   5.614
 9476SOL    HW229328   2.695   3.232   5.503
 9477SOL     OW29329   0.821   2.359   0.925
 9477SOL    HW129330   0.908   2.408   0.915
 9477SOL    HW229331   0.748   2.412   0.882
 9478SOL     OW29332   5.747   3.898   6.618
 9478SOL    HW129333   5.701   3.974   6.571
 9478SOL    HW229334   5.827   3.870   6.565
 9479SOL     OW29335   5.630   4.897   5.095
 9479SOL    HW129336   5.543   4.876   5.051
 9479SOL    HW229337   5.644   4.836   5.172
 9480SOL     OW29338   6.986   3.611   6.251
 9480SOL    HW129339   7.025   3.646   6.166
 9480SOL    HW229340   6.982   3.511   6.247
 9481SOL     OW29341   1.195   2.909   3.713
 9481SOL    HW129342   1.221   2.973   3.785
 9481SOL    HW229343   1.278   2.876   3.667
 9482SOL     OW29344   4.284   1.787   1.838
 9482SOL    HW129345   4.303   1.723   1.764
 9482SOL    HW229346   4.249   1.737   1.918
 9483SOL     OW29347   1.582   1.088   0.756
 9483SOL    HW129348   1.632   1.013   0.799
 9483SOL    HW229349   1.646   1.162   0.735
 9484SOL     OW29350   6.993   0.084   3.602
 9484SOL    HW129351   7.010   0.137   3.685
 9484SOL    HW229352   6.904   0.109   3.564
 9485SOL     OW29353   6.524   0.367   2.841
 9485SOL    HW129354   6.433   0.335   2.816
 9485SOL    HW229355   6.564   0.419   2.766
 9486SOL     OW29356   2.583   6.829   1.044
 9486SOL    HW129357   2.663   6.797   0.995
 9486SOL    HW229358   2.534   6.751   1.083
 9487SOL     OW29359   3.700   2.987   3.393
 9487SOL    HW129360   3.710   2.939   3.480
 9487SOL    HW229361   3.609   2.971   3.356
 9488SOL     OW29362   1.669   6.998   1.511
 9488SOL    HW129363   1.726   0.033   1.564
 9488SOL    HW229364   1.638   6.923   1.569
 9489SOL     OW29365   2.592   5.072   1.044
 9489SOL    HW129366   2.613   4.990   0.991
 9489SOL    HW229367   2.632   5.064   1.135
 9490SOL     OW29368   4.842   1.815   0.529
 9490SOL    HW129369   4.899   1.879   0.580
 9490SOL    HW229370   4.898   1.739   0.495
 9491SOL     OW29371   5.340   5.464   6.747
 9491SOL    HW129372   5.272   5.451   6.819
 9491SOL    HW229373   5.426   5.421   6.773
 9492SOL     OW29374   3.181   5.834   1.272
 9492SOL    HW129375   3.159   5.798   1.363
 9492SOL    HW229376   3.101   5.825   1.213
 9493SOL     OW29377   4.711   5.779   2.713
 9493SOL    HW129378   4.656   5.696   2.718
 9493SOL    HW229379   4.754   5.796   2.801
 9494SOL     OW29380   3.543   2.387   7.024
 9494SOL    HW129381   3.620   2.438   0.036
 9494SOL    HW229382   3.481   2.450   6.979
 9495SOL     OW29383   5.250   2.282   4.249
 9495SOL    HW129384   5.286   2.310   4.160
 9495SOL    HW229385   5.263   2.357   4.315
 9496SOL     OW29386   0.429   4.585   6.631
 9496SOL    HW129387   0.491   4.599   6.708
 9496SOL    HW229388   0.336   4.613   6.657
 9497SOL     OW29389   0.941   6.517   6.236
 9497SOL    HW129390   0.968   6.572   6.157
 9497SOL    HW229391   1.001   6.538   6.313
 9498SOL     OW29392   4.263   6.728   6.773
 9498SOL    HW129393   4.337   6.796   6.774
 9498SOL    HW229394   4.260   6.683   6.684
 9499SOL     OW29395   4.742   3.795   5.319
 9499SOL    HW129396   4.716   3.716   5.264
 9499SOL    HW229397   4.779   3.763   5.407
 9500SOL     OW29398   3.958   5.876   1.125
 9500SOL    HW129399   3.943   5.877   1.026
 9500SOL    HW229400   3.871   5.888   1.172
 9501SOL     OW29401   3.635   1.643   5.067
 9501SOL    HW129402   3.710   1.686   5.016
 9501SOL    HW229403   3.547   1.678   5.034
 9502SOL     OW29404   4.512   2.958   6.094
 9502SOL    HW129405   4.539   2.959   6.191
 9502SOL    HW229406   4.566   2.888   6.046
 9503SOL     OW29407   0.732   6.784   1.175
 9503SOL    HW129408   0.779   6.860   1.129
 9503SOL    HW229409   0.633   6.796   1.166
 9504SOL     OW29410   0.149   3.081   0.970
 9504SOL    HW129411   0.193   3.058   1.057
 9504SOL    HW229412   0.176   3.015   0.900
 9505SOL     OW29413   5.297   3.295   3.222
 9505SOL    HW129414   5.327   3.225   3.158
 9505SOL    HW229415   5.206   3.328   3.197
 9506SOL     OW29416   6.766   2.050   1.021
 9506SOL    HW129417   6.706   2.021   1.096
 9506SOL    HW229418   6.718   2.040   0.934
 9507SOL     OW29419   1.438   3.383   5.539
 9507SOL    HW129420   1.360   3.322   5.554
 9507SOL    HW229421   1.499   3.343   5.471
 9508SOL     OW29422   3.786   1.374   5.751
 9508SOL    HW129423   3.695   1.349   5.784
 9508SOL    HW229424   3.796   1.343   5.656
 9509SOL     OW29425   3.045   6.494   5.717
 9509SOL    HW129426   3.013   6.550   5.640
 9509SOL    HW229427   2.995   6.521   5.800
 9510SOL     OW29428   6.834   4.092   2.504
 9510SOL    HW129429   6.797   4.035   2.578
 9510SOL    HW229430   6.905   4.041   2.455
 9511SOL     OW29431   2.229   1.776   1.684
 9511SOL    HW129432   2.146   1.720   1.678
 9511SOL    HW229433   2.219   1.855   1.623
 9512SOL     OW29434   1.512   3.644   5.564
 9512SOL    HW129435   1.476   3.551   5.571
 9512SOL    HW229436   1.554   3.656   5.474
 9513SOL     OW29437   3.168   4.933   3.660
 9513SOL    HW129438   3.088   4.898   3.611
 9513SOL    HW229439   3.247   4.873   3.641
 9514SOL     OW29440   3.244   3.522   6.219
 9514SOL    HW129441   3.318   3.456   6.204
 9514SOL    HW229442   3.159   3.473   6.240
 9515SOL     OW29443   1.645   5.952   5.451
 9515SOL    HW129444   1.724   5.895   5.428
 9515SOL    HW229445   1.659   5.996   5.540
 9516SOL     OW29446   6.574   4.314   4.702
 9516SOL    HW129447   6.524   4.395   4.672
 9516SOL    HW229448   6.588   4.319   4.801
 9517SOL     OW29449   0.477   5.383   2.499
 9517SOL    HW129450   0.378   5.376   2.511
 9517SOL    HW229451   0.498   5.467   2.449
 9518SOL     OW29452   0.574   3.116   5.489
 9518SOL    HW129453   0.563   3.105   5.390
 9518SOL    HW229454   0.665   3.084   5.516
 9519SOL     OW29455   3.211   3.208   3.420
 9519SOL    HW129456   3.225   3.136   3.352
 9519SOL    HW229457   3.215   3.168   3.512
 9520SOL     OW29458   4.417   1.226   5.994
 9520SOL    HW129459   4.460   1.156   6.052
 9520SOL    HW229460   4.457   1.315   6.015
 9521SOL     OW29461   3.769   1.308   1.211
 9521SOL    HW129462   3.754   1.234   1.145
 9521SOL    HW229463   3.684   1.360   1.223
 9522SOL     OW29464   3.819   6.508   1.330
 9522SOL    HW129465   3.736   6.459   1.355
 9522SOL    HW229466   3.894   6.442   1.316
 9523SOL     OW29467   2.597   4.702   4.756
 9523SOL    HW129468   2.633   4.649   4.832
 9523SOL    HW229469   2.519   4.757   4.787
 9524SOL     OW29470   1.575   3.524   1.199
 9524SOL    HW129471   1.617   3.486   1.117
 9524SOL    HW229472   1.482   3.554   1.178
 9525SOL     OW29473   2.494   2.307   6.190
 9525SOL    HW129474   2.501   2.404   6.170
 9525SOL    HW229475   2.400   2.276   6.171
 9526SOL     OW29476   5.335   4.678   6.577
 9526SOL    HW129477   5.298   4.766   6.606
 9526SOL    HW229478   5.347   4.678   6.478
 9527SOL     OW29479   4.436   5.657   5.142
 9527SOL    HW129480   4.522   5.621   5.106
 9527SOL    HW229481   4.361   5.631   5.082
 9528SOL     OW29482   5.221   1.845   0.815
 9528SOL    HW129483   5.268   1.852   0.728
 9528SOL    HW229484   5.177   1.932   0.836
 9529SOL     OW29485   5.856   0.263   1.625
 9529SOL    HW129486   5.862   0.355   1.663
 9529SOL    HW229487   5.947   0.222   1.622
 9530SOL     OW29488   1.141   5.952   3.468
 9530SOL    HW129489   1.173   5.860   3.491
 9530SOL    HW229490   1.094   5.950   3.380
 9531SOL     OW29491   3.647   5.919   2.243
 9531SOL    HW129492   3.627   5.968   2.328
 9531SOL    HW229493   3.726   5.962   2.198
 9532SOL     OW29494   6.815   5.283   4.224
 9532SOL    HW129495   6.876   5.211   4.256
 9532SOL    HW229496   6.827   5.364   4.281
 9533SOL     OW29497   0.922   4.633   4.291
 9533SOL    HW129498   0.911   4.551   4.346
 9533SOL    HW229499   0.905   4.714   4.347
 9534SOL     OW29500   4.354   6.004   4.430
 9534SOL    HW129501   4.344   5.911   4.394
 9534SOL    HW229502   4.341   6.070   4.355
 9535SOL     OW29503   0.242   1.528   4.218
 9535SOL    HW129504   0.314   1.486   4.162
 9535SOL    HW229505   0.258   1.506   4.314
 9536SOL     OW29506   3.552   3.555   5.969
 9536SOL    HW129507   3.556   3.525   6.064
 9536SOL    HW229508   3.461   3.537   5.932
 9537SOL     OW29509   0.244   1.167   4.699
 9537SOL    HW129510   0.266   1.124   4.612
 9537SOL    HW229511   0.265   1.265   4.694
 9538SOL     OW29512   5.691   0.373   5.429
 9538SOL    HW129513   5.615   0.342   5.372
 9538SOL    HW229514   5.656   0.404   5.517
 9539SOL     OW29515   3.692   3.990   1.774
 9539SOL    HW129516   3.675   4.088   1.761
 9539SOL    HW229517   3.724   3.974   1.867
 9540SOL     OW29518   4.045   5.077   2.843
 9540SOL    HW129519   3.986   5.016   2.896
 9540SOL    HW229520   4.139   5.070   2.877
 9541SOL     OW29521   1.896   5.589   5.897
 9541SOL    HW129522   1.933   5.681   5.911
 9541SOL    HW229523   1.965   5.532   5.853
 9542SOL     OW29524   6.214   3.739   3.352
 9542SOL    HW129525   6.193   3.835   3.335
 9542SOL    HW229526   6.300   3.715   3.307
 9543SOL     OW29527   1.875   0.913   6.093
 9543SOL    HW129528   1.795   0.885   6.040
 9543SOL    HW229529   1.948   0.938   6.030
 9544SOL     OW29530   6.224   3.087   4.725
 9544SOL    HW129531   6.202   3.110   4.631
 9544SOL    HW229532   6.139   3.075   4.777
 9545SOL     OW29533   6.425   4.083   1.802
 9545SOL    HW129534   6.391   3.996   1.766
 9545SOL    HW229535   6.505   4.066   1.859
 9546SOL     OW29536   3.419   2.578   0.310
 9546SOL    HW129537   3.353   2.650   0.332
 9546SOL    HW229538   3.498   2.619   0.263
 9547SOL     OW29539   4.227   0.405   3.386
 9547SOL    HW129540   4.190   0.470   3.452
 9547SOL    HW229541   4.201   0.312   3.412
 9548SOL     OW29542   0.641   5.240   5.320
 9548SOL    HW129543   0.619   5.144   5.307
 9548SOL    HW229544   0.591   5.275   5.399
 9549SOL     OW29545   4.779   1.270   1.526
 9549SOL    HW129546   4.794   1.233   1.618
 9549SOL    HW229547   4.778   1.195   1.460
 9550SOL     OW29548   0.291   1.953   2.121
 9550SOL    HW129549   0.379   1.912   2.095
 9550SOL    HW229550   0.306   2.046   2.155
 9551SOL     OW29551   6.418   3.464   6.506
 9551SOL    HW129552   6.507   3.419   6.498
 9551SOL    HW229553   6.431   3.561   6.528
 9552SOL     OW29554   3.520   1.724   0.550
 9552SOL    HW129555   3.492   1.770   0.634
 9552SOL    HW229556   3.548   1.792   0.482
 9553SOL     OW29557   5.247   1.379   0.232
 9553SOL    HW129558   5.199   1.466   0.226
 9553SOL    HW229559   5.310   1.381   0.310
 9554SOL     OW29560   2.796   0.775   4.459
 9554SOL    HW129561   2.803   0.760   4.558
 9554SOL    HW229562   2.708   0.819   4.438
 9555SOL     OW29563   0.411   6.505   2.602
 9555SOL    HW129564   0.449   6.490   2.511
 9555SOL    HW229565   0.485   6.522   2.667
 9556SOL     OW29566   2.399   4.670   6.609
 9556SOL    HW129567   2.335   4.645   6.682
 9556SOL    HW229568   2.481   4.612   6.615
 9557SOL     OW29569   5.269   1.004   0.317
 9557SOL    HW129570   5.228   1.089   0.283
 9557SOL    HW229571   5.287   1.013   0.414
 9558SOL     OW29572   5.714   5.549   5.523
 9558SOL    HW129573   5.648   5.538   5.449
 9558SOL    HW229574   5.789   5.484   5.511
 9559SOL     OW29575   2.568   4.136   6.999
 9559SOL    HW129576   2.501   4.087   0.026
 9559SOL    HW229577   2.658   4.127   0.013
 9560SOL     OW29578   2.087   6.761   1.107
 9560SOL    HW129579   2.174   6.787   1.149
 9560SOL    HW229580   2.047   6.842   1.063
 9561SOL     OW29581   6.949   1.049   6.431
 9561SOL    HW129582   6.921   0.966   6.480
 9561SOL    HW229583   7.027   1.091   6.477
 9562SOL     OW29584   1.775   5.719   2.802
 9562SOL    HW129585   1.693   5.680   2.844
 9562SOL    HW229586   1.748   5.784   2.731
 9563SOL     OW29587   0.411   5.085   0.526
 9563SOL    HW129588   0.344   5.024   0.569
 9563SOL    HW229589   0.404   5.176   0.567
 9564SOL     OW29590   0.464   1.713   0.003
 9564SOL    HW129591   0.372   1.753   7.019
 9564SOL    HW229592   0.508   1.704   6.942
 9565SOL     OW29593   2.817   2.167   5.019
 9565SOL    HW129594   2.817   2.210   4.928
 9565SOL    HW229595   2.904   2.121   5.034
 9566SOL     OW29596   3.418   0.201   6.859
 9566SOL    HW129597   3.329   0.181   6.899
 9566SOL    HW229598   3.484   0.222   6.932
 9567SOL     OW29599   6.853   4.297   0.919
 9567SOL    HW129600   6.804   4.268   0.836
 9567SOL    HW229601   6.918   4.369   0.896
 9568SOL     OW29602   4.773   2.462   5.492
 9568SOL    HW129603   4.688   2.501   5.456
 9568SOL    HW229604   4.753   2.412   5.576
 9569SOL     OW29605   5.921   0.258   2.512
 9569SOL    HW129606   5.882   0.170   2.489
 9569SOL    HW229607   5.921   0.317   2.431
 9570SOL     OW29608   0.853   3.921   2.100
 9570SOL    HW129609   0.772   3.896   2.047
 9570SOL    HW229610   0.932   3.870   2.066
 9571SOL     OW29611   1.449   0.931   6.943
 9571SOL    HW129612   1.382   0.927   7.017
 9571SOL    HW229613   1.541   0.944   6.981
 9572SOL     OW29614   3.005   4.842   5.002
 9572SOL    HW129615   3.013   4.847   5.101
 9572SOL    HW229616   2.981   4.749   4.975
 9573SOL     OW29617   5.616   6.454   4.131
 9573SOL    HW129618   5.558   6.491   4.059
 9573SOL    HW229619   5.621   6.520   4.206
 9574SOL     OW29620   4.918   2.405   1.179
 9574SOL    HW129621   4.897   2.436   1.086
 9574SOL    HW229622   4.865   2.459   1.245
 9575SOL     OW29623   5.014   1.074   1.411
 9575SOL    HW129624   4.926   1.066   1.365
 9575SOL    HW229625   5.088   1.075   1.343
 9576SOL     OW29626   1.596   1.965   5.910
 9576SOL    HW129627   1.579   1.869   5.888
 9576SOL    HW229628   1.650   2.007   5.837
 9577SOL     OW29629   0.199   5.495   2.711
 9577SOL    HW129630   0.138   5.433   2.661
 9577SOL    HW229631   0.265   5.442   2.764
 9578SOL     OW29632   1.943   3.195   2.700
 9578SOL    HW129633   2.000   3.277   2.704
 9578SOL    HW229634   1.946   3.157   2.608
 9579SOL     OW29635   5.491   5.471   2.852
 9579SOL    HW129636   5.563   5.401   2.850
 9579SOL    HW229637   5.491   5.520   2.765
 9580SOL     OW29638   4.771   4.141   4.126
 9580SOL    HW129639   4.795   4.052   4.165
 9580SOL    HW229640   4.674   4.159   4.141
 9581SOL     OW29641   4.977   1.976   6.216
 9581SOL    HW129642   4.995   1.938   6.125
 9581SOL    HW229643   5.015   1.916   6.286
 9582SOL     OW29644   4.695   6.395   5.706
 9582SOL    HW129645   4.618   6.339   5.737
 9582SOL    HW229646   4.775   6.337   5.692
 9583SOL     OW29647   2.648   4.730   1.430
 9583SOL    HW129648   2.580   4.691   1.369
 9583SOL    HW229649   2.668   4.665   1.503
 9584SOL     OW29650   2.083   5.655   4.195
 9584SOL    HW129651   2.124   5.573   4.236
 9584SOL    HW229652   2.149   5.730   4.198
 9585SOL     OW29653   4.593   6.779   0.368
 9585SOL    HW129654   4.580   6.688   0.407
 9585SOL    HW229655   4.569   6.776   0.271
 9586SOL     OW29656   3.687   5.065   3.480
 9586SOL    HW129657   3.673   5.164   3.489
 9586SOL    HW229658   3.753   5.034   3.548
 9587SOL     OW29659   3.849   6.465   0.412
 9587SOL    HW129660   3.932   6.423   0.449
 9587SOL    HW229661   3.812   6.529   0.479
 9588SOL     OW29662   6.525   5.833   1.237
 9588SOL    HW129663   6.536   5.747   1.288
 9588SOL    HW229664   6.468   5.896   1.290
 9589SOL     OW29665   1.086   1.606   5.479
 9589SOL    HW129666   1.087   1.652   5.390
 9589SOL    HW229667   1.047   1.515   5.469
 9590SOL     OW29668   5.392   0.647   0.097
 9590SOL    HW129669   5.363   0.630   0.003
 9590SOL    HW229670   5.484   0.612   0.111
 9591SOL     OW29671   5.116   1.018   6.349
 9591SOL    HW129672   5.091   0.969   6.432
 9591SOL    HW229673   5.213   1.003   6.329
 9592SOL     OW29674   1.969   6.058   5.310
 9592SOL    HW129675   1.925   6.131   5.363
 9592SOL    HW229676   1.944   5.969   5.349
 9593SOL     OW29677   2.802   2.330   4.808
 9593SOL    HW129678   2.897   2.353   4.788
 9593SOL    HW229679   2.744   2.359   4.732
 9594SOL     OW29680   0.658   6.326   3.623
 9594SOL    HW129681   0.707   6.409   3.597
 9594SOL    HW229682   0.696   6.248   3.573
 9595SOL     OW29683   0.766   4.738   3.662
 9595SOL    HW129684   0.787   4.762   3.757
 9595SOL    HW229685   0.735   4.643   3.658
 9596SOL     OW29686   1.464   6.337   0.875
 9596SOL    HW129687   1.372   6.338   0.915
 9596SOL    HW229688   1.488   6.429   0.844
 9597SOL     OW29689   1.001   3.466   1.890
 9597SOL    HW129690   1.064   3.466   1.967
 9597SOL    HW229691   1.051   3.447   1.806
 9598SOL     OW29692   2.482   4.791   3.338
 9598SOL    HW129693   2.441   4.879   3.314
 9598SOL    HW229694   2.515   4.795   3.433
 9599SOL     OW29695   4.772   0.221   5.881
 9599SOL    HW129696   4.855   0.169   5.901
 9599SOL    HW229697   4.747   0.207   5.785
 9600SOL     OW29698   3.818   1.280   0.528
 9600SOL    HW129699   3.803   1.219   0.449
 9600SOL    HW229700   3.733   1.324   0.553
 9601SOL     OW29701   1.136   3.869   0.750
 9601SOL    HW129702   1.134   3.969   0.741
 9601SOL    HW229703   1.141   3.827   0.659
 9602SOL     OW29704   3.709   4.585   5.896
 9602SOL    HW129705   3.769   4.537   5.960
 9602SOL    HW229706   3.707   4.535   5.809
 9603SOL     OW29707   6.057   6.526   5.511
 9603SOL    HW129708   6.095   6.458   5.574
 9603SOL    HW229709   6.000   6.590   5.563
 9604SOL     OW29710   4.236   6.787   1.411
 9604SOL    HW129711   4.174   6.741   1.347
 9604SOL    HW229712   4.290   6.855   1.362
 9605SOL     OW29713   4.984   4.950   1.904
 9605SOL    HW129714   4.972   4.947   1.805
 9605SOL    HW229715   4.977   5.045   1.936
 9606SOL     OW29716   2.019   1.680   6.964
 9606SOL    HW129717   2.018   1.778   6.983
 9606SOL    HW229718   1.941   1.636   7.008
 9607SOL     OW29719   1.689   2.373   6.893
 9607SOL    HW129720   1.676   2.453   6.834
 9607SOL    HW229721   1.786   2.360   6.910
 9608SOL     OW29722   6.846   2.506   3.932
 9608SOL    HW129723   6.894   2.592   3.945
 9608SOL    HW229724   6.829   2.491   3.835
 9609SOL     OW29725   5.028   3.468   0.679
 9609SOL    HW129726   5.065   3.376   0.695
 9609SOL    HW229727   4.974   3.496   0.758
 9610SOL     OW29728   1.020   4.902   2.724
 9610SOL    HW129729   0.989   4.866   2.812
 9610SOL    HW229730   1.100   4.851   2.693
 9611SOL     OW29731   2.406   0.368   6.727
 9611SOL    HW129732   2.493   0.354   6.680
 9611SOL    HW229733   2.416   0.442   6.793
 9612SOL     OW29734   0.287   1.885   3.661
 9612SOL    HW129735   0.269   1.958   3.727
 9612SOL    HW229736   0.209   1.875   3.599
 9613SOL     OW29737   6.117   4.490   4.363
 9613SOL    HW129738   6.168   4.405   4.379
 9613SOL    HW229739   6.099   4.536   4.450
 9614SOL     OW29740   4.343   1.124   3.429
 9614SOL    HW129741   4.321   1.132   3.332
 9614SOL    HW229742   4.440   1.144   3.444
 9615SOL     OW29743   1.646   3.369   1.407
 9615SOL    HW129744   1.607   3.417   1.329
 9615SOL    HW229745   1.728   3.418   1.438
 9616SOL     OW29746   3.573   3.791   5.828
 9616SOL    HW129747   3.564   3.724   5.902
 9616SOL    HW229748   3.616   3.746   5.749
 9617SOL     OW29749   0.650   3.032   2.708
 9617SOL    HW129750   0.657   2.984   2.621
 9617SOL    HW229751   0.742   3.051   2.743
 9618SOL     OW29752   2.204   2.413   0.684
 9618SOL    HW129753   2.186   2.497   0.735
 9618SOL    HW229754   2.266   2.432   0.608
 9619SOL     OW29755   2.223   6.970   6.728
 9619SOL    HW129756   2.255   6.990   6.635
 9619SOL    HW229757   2.291   6.914   6.775
 9620SOL     OW29758   5.530   0.695   4.924
 9620SOL    HW129759   5.513   0.638   5.004
 9620SOL    HW229760   5.505   0.789   4.944
 9621SOL     OW29761   1.543   4.039   3.860
 9621SOL    HW129762   1.534   4.010   3.765
 9621SOL    HW229763   1.622   4.101   3.869
 9622SOL     OW29764   4.526   6.737   0.095
 9622SOL    HW129765   4.472   6.805   0.045
 9622SOL    HW229766   4.481   6.648   0.090
 9623SOL     OW29767   0.848   3.441   6.288
 9623SOL    HW129768   0.824   3.439   6.385
 9623SOL    HW229769   0.921   3.508   6.273
 9624SOL     OW29770   6.420   3.503   4.192
 9624SOL    HW129771   6.376   3.418   4.218
 9624SOL    HW229772   6.376   3.580   4.238
 9625SOL     OW29773   5.558   6.108   2.011
 9625SOL    HW129774   5.462   6.130   1.994
 9625SOL    HW229775   5.604   6.089   1.925
 9626SOL     OW29776   3.610   0.553   0.094
 9626SOL    HW129777   3.540   0.504   0.042
 9626SOL    HW229778   3.639   0.634   0.042
 9627SOL     OW29779   0.943   0.277   0.624
 9627SOL    HW129780   0.907   0.277   0.530
 9627SOL    HW229781   1.039   0.304   0.623
 9628SOL     OW29782   2.957   6.884   1.658
 9628SOL    HW129783   2.974   6.977   1.623
 9628SOL    HW229784   2.971   6.818   1.585
 9629SOL     OW29785   2.504   0.403   0.313
 9629SOL    HW129786   2.440   0.472   0.347
 9629SOL    HW229787   2.453   0.324   0.279
 9630SOL     OW29788   0.620   2.414   6.797
 9630SOL    HW129789   0.570   2.500   6.785
 9630SOL    HW229790   0.609   2.359   6.714
 9631SOL     OW29791   6.326   5.760   0.707
 9631SOL    HW129792   6.386   5.731   0.632
 9631SOL    HW229793   6.382   5.787   0.786
 9632SOL     OW29794   1.986   5.568   2.806
 9632SOL    HW129795   1.898   5.616   2.813
 9632SOL    HW229796   1.974   5.486   2.749
 9633SOL     OW29797   0.543   4.470   0.529
 9633SOL    HW129798   0.553   4.473   0.429
 9633SOL    HW229799   0.453   4.505   0.554
 9634SOL     OW29800   6.764   5.936   6.072
 9634SOL    HW129801   6.678   5.912   6.025
 9634SOL    HW229802   6.744   5.997   6.148
 9635SOL     OW29803   6.223   5.672   6.487
 9635SOL    HW129804   6.189   5.678   6.393
 9635SOL    HW229805   6.323   5.668   6.487
 9636SOL     OW29806   3.495   1.582   0.299
 9636SOL    HW129807   3.594   1.569   0.301
 9636SOL    HW229808   3.464   1.616   0.387
 9637SOL     OW29809   2.632   1.695   0.103
 9637SOL    HW129810   2.605   1.787   0.130
 9637SOL    HW229811   2.635   1.635   0.183
 9638SOL     OW29812   6.671   2.471   6.488
 9638SOL    HW129813   6.577   2.450   6.513
 9638SOL    HW229814   6.690   2.439   6.395
 9639SOL     OW29815   3.278   6.925   2.318
 9639SOL    HW129816   3.351   6.914   2.385
 9639SOL    HW229817   3.189   6.926   2.365
 9640SOL     OW29818   2.752   1.683   2.612
 9640SOL    HW129819   2.818   1.610   2.594
 9640SOL    HW229820   2.662   1.656   2.576
 9641SOL     OW29821   5.085   5.735   6.649
 9641SOL    HW129822   5.028   5.653   6.642
 9641SOL    HW229823   5.103   5.771   6.557
 9642SOL     OW29824   3.170   6.960   2.937
 9642SOL    HW129825   3.221   6.879   2.908
 9642SOL    HW229826   3.108   6.989   2.864
 9643SOL     OW29827   3.879   4.881   2.147
 9643SOL    HW129828   3.887   4.953   2.079
 9643SOL    HW229829   3.783   4.857   2.160
 9644SOL     OW29830   2.567   1.053   6.943
 9644SOL    HW129831   2.558   1.128   7.010
 9644SOL    HW229832   2.554   0.966   6.990
 9645SOL     OW29833   3.313   5.309   5.420
 9645SOL    HW129834   3.375   5.373   5.376
 9645SOL    HW229835   3.346   5.290   5.513
 9646SOL     OW29836   3.476   4.923   4.320
 9646SOL    HW129837   3.538   4.881   4.386
 9646SOL    HW229838   3.382   4.893   4.338
 9647SOL     OW29839   5.737   3.210   5.879
 9647SOL    HW129840   5.771   3.284   5.821
 9647SOL    HW229841   5.649   3.178   5.845
 9648SOL     OW29842   4.079   4.139   1.317
 9648SOL    HW129843   4.008   4.069   1.330
 9648SOL    HW229844   4.041   4.229   1.338
 9649SOL     OW29845   1.763   4.427   0.602
 9649SOL    HW129846   1.777   4.393   0.509
 9649SOL    HW229847   1.850   4.461   0.638
 9650SOL     OW29848   1.735   0.614   0.936
 9650SOL    HW129849   1.708   0.710   0.951
 9650SOL    HW229850   1.803   0.588   1.005
 9651SOL     OW29851   0.875   2.299   0.272
 9651SOL    HW129852   0.854   2.358   0.350
 9651SOL    HW229853   0.919   2.353   0.200
 9652SOL     OW29854   1.849   4.550   1.275
 9652SOL    HW129855   1.831   4.623   1.342
 9652SOL    HW229856   1.875   4.467   1.323
 9653SOL     OW29857   6.750   6.788   4.430
 9653SOL    HW129858   6.665   6.736   4.433
 9653SOL    HW229859   6.781   6.797   4.335
 9654SOL     OW29860   2.262   2.488   1.875
 9654SOL    HW129861   2.214   2.403   1.895
 9654SOL    HW229862   2.221   2.532   1.795
 9655SOL     OW29863   6.161   3.030   0.633
 9655SOL    HW129864   6.110   3.089   0.570
 9655SOL    HW229865   6.101   3.003   0.708
 9656SOL     OW29866   2.647   2.082   2.355
 9656SOL    HW129867   2.703   2.158   2.321
 9656SOL    HW229868   2.561   2.117   2.390
 9657SOL     OW29869   0.730   0.482   4.429
 9657SOL    HW129870   0.684   0.535   4.500
 9657SOL    HW229871   0.820   0.452   4.463
 9658SOL     OW29872   6.103   0.669   3.530
 9658SOL    HW129873   6.187   0.721   3.521
 9658SOL    HW229874   6.024   0.729   3.514
 9659SOL     OW29875   1.705   5.352   6.762
 9659SOL    HW129876   1.680   5.442   6.797
 9659SOL    HW229877   1.705   5.355   6.662
 9660SOL     OW29878   0.995   3.968   0.478
 9660SOL    HW129879   0.966   4.018   0.560
 9660SOL    HW229880   0.915   3.926   0.435
 9661SOL     OW29881   4.134   1.098   1.063
 9661SOL    HW129882   4.147   1.092   1.162
 9661SOL    HW229883   4.132   1.195   1.036
 9662SOL     OW29884   4.749   2.264   4.231
 9662SOL    HW129885   4.753   2.179   4.284
 9662SOL    HW229886   4.661   2.308   4.244
 9663SOL     OW29887   3.748   5.820   3.050
 9663SOL    HW129888   3.668   5.814   2.989
 9663SOL    HW229889   3.831   5.804   2.997
 9664SOL     OW29890   2.396   5.762   1.293
 9664SOL    HW129891   2.423   5.750   1.389
 9664SOL    HW229892   2.308   5.810   1.289
 9665SOL     OW29893   5.843   4.846   3.486
 9665SOL    HW129894   5.905   4.770   3.503
 9665SOL    HW229895   5.893   4.933   3.494
 9666SOL     OW29896   5.330   5.222   4.583
 9666SOL    HW129897   5.249   5.222   4.525
 9666SOL    HW229898   5.412   5.234   4.526
 9667SOL     OW29899   2.916   3.445   2.819
 9667SOL    HW129900   2.954   3.484   2.903
 9667SOL    HW229901   2.932   3.346   2.818
 9668SOL     OW29902   0.156   1.802   4.588
 9668SOL    HW129903   0.255   1.799   4.598
 9668SOL    HW229904   0.114   1.834   4.673
 9669SOL     OW29905   0.686   6.806   0.050
 9669SOL    HW129906   0.784   6.828   0.043
 9669SOL    HW229907   0.668   6.722   7.026
 9670SOL     OW29908   6.433   3.706   6.630
 9670SOL    HW129909   6.337   3.732   6.619
 9670SOL    HW229910   6.458   3.711   6.727
 9671SOL     OW29911   6.609   1.386   6.804
 9671SOL    HW129912   6.648   1.426   6.886
 9671SOL    HW229913   6.682   1.357   6.742
 9672SOL     OW29914   0.493   0.027   5.293
 9672SOL    HW129915   0.575   0.016   5.237
 9672SOL    HW229916   0.424   6.990   5.263
 9673SOL     OW29917   2.207   2.149   5.936
 9673SOL    HW129918   2.148   2.079   5.896
 9673SOL    HW229919   2.216   2.225   5.872
 9674SOL     OW29920   2.724   6.218   2.495
 9674SOL    HW129921   2.798   6.225   2.427
 9674SOL    HW229922   2.680   6.308   2.504
 9675SOL     OW29923   0.159   2.311   2.648
 9675SOL    HW129924   0.076   2.334   2.598
 9675SOL    HW229925   0.137   2.302   2.746
 9676SOL     OW29926   6.403   2.852   4.213
 9676SOL    HW129927   6.353   2.866   4.128
 9676SOL    HW229928   6.381   2.762   4.250
 9677SOL     OW29929   1.852   4.018   6.154
 9677SOL    HW129930   1.893   4.104   6.125
 9677SOL    HW229931   1.877   3.946   6.090
 9678SOL     OW29932   3.419   3.361   3.286
 9678SOL    HW129933   3.510   3.354   3.327
 9678SOL    HW229934   3.351   3.326   3.350
 9679SOL     OW29935   0.329   3.480   1.873
 9679SOL    HW129936   0.293   3.443   1.958
 9679SOL    HW229937   0.424   3.450   1.861
 9680SOL     OW29938   4.688   5.478   2.742
 9680SOL    HW129939   4.672   5.389   2.701
 9680SOL    HW229940   4.778   5.478   2.787
 9681SOL     OW29941   0.994   1.139   3.748
 9681SOL    HW129942   1.026   1.079   3.821
 9681SOL    HW229943   0.990   1.087   3.662
 9682SOL     OW29944   0.546   4.537   2.294
 9682SOL    HW129945   0.449   4.558   2.303
 9682SOL    HW229946   0.582   4.580   2.211
 9683SOL     OW29947   4.480   6.933   4.710
 9683SOL    HW129948   4.475   6.956   4.613
 9683SOL    HW229949   4.391   6.902   4.742
 9684SOL     OW29950   1.889   3.964   3.101
 9684SOL    HW129951   1.813   4.015   3.142
 9684SOL    HW229952   1.855   3.877   3.065
 9685SOL     OW29953   1.645   1.452   6.794
 9685SOL    HW129954   1.691   1.515   6.857
 9685SOL    HW229955   1.558   1.424   6.832
 9686SOL     OW29956   6.469   2.632   3.089
 9686SOL    HW129957   6.519   2.672   3.165
 9686SOL    HW229958   6.450   2.536   3.109
 9687SOL     OW29959   2.882   1.439   5.306
 9687SOL    HW129960   2.835   1.351   5.316
 9687SOL    HW229961   2.920   1.466   5.394
 9688SOL     OW29962   5.881   2.250   4.671
 9688SOL    HW129963   5.888   2.242   4.771
 9688SOL    HW229964   5.960   2.301   4.637
 9689SOL     OW29965   3.030   5.309   5.632
 9689SOL    HW129966   3.063   5.262   5.550
 9689SOL    HW229967   3.093   5.291   5.708
 9690SOL     OW29968   5.950   3.525   6.623
 9690SOL    HW129969   5.918   3.617   6.602
 9690SOL    HW229970   5.919   3.462   6.551
 9691SOL     OW29971   1.101   4.583   0.923
 9691SOL    HW129972   1.179   4.639   0.894
 9691SOL    HW229973   1.113   4.557   1.019
 9692SOL     OW29974   2.718   5.483   0.352
 9692SOL    HW129975   2.772   5.443   0.426
 9692SOL    HW229976   2.692   5.576   0.377
 9693SOL     OW29977   5.943   5.940   1.567
 9693SOL    HW129978   5.984   6.028   1.542
 9693SOL    HW229979   6.007   5.866   1.545
 9694SOL     OW29980   0.825   0.757   0.170
 9694SOL    HW129981   0.777   0.674   0.199
 9694SOL    HW229982   0.784   0.792   0.086
 9695SOL     OW29983   5.542   4.692   0.350
 9695SOL    HW129984   5.621   4.677   0.409
 9695SOL    HW229985   5.508   4.604   0.317
 9696SOL     OW29986   3.912   4.254   6.864
 9696SOL    HW129987   3.999   4.288   6.829
 9696SOL    HW229988   3.837   4.297   6.814
 9697SOL     OW29989   0.406   5.856   6.953
 9697SOL    HW129990   0.312   5.832   6.977
 9697SOL    HW229991   0.436   5.801   6.874
 9698SOL     OW29992   4.865   1.336   5.342
 9698SOL    HW129993   4.774   1.296   5.329
 9698SOL    HW229994   4.918   1.277   5.403
 9699SOL     OW29995   1.454   2.095   6.629
 9699SOL    HW129996   1.504   2.181   6.614
 9699SOL    HW229997   1.514   2.030   6.677
 9700SOL     OW29998   3.959   3.167   3.446
 9700SOL    HW129999   3.982   3.146   3.541
 9700SOL    HW230000   3.890   3.103   3.413
 9701SOL     OW30001   4.173   4.984   4.449
 9701SOL    HW130002   4.181   4.994   4.548
 9701SOL    HW230003   4.164   5.075   4.408
 9702SOL     OW30004   5.111   0.621   6.836
 9702SOL    HW130005   5.070   0.583   6.753
 9702SOL    HW230006   5.185   0.561   6.867
 9703SOL     OW30007   1.790   5.937   4.314
 9703SOL    HW130008   1.813   5.858   4.371
 9703SOL    HW230009   1.763   5.905   4.223
 9704SOL     OW30010   3.299   1.417   4.355
 9704SOL    HW130011   3.206   1.438   4.326
 9704SOL    HW230012   3.320   1.322   4.334
 9705SOL     OW30013   2.346   3.872   0.791
 9705SOL    HW130014   2.370   3.777   0.808
 9705SOL    HW230015   2.334   3.887   0.693
 9706SOL     OW30016   6.949   2.002   3.615
 9706SOL    HW130017   7.015   1.958   3.554
 9706SOL    HW230018   6.889   1.933   3.654
 9707SOL     OW30019   2.290   5.972   1.727
 9707SOL    HW130020   2.364   5.978   1.794
 9707SOL    HW230021   2.220   5.909   1.761
 9708SOL     OW30022   1.389   1.905   1.958
 9708SOL    HW130023   1.476   1.857   1.975
 9708SOL    HW230024   1.386   1.933   1.862
 9709SOL     OW30025   1.810   6.385   3.642
 9709SOL    HW130026   1.833   6.479   3.667
 9709SOL    HW230027   1.713   6.380   3.616
 9710SOL     OW30028   1.676   6.797   3.882
 9710SOL    HW130029   1.601   6.735   3.908
 9710SOL    HW230030   1.641   6.869   3.823
 9711SOL     OW30031   1.853   2.833   6.274
 9711SOL    HW130032   1.926   2.895   6.245
 9711SOL    HW230033   1.872   2.741   6.242
 9712SOL     OW30034   5.270   3.812   4.758
 9712SOL    HW130035   5.208   3.817   4.836
 9712SOL    HW230036   5.286   3.904   4.722
 9713SOL     OW30037   1.247   5.696   3.267
 9713SOL    HW130038   1.237   5.706   3.366
 9713SOL    HW230039   1.186   5.760   3.220
 9714SOL     OW30040   2.448   1.925   2.251
 9714SOL    HW130041   2.539   1.968   2.253
 9714SOL    HW230042   2.456   1.829   2.278
 9715SOL     OW30043   5.913   5.410   5.947
 9715SOL    HW130044   5.917   5.370   5.855
 9715SOL    HW230045   5.912   5.336   6.015
 9716SOL     OW30046   3.553   0.777   5.802
 9716SOL    HW130047   3.599   0.708   5.746
 9716SOL    HW230048   3.454   0.770   5.789
 9717SOL     OW30049   6.164   5.258   3.249
 9717SOL    HW130050   6.178   5.280   3.152
 9717SOL    HW230051   6.221   5.318   3.305
 9718SOL     OW30052   5.920   2.738   2.349
 9718SOL    HW130053   5.890   2.790   2.429
 9718SOL    HW230054   5.944   2.802   2.276
 9719SOL     OW30055   0.227   1.127   0.010
 9719SOL    HW130056   0.296   1.156   0.076
 9719SOL    HW230057   0.259   1.147   6.946
 9720SOL     OW30058   0.278   1.533   0.957
 9720SOL    HW130059   0.228   1.571   1.035
 9720SOL    HW230060   0.352   1.475   0.991
 9721SOL     OW30061   0.901   2.482   3.722
 9721SOL    HW130062   0.999   2.477   3.741
 9721SOL    HW230063   0.881   2.437   3.635
 9722SOL     OW30064   6.966   6.998   4.836
 9722SOL    HW130065   7.002   6.906   4.821
 9722SOL    HW230066   6.892   6.994   4.903
 9723SOL     OW30067   5.908   0.711   4.918
 9723SOL    HW130068   5.864   0.732   4.831
 9723SOL    HW230069   5.841   0.719   4.992
 9724SOL     OW30070   4.031   2.473   1.215
 9724SOL    HW130071   4.046   2.546   1.148
 9724SOL    HW230072   3.963   2.409   1.180
 9725SOL     OW30073   4.301   2.910   5.858
 9725SOL    HW130074   4.349   2.970   5.794
 9725SOL    HW230075   4.311   2.947   5.951
 9726SOL     OW30076   5.068   6.003   5.399
 9726SOL    HW130077   5.128   5.945   5.455
 9726SOL    HW230078   5.123   6.075   5.355
 9727SOL     OW30079   0.530   0.958   6.813
 9727SOL    HW130080   0.462   0.921   6.750
 9727SOL    HW230081   0.515   1.056   6.825
 9728SOL     OW30082   2.506   5.511   5.878
 9728SOL    HW130083   2.588   5.542   5.829
 9728SOL    HW230084   2.478   5.422   5.842
 9729SOL     OW30085   3.473   5.928   2.539
 9729SOL    HW130086   3.385   5.901   2.578
 9729SOL    HW230087   3.497   5.867   2.464
 9730SOL     OW30088   5.180   3.763   2.735
 9730SOL    HW130089   5.106   3.738   2.797
 9730SOL    HW230090   5.206   3.684   2.679
 9731SOL     OW30091   5.388   4.326   0.841
 9731SOL    HW130092   5.300   4.314   0.887
 9731SOL    HW230093   5.462   4.295   0.901
 9732SOL     OW30094   5.157   6.182   4.434
 9732SOL    HW130095   5.065   6.153   4.461
 9732SOL    HW230096   5.200   6.110   4.379
 9733SOL     OW30097   4.596   4.418   4.189
 9733SOL    HW130098   4.613   4.403   4.092
 9733SOL    HW230099   4.532   4.493   4.201
 9734SOL     OW30100   6.181   2.172   6.428
 9734SOL    HW130101   6.168   2.142   6.334
 9734SOL    HW230102   6.138   2.107   6.490
 9735SOL     OW30103   3.590   4.851   1.521
 9735SOL    HW130104   3.562   4.787   1.593
 9735SOL    HW230105   3.594   4.804   1.434
 9736SOL     OW30106   3.742   2.004   2.181
 9736SOL    HW130107   3.709   2.053   2.100
 9736SOL    HW230108   3.813   2.059   2.226
 9737SOL     OW30109   5.049   1.542   4.708
 9737SOL    HW130110   5.049   1.520   4.611
 9737SOL    HW230111   5.000   1.629   4.723
 9738SOL     OW30112   2.461   0.053   1.991
 9738SOL    HW130113   2.373   0.032   1.948
 9738SOL    HW230114   2.535   0.032   1.927
 9739SOL     OW30115   4.959   4.442   2.399
 9739SOL    HW130116   4.941   4.396   2.487
 9739SOL    HW230117   4.872   4.453   2.350
 9740SOL     OW30118   6.592   3.417   3.408
 9740SOL    HW130119   6.548   3.348   3.350
 9740SOL    HW230120   6.523   3.484   3.438
 9741SOL     OW30121   3.649   1.440   3.085
 9741SOL    HW130122   3.697   1.355   3.069
 9741SOL    HW230123   3.666   1.471   3.179
 9742SOL     OW30124   3.773   1.005   2.430
 9742SOL    HW130125   3.722   1.030   2.513
 9742SOL    HW230126   3.871   1.015   2.447
 9743SOL     OW30127   1.717   1.065   6.216
 9743SOL    HW130128   1.782   0.997   6.181
 9743SOL    HW230129   1.695   1.130   6.144
 9744SOL     OW30130   2.488   0.420   0.699
 9744SOL    HW130131   2.525   0.491   0.640
 9744SOL    HW230132   2.388   0.423   0.695
 9745SOL     OW30133   0.440   1.062   4.027
 9745SOL    HW130134   0.471   1.156   4.018
 9745SOL    HW230135   0.340   1.058   4.019
 9746SOL     OW30136   5.849   6.738   4.720
 9746SOL    HW130137   5.831   6.789   4.804
 9746SOL    HW230138   5.763   6.714   4.676
 9747SOL     OW30139   0.234   0.394   5.462
 9747SOL    HW130140   0.263   0.354   5.375
 9747SOL    HW230141   0.255   0.330   5.536
 9748SOL     OW30142   1.219   4.958   4.446
 9748SOL    HW130143   1.149   4.959   4.516
 9748SOL    HW230144   1.178   4.976   4.357
 9749SOL     OW30145   0.917   5.399   4.971
 9749SOL    HW130146   0.970   5.416   5.055
 9749SOL    HW230147   0.819   5.395   4.994
 9750SOL     OW30148   3.174   5.540   1.989
 9750SOL    HW130149   3.119   5.546   1.905
 9750SOL    HW230150   3.183   5.444   2.015
 9751SOL     OW30151   1.387   1.755   0.837
 9751SOL    HW130152   1.431   1.818   0.901
 9751SOL    HW230153   1.419   1.773   0.744
 9752SOL     OW30154   2.918   6.927   5.969
 9752SOL    HW130155   2.977   6.865   6.020
 9752SOL    HW230156   2.909   6.895   5.874
 9753SOL     OW30157   0.261   0.395   6.448
 9753SOL    HW130158   0.274   0.454   6.367
 9753SOL    HW230159   0.199   0.440   6.512
 9754SOL     OW30160   7.006   2.859   6.257
 9754SOL    HW130161   0.045   2.790   6.283
 9754SOL    HW230162   6.914   2.823   6.270
 9755SOL     OW30163   4.510   5.543   4.771
 9755SOL    HW130164   4.563   5.625   4.795
 9755SOL    HW230165   4.424   5.544   4.822
 9756SOL     OW30166   4.491   2.850   6.721
 9756SOL    HW130167   4.437   2.913   6.779
 9756SOL    HW230168   4.566   2.812   6.775
 9757SOL     OW30169   5.730   0.470   4.176
 9757SOL    HW130170   5.639   0.486   4.136
 9757SOL    HW230171   5.722   0.466   4.276
 9758SOL     OW30172   3.174   0.387   0.121
 9758SOL    HW130173   3.163   0.310   0.058
 9758SOL    HW230174   3.194   0.353   0.213
 9759SOL     OW30175   2.343   6.559   1.404
 9759SOL    HW130176   2.286   6.477   1.406
 9759SOL    HW230177   2.303   6.629   1.463
 9760SOL     OW30178   4.873   4.007   6.277
 9760SOL    HW130179   4.795   4.064   6.304
 9760SOL    HW230180   4.955   4.036   6.327
 9761SOL     OW30181   5.405   5.486   3.245
 9761SOL    HW130182   5.427   5.413   3.180
 9761SOL    HW230183   5.424   5.455   3.338
 9762SOL     OW30184   3.226   0.748   1.966
 9762SOL    HW130185   3.240   0.838   2.007
 9762SOL    HW230186   3.142   0.707   2.002
 9763SOL     OW30187   2.358   2.099   1.810
 9763SOL    HW130188   2.429   2.103   1.880
 9763SOL    HW230189   2.268   2.100   1.853
 9764SOL     OW30190   1.391   3.124   4.185
 9764SOL    HW130191   1.335   3.184   4.242
 9764SOL    HW230192   1.485   3.158   4.184
 9765SOL     OW30193   0.089   1.773   5.790
 9765SOL    HW130194   0.068   1.773   5.888
 9765SOL    HW230195   0.005   1.759   5.738
 9766SOL     OW30196   2.813   0.120   1.530
 9766SOL    HW130197   2.901   0.163   1.512
 9766SOL    HW230198   2.780   0.075   1.447
 9767SOL     OW30199   4.375   0.513   4.982
 9767SOL    HW130200   4.325   0.597   4.960
 9767SOL    HW230201   4.311   0.437   4.988
 9768SOL     OW30202   4.719   1.809   3.215
 9768SOL    HW130203   4.794   1.745   3.200
 9768SOL    HW230204   4.747   1.901   3.187
 9769SOL     OW30205   0.246   2.763   0.255
 9769SOL    HW130206   0.150   2.792   0.256
 9769SOL    HW230207   0.259   2.687   0.318
 9770SOL     OW30208   0.508   3.102   5.215
 9770SOL    HW130209   0.518   3.201   5.228
 9770SOL    HW230210   0.508   3.081   5.117
 9771SOL     OW30211   1.808   6.988   4.246
 9771SOL    HW130212   1.746   0.037   4.258
 9771SOL    HW230213   1.808   6.932   4.329
 9772SOL     OW30214   5.582   6.191   0.880
 9772SOL    HW130215   5.668   6.216   0.924
 9772SOL    HW230216   5.511   6.256   0.908
 9773SOL     OW30217   5.016   5.047   3.323
 9773SOL    HW130218   4.982   5.049   3.417
 9773SOL    HW230219   5.080   4.970   3.313
 9774SOL     OW30220   5.847   5.985   4.060
 9774SOL    HW130221   5.874   6.034   4.142
 9774SOL    HW230222   5.774   5.920   4.082
 9775SOL     OW30223   2.909   1.315   3.869
 9775SOL    HW130224   2.972   1.390   3.889
 9775SOL    HW230225   2.928   1.239   3.930
 9776SOL     OW30226   0.743   4.244   4.585
 9776SOL    HW130227   0.793   4.158   4.587
 9776SOL    HW230228   0.646   4.226   4.572
 9777SOL     OW30229   5.354   5.597   6.196
 9777SOL    HW130230   5.313   5.506   6.193
 9777SOL    HW230231   5.347   5.633   6.289
 9778SOL     OW30232   3.817   0.370   4.137
 9778SOL    HW130233   3.898   0.417   4.173
 9778SOL    HW230234   3.844   0.282   4.099
 9779SOL     OW30235   3.020   2.308   0.106
 9779SOL    HW130236   3.091   2.352   0.160
 9779SOL    HW230237   3.034   2.209   0.108
 9780SOL     OW30238   1.345   3.028   1.180
 9780SOL    HW130239   1.366   3.101   1.116
 9780SOL    HW230240   1.328   3.067   1.271
 9781SOL     OW30241   6.643   0.408   4.621
 9781SOL    HW130242   6.699   0.480   4.581
 9781SOL    HW230243   6.674   0.319   4.588
 9782SOL     OW30244   5.527   0.110   0.147
 9782SOL    HW130245   5.459   0.181   0.163
 9782SOL    HW230246   5.499   0.026   0.193
 9783SOL     OW30247   6.213   6.924   4.347
 9783SOL    HW130248   6.148   6.961   4.280
 9783SOL    HW230249   6.291   6.986   4.356
 9784SOL     OW30250   4.782   0.753   5.085
 9784SOL    HW130251   4.701   0.710   5.044
 9784SOL    HW230252   4.807   0.704   5.168
 9785SOL     OW30253   1.124   2.386   0.960
 9785SOL    HW130254   1.154   2.346   1.047
 9785SOL    HW230255   1.190   2.363   0.888
 9786SOL     OW30256   1.276   6.980   3.564
 9786SOL    HW130257   1.259   6.996   3.661
 9786SOL    HW230258   1.298   0.039   3.519
 9787SOL     OW30259   5.760   4.057   1.275
 9787SOL    HW130260   5.734   3.986   1.341
 9787SOL    HW230261   5.846   4.032   1.231
 9788SOL     OW30262   6.895   0.180   6.292
 9788SOL    HW130263   6.958   0.118   6.245
 9788SOL    HW230264   6.835   0.127   6.352
 9789SOL     OW30265   2.494   4.563   4.073
 9789SOL    HW130266   2.487   4.495   4.001
 9789SOL    HW230267   2.469   4.522   4.161
 9790SOL     OW30268   0.714   1.299   3.110
 9790SOL    HW130269   0.665   1.242   3.175
 9790SOL    HW230270   0.666   1.386   3.098
 9791SOL     OW30271   1.473   2.384   0.760
 9791SOL    HW130272   1.457   2.289   0.788
 9791SOL    HW230273   1.479   2.442   0.841
 9792SOL     OW30274   5.011   5.706   3.066
 9792SOL    HW130275   4.955   5.639   3.017
 9792SOL    HW230276   5.107   5.681   3.060
 9793SOL     OW30277   4.787   5.490   1.913
 9793SOL    HW130278   4.858   5.557   1.889
 9793SOL    HW230279   4.748   5.514   2.002
 9794SOL     OW30280   3.485   4.604   0.199
 9794SOL    HW130281   3.519   4.667   0.268
 9794SOL    HW230282   3.537   4.616   0.114
 9795SOL     OW30283   1.726   5.477   2.359
 9795SOL    HW130284   1.729   5.556   2.420
 9795SOL    HW230285   1.801   5.483   2.293
 9796SOL     OW30286   3.749   5.123   6.229
 9796SOL    HW130287   3.666   5.071   6.250
 9796SOL    HW230288   3.726   5.199   6.168
 9797SOL     OW30289   6.498   3.283   5.124
 9797SOL    HW130290   6.465   3.279   5.218
 9797SOL    HW230291   6.508   3.190   5.089
 9798SOL     OW30292   3.161   1.776   1.709
 9798SOL    HW130293   3.135   1.872   1.704
 9798SOL    HW230294   3.249   1.768   1.757
 9799SOL     OW30295   4.091   3.769   3.125
 9799SOL    HW130296   4.186   3.789   3.150
 9799SOL    HW230297   4.089   3.723   3.036
 9800SOL     OW30298   4.270   6.008   0.784
 9800SOL    HW130299   4.260   5.914   0.816
 9800SOL    HW230300   4.181   6.053   0.784
 9801SOL     OW30301   5.851   5.033   1.613
 9801SOL    HW130302   5.760   5.057   1.581
 9801SOL    HW230303   5.885   4.955   1.561
 9802SOL     OW30304   0.989   6.227   2.380
 9802SOL    HW130305   0.944   6.289   2.316
 9802SOL    HW230306   0.929   6.150   2.400
 9803SOL     OW30307   5.705   6.783   5.502
 9803SOL    HW130308   5.713   6.686   5.524
 9803SOL    HW230309   5.733   6.799   5.407
 9804SOL     OW30310   5.445   6.246   3.968
 9804SOL    HW130311   5.542   6.240   3.990
 9804SOL    HW230312   5.430   6.212   3.875
 9805SOL     OW30313   2.677   4.823   0.946
 9805SOL    HW130314   2.707   4.760   1.017
 9805SOL    HW230315   2.659   4.772   0.861
 9806SOL     OW30316   1.221   0.900   2.734
 9806SOL    HW130317   1.208   0.841   2.814
 9806SOL    HW230318   1.267   0.984   2.762
 9807SOL     OW30319   2.026   3.871   0.739
 9807SOL    HW130320   1.949   3.935   0.733
 9807SOL    HW230321   2.112   3.923   0.735
 9808SOL     OW30322   2.174   2.103   3.278
 9808SOL    HW130323   2.166   2.200   3.300
 9808SOL    HW230324   2.091   2.072   3.233
 9809SOL     OW30325   0.320   0.046   4.401
 9809SOL    HW130326   0.395   0.001   4.352
 9809SOL    HW230327   0.341   0.144   4.412
 9810SOL     OW30328   4.770   1.908   2.675
 9810SOL    HW130329   4.721   1.824   2.651
 9810SOL    HW230330   4.826   1.892   2.756
 9811SOL     OW30331   1.742   0.095   2.880
 9811SOL    HW130332   1.829   0.123   2.921
 9811SOL    HW230333   1.675   0.167   2.891
 9812SOL     OW30334   6.022   2.870   7.008
 9812SOL    HW130335   5.943   2.822   0.019
 9812SOL    HW230336   6.102   2.855   0.039
 9813SOL     OW30337   6.404   4.688   0.227
 9813SOL    HW130338   6.339   4.613   0.214
 9813SOL    HW230339   6.358   4.775   0.213
 9814SOL     OW30340   6.470   1.174   5.428
 9814SOL    HW130341   6.504   1.266   5.449
 9814SOL    HW230342   6.370   1.176   5.425
 9815SOL     OW30343   0.038   5.342   2.548
 9815SOL    HW130344   0.062   5.346   2.451
 9815SOL    HW230345   6.967   5.347   2.558
 9816SOL     OW30346   6.767   2.586   5.178
 9816SOL    HW130347   6.786   2.672   5.226
 9816SOL    HW230348   6.841   2.567   5.114
 9817SOL     OW30349   2.090   1.912   0.219
 9817SOL    HW130350   2.126   1.828   0.259
 9817SOL    HW230351   2.050   1.969   0.292
 9818SOL     OW30352   6.933   0.699   2.460
 9818SOL    HW130353   6.971   0.788   2.485
 9818SOL    HW230354   7.003   0.628   2.472
 9819SOL     OW30355   5.990   0.955   5.224
 9819SOL    HW130356   6.081   0.936   5.186
 9819SOL    HW230357   5.987   1.049   5.258
 9820SOL     OW30358   3.404   0.882   6.143
 9820SOL    HW130359   3.485   0.877   6.201
 9820SOL    HW230360   3.396   0.797   6.090
 9821SOL     OW30361   4.202   4.023   6.193
 9821SOL    HW130362   4.233   4.097   6.252
 9821SOL    HW230363   4.108   3.999   6.216
 9822SOL     OW30364   2.993   7.008   3.528
 9822SOL    HW130365   3.046   6.991   3.611
 9822SOL    HW230366   2.933   0.059   3.543
 9823SOL     OW30367   3.999   0.026   2.302
 9823SOL    HW130368   4.022   0.122   2.313
 9823SOL    HW230369   3.970   0.009   2.208
 9824SOL     OW30370   1.963   6.704   5.002
 9824SOL    HW130371   1.865   6.681   5.000
 9824SOL    HW230372   1.980   6.777   4.936
 9825SOL     OW30373   0.428   6.841   4.798
 9825SOL    HW130374   0.435   6.750   4.757
 9825SOL    HW230375   0.369   6.838   4.878
 9826SOL     OW30376   1.514   0.025   5.101
 9826SOL    HW130377   1.598   7.021   5.144
 9826SOL    HW230378   1.487   0.113   5.141
 9827SOL     OW30379   2.172   4.613   1.144
 9827SOL    HW130380   2.205   4.550   1.214
 9827SOL    HW230381   2.076   4.592   1.123
 9828SOL     OW30382   5.043   1.915   4.306
 9828SOL    HW130383   5.015   1.828   4.266
 9828SOL    HW230384   5.111   1.958   4.247
 9829SOL     OW30385   5.410   4.192   5.816
 9829SOL    HW130386   5.427   4.225   5.723
 9829SOL    HW230387   5.496   4.161   5.857
 9830SOL     OW30388   6.055   0.133   3.623
 9830SOL    HW130389   6.123   0.180   3.681
 9830SOL    HW230390   6.029   0.047   3.667
 9831SOL     OW30391   1.302   4.502   1.528
 9831SOL    HW130392   1.374   4.435   1.509
 9831SOL    HW230393   1.270   4.542   1.443
 9832SOL     OW30394   5.735   5.661   4.726
 9832SOL    HW130395   5.647   5.628   4.759
 9832SOL    HW230396   5.801   5.659   4.801
 9833SOL     OW30397   3.981   3.185   4.185
 9833SOL    HW130398   3.959   3.245   4.109
 9833SOL    HW230399   4.062   3.219   4.233
 9834SOL     OW30400   2.838   5.980   6.037
 9834SOL    HW130401   2.773   6.046   6.000
 9834SOL    HW230402   2.870   5.920   5.963
 9835SOL     OW30403   3.936   3.211   3.722
 9835SOL    HW130404   4.001   3.252   3.787
 9835SOL    HW230405   3.863   3.276   3.703
 9836SOL     OW30406   0.153   3.316   6.487
 9836SOL    HW130407   0.204   3.305   6.402
 9836SOL    HW230408   0.147   3.228   6.534
 9837SOL     OW30409   6.457   0.879   5.506
 9837SOL    HW130410   6.498   0.970   5.496
 9837SOL    HW230411   6.477   0.843   5.597
 9838SOL     OW30412   0.138   5.727   1.478
 9838SOL    HW130413   0.161   5.649   1.420
 9838SOL    HW230414   0.221   5.764   1.519
 9839SOL     OW30415   4.092   6.816   3.272
 9839SOL    HW130416   4.028   6.818   3.195
 9839SOL    HW230417   4.042   6.830   3.357
 9840SOL     OW30418   6.347   1.797   5.529
 9840SOL    HW130419   6.430   1.821   5.580
 9840SOL    HW230420   6.323   1.702   5.547
 9841SOL     OW30421   0.076   5.327   2.269
 9841SOL    HW130422   0.059   5.368   2.179
 9841SOL    HW230423   0.026   5.241   2.277
 9842SOL     OW30424   4.043   0.795   0.748
 9842SOL    HW130425   3.977   0.856   0.704
 9842SOL    HW230426   4.056   0.823   0.843
 9843SOL     OW30427   0.612   0.232   0.768
 9843SOL    HW130428   0.611   0.235   0.668
 9843SOL    HW230429   0.703   0.259   0.801
 9844SOL     OW30430   5.725   0.844   4.689
 9844SOL    HW130431   5.656   0.773   4.692
 9844SOL    HW230432   5.771   0.842   4.600
 9845SOL     OW30433   0.512   3.379   2.548
 9845SOL    HW130434   0.595   3.346   2.502
 9845SOL    HW230435   0.534   3.459   2.603
 9846SOL     OW30436   6.043   1.884   3.376
 9846SOL    HW130437   5.966   1.942   3.404
 9846SOL    HW230438   6.097   1.930   3.306
 9847SOL     OW30439   4.510   3.614   0.316
 9847SOL    HW130440   4.501   3.552   0.238
 9847SOL    HW230441   4.433   3.601   0.378
 9848SOL     OW30442   3.401   3.427   6.502
 9848SOL    HW130443   3.439   3.462   6.587
 9848SOL    HW230444   3.303   3.448   6.498
 9849SOL     OW30445   2.051   2.370   2.236
 9849SOL    HW130446   2.112   2.449   2.231
 9849SOL    HW230447   1.987   2.382   2.311
 9850SOL     OW30448   2.580   0.087   3.805
 9850SOL    HW130449   2.528   0.158   3.758
 9850SOL    HW230450   2.583   0.005   3.748
 9851SOL     OW30451   3.871   6.488   3.382
 9851SOL    HW130452   3.822   6.533   3.307
 9851SOL    HW230453   3.812   6.419   3.423
 9852SOL     OW30454   2.487   0.857   6.462
 9852SOL    HW130455   2.401   0.839   6.414
 9852SOL    HW230456   2.475   0.839   6.559
 9853SOL     OW30457   6.984   3.549   4.120
 9853SOL    HW130458   6.998   3.558   4.022
 9853SOL    HW230459   6.900   3.496   4.137
 9854SOL     OW30460   6.424   4.026   6.662
 9854SOL    HW130461   6.455   3.962   6.731
 9854SOL    HW230462   6.500   4.050   6.601
 9855SOL     OW30463   0.509   6.317   0.448
 9855SOL    HW130464   0.563   6.274   0.520
 9855SOL    HW230465   0.412   6.310   0.471
 9856SOL     OW30466   4.619   4.721   3.585
 9856SOL    HW130467   4.633   4.706   3.683
 9856SOL    HW230468   4.584   4.637   3.543
 9857SOL     OW30469   3.915   6.726   5.660
 9857SOL    HW130470   3.891   6.813   5.704
 9857SOL    HW230471   3.985   6.680   5.714
 9858SOL     OW30472   6.097   5.124   2.604
 9858SOL    HW130473   6.121   5.053   2.671
 9858SOL    HW230474   6.136   5.211   2.634
 9859SOL     OW30475   6.990   6.707   3.022
 9859SOL    HW130476   6.910   6.709   3.082
 9859SOL    HW230477   6.961   6.685   2.929
 9860SOL     OW30478   1.329   3.845   3.415
 9860SOL    HW130479   1.323   3.878   3.321
 9860SOL    HW230480   1.283   3.909   3.476
 9861SOL     OW30481   4.195   1.895   4.159
 9861SOL    HW130482   4.295   1.894   4.153
 9861SOL    HW230483   4.160   1.984   4.127
 9862SOL     OW30484   1.200   3.218   6.156
 9862SOL    HW130485   1.268   3.290   6.164
 9862SOL    HW230486   1.245   3.129   6.148
 9863SOL     OW30487   3.699   5.674   1.814
 9863SOL    HW130488   3.659   5.651   1.725
 9863SOL    HW230489   3.627   5.680   1.883
 9864SOL     OW30490   3.473   6.381   5.042
 9864SOL    HW130491   3.544   6.406   4.976
 9864SOL    HW230492   3.516   6.345   5.125
 9865SOL     OW30493   2.634   4.637   6.337
 9865SOL    HW130494   2.649   4.680   6.248
 9865SOL    HW230495   2.540   4.601   6.341
 9866SOL     OW30496   1.017   5.671   4.880
 9866SOL    HW130497   0.941   5.617   4.916
 9866SOL    HW230498   1.101   5.618   4.888
 9867SOL     OW30499   5.233   0.817   3.004
 9867SOL    HW130500   5.166   0.891   2.994
 9867SOL    HW230501   5.185   0.731   3.025
 9868SOL     OW30502   2.472   5.450   2.813
 9868SOL    HW130503   2.541   5.388   2.849
 9868SOL    HW230504   2.429   5.500   2.888
 9869SOL     OW30505   6.447   1.478   2.864
 9869SOL    HW130506   6.467   1.575   2.850
 9869SOL    HW230507   6.453   1.429   2.777
 9870SOL     OW30508   2.174   3.368   3.602
 9870SOL    HW130509   2.128   3.452   3.573
 9870SOL    HW230510   2.272   3.383   3.605
 9871SOL     OW30511   5.220   5.327   2.762
 9871SOL    HW130512   5.278   5.246   2.760
 9871SOL    HW230513   5.276   5.407   2.783
 9872SOL     OW30514   0.289   6.311   4.740
 9872SOL    HW130515   0.235   6.356   4.669
 9872SOL    HW230516   0.245   6.224   4.765
 9873SOL     OW30517   0.995   0.709   4.402
 9873SOL    HW130518   0.989   0.611   4.417
 9873SOL    HW230519   0.903   0.748   4.398
 9874SOL     OW30520   0.117   2.769   4.621
 9874SOL    HW130521   0.075   2.678   4.631
 9874SOL    HW230522   0.155   2.797   4.709
 9875SOL     OW30523   5.422   5.403   1.007
 9875SOL    HW130524   5.363   5.369   0.934
 9875SOL    HW230525   5.424   5.503   1.004
 9876SOL     OW30526   0.774   7.021   3.026
 9876SOL    HW130527   0.859   6.976   2.999
 9876SOL    HW230528   0.779   0.091   3.003
 9877SOL     OW30529   1.623   5.874   4.928
 9877SOL    HW130530   1.627   5.830   5.018
 9877SOL    HW230531   1.694   5.944   4.922
 9878SOL     OW30532   4.928   4.174   7.018
 9878SOL    HW130533   4.867   4.186   0.069
 9878SOL    HW230534   4.873   4.175   6.934
 9879SOL     OW30535   6.206   4.889   4.642
 9879SOL    HW130536   6.240   4.965   4.696
 9879SOL    HW230537   6.106   4.891   4.639
 9880SOL     OW30538   2.792   1.491   0.930
 9880SOL    HW130539   2.849   1.432   0.986
 9880SOL    HW230540   2.704   1.506   0.975
 9881SOL     OW30541   6.333   0.222   2.731
 9881SOL    HW130542   6.329   0.292   2.659
 9881SOL    HW230543   6.259   0.157   2.718
 9882SOL     OW30544   2.974   3.832   4.953
 9882SOL    HW130545   3.039   3.758   4.972
 9882SOL    HW230546   2.966   3.844   4.854
 9883SOL     OW30547   0.357   4.984   2.818
 9883SOL    HW130548   0.373   4.972   2.916
 9883SOL    HW230549   0.407   4.914   2.767
 9884SOL     OW30550   3.569   2.871   5.105
 9884SOL    HW130551   3.541   2.944   5.167
 9884SOL    HW230552   3.587   2.910   5.015
 9885SOL     OW30553   4.827   2.383   5.238
 9885SOL    HW130554   4.786   2.438   5.165
 9885SOL    HW230555   4.818   2.432   5.325
 9886SOL     OW30556   2.191   5.947   1.285
 9886SOL    HW130557   2.123   5.928   1.215
 9886SOL    HW230558   2.148   5.992   1.363
 9887SOL     OW30559   3.352   1.721   7.018
 9887SOL    HW130560   3.439   1.749   0.031
 9887SOL    HW230561   3.357   1.730   6.919
 9888SOL     OW30562   6.818   6.991   4.009
 9888SOL    HW130563   6.834   6.971   3.912
 9888SOL    HW230564   6.890   0.024   4.042
 9889SOL     OW30565   6.548   5.832   2.157
 9889SOL    HW130566   6.589   5.814   2.246
 9889SOL    HW230567   6.611   5.806   2.084
 9890SOL     OW30568   1.482   3.265   3.417
 9890SOL    HW130569   1.513   3.241   3.325
 9890SOL    HW230570   1.385   3.244   3.426
 9891SOL     OW30571   3.483   0.386   1.158
 9891SOL    HW130572   3.562   0.328   1.178
 9891SOL    HW230573   3.511   0.482   1.159
 9892SOL     OW30574   2.327   5.874   3.058
 9892SOL    HW130575   2.342   5.837   2.966
 9892SOL    HW230576   2.407   5.927   3.085
 9893SOL     OW30577   5.561   4.900   4.602
 9893SOL    HW130578   5.617   4.884   4.520
 9893SOL    HW230579   5.591   4.984   4.646
 9894SOL     OW30580   4.670   3.371   6.050
 9894SOL    HW130581   4.589   3.319   6.074
 9894SOL    HW230582   4.646   3.468   6.042
 9895SOL     OW30583   5.540   2.811   6.135
 9895SOL    HW130584   5.460   2.762   6.171
 9895SOL    HW230585   5.595   2.845   6.211
 9896SOL     OW30586   3.250   3.964   6.255
 9896SOL    HW130587   3.281   3.903   6.328
 9896SOL    HW230588   3.293   4.054   6.266
 9897SOL     OW30589   1.019   1.317   3.039
 9897SOL    HW130590   1.074   1.395   3.012
 9897SOL    HW230591   0.957   1.292   2.964
 9898SOL     OW30592   0.288   5.427   6.985
 9898SOL    HW130593   0.379   5.470   6.983
 9898SOL    HW230594   0.298   5.329   6.970
 9899SOL     OW30595   3.826   4.988   0.386
 9899SOL    HW130596   3.776   4.965   0.470
 9899SOL    HW230597   3.917   4.946   0.389
 9900SOL     OW30598   2.636   5.293   3.004
 9900SOL    HW130599   2.583   5.213   2.974
 9900SOL    HW230600   2.694   5.267   3.080
 9901SOL     OW30601   2.946   1.740   5.963
 9901SOL    HW130602   2.966   1.650   6.000
 9901SOL    HW230603   2.855   1.740   5.922
 9902SOL     OW30604   3.779   4.412   6.655
 9902SOL    HW130605   3.813   4.497   6.696
 9902SOL    HW230606   3.853   4.369   6.603
 9903SOL     OW30607   3.424   1.261   0.569
 9903SOL    HW130608   3.497   1.317   0.608
 9903SOL    HW230609   3.339   1.280   0.618
 9904SOL     OW30610   0.011   6.416   1.810
 9904SOL    HW130611   0.078   6.485   1.781
 9904SOL    HW230612   0.048   6.325   1.794
 9905SOL     OW30613   2.356   6.672   6.634
 9905SOL    HW130614   2.406   6.758   6.624
 9905SOL    HW230615   2.405   6.612   6.697
 9906SOL     OW30616   3.150   3.468   6.652
 9906SOL    HW130617   3.073   3.524   6.622
 9906SOL    HW230618   3.116   3.393   6.709
 9907SOL     OW30619   0.840   6.508   3.569
 9907SOL    HW130620   0.842   6.592   3.515
 9907SOL    HW230621   0.934   6.476   3.582
 9908SOL     OW30622   0.286   3.240   6.102
 9908SOL    HW130623   0.216   3.283   6.045
 9908SOL    HW230624   0.251   3.155   6.140
 9909SOL     OW30625   2.877   5.634   2.090
 9909SOL    HW130626   2.975   5.650   2.104
 9909SOL    HW230627   2.863   5.577   2.009
 9910SOL     OW30628   1.190   5.276   0.656
 9910SOL    HW130629   1.179   5.210   0.731
 9910SOL    HW230630   1.103   5.323   0.640
 9911SOL     OW30631   3.136   4.594   1.678
 9911SOL    HW130632   3.214   4.549   1.722
 9911SOL    HW230633   3.052   4.570   1.726
 9912SOL     OW30634   6.471   6.403   0.100
 9912SOL    HW130635   6.456   6.305   0.090
 9912SOL    HW230636   6.540   6.433   0.033
 9913SOL     OW30637   6.091   2.425   1.091
 9913SOL    HW130638   6.122   2.392   1.002
 9913SOL    HW230639   6.022   2.362   1.128
 9914SOL     OW30640   2.227   5.314   3.709
 9914SOL    HW130641   2.289   5.271   3.775
 9914SOL    HW230642   2.273   5.318   3.620
 9915SOL     OW30643   5.946   4.779   4.860
 9915SOL    HW130644   5.993   4.714   4.919
 9915SOL    HW230645   5.927   4.863   4.910
 9916SOL     OW30646   1.410   2.892   0.840
 9916SOL    HW130647   1.359   2.856   0.762
 9916SOL    HW230648   1.392   2.834   0.920
 9917SOL     OW30649   1.603   4.746   4.523
 9917SOL    HW130650   1.647   4.834   4.507
 9917SOL    HW230651   1.637   4.706   4.608
 9918SOL     OW30652   2.995   2.075   3.910
 9918SOL    HW130653   3.084   2.043   3.944
 9918SOL    HW230654   2.938   1.997   3.886
 9919SOL     OW30655   0.720   6.020   1.481
 9919SOL    HW130656   0.729   6.047   1.577
 9919SOL    HW230657   0.687   5.926   1.475
 9920SOL     OW30658   3.513   0.291   2.518
 9920SOL    HW130659   3.498   0.237   2.600
 9920SOL    HW230660   3.463   0.250   2.441
 9921SOL     OW30661   4.669   0.452   2.756
 9921SOL    HW130662   4.638   0.546   2.748
 9921SOL    HW230663   4.659   0.406   2.667
 9922SOL     OW30664   6.165   2.119   2.921
 9922SOL    HW130665   6.205   2.043   2.870
 9922SOL    HW230666   6.124   2.185   2.858
 9923SOL     OW30667   5.283   6.639   6.257
 9923SOL    HW130668   5.270   6.575   6.332
 9923SOL    HW230669   5.195   6.655   6.212
 9924SOL     OW30670   6.134   6.562   3.998
 9924SOL    HW130671   6.221   6.519   3.975
 9924SOL    HW230672   6.066   6.491   4.016
 9925SOL     OW30673   3.814   2.256   5.562
 9925SOL    HW130674   3.741   2.312   5.600
 9925SOL    HW230675   3.891   2.253   5.625
 9926SOL     OW30676   1.609   1.065   6.469
 9926SOL    HW130677   1.666   1.134   6.514
 9926SOL    HW230678   1.647   1.043   6.379
 9927SOL     OW30679   2.252   4.254   4.260
 9927SOL    HW130680   2.286   4.162   4.274
 9927SOL    HW230681   2.193   4.280   4.336
 9928SOL     OW30682   6.484   3.713   3.290
 9928SOL    HW130683   6.525   3.762   3.213
 9928SOL    HW230684   6.540   3.724   3.372
 9929SOL     OW30685   1.672   5.272   5.131
 9929SOL    HW130686   1.723   5.257   5.215
 9929SOL    HW230687   1.594   5.332   5.148
 9930SOL     OW30688   0.090   6.431   0.166
 9930SOL    HW130689   0.169   6.460   0.220
 9930SOL    HW230690   0.103   6.337   0.135
 9931SOL     OW30691   1.121   3.657   6.881
 9931SOL    HW130692   1.104   3.624   6.788
 9931SOL    HW230693   1.147   3.581   6.940
 9932SOL     OW30694   2.212   1.546   1.195
 9932SOL    HW130695   2.140   1.584   1.253
 9932SOL    HW230696   2.302   1.574   1.231
 9933SOL     OW30697   2.256   1.720   2.965
 9933SOL    HW130698   2.295   1.808   2.938
 9933SOL    HW230699   2.253   1.659   2.886
 9934SOL     OW30700   4.967   1.224   5.669
 9934SOL    HW130701   5.032   1.149   5.665
 9934SOL    HW230702   4.945   1.243   5.765
 9935SOL     OW30703   3.383   2.314   6.756
 9935SOL    HW130704   3.359   2.410   6.739
 9935SOL    HW230705   3.479   2.300   6.735
 9936SOL     OW30706   4.651   6.346   0.748
 9936SOL    HW130707   4.551   6.345   0.748
 9936SOL    HW230708   4.686   6.252   0.758
 9937SOL     OW30709   1.184   0.348   5.508
 9937SOL    HW130710   1.278   0.330   5.534
 9937SOL    HW230711   1.143   0.266   5.468
 9938SOL     OW30712   1.645   1.873   4.086
 9938SOL    HW130713   1.610   1.934   4.157
 9938SOL    HW230714   1.576   1.862   4.015
 9939SOL     OW30715   3.164   3.418   0.509
 9939SOL    HW130716   3.126   3.499   0.552
 9939SOL    HW230717   3.236   3.379   0.566
 9940SOL     OW30718   6.132   1.189   2.843
 9940SOL    HW130719   6.097   1.100   2.871
 9940SOL    HW230720   6.197   1.223   2.911
 9941SOL     OW30721   6.175   3.336   0.894
 9941SOL    HW130722   6.075   3.330   0.886
 9941SOL    HW230723   6.216   3.313   0.806
 9942SOL     OW30724   5.673   4.706   2.455
 9942SOL    HW130725   5.577   4.680   2.454
 9942SOL    HW230726   5.686   4.790   2.402
 9943SOL     OW30727   1.275   5.092   4.750
 9943SOL    HW130728   1.187   5.054   4.722
 9943SOL    HW230729   1.333   5.019   4.786
 9944SOL     OW30730   2.530   5.144   6.024
 9944SOL    HW130731   2.480   5.058   6.032
 9944SOL    HW230732   2.544   5.183   6.115
 9945SOL     OW30733   6.221   3.124   5.187
 9945SOL    HW130734   6.191   3.068   5.265
 9945SOL    HW230735   6.223   3.067   5.105
 9946SOL     OW30736   5.569   1.840   1.418
 9946SOL    HW130737   5.650   1.818   1.472
 9946SOL    HW230738   5.506   1.762   1.420
 9947SOL     OW30739   6.890   0.655   3.296
 9947SOL    HW130740   6.922   0.563   3.322
 9947SOL    HW230741   6.793   0.664   3.319
 9948SOL     OW30742   4.790   1.545   5.160
 9948SOL    HW130743   4.826   1.471   5.218
 9948SOL    HW230744   4.709   1.512   5.111
 9949SOL     OW30745   6.937   3.404   2.814
 9949SOL    HW130746   7.024   3.358   2.829
 9949SOL    HW230747   6.893   3.423   2.902
 9950SOL     OW30748   5.227   4.750   5.738
 9950SOL    HW130749   5.191   4.825   5.683
 9950SOL    HW230750   5.155   4.682   5.753
 9951SOL     OW30751   0.110   2.538   2.286
 9951SOL    HW130752   0.109   2.610   2.355
 9951SOL    HW230753   0.029   2.546   2.228
 9952SOL     OW30754   1.832   4.648   1.554
 9952SOL    HW130755   1.734   4.663   1.566
 9952SOL    HW230756   1.861   4.571   1.609
 9953SOL     OW30757   6.195   3.749   5.730
 9953SOL    HW130758   6.237   3.691   5.800
 9953SOL    HW230759   6.135   3.816   5.774
 9954SOL     OW30760   5.020   2.678   1.889
 9954SOL    HW130761   5.073   2.745   1.941
 9954SOL    HW230762   4.926   2.710   1.879
 9955SOL     OW30763   5.825   5.105   2.582
 9955SOL    HW130764   5.797   5.055   2.500
 9955SOL    HW230765   5.923   5.122   2.579
 9956SOL     OW30766   1.934   4.862   3.059
 9956SOL    HW130767   1.845   4.904   3.077
 9956SOL    HW230768   1.927   4.804   2.978
 9957SOL     OW30769   5.975   6.511   0.402
 9957SOL    HW130770   5.969   6.436   0.467
 9957SOL    HW230771   6.055   6.568   0.423
 9958SOL     OW30772   6.652   6.025   5.675
 9958SOL    HW130773   6.718   6.088   5.716
 9958SOL    HW230774   6.611   5.969   5.747
 9959SOL     OW30775   5.931   5.258   7.024
 9959SOL    HW130776   5.935   5.159   7.009
 9959SOL    HW230777   5.934   5.276   0.095
 9960SOL     OW30778   5.963   0.601   6.067
 9960SOL    HW130779   6.047   0.547   6.065
 9960SOL    HW230780   5.917   0.589   6.155
 9961SOL     OW30781   3.026   6.967   0.050
 9961SOL    HW130782   2.989   6.981   0.142
 9961SOL    HW230783   2.951   6.969   7.012
 9962SOL     OW30784   4.368   1.074   1.867
 9962SOL    HW130785   4.343   1.164   1.901
 9962SOL    HW230786   4.425   1.084   1.786
 9963SOL     OW30787   0.524   0.350   6.451
 9963SOL    HW130788   0.425   0.344   6.456
 9963SOL    HW230789   0.565   0.268   6.492
 9964SOL     OW30790   4.801   5.416   5.731
 9964SOL    HW130791   4.781   5.466   5.815
 9964SOL    HW230792   4.803   5.480   5.654
 9965SOL     OW30793   2.289   5.374   5.508
 9965SOL    HW130794   2.281   5.284   5.550
 9965SOL    HW230795   2.322   5.440   5.576
 9966SOL     OW30796   1.914   4.251   2.192
 9966SOL    HW130797   1.863   4.298   2.264
 9966SOL    HW230798   1.867   4.264   2.105
 9967SOL     OW30799   6.351   0.967   2.271
 9967SOL    HW130800   6.385   0.958   2.177
 9967SOL    HW230801   6.253   0.986   2.269
 9968SOL     OW30802   4.632   6.478   6.256
 9968SOL    HW130803   4.593   6.483   6.163
 9968SOL    HW230804   4.706   6.544   6.264
 9969SOL     OW30805   1.195   6.807   3.385
 9969SOL    HW130806   1.097   6.812   3.406
 9969SOL    HW230807   1.245   6.870   3.444
 9970SOL     OW30808   0.679   2.757   1.343
 9970SOL    HW130809   0.651   2.852   1.331
 9970SOL    HW230810   0.748   2.750   1.414
 9971SOL     OW30811   6.980   5.836   5.954
 9971SOL    HW130812   7.025   5.760   6.001
 9971SOL    HW230813   6.897   5.860   6.003
 9972SOL     OW30814   3.251   5.054   5.658
 9972SOL    HW130815   3.190   4.998   5.601
 9972SOL    HW230816   3.217   5.054   5.752
 9973SOL     OW30817   3.226   1.906   2.828
 9973SOL    HW130818   3.248   1.990   2.778
 9973SOL    HW230819   3.128   1.886   2.820
 9974SOL     OW30820   0.368   4.705   3.406
 9974SOL    HW130821   0.289   4.762   3.431
 9974SOL    HW230822   0.355   4.669   3.313
 9975SOL     OW30823   1.234   4.584   6.934
 9975SOL    HW130824   1.229   4.610   6.837
 9975SOL    HW230825   1.319   4.534   6.951
 9976SOL     OW30826   4.499   5.269   4.960
 9976SOL    HW130827   4.494   5.356   4.911
 9976SOL    HW230828   4.572   5.274   5.029
 9977SOL     OW30829   3.376   0.303   6.118
 9977SOL    HW130830   3.439   0.345   6.183
 9977SOL    HW230831   3.309   0.248   6.168
 9978SOL     OW30832   7.004   3.167   6.883
 9978SOL    HW130833   0.017   3.211   6.963
 9978SOL    HW230834   0.048   3.144   6.817
 9979SOL     OW30835   3.406   3.809   3.848
 9979SOL    HW130836   3.484   3.754   3.817
 9979SOL    HW230837   3.362   3.765   3.926
 9980SOL     OW30838   0.786   6.825   6.230
 9980SOL    HW130839   0.710   6.766   6.257
 9980SOL    HW230840   0.842   6.778   6.162
 9981SOL     OW30841   5.482   2.220   1.573
 9981SOL    HW130842   5.521   2.308   1.543
 9981SOL    HW230843   5.484   2.216   1.673
 9982SOL     OW30844   2.440   1.258   5.318
 9982SOL    HW130845   2.493   1.281   5.237
 9982SOL    HW230846   2.487   1.292   5.400
 9983SOL     OW30847   0.663   2.376   2.075
 9983SOL    HW130848   0.746   2.403   2.026
 9983SOL    HW230849   0.631   2.288   2.041
 9984SOL     OW30850   1.244   4.759   0.815
 9984SOL    HW130851   1.303   4.806   0.880
 9984SOL    HW230852   1.171   4.821   0.786
 9985SOL     OW30853   5.939   4.846   5.817
 9985SOL    HW130854   5.847   4.850   5.858
 9985SOL    HW230855   5.998   4.913   5.862
 9986SOL     OW30856   5.407   4.287   0.556
 9986SOL    HW130857   5.322   4.331   0.527
 9986SOL    HW230858   5.403   4.269   0.655
 9987SOL     OW30859   5.913   1.633   0.721
 9987SOL    HW130860   5.848   1.558   0.733
 9987SOL    HW230861   5.903   1.698   0.796
 9988SOL     OW30862   5.160   0.121   4.381
 9988SOL    HW130863   5.194   0.086   4.294
 9988SOL    HW230864   5.090   0.059   4.418
 9989SOL     OW30865   6.781   5.247   1.385
 9989SOL    HW130866   6.691   5.259   1.343
 9989SOL    HW230867   6.800   5.149   1.396
 9990SOL     OW30868   0.920   6.547   2.715
 9990SOL    HW130869   0.897   6.642   2.734
 9990SOL    HW230870   1.019   6.536   2.710
 9991SOL     OW30871   2.164   2.936   1.996
 9991SOL    HW130872   2.155   3.034   2.014
 9991SOL    HW230873   2.190   2.922   1.901
 9992SOL     OW30874   1.384   3.829   0.543
 9992SOL    HW130875   1.427   3.889   0.611
 9992SOL    HW230876   1.384   3.876   0.454
 9993SOL     OW30877   4.127   6.980   4.327
 9993SOL    HW130878   4.167   0.044   4.333
 9993SOL    HW230879   4.040   6.985   4.279
 9994SOL     OW30880   5.542   5.109   5.392
 9994SOL    HW130881   5.459   5.108   5.449
 9994SOL    HW230882   5.599   5.186   5.418
 9995SOL     OW30883   4.039   2.553   6.287
 9995SOL    HW130884   4.131   2.588   6.269
 9995SOL    HW230885   3.996   2.530   6.200
 9996SOL     OW30886   2.797   4.095   1.695
 9996SOL    HW130887   2.839   4.139   1.615
 9996SOL    HW230888   2.853   4.113   1.776
 9997SOL     OW30889   5.653   0.107   3.528
 9997SOL    HW130890   5.629   0.133   3.435
 9997SOL    HW230891   5.717   0.174   3.566
 9998SOL     OW30892   6.166   3.583   2.870
 9998SOL    HW130893   6.098   3.604   2.799
 9998SOL    HW230894   6.242   3.648   2.864
 9999SOL     OW30895   0.985   0.413   4.465
 9999SOL    HW130896   0.990   0.330   4.409
 9999SOL    HW230897   1.022   0.395   4.556
10000SOL     OW30898   4.334   3.438   1.574
10000SOL    HW130899   4.240   3.472   1.578
10000SOL    HW230900   4.370   3.451   1.482
10001SOL     OW30901   3.618   5.328   1.497
10001SOL    HW130902   3.682   5.355   1.569
10001SOL    HW230903   3.524   5.336   1.531
10002SOL     OW30904   2.536   6.458   2.573
10002SOL    HW130905   2.591   6.452   2.657
10002SOL    HW230906   2.523   6.554   2.548
10003SOL     OW30907   0.973   1.765   2.889
10003SOL    HW130908   1.036   1.693   2.918
10003SOL    HW230909   0.958   1.828   2.965
10004SOL     OW30910   0.701   2.505   2.653
10004SOL    HW130911   0.723   2.408   2.651
10004SOL    HW230912   0.785   2.558   2.640
10005SOL     OW30913   1.996   5.969   2.657
10005SOL    HW130914   2.025   6.055   2.617
10005SOL    HW230915   1.897   5.970   2.670
10006SOL     OW30916   5.047   2.041   6.642
10006SOL    HW130917   5.018   2.123   6.594
10006SOL    HW230918   5.126   2.001   6.596
10007SOL     OW30919   1.783   5.164   2.770
10007SOL    HW130920   1.725   5.199   2.696
10007SOL    HW230921   1.847   5.235   2.799
10008SOL     OW30922   2.818   0.711   5.552
10008SOL    HW130923   2.883   0.700   5.476
10008SOL    HW230924   2.831   0.636   5.617
10009SOL     OW30925   1.019   4.907   1.699
10009SOL    HW130926   0.934   4.854   1.691
10009SOL    HW230927   1.024   4.972   1.623
10010SOL     OW30928   2.112   4.302   0.490
10010SOL    HW130929   2.051   4.268   0.418
10010SOL    HW230930   2.207   4.297   0.457
10011SOL     OW30931   3.336   3.258   6.988
10011SOL    HW130932   3.261   3.302   6.939
10011SOL    HW230933   3.302   3.177   0.007
10012SOL     OW30934   5.403   2.099   3.075
10012SOL    HW130935   5.479   2.036   3.058
10012SOL    HW230936   5.333   2.053   3.128
10013SOL     OW30937   0.393   6.319   5.741
10013SOL    HW130938   0.485   6.360   5.746
10013SOL    HW230939   0.343   6.340   5.825
10014SOL     OW30940   1.295   1.595   2.487
10014SOL    HW130941   1.328   1.646   2.407
10014SOL    HW230942   1.239   1.655   2.544
10015SOL     OW30943   4.034   0.589   0.193
10015SOL    HW130944   4.040   0.685   0.219
10015SOL    HW230945   3.955   0.575   0.134
10016SOL     OW30946   3.101   1.487   5.172
10016SOL    HW130947   3.155   1.553   5.224
10016SOL    HW230948   3.023   1.457   5.228
10017SOL     OW30949   2.994   2.207   3.362
10017SOL    HW130950   3.003   2.169   3.453
10017SOL    HW230951   3.085   2.228   3.325
10018SOL     OW30952   7.002   4.520   5.953
10018SOL    HW130953   0.005   4.611   5.926
10018SOL    HW230954   7.002   4.512   6.053
10019SOL     OW30955   0.447   1.808   3.205
10019SOL    HW130956   0.433   1.784   3.301
10019SOL    HW230957   0.413   1.901   3.189
10020SOL     OW30958   6.619   0.656   3.413
10020SOL    HW130959   6.621   0.750   3.447
10020SOL    HW230960   6.556   0.602   3.468
10021SOL     OW30961   2.299   4.110   1.894
10021SOL    HW130962   2.348   4.134   1.979
10021SOL    HW230963   2.247   4.026   1.909
10022SOL     OW30964   0.806   6.350   6.074
10022SOL    HW130965   0.784   6.270   6.130
10022SOL    HW230966   0.873   6.407   6.121
10023SOL     OW30967   1.392   1.008   4.514
10023SOL    HW130968   1.381   1.086   4.576
10023SOL    HW230969   1.328   0.936   4.540
10024SOL     OW30970   2.002   3.523   3.141
10024SOL    HW130971   1.912   3.555   3.111
10024SOL    HW230972   2.036   3.584   3.213
10025SOL     OW30973   7.018   1.571   1.745
10025SOL    HW130974   6.947   1.585   1.815
10025SOL    HW230975   0.024   1.477   1.751
10026SOL     OW30976   6.864   1.373   5.001
10026SOL    HW130977   6.872   1.473   4.999
10026SOL    HW230978   6.851   1.340   4.908
10027SOL     OW30979   3.590   1.748   5.786
10027SOL    HW130980   3.545   1.670   5.830
10027SOL    HW230981   3.529   1.827   5.787
10028SOL     OW30982   3.843   6.051   2.101
10028SOL    HW130983   3.858   6.144   2.067
10028SOL    HW230984   3.914   6.029   2.169
10029SOL     OW30985   7.027   5.288   3.366
10029SOL    HW130986   6.984   5.353   3.428
10029SOL    HW230987   6.968   5.207   3.356
10030SOL     OW30988   3.326   6.732   3.858
10030SOL    HW130989   3.318   6.796   3.782
10030SOL    HW230990   3.384   6.655   3.832
10031SOL     OW30991   2.094   6.179   3.171
10031SOL    HW130992   2.058   6.268   3.199
10031SOL    HW230993   2.022   6.127   3.125
10032SOL     OW30994   2.191   5.553   4.496
10032SOL    HW130995   2.126   5.549   4.572
10032SOL    HW230996   2.228   5.646   4.488
10033SOL     OW30997   2.293   1.604   4.074
10033SOL    HW130998   2.321   1.662   3.997
10033SOL    HW230999   2.246   1.660   4.142
10034SOL     OW31000   2.633   0.662   1.173
10034SOL    HW131001   2.643   0.563   1.188
10034SOL    HW231002   2.549   0.694   1.218
10035SOL     OW31003   0.067   2.881   2.196
10035SOL    HW131004   0.097   2.825   2.273
10035SOL    HW231005   0.143   2.938   2.165
10036SOL     OW31006   0.317   1.520   0.257
10036SOL    HW131007   0.260   1.595   0.289
10036SOL    HW231008   0.396   1.558   0.207
10037SOL     OW31009   6.279   0.915   6.530
10037SOL    HW131010   6.197   0.858   6.529
10037SOL    HW231011   6.282   0.968   6.615
10038SOL     OW31012   3.811   0.353   0.121
10038SOL    HW131013   3.841   0.329   0.028
10038SOL    HW231014   3.750   0.432   0.116
10039SOL     OW31015   0.171   4.141   0.607
10039SOL    HW131016   0.121   4.227   0.605
10039SOL    HW231017   0.264   4.157   0.640
10040SOL     OW31018   3.284   0.714   0.923
10040SOL    HW131019   3.383   0.704   0.921
10040SOL    HW231020   3.251   0.739   0.831
10041SOL     OW31021   5.683   4.642   6.025
10041SOL    HW131022   5.586   4.619   6.036
10041SOL    HW231023   5.725   4.576   5.963
10042SOL     OW31024   5.701   0.173   4.736
10042SOL    HW131025   5.719   0.247   4.800
10042SOL    HW231026   5.767   0.100   4.750
10043SOL     OW31027   0.791   0.277   3.019
10043SOL    HW131028   0.716   0.302   2.959
10043SOL    HW231029   0.811   0.353   3.082
10044SOL     OW31030   2.485   2.272   6.836
10044SOL    HW131031   2.536   2.325   6.768
10044SOL    HW231032   2.529   2.183   6.849
10045SOL     OW31033   3.877   6.688   4.777
10045SOL    HW131034   3.964   6.684   4.825
10045SOL    HW231035   3.886   6.744   4.694
10046SOL     OW31036   6.721   1.263   0.606
10046SOL    HW131037   6.630   1.305   0.594
10046SOL    HW231038   6.775   1.279   0.523
10047SOL     OW31039   1.249   2.082   3.935
10047SOL    HW131040   1.224   2.175   3.961
10047SOL    HW231041   1.188   2.051   3.861
10048SOL     OW31042   3.137   2.384   1.698
10048SOL    HW131043   3.074   2.388   1.776
10048SOL    HW231044   3.223   2.342   1.728
10049SOL     OW31045   0.860   4.759   5.023
10049SOL    HW131046   0.835   4.788   5.115
10049SOL    HW231047   0.893   4.837   4.971
10050SOL     OW31048   6.265   1.521   5.164
10050SOL    HW131049   6.268   1.421   5.154
10050SOL    HW231050   6.326   1.563   5.097
10051SOL     OW31051   6.086   1.655   1.062
10051SOL    HW131052   6.120   1.587   0.997
10051SOL    HW231053   6.038   1.610   1.136
10052SOL     OW31054   1.978   5.481   0.487
10052SOL    HW131055   1.996   5.520   0.577
10052SOL    HW231056   2.018   5.390   0.482
10053SOL     OW31057   3.399   6.974   3.179
10053SOL    HW131058   3.393   6.893   3.237
10053SOL    HW231059   3.427   6.947   3.087
10054SOL     OW31060   5.519   4.439   4.075
10054SOL    HW131061   5.511   4.535   4.102
10054SOL    HW231062   5.502   4.432   3.976
10055SOL     OW31063   4.913   2.266   6.826
10055SOL    HW131064   4.937   2.215   6.744
10055SOL    HW231065   4.818   2.246   6.852
10056SOL     OW31066   5.049   4.098   2.735
10056SOL    HW131067   5.126   4.095   2.800
10056SOL    HW231068   4.983   4.027   2.759
10057SOL     OW31069   2.225   3.053   3.194
10057SOL    HW131070   2.185   3.097   3.274
10057SOL    HW231071   2.197   3.102   3.111
10058SOL     OW31072   1.402   5.246   3.429
10058SOL    HW131073   1.319   5.302   3.417
10058SOL    HW231074   1.391   5.160   3.379
10059SOL     OW31075   4.058   6.227   1.567
10059SOL    HW131076   4.031   6.309   1.617
10059SOL    HW231077   3.976   6.182   1.530
10060SOL     OW31078   2.417   2.570   2.565
10060SOL    HW131079   2.350   2.588   2.493
10060SOL    HW231080   2.413   2.642   2.634
10061SOL     OW31081   0.351   1.855   5.743
10061SOL    HW131082   0.402   1.830   5.662
10061SOL    HW231083   0.263   1.807   5.744
10062SOL     OW31084   6.071   5.757   2.428
10062SOL    HW131085   6.048   5.673   2.478
10062SOL    HW231086   6.121   5.733   2.344
10063SOL     OW31087   0.998   2.850   2.508
10063SOL    HW131088   1.048   2.920   2.457
10063SOL    HW231089   0.900   2.869   2.504
10064SOL     OW31090   5.169   4.720   5.263
10064SOL    HW131091   5.102   4.712   5.337
10064SOL    HW231092   5.243   4.782   5.292
10065SOL     OW31093   0.226   0.142   2.563
10065SOL    HW131094   0.297   0.081   2.528
10065SOL    HW231095   0.265   0.232   2.581
10066SOL     OW31096   6.438   0.551   4.374
10066SOL    HW131097   6.486   0.559   4.462
10066SOL    HW231098   6.481   0.481   4.318
10067SOL     OW31099   4.863   6.655   2.611
10067SOL    HW131100   4.898   6.714   2.684
10067SOL    HW231101   4.764   6.667   2.604
10068SOL     OW31102   5.415   3.356   5.778
10068SOL    HW131103   5.400   3.398   5.867
10068SOL    HW231104   5.451   3.263   5.790
10069SOL     OW31105   4.939   1.058   4.893
10069SOL    HW131106   4.998   0.978   4.907
10069SOL    HW231107   4.922   1.102   4.981
10070SOL     OW31108   0.500   0.331   4.339
10070SOL    HW131109   0.565   0.259   4.362
10070SOL    HW231110   0.549   0.416   4.319
10071SOL     OW31111   4.623   4.473   5.118
10071SOL    HW131112   4.647   4.536   5.193
10071SOL    HW231113   4.527   4.485   5.093
10072SOL     OW31114   0.136   6.219   4.128
10072SOL    HW131115   0.194   6.285   4.175
10072SOL    HW231116   0.046   6.261   4.110
10073SOL     OW31117   0.101   0.054   6.891
10073SOL    HW131118   0.186   0.053   6.943
10073SOL    HW231119   0.025   0.028   6.950
10074SOL     OW31120   1.986   6.149   4.391
10074SOL    HW131121   1.982   6.083   4.316
10074SOL    HW231122   2.068   6.132   4.446
10075SOL     OW31123   1.264   2.438   4.647
10075SOL    HW131124   1.253   2.339   4.639
10075SOL    HW231125   1.183   2.484   4.609
10076SOL     OW31126   5.773   6.829   3.499
10076SOL    HW131127   5.783   6.800   3.594
10076SOL    HW231128   5.790   6.927   3.492
10077SOL     OW31129   2.265   1.114   5.848
10077SOL    HW131130   2.185   1.169   5.873
10077SOL    HW231131   2.333   1.173   5.804
10078SOL     OW31132   5.652   6.255   4.890
10078SOL    HW131133   5.694   6.297   4.970
10078SOL    HW231134   5.721   6.204   4.839
10079SOL     OW31135   0.847   3.462   5.779
10079SOL    HW131136   0.799   3.389   5.829
10079SOL    HW231137   0.941   3.470   5.812
10080SOL     OW31138   1.530   2.148   5.196
10080SOL    HW131139   1.438   2.172   5.230
10080SOL    HW231140   1.523   2.112   5.103
10081SOL     OW31141   0.708   0.999   0.982
10081SOL    HW131142   0.697   0.905   0.952
10081SOL    HW231143   0.662   1.013   1.070
10082SOL     OW31144   0.096   0.830   0.346
10082SOL    HW131145   0.037   0.786   0.278
10082SOL    HW231146   0.166   0.765   0.377
10083SOL     OW31147   5.311   1.397   4.660
10083SOL    HW131148   5.309   1.446   4.572
10083SOL    HW231149   5.240   1.327   4.660
10084SOL     OW31150   2.812   0.719   0.001
10084SOL    HW131151   2.868   0.801   7.013
10084SOL    HW231152   2.871   0.639   0.009
10085SOL     OW31153   0.488   5.583   2.728
10085SOL    HW131154   0.458   5.503   2.675
10085SOL    HW231155   0.552   5.553   2.799
10086SOL     OW31156   6.860   1.821   2.625
10086SOL    HW131157   6.900   1.847   2.713
10086SOL    HW231158   6.873   1.723   2.610
10087SOL     OW31159   1.808   0.274   3.328
10087SOL    HW131160   1.710   0.276   3.349
10087SOL    HW231161   1.833   0.183   3.295
10088SOL     OW31162   5.586   6.747   4.611
10088SOL    HW131163   5.513   6.758   4.678
10088SOL    HW231164   5.560   6.792   4.525
10089SOL     OW31165   2.341   2.279   2.175
10089SOL    HW131166   2.260   2.222   2.159
10089SOL    HW231167   2.382   2.255   2.263
10090SOL     OW31168   0.651   5.811   2.184
10090SOL    HW131169   0.664   5.750   2.262
10090SOL    HW231170   0.555   5.838   2.179
10091SOL     OW31171   0.988   1.428   4.030
10091SOL    HW131172   1.003   1.379   4.116
10091SOL    HW231173   1.036   1.382   3.956
10092SOL     OW31174   2.644   2.586   5.300
10092SOL    HW131175   2.588   2.669   5.301
10092SOL    HW231176   2.585   2.505   5.300
10093SOL     OW31177   6.595   6.857   5.412
10093SOL    HW131178   6.576   6.774   5.359
10093SOL    HW231179   6.513   6.914   5.415
10094SOL     OW31180   1.211   0.415   1.750
10094SOL    HW131181   1.234   0.420   1.847
10094SOL    HW231182   1.182   0.322   1.727
10095SOL     OW31183   0.639   2.782   4.945
10095SOL    HW131184   0.739   2.785   4.953
10095SOL    HW231185   0.614   2.711   4.880
10096SOL     OW31186   6.382   5.933   2.872
10096SOL    HW131187   6.286   5.957   2.857
10096SOL    HW231188   6.438   6.016   2.866
10097SOL     OW31189   2.125   1.725   5.748
10097SOL    HW131190   2.161   1.733   5.656
10097SOL    HW231191   2.028   1.699   5.745
10098SOL     OW31192   2.896   4.709   6.408
10098SOL    HW131193   2.804   4.672   6.393
10098SOL    HW231194   2.958   4.674   6.338
10099SOL     OW31195   1.075   3.447   4.205
10099SOL    HW131196   1.131   3.530   4.208
10099SOL    HW231197   1.024   3.438   4.291
10100SOL     OW31198   4.328   0.513   6.170
10100SOL    HW131199   4.425   0.519   6.191
10100SOL    HW231200   4.282   0.460   6.242
10101SOL     OW31201   0.769   3.540   2.295
10101SOL    HW131202   0.758   3.455   2.346
10101SOL    HW231203   0.815   3.608   2.352
10102SOL     OW31204   3.885   0.726   4.490
10102SOL    HW131205   3.948   0.788   4.536
10102SOL    HW231206   3.834   0.775   4.420
10103SOL     OW31207   6.750   2.969   0.828
10103SOL    HW131208   6.824   2.925   0.878
10103SOL    HW231209   6.778   2.985   0.734
10104SOL     OW31210   2.001   5.145   5.768
10104SOL    HW131211   1.943   5.182   5.840
10104SOL    HW231212   2.032   5.053   5.794
10105SOL     OW31213   3.967   0.582   6.714
10105SOL    HW131214   4.029   0.537   6.779
10105SOL    HW231215   4.012   0.662   6.675
10106SOL     OW31216   4.761   5.787   0.926
10106SOL    HW131217   4.857   5.817   0.931
10106SOL    HW231218   4.758   5.687   0.925
10107SOL     OW31219   5.529   2.192   5.812
10107SOL    HW131220   5.487   2.106   5.783
10107SOL    HW231221   5.593   2.223   5.741
10108SOL     OW31222   4.817   6.062   6.444
10108SOL    HW131223   4.869   5.976   6.441
10108SOL    HW231224   4.835   6.109   6.530
10109SOL     OW31225   5.183   6.361   4.075
10109SOL    HW131226   5.178   6.383   4.173
10109SOL    HW231227   5.267   6.311   4.057
10110SOL     OW31228   3.589   2.501   6.380
10110SOL    HW131229   3.623   2.524   6.289
10110SOL    HW231230   3.489   2.504   6.379
10111SOL     OW31231   6.692   2.352   1.638
10111SOL    HW131232   6.655   2.288   1.705
10111SOL    HW231233   6.757   2.414   1.683
10112SOL     OW31234   4.754   4.192   5.653
10112SOL    HW131235   4.655   4.176   5.656
10112SOL    HW231236   4.801   4.104   5.641
10113SOL     OW31237   3.675   0.107   0.963
10113SOL    HW131238   3.650   0.193   0.918
10113SOL    HW231239   3.591   0.056   0.985
10114SOL     OW31240   4.467   1.687   2.055
10114SOL    HW131241   4.562   1.719   2.060
10114SOL    HW231242   4.424   1.723   1.973
10115SOL     OW31243   1.646   1.253   4.488
10115SOL    HW131244   1.701   1.329   4.454
10115SOL    HW231245   1.700   1.169   4.485
10116SOL     OW31246   0.619   0.655   1.304
10116SOL    HW131247   0.714   0.674   1.281
10116SOL    HW231248   0.565   0.647   1.220
10117SOL     OW31249   3.962   0.046   6.061
10117SOL    HW131250   4.043   0.047   6.120
10117SOL    HW231251   3.991   0.031   5.966
10118SOL     OW31252   5.191   5.255   3.165
10118SOL    HW131253   5.245   5.319   3.218
10118SOL    HW231254   5.131   5.203   3.226
10119SOL     OW31255   1.940   0.116   5.787
10119SOL    HW131256   1.993   0.163   5.717
10119SOL    HW231257   1.900   0.032   5.750
10120SOL     OW31258   5.538   3.185   4.001
10120SOL    HW131259   5.578   3.104   3.958
10120SOL    HW231260   5.465   3.221   3.943
10121SOL     OW31261   5.998   4.554   4.625
10121SOL    HW131262   5.906   4.550   4.586
10121SOL    HW231263   5.999   4.621   4.699
10122SOL     OW31264   5.272   2.153   1.147
10122SOL    HW131265   5.325   2.130   1.065
10122SOL    HW231266   5.318   2.117   1.228
10123SOL     OW31267   0.373   6.052   0.518
10123SOL    HW131268   0.312   6.131   0.514
10123SOL    HW231269   0.330   5.979   0.572
10124SOL     OW31270   3.555   4.055   0.774
10124SOL    HW131271   3.631   4.019   0.828
10124SOL    HW231272   3.571   4.034   0.677
10125SOL     OW31273   2.380   1.190   6.779
10125SOL    HW131274   2.446   1.245   6.728
10125SOL    HW231275   2.426   1.144   6.855
10126SOL     OW31276   5.994   5.133   6.364
10126SOL    HW131277   6.014   5.205   6.430
10126SOL    HW231278   6.076   5.112   6.311
10127SOL     OW31279   3.892   5.162   5.221
10127SOL    HW131280   3.950   5.117   5.289
10127SOL    HW231281   3.935   5.155   5.131
10128SOL     OW31282   0.813   1.710   1.138
10128SOL    HW131283   0.829   1.641   1.069
10128SOL    HW231284   0.732   1.764   1.113
10129SOL     OW31285   5.581   2.282   2.803
10129SOL    HW131286   5.654   2.218   2.824
10129SOL    HW231287   5.513   2.238   2.744
10130SOL     OW31288   5.965   5.605   1.684
10130SOL    HW131289   5.941   5.699   1.708
10130SOL    HW231290   6.046   5.578   1.735
10131SOL     OW31291   0.537   0.754   0.385
10131SOL    HW131292   0.627   0.735   0.345
10131SOL    HW231293   0.480   0.801   0.317
10132SOL     OW31294   2.315   6.298   2.505
10132SOL    HW131295   2.396   6.349   2.534
10132SOL    HW231296   2.275   6.341   2.424
10133SOL     OW31297   6.028   4.664   2.486
10133SOL    HW131298   5.971   4.692   2.563
10133SOL    HW231299   6.117   4.635   2.519
10134SOL     OW31300   1.042   2.000   1.843
10134SOL    HW131301   1.084   1.987   1.933
10134SOL    HW231302   0.992   1.917   1.817
10135SOL     OW31303   2.865   6.766   1.216
10135SOL    HW131304   2.853   6.692   1.150
10135SOL    HW231305   2.939   6.742   1.279
10136SOL     OW31306   5.905   6.483   2.754
10136SOL    HW131307   5.917   6.436   2.842
10136SOL    HW231308   5.937   6.424   2.680
10137SOL     OW31309   5.769   4.386   4.537
10137SOL    HW131310   5.692   4.442   4.566
10137SOL    HW231311   5.774   4.385   4.437
10138SOL     OW31312   5.779   3.034   6.602
10138SOL    HW131313   5.878   3.048   6.594
10138SOL    HW231314   5.749   2.971   6.530
10139SOL     OW31315   3.819   3.093   3.158
10139SOL    HW131316   3.838   3.028   3.231
10139SOL    HW231317   3.720   3.101   3.145
10140SOL     OW31318   1.398   4.677   5.123
10140SOL    HW131319   1.354   4.675   5.032
10140SOL    HW231320   1.459   4.598   5.131
10141SOL     OW31321   1.685   0.689   3.417
10141SOL    HW131322   1.724   0.656   3.331
10141SOL    HW231323   1.756   0.689   3.487
10142SOL     OW31324   5.404   5.275   4.102
10142SOL    HW131325   5.422   5.306   4.195
10142SOL    HW231326   5.336   5.335   4.059
10143SOL     OW31327   3.912   6.024   1.475
10143SOL    HW131328   3.838   5.987   1.531
10143SOL    HW231329   3.997   5.974   1.494
10144SOL     OW31330   3.385   4.950   2.357
10144SOL    HW131331   3.357   5.046   2.368
10144SOL    HW231332   3.400   4.910   2.447
10145SOL     OW31333   2.120   0.552   5.851
10145SOL    HW131334   2.152   0.461   5.825
10145SOL    HW231335   2.061   0.588   5.779
10146SOL     OW31336   4.381   4.679   3.899
10146SOL    HW131337   4.422   4.588   3.897
10146SOL    HW231338   4.453   4.748   3.891
10147SOL     OW31339   5.170   5.463   4.885
10147SOL    HW131340   5.111   5.470   4.805
10147SOL    HW231341   5.189   5.555   4.921
10148SOL     OW31342   5.741   5.789   1.453
10148SOL    HW131343   5.815   5.852   1.479
10148SOL    HW231344   5.654   5.825   1.487
10149SOL     OW31345   3.980   2.544   1.696
10149SOL    HW131346   3.971   2.444   1.700
10149SOL    HW231347   3.890   2.586   1.695
10150SOL     OW31348   5.213   4.275   1.056
10150SOL    HW131349   5.178   4.191   1.098
10150SOL    HW231350   5.149   4.350   1.072
10151SOL     OW31351   0.234   5.203   6.202
10151SOL    HW131352   0.135   5.210   6.209
10151SOL    HW231353   0.260   5.177   6.109
10152SOL     OW31354   0.496   6.149   3.966
10152SOL    HW131355   0.482   6.107   4.056
10152SOL    HW231356   0.571   6.101   3.919
10153SOL     OW31357   5.195   5.421   4.004
10153SOL    HW131358   5.126   5.482   4.043
10153SOL    HW231359   5.205   5.441   3.906
10154SOL     OW31360   6.406   5.544   5.690
10154SOL    HW131361   6.381   5.521   5.596
10154SOL    HW231362   6.364   5.477   5.752
10155SOL     OW31363   4.058   1.825   5.661
10155SOL    HW131364   3.999   1.903   5.638
10155SOL    HW231365   4.003   1.750   5.696
10156SOL     OW31366   5.569   6.890   2.060
10156SOL    HW131367   5.614   6.940   2.133
10156SOL    HW231368   5.473   6.918   2.054
10157SOL     OW31369   4.939   6.960   3.102
10157SOL    HW131370   4.976   6.960   3.195
10157SOL    HW231371   4.857   6.902   3.099
10158SOL     OW31372   4.751   3.726   6.005
10158SOL    HW131373   4.651   3.721   5.995
10158SOL    HW231374   4.775   3.704   6.099
10159SOL     OW31375   0.834   0.812   6.699
10159SOL    HW131376   0.866   0.718   6.708
10159SOL    HW231377   0.908   0.870   6.668
10160SOL     OW31378   0.560   7.014   4.092
10160SOL    HW131379   0.529   6.999   3.998
10160SOL    HW231380   0.514   0.067   4.129
10161SOL     OW31381   3.015   5.486   5.300
10161SOL    HW131382   2.959   5.462   5.221
10161SOL    HW231383   3.057   5.403   5.338
10162SOL     OW31384   2.482   2.399   5.866
10162SOL    HW131385   2.552   2.332   5.891
10162SOL    HW231386   2.482   2.413   5.767
10163SOL     OW31387   0.730   4.013   4.939
10163SOL    HW131388   0.737   3.953   5.019
10163SOL    HW231389   0.821   4.046   4.914
10164SOL     OW31390   1.997   2.978   6.747
10164SOL    HW131391   2.003   2.932   6.658
10164SOL    HW231392   2.004   2.909   6.820
10165SOL     OW31393   0.028   1.700   3.259
10165SOL    HW131394   0.066   1.649   3.182
10165SOL    HW231395   6.987   1.644   3.305
10166SOL     OW31396   0.471   1.058   2.397
10166SOL    HW131397   0.501   1.152   2.416
10166SOL    HW231398   0.441   1.052   2.301
10167SOL     OW31399   4.583   0.721   0.514
10167SOL    HW131400   4.610   0.696   0.607
10167SOL    HW231401   4.537   0.644   0.470
10168SOL     OW31402   6.390   4.744   5.723
10168SOL    HW131403   6.411   4.676   5.652
10168SOL    HW231404   6.472   4.798   5.742
10169SOL     OW31405   6.834   4.199   5.185
10169SOL    HW131406   6.762   4.185   5.252
10169SOL    HW231407   6.921   4.167   5.222
10170SOL     OW31408   1.727   4.875   4.965
10170SOL    HW131409   1.683   4.806   5.023
10170SOL    HW231410   1.803   4.833   4.916
10171SOL     OW31411   6.487   2.575   5.702
10171SOL    HW131412   6.473   2.675   5.701
10171SOL    HW231413   6.519   2.545   5.612
10172SOL     OW31414   4.960   0.221   4.895
10172SOL    HW131415   5.000   0.174   4.816
10172SOL    HW231416   4.875   0.176   4.921
10173SOL     OW31417   2.030   2.787   2.442
10173SOL    HW131418   1.941   2.820   2.413
10173SOL    HW231419   2.033   2.780   2.542
10174SOL     OW31420   6.128   5.206   1.005
10174SOL    HW131421   6.227   5.192   1.009
10174SOL    HW231422   6.083   5.140   1.066
10175SOL     OW31423   5.693   2.188   5.192
10175SOL    HW131424   5.747   2.183   5.108
10175SOL    HW231425   5.744   2.241   5.261
10176SOL     OW31426   3.055   3.064   0.749
10176SOL    HW131427   2.990   3.056   0.824
10176SOL    HW231428   3.147   3.045   0.783
10177SOL     OW31429   0.790   6.901   5.881
10177SOL    HW131430   0.782   6.941   5.789
10177SOL    HW231431   0.735   6.955   5.945
10178SOL     OW31432   4.890   3.147   5.053
10178SOL    HW131433   4.950   3.202   5.111
10178SOL    HW231434   4.879   3.191   4.964
10179SOL     OW31435   6.812   2.981   0.548
10179SOL    HW131436   6.758   3.059   0.515
10179SOL    HW231437   6.755   2.898   0.546
10180SOL     OW31438   1.940   6.479   6.440
10180SOL    HW131439   2.008   6.492   6.512
10180SOL    HW231440   1.878   6.405   6.465
10181SOL     OW31441   5.864   3.262   2.751
10181SOL    HW131442   5.941   3.202   2.730
10181SOL    HW231443   5.828   3.239   2.841
10182SOL     OW31444   3.974   1.537   1.283
10182SOL    HW131445   3.890   1.483   1.280
10182SOL    HW231446   4.000   1.562   1.190
10183SOL     OW31447   1.526   1.518   6.321
10183SOL    HW131448   1.555   1.562   6.406
10183SOL    HW231449   1.607   1.492   6.268
10184SOL     OW31450   4.623   7.020   0.541
10184SOL    HW131451   4.631   6.949   0.471
10184SOL    HW231452   4.614   6.976   0.631
10185SOL     OW31453   4.630   1.166   0.507
10185SOL    HW131454   4.547   1.111   0.501
10185SOL    HW231455   4.606   1.263   0.511
10186SOL     OW31456   4.663   2.279   2.562
10186SOL    HW131457   4.668   2.294   2.661
10186SOL    HW231458   4.592   2.337   2.523
10187SOL     OW31459   0.372   2.759   2.005
10187SOL    HW131460   0.281   2.800   2.000
10187SOL    HW231461   0.364   2.660   2.003
10188SOL     OW31462   3.864   6.377   0.973
10188SOL    HW131463   3.793   6.334   1.028
10188SOL    HW231464   3.950   6.326   0.985
10189SOL     OW31465   0.082   6.766   4.776
10189SOL    HW131466   0.028   6.684   4.758
10189SOL    HW231467   0.125   6.797   4.691
10190SOL     OW31468   5.745   3.092   0.229
10190SOL    HW131469   5.750   3.187   0.199
10190SOL    HW231470   5.689   3.039   0.165
10191SOL     OW31471   6.881   4.534   0.315
10191SOL    HW131472   6.901   4.459   0.378
10191SOL    HW231473   6.803   4.509   0.257
10192SOL     OW31474   4.023   1.683   0.573
10192SOL    HW131475   4.116   1.698   0.539
10192SOL    HW231476   3.959   1.683   0.496
10193SOL     OW31477   5.051   4.764   1.213
10193SOL    HW131478   5.021   4.858   1.234
10193SOL    HW231479   5.084   4.720   1.296
10194SOL     OW31480   4.862   2.670   5.106
10194SOL    HW131481   4.778   2.703   5.149
10194SOL    HW231482   4.882   2.725   5.025
10195SOL     OW31483   5.808   5.445   2.740
10195SOL    HW131484   5.851   5.511   2.802
10195SOL    HW231485   5.770   5.370   2.794
10196SOL     OW31486   1.000   1.371   4.308
10196SOL    HW131487   0.992   1.410   4.400
10196SOL    HW231488   1.096   1.370   4.280
10197SOL     OW31489   4.778   0.681   6.730
10197SOL    HW131490   4.807   0.642   6.643
10197SOL    HW231491   4.679   0.683   6.735
10198SOL     OW31492   4.778   0.070   1.874
10198SOL    HW131493   4.748   0.154   1.919
10198SOL    HW231494   4.744   0.069   1.779
10199SOL     OW31495   0.481   2.423   5.850
10199SOL    HW131496   0.467   2.398   5.754
10199SOL    HW231497   0.394   2.450   5.891
10200SOL     OW31498   5.131   2.664   2.836
10200SOL    HW131499   5.175   2.604   2.770
10200SOL    HW231500   5.048   2.619   2.871
10201SOL     OW31501   2.104   3.141   0.772
10201SOL    HW131502   2.052   3.226   0.781
10201SOL    HW231503   2.083   3.098   0.685
10202SOL     OW31504   4.969   6.906   2.784
10202SOL    HW131505   4.957   6.936   2.878
10202SOL    HW231506   4.893   6.938   2.728
10203SOL     OW31507   0.179   3.569   5.380
10203SOL    HW131508   0.088   3.586   5.343
10203SOL    HW231509   0.213   3.481   5.348
10204SOL     OW31510   4.512   4.991   6.094
10204SOL    HW131511   4.443   4.923   6.070
10204SOL    HW231512   4.548   4.970   6.185
10205SOL     OW31513   0.042   1.608   6.915
10205SOL    HW131514   6.981   1.561   6.912
10205SOL    HW231515   0.027   1.706   6.931
10206SOL     OW31516   2.808   2.086   4.494
10206SOL    HW131517   2.796   2.126   4.403
10206SOL    HW231518   2.772   1.993   4.496
10207SOL     OW31519   2.198   2.759   6.238
10207SOL    HW131520   2.175   2.768   6.335
10207SOL    HW231521   2.276   2.697   6.229
10208SOL     OW31522   6.823   0.775   5.489
10208SOL    HW131523   6.784   0.842   5.425
10208SOL    HW231524   6.892   0.720   5.441
10209SOL     OW31525   6.869   6.360   5.691
10209SOL    HW131526   6.883   6.290   5.760
10209SOL    HW231527   6.917   6.444   5.717
10210SOL     OW31528   3.808   0.347   1.943
10210SOL    HW131529   3.864   0.405   2.002
10210SOL    HW231530   3.711   0.365   1.959
10211SOL     OW31531   5.426   5.324   6.359
10211SOL    HW131532   5.353   5.311   6.291
10211SOL    HW231533   5.421   5.250   6.426
10212SOL     OW31534   0.506   0.578   0.666
10212SOL    HW131535   0.600   0.612   0.659
10212SOL    HW231536   0.497   0.493   0.614
10213SOL     OW31537   6.671   2.873   1.920
10213SOL    HW131538   6.701   2.865   1.826
10213SOL    HW231539   6.732   2.933   1.971
10214SOL     OW31540   1.211   2.463   1.623
10214SOL    HW131541   1.185   2.402   1.698
10214SOL    HW231542   1.223   2.556   1.659
10215SOL     OW31543   3.964   3.503   1.869
10215SOL    HW131544   3.867   3.481   1.860
10215SOL    HW231545   3.995   3.479   1.961
10216SOL     OW31546   0.747   6.321   2.012
10216SOL    HW131547   0.681   6.335   2.086
10216SOL    HW231548   0.820   6.261   2.044
10217SOL     OW31549   3.502   1.773   5.325
10217SOL    HW131550   3.522   1.858   5.372
10217SOL    HW231551   3.580   1.747   5.268
10218SOL     OW31552   0.671   2.742   2.825
10218SOL    HW131553   0.682   2.823   2.768
10218SOL    HW231554   0.674   2.660   2.766
10219SOL     OW31555   0.137   6.516   2.944
10219SOL    HW131556   0.102   6.482   2.857
10219SOL    HW231557   0.067   6.573   2.988
10220SOL     OW31558   3.890   3.262   6.835
10220SOL    HW131559   3.841   3.198   6.893
10220SOL    HW231560   3.825   3.321   6.786
10221SOL     OW31561   1.104   5.773   2.828
10221SOL    HW131562   1.004   5.776   2.839
10221SOL    HW231563   1.147   5.824   2.903
10222SOL     OW31564   2.998   3.301   3.250
10222SOL    HW131565   3.079   3.262   3.295
10222SOL    HW231566   2.955   3.368   3.311
10223SOL     OW31567   3.358   6.791   0.842
10223SOL    HW131568   3.400   6.701   0.855
10223SOL    HW231569   3.295   6.787   0.765
10224SOL     OW31570   6.685   3.845   4.297
10224SOL    HW131571   6.696   3.860   4.199
10224SOL    HW231572   6.603   3.891   4.329
10225SOL     OW31573   1.743   3.742   5.693
10225SOL    HW131574   1.654   3.701   5.675
10225SOL    HW231575   1.792   3.755   5.606
10226SOL     OW31576   3.900   5.274   6.376
10226SOL    HW131577   3.858   5.202   6.321
10226SOL    HW231578   3.835   5.305   6.445
10227SOL     OW31579   5.069   4.084   1.185
10227SOL    HW131580   5.041   3.992   1.213
10227SOL    HW231581   5.105   4.134   1.264
10228SOL     OW31582   5.202   0.023   0.041
10228SOL    HW131583   5.204   0.119   0.014
10228SOL    HW231584   5.277   7.002   7.026
10229SOL     OW31585   0.169   2.190   5.249
10229SOL    HW131586   0.134   2.186   5.156
10229SOL    HW231587   0.237   2.118   5.262
10230SOL     OW31588   5.745   5.886   1.770
10230SOL    HW131589   5.800   5.911   1.850
10230SOL    HW231590   5.800   5.899   1.687
10231SOL     OW31591   0.089   3.545   2.141
10231SOL    HW131592   0.063   3.633   2.101
10231SOL    HW231593   0.019   3.516   2.206
10232SOL     OW31594   4.611   4.324   2.361
10232SOL    HW131595   4.529   4.319   2.304
10232SOL    HW231596   4.688   4.282   2.312
10233SOL     OW31597   3.625   3.217   5.391
10233SOL    HW131598   3.710   3.179   5.426
10233SOL    HW231599   3.604   3.302   5.438
10234SOL     OW31600   0.950   1.156   1.685
10234SOL    HW131601   0.927   1.207   1.603
10234SOL    HW231602   0.867   1.116   1.724
10235SOL     OW31603   0.783   0.405   2.656
10235SOL    HW131604   0.702   0.397   2.715
10235SOL    HW231605   0.850   0.465   2.701
10236SOL     OW31606   1.012   0.668   2.637
10236SOL    HW131607   1.094   0.694   2.689
10236SOL    HW231608   1.002   0.730   2.559
10237SOL     OW31609   0.315   4.314   5.674
10237SOL    HW131610   0.252   4.286   5.747
10237SOL    HW231611   0.263   4.337   5.592
10238SOL     OW31612   2.899   0.238   0.624
10238SOL    HW131613   2.813   0.251   0.575
10238SOL    HW231614   2.880   0.205   0.716
10239SOL     OW31615   0.929   2.549   5.090
10239SOL    HW131616   0.890   2.628   5.042
10239SOL    HW231617   0.922   2.468   5.033
10240SOL     OW31618   1.179   6.672   1.126
10240SOL    HW131619   1.127   6.614   1.064
10240SOL    HW231620   1.115   6.732   1.176
10241SOL     OW31621   4.554   3.891   1.702
10241SOL    HW131622   4.537   3.988   1.683
10241SOL    HW231623   4.472   3.850   1.743
10242SOL     OW31624   0.907   3.319   1.541
10242SOL    HW131625   0.875   3.405   1.581
10242SOL    HW231626   0.895   3.322   1.442
10243SOL     OW31627   3.980   5.212   2.282
10243SOL    HW131628   3.977   5.209   2.182
10243SOL    HW231629   3.890   5.185   2.319
10244SOL     OW31630   1.805   5.758   1.496
10244SOL    HW131631   1.843   5.849   1.479
10244SOL    HW231632   1.831   5.727   1.587
10245SOL     OW31633   6.274   4.089   0.959
10245SOL    HW131634   6.252   4.181   0.927
10245SOL    HW231635   6.372   4.083   0.977
10246SOL     OW31636   3.339   3.588   3.452
10246SOL    HW131637   3.405   3.662   3.468
10246SOL    HW231638   3.375   3.526   3.382
10247SOL     OW31639   0.735   3.561   4.834
10247SOL    HW131640   0.645   3.600   4.854
10247SOL    HW231641   0.781   3.615   4.764
10248SOL     OW31642   0.855   1.144   4.252
10248SOL    HW131643   0.844   1.230   4.303
10248SOL    HW231644   0.874   1.070   4.317
10249SOL     OW31645   2.678   4.824   6.123
10249SOL    HW131646   2.719   4.894   6.182
10249SOL    HW231647   2.739   4.806   6.046
10250SOL     OW31648   2.931   2.823   0.315
10250SOL    HW131649   2.898   2.777   0.398
10250SOL    HW231650   2.870   2.804   0.239
10251SOL     OW31651   1.063   1.001   4.799
10251SOL    HW131652   1.044   1.091   4.837
10251SOL    HW231653   1.030   0.997   4.704
10252SOL     OW31654   5.467   3.881   6.088
10252SOL    HW131655   5.387   3.941   6.079
10252SOL    HW231656   5.544   3.920   6.038
10253SOL     OW31657   3.874   5.422   0.647
10253SOL    HW131658   3.856   5.355   0.575
10253SOL    HW231659   3.835   5.510   0.621
10254SOL     OW31660   6.658   1.737   6.519
10254SOL    HW131661   6.592   1.718   6.591
10254SOL    HW231662   6.750   1.716   6.552
10255SOL     OW31663   4.241   4.164   1.686
10255SOL    HW131664   4.258   4.066   1.689
10255SOL    HW231665   4.291   4.208   1.761
10256SOL     OW31666   2.122   0.477   3.918
10256SOL    HW131667   2.053   0.447   3.984
10256SOL    HW231668   2.171   0.397   3.882
10257SOL     OW31669   3.617   6.248   3.127
10257SOL    HW131670   3.609   6.219   3.222
10257SOL    HW231671   3.558   6.193   3.069
10258SOL     OW31672   3.552   1.807   2.386
10258SOL    HW131673   3.457   1.804   2.416
10258SOL    HW231674   3.564   1.752   2.304
10259SOL     OW31675   2.174   3.927   3.619
10259SOL    HW131676   2.076   3.916   3.600
10259SOL    HW231677   2.226   3.909   3.535
10260SOL     OW31678   0.505   0.554   4.042
10260SOL    HW131679   0.512   0.650   4.067
10260SOL    HW231680   0.410   0.523   4.052
10261SOL     OW31681   6.250   3.608   1.582
10261SOL    HW131682   6.310   3.537   1.546
10261SOL    HW231683   6.172   3.621   1.521
10262SOL     OW31684   4.532   1.096   6.772
10262SOL    HW131685   4.515   1.170   6.838
10262SOL    HW231686   4.480   1.115   6.688
10263SOL     OW31687   5.485   0.182   2.657
10263SOL    HW131688   5.580   0.211   2.646
10263SOL    HW231689   5.431   0.259   2.690
10264SOL     OW31690   6.773   1.308   6.404
10264SOL    HW131691   6.846   1.247   6.373
10264SOL    HW231692   6.754   1.375   6.332
10265SOL     OW31693   1.534   1.442   2.303
10265SOL    HW131694   1.449   1.471   2.260
10265SOL    HW231695   1.521   1.433   2.402
10266SOL     OW31696   2.622   3.847   1.460
10266SOL    HW131697   2.626   3.913   1.535
10266SOL    HW231698   2.673   3.765   1.485
10267SOL     OW31699   6.022   0.478   0.229
10267SOL    HW131700   6.074   0.504   0.310
10267SOL    HW231701   5.993   0.559   0.180
10268SOL     OW31702   4.050   5.774   3.178
10268SOL    HW131703   4.021   5.740   3.089
10268SOL    HW231704   4.019   5.869   3.189
10269SOL     OW31705   2.697   1.508   6.260
10269SOL    HW131706   2.658   1.533   6.171
10269SOL    HW231707   2.642   1.547   6.333
10270SOL     OW31708   2.872   0.221   3.541
10270SOL    HW131709   2.788   0.246   3.590
10270SOL    HW231710   2.950   0.264   3.585
10271SOL     OW31711   2.024   1.248   0.071
10271SOL    HW131712   2.107   1.222   0.121
10271SOL    HW231713   2.045   1.255   7.002
10272SOL     OW31714   5.570   6.501   5.293
10272SOL    HW131715   5.517   6.455   5.365
10272SOL    HW231716   5.545   6.598   5.291
10273SOL     OW31717   1.961   5.496   2.201
10273SOL    HW131718   2.045   5.467   2.248
10273SOL    HW231719   1.955   5.451   2.112
10274SOL     OW31720   0.579   4.273   5.019
10274SOL    HW131721   0.672   4.260   5.053
10274SOL    HW231722   0.554   4.197   4.959
10275SOL     OW31723   0.127   1.048   1.733
10275SOL    HW131724   0.109   1.080   1.640
10275SOL    HW231725   0.097   0.953   1.742
10276SOL     OW31726   3.527   4.948   5.497
10276SOL    HW131727   3.542   4.857   5.458
10276SOL    HW231728   3.433   4.955   5.530
10277SOL     OW31729   0.442   5.565   3.651
10277SOL    HW131730   0.367   5.499   3.654
10277SOL    HW231731   0.454   5.605   3.742
10278SOL     OW31732   5.916   0.372   3.967
10278SOL    HW131733   5.979   0.306   4.008
10278SOL    HW231734   5.860   0.414   4.039
10279SOL     OW31735   0.918   5.179   4.444
10279SOL    HW131736   0.924   5.275   4.417
10279SOL    HW231737   0.980   5.162   4.521
10280SOL     OW31738   6.170   6.069   0.844
10280SOL    HW131739   6.225   6.152   0.850
10280SOL    HW231740   6.154   6.033   0.936
10281SOL     OW31741   5.967   6.906   4.543
10281SOL    HW131742   6.047   6.868   4.498
10281SOL    HW231743   5.927   6.837   4.604
10282SOL     OW31744   5.176   2.358   3.175
10282SOL    HW131745   5.225   2.370   3.088
10282SOL    HW231746   5.139   2.446   3.204
10283SOL     OW31747   0.182   2.467   0.948
10283SOL    HW131748   0.255   2.451   0.882
10283SOL    HW231749   0.207   2.426   1.036
10284SOL     OW31750   1.391   5.319   5.253
10284SOL    HW131751   1.387   5.234   5.199
10284SOL    HW231752   1.351   5.394   5.201
10285SOL     OW31753   0.169   6.746   5.993
10285SOL    HW131754   0.082   6.698   5.977
10285SOL    HW231755   0.180   6.818   5.924
10286SOL     OW31756   3.482   0.982   1.406
10286SOL    HW131757   3.410   0.914   1.418
10286SOL    HW231758   3.486   1.008   1.309
10287SOL     OW31759   0.618   5.864   3.443
10287SOL    HW131760   0.622   5.765   3.456
10287SOL    HW231761   0.533   5.899   3.482
10288SOL     OW31762   3.811   6.274   4.744
10288SOL    HW131763   3.861   6.284   4.830
10288SOL    HW231764   3.821   6.357   4.689
10289SOL     OW31765   3.824   6.843   6.510
10289SOL    HW131766   3.799   6.882   6.421
10289SOL    HW231767   3.755   6.866   6.578
10290SOL     OW31768   3.532   3.191   2.678
10290SOL    HW131769   3.619   3.239   2.670
10290SOL    HW231770   3.457   3.255   2.662
10291SOL     OW31771   3.291   2.112   1.572
10291SOL    HW131772   3.338   2.185   1.622
10291SOL    HW231773   3.219   2.073   1.631
10292SOL     OW31774   0.418   0.928   5.940
10292SOL    HW131775   0.423   0.978   6.027
10292SOL    HW231776   0.336   0.957   5.890
10293SOL     OW31777   1.406   2.868   5.966
10293SOL    HW131778   1.495   2.832   5.938
10293SOL    HW231779   1.413   2.966   5.981
10294SOL     OW31780   0.989   6.966   1.998
10294SOL    HW131781   1.033   6.968   1.908
10294SOL    HW231782   0.925   0.015   2.005
10295SOL     OW31783   2.324   1.103   0.804
10295SOL    HW131784   2.375   1.114   0.718
10295SOL    HW231785   2.355   1.172   0.869
10296SOL     OW31786   0.070   3.118   4.761
10296SOL    HW131787   0.116   3.156   4.841
10296SOL    HW231788   7.006   3.089   4.786
10297SOL     OW31789   3.859   1.664   0.820
10297SOL    HW131790   3.913   1.692   0.899
10297SOL    HW231791   3.911   1.682   0.736
10298SOL     OW31792   1.540   0.300   1.659
10298SOL    HW131793   1.484   0.347   1.591
10298SOL    HW231794   1.558   0.362   1.736
10299SOL     OW31795   5.363   0.053   2.450
10299SOL    HW131796   5.265   0.071   2.460
10299SOL    HW231797   5.411   0.082   2.533
10300SOL     OW31798   0.814   4.159   1.902
10300SOL    HW131799   0.822   4.062   1.876
10300SOL    HW231800   0.728   4.196   1.868
10301SOL     OW31801   4.627   1.390   0.074
10301SOL    HW131802   4.540   1.371   0.028
10301SOL    HW231803   4.655   1.309   0.127
10302SOL     OW31804   2.839   6.123   5.142
10302SOL    HW131805   2.740   6.107   5.137
10302SOL    HW231806   2.869   6.170   5.060
10303SOL     OW31807   0.724   4.939   5.850
10303SOL    HW131808   0.713   5.014   5.914
10303SOL    HW231809   0.814   4.946   5.805
10304SOL     OW31810   4.644   5.405   0.641
10304SOL    HW131811   4.714   5.336   0.623
10304SOL    HW231812   4.558   5.360   0.666
10305SOL     OW31813   2.911   3.317   4.905
10305SOL    HW131814   2.828   3.272   4.936
10305SOL    HW231815   2.949   3.372   4.980
10306SOL     OW31816   3.651   0.830   1.856
10306SOL    HW131817   3.650   0.734   1.826
10306SOL    HW231818   3.726   0.878   1.810
10307SOL     OW31819   1.618   6.285   4.625
10307SOL    HW131820   1.574   6.230   4.696
10307SOL    HW231821   1.627   6.230   4.541
10308SOL     OW31822   2.418   4.488   2.312
10308SOL    HW131823   2.422   4.398   2.357
10308SOL    HW231824   2.475   4.553   2.362
10309SOL     OW31825   0.359   1.104   4.454
10309SOL    HW131826   0.412   1.188   4.445
10309SOL    HW231827   0.281   1.107   4.390
10310SOL     OW31828   2.841   4.299   6.651
10310SOL    HW131829   2.830   4.330   6.556
10310SOL    HW231830   2.916   4.234   6.656
10311SOL     OW31831   5.396   6.157   0.003
10311SOL    HW131832   5.321   6.209   0.043
10311SOL    HW231833   5.476   6.162   0.063
10312SOL     OW31834   2.184   6.519   0.933
10312SOL    HW131835   2.150   6.576   1.008
10312SOL    HW231836   2.108   6.498   0.871
10313SOL     OW31837   4.745   6.759   3.129
10313SOL    HW131838   4.694   6.709   3.059
10313SOL    HW231839   4.681   6.812   3.185
10314SOL     OW31840   0.372   6.827   0.519
10314SOL    HW131841   0.385   6.869   0.429
10314SOL    HW231842   0.442   6.758   0.534
10315SOL     OW31843   5.195   4.723   4.050
10315SOL    HW131844   5.143   4.738   4.133
10315SOL    HW231845   5.278   4.778   4.051
10316SOL     OW31846   1.338   2.214   0.301
10316SOL    HW131847   1.323   2.271   0.382
10316SOL    HW231848   1.429   2.232   0.264
10317SOL     OW31849   4.296   5.686   4.612
10317SOL    HW131850   4.358   5.747   4.563
10317SOL    HW231851   4.318   5.688   4.710
10318SOL     OW31852   6.140   6.772   6.810
10318SOL    HW131853   6.061   6.766   6.871
10318SOL    HW231854   6.223   6.746   6.859
10319SOL     OW31855   1.209   4.511   4.578
10319SOL    HW131856   1.129   4.555   4.617
10319SOL    HW231857   1.275   4.580   4.549
10320SOL     OW31858   6.738   6.689   3.126
10320SOL    HW131859   6.695   6.609   3.086
10320SOL    HW231860   6.705   6.702   3.220
10321SOL     OW31861   5.627   2.366   3.965
10321SOL    HW131862   5.662   2.441   3.909
10321SOL    HW231863   5.658   2.378   4.059
10322SOL     OW31864   4.534   4.533   4.815
10322SOL    HW131865   4.453   4.488   4.851
10322SOL    HW231866   4.546   4.622   4.860
10323SOL     OW31867   0.759   5.140   6.050
10323SOL    HW131868   0.782   5.067   6.115
10323SOL    HW231869   0.663   5.164   6.060
10324SOL     OW31870   3.306   3.341   2.668
10324SOL    HW131871   3.233   3.307   2.727
10324SOL    HW231872   3.273   3.348   2.574
10325SOL     OW31873   5.954   5.936   5.474
10325SOL    HW131874   5.917   6.029   5.469
10325SOL    HW231875   5.885   5.875   5.515
10326SOL     OW31876   5.147   3.840   6.436
10326SOL    HW131877   5.168   3.743   6.448
10326SOL    HW231878   5.214   3.881   6.375
10327SOL     OW31879   1.359   5.645   6.848
10327SOL    HW131880   1.327   5.721   6.904
10327SOL    HW231881   1.326   5.559   6.886
10328SOL     OW31882   6.312   2.375   3.589
10328SOL    HW131883   6.290   2.283   3.558
10328SOL    HW231884   6.227   2.426   3.603
10329SOL     OW31885   3.715   2.081   1.743
10329SOL    HW131886   3.696   2.151   1.813
10329SOL    HW231887   3.771   2.008   1.784
10330SOL     OW31888   5.290   5.976   2.116
10330SOL    HW131889   5.302   6.026   2.030
10330SOL    HW231890   5.198   5.937   2.119
10331SOL     OW31891   5.340   5.411   5.652
10331SOL    HW131892   5.280   5.417   5.732
10331SOL    HW231893   5.418   5.472   5.664
10332SOL     OW31894   1.697   0.826   6.632
10332SOL    HW131895   1.680   0.913   6.586
10332SOL    HW231896   1.781   0.832   6.685
10333SOL     OW31897   1.540   3.611   3.912
10333SOL    HW131898   1.541   3.606   3.812
10333SOL    HW231899   1.515   3.522   3.950
10334SOL     OW31900   4.027   1.392   4.301
10334SOL    HW131901   4.109   1.334   4.306
10334SOL    HW231902   4.049   1.477   4.253
10335SOL     OW31903   2.164   3.830   4.100
10335SOL    HW131904   2.105   3.901   4.138
10335SOL    HW231905   2.164   3.751   4.161
10336SOL     OW31906   5.981   6.600   3.139
10336SOL    HW131907   5.911   6.657   3.183
10336SOL    HW231908   5.937   6.518   3.102
10337SOL     OW31909   6.028   6.348   6.528
10337SOL    HW131910   6.009   6.339   6.625
10337SOL    HW231911   6.047   6.258   6.489
10338SOL     OW31912   0.545   5.800   1.881
10338SOL    HW131913   0.574   5.895   1.871
10338SOL    HW231914   0.492   5.791   1.966
10339SOL     OW31915   5.382   2.479   5.703
10339SOL    HW131916   5.402   2.410   5.633
10339SOL    HW231917   5.315   2.442   5.767
10340SOL     OW31918   3.482   3.008   6.841
10340SOL    HW131919   3.576   2.974   6.836
10340SOL    HW231920   3.483   3.101   6.877
10341SOL     OW31921   3.977   4.804   3.351
10341SOL    HW131922   4.031   4.872   3.401
10341SOL    HW231923   3.983   4.716   3.397
10342SOL     OW31924   1.009   1.743   3.873
10342SOL    HW131925   1.058   1.656   3.882
10342SOL    HW231926   0.942   1.751   3.946
10343SOL     OW31927   4.251   4.972   1.312
10343SOL    HW131928   4.269   5.063   1.350
10343SOL    HW231929   4.210   4.982   1.221
10344SOL     OW31930   4.965   6.918   6.915
10344SOL    HW131931   5.030   6.948   6.985
10344SOL    HW231932   4.892   6.985   6.906
10345SOL     OW31933   0.655   4.826   4.659
10345SOL    HW131934   0.649   4.768   4.740
10345SOL    HW231935   0.564   4.861   4.636
10346SOL     OW31936   1.165   5.106   0.918
10346SOL    HW131937   1.215   5.055   0.989
10346SOL    HW231938   1.136   5.194   0.954
10347SOL     OW31939   0.373   1.974   5.269
10347SOL    HW131940   0.437   2.051   5.273
10347SOL    HW231941   0.361   1.937   5.361
10348SOL     OW31942   0.207   5.516   1.258
10348SOL    HW131943   0.112   5.484   1.251
10348SOL    HW231944   0.218   5.599   1.204
10349SOL     OW31945   6.553   0.062   6.710
10349SOL    HW131946   6.632   0.117   6.681
10349SOL    HW231947   6.533   7.021   6.641
10350SOL     OW31948   4.064   0.061   6.996
10350SOL    HW131949   4.094   0.055   0.063
10350SOL    HW231950   4.018   7.005   6.969
10351SOL     OW31951   4.171   5.673   6.298
10351SOL    HW131952   4.090   5.726   6.324
10351SOL    HW231953   4.143   5.593   6.244
10352SOL     OW31954   4.086   5.115   5.885
10352SOL    HW131955   4.145   5.185   5.845
10352SOL    HW231956   4.033   5.156   5.960
10353SOL     OW31957   0.486   3.074   4.687
10353SOL    HW131958   0.558   3.089   4.620
10353SOL    HW231959   0.420   3.008   4.650
10354SOL     OW31960   5.429   1.181   0.915
10354SOL    HW131961   5.456   1.085   0.928
10354SOL    HW231962   5.511   1.237   0.899
10355SOL     OW31963   0.596   4.600   2.962
10355SOL    HW131964   0.613   4.505   2.987
10355SOL    HW231965   0.678   4.639   2.921
10356SOL     OW31966   0.987   2.936   4.783
10356SOL    HW131967   0.923   2.979   4.720
10356SOL    HW231968   1.064   2.998   4.800
10357SOL     OW31969   3.045   2.813   6.962
10357SOL    HW131970   2.970   2.879   6.955
10357SOL    HW231971   3.106   2.823   6.883
10358SOL     OW31972   0.561   0.331   2.273
10358SOL    HW131973   0.610   0.378   2.198
10358SOL    HW231974   0.565   0.387   2.355
10359SOL     OW31975   1.904   1.632   0.476
10359SOL    HW131976   1.954   1.559   0.522
10359SOL    HW231977   1.936   1.721   0.509
10360SOL     OW31978   0.646   4.264   3.874
10360SOL    HW131979   0.633   4.361   3.893
10360SOL    HW231980   0.689   4.219   3.952
10361SOL     OW31981   3.156   6.016   0.190
10361SOL    HW131982   3.103   5.932   0.176
10361SOL    HW231983   3.239   5.996   0.242
10362SOL     OW31984   0.585   4.970   5.360
10362SOL    HW131985   0.522   4.922   5.299
10362SOL    HW231986   0.557   4.955   5.455
10363SOL     OW31987   5.336   0.519   5.086
10363SOL    HW131988   5.264   0.507   5.154
10363SOL    HW231989   5.379   0.430   5.066
10364SOL     OW31990   1.090   3.783   0.990
10364SOL    HW131991   1.067   3.859   1.050
10364SOL    HW231992   1.117   3.819   0.900
10365SOL     OW31993   5.932   4.997   6.979
10365SOL    HW131994   5.965   4.954   6.894
10365SOL    HW231995   5.987   4.964   0.028
10366SOL     OW31996   5.140   6.815   3.844
10366SOL    HW131997   5.138   6.748   3.770
10366SOL    HW231998   5.234   6.832   3.872
10367SOL     OW31999   5.981   1.210   3.427
10367SOL    HW132000   6.079   1.224   3.444
10367SOL    HW232001   5.943   1.290   3.382
10368SOL     OW32002   2.076   6.839   0.600
10368SOL    HW132003   2.061   6.899   0.522
10368SOL    HW232004   2.007   6.766   0.600
10369SOL     OW32005   4.885   3.237   6.182
10369SOL    HW132006   4.795   3.275   6.160
10369SOL    HW232007   4.897   3.235   6.281
10370SOL     OW32008   2.613   0.376   4.751
10370SOL    HW132009   2.687   0.333   4.802
10370SOL    HW232010   2.598   0.327   4.665
10371SOL     OW32011   4.847   6.147   5.684
10371SOL    HW132012   4.942   6.118   5.695
10371SOL    HW232013   4.788   6.088   5.740
10372SOL     OW32014   6.995   1.362   4.299
10372SOL    HW132015   7.022   1.445   4.250
10372SOL    HW232016   6.935   1.308   4.241
10373SOL     OW32017   1.351   6.720   5.383
10373SOL    HW132018   1.410   6.772   5.444
10373SOL    HW232019   1.255   6.734   5.408
10374SOL     OW32020   3.894   1.242   3.543
10374SOL    HW132021   3.853   1.309   3.605
10374SOL    HW232022   3.993   1.239   3.557
10375SOL     OW32023   6.952   2.842   0.955
10375SOL    HW132024   6.925   2.753   0.919
10375SOL    HW232025   0.023   2.846   0.966
10376SOL     OW32026   5.374   6.820   3.967
10376SOL    HW132027   5.420   6.732   3.977
10376SOL    HW232028   5.434   6.884   3.919
10377SOL     OW32029   6.185   6.396   3.668
10377SOL    HW132030   6.216   6.457   3.741
10377SOL    HW232031   6.140   6.450   3.597
10378SOL     OW32032   6.824   6.789   5.578
10378SOL    HW132033   6.889   6.817   5.507
10378SOL    HW232034   6.731   6.793   5.542
10379SOL     OW32035   4.169   1.096   5.354
10379SOL    HW132036   4.094   1.075   5.417
10379SOL    HW232037   4.232   1.018   5.349
10380SOL     OW32038   3.310   0.736   4.544
10380SOL    HW132039   3.403   0.735   4.582
10380SOL    HW232040   3.305   0.803   4.470
10381SOL     OW32041   3.240   5.603   5.124
10381SOL    HW132042   3.237   5.582   5.026
10381SOL    HW232043   3.147   5.605   5.161
10382SOL     OW32044   0.135   4.935   1.232
10382SOL    HW132045   0.035   4.934   1.234
10382SOL    HW232046   0.170   4.985   1.311
10383SOL     OW32047   5.591   3.534   1.119
10383SOL    HW132048   5.529   3.482   1.177
10383SOL    HW232049   5.683   3.533   1.160
10384SOL     OW32050   5.038   1.558   0.183
10384SOL    HW132051   4.982   1.524   0.108
10384SOL    HW232052   4.993   1.537   0.270
10385SOL     OW32053   6.710   3.000   6.741
10385SOL    HW132054   6.726   3.091   6.778
10385SOL    HW232055   6.777   2.936   6.779
10386SOL     OW32056   0.083   1.679   6.317
10386SOL    HW132057   0.140   1.714   6.242
10386SOL    HW232058   7.027   1.732   6.322
10387SOL     OW32059   1.331   3.989   3.169
10387SOL    HW132060   1.386   4.044   3.106
10387SOL    HW232061   1.249   4.041   3.195
10388SOL     OW32062   2.330   4.233   2.132
10388SOL    HW132063   2.341   4.312   2.073
10388SOL    HW232064   2.364   4.254   2.224
10389SOL     OW32065   1.890   5.782   3.120
10389SOL    HW132066   1.852   5.788   3.212
10389SOL    HW232067   1.849   5.706   3.071
10390SOL     OW32068   2.049   3.605   3.601
10390SOL    HW132069   2.054   3.643   3.509
10390SOL    HW232070   2.067   3.677   3.668
10391SOL     OW32071   3.582   5.310   4.139
10391SOL    HW132072   3.679   5.313   4.116
10391SOL    HW232073   3.559   5.387   4.198
10392SOL     OW32074   0.074   5.827   0.004
10392SOL    HW132075   0.095   5.890   6.957
10392SOL    HW232076   0.041   5.879   0.083
10393SOL     OW32077   1.646   1.657   4.664
10393SOL    HW132078   1.666   1.585   4.598
10393SOL    HW232079   1.727   1.676   4.719
10394SOL     OW32080   3.277   6.521   0.702
10394SOL    HW132081   3.365   6.523   0.653
10394SOL    HW232082   3.203   6.541   0.638
10395SOL     OW32083   1.207   0.261   3.755
10395SOL    HW132084   1.160   0.210   3.683
10395SOL    HW232085   1.301   0.229   3.763
10396SOL     OW32086   0.571   0.821   4.166
10396SOL    HW132087   0.657   0.796   4.121
10396SOL    HW232088   0.535   0.905   4.125
10397SOL     OW32089   4.438   2.464   2.568
10397SOL    HW132090   4.412   2.556   2.540
10397SOL    HW232091   4.359   2.403   2.556
10398SOL     OW32092   0.937   2.596   2.599
10398SOL    HW132093   0.946   2.682   2.548
10398SOL    HW232094   1.017   2.539   2.582
10399SOL     OW32095   0.006   2.808   5.966
10399SOL    HW132096   7.011   2.802   6.063
10399SOL    HW232097   7.002   2.725   5.919
10400SOL     OW32098   1.768   5.035   2.364
10400SOL    HW132099   1.791   4.937   2.364
10400SOL    HW232100   1.676   5.047   2.327
10401SOL     OW32101   0.650   5.804   1.182
10401SOL    HW132102   0.614   5.897   1.174
10401SOL    HW232103   0.704   5.783   1.101
10402SOL     OW32104   1.236   2.715   4.962
10402SOL    HW132105   1.171   2.741   4.890
10402SOL    HW232106   1.289   2.637   4.932
10403SOL     OW32107   5.650   0.839   3.173
10403SOL    HW132108   5.569   0.851   3.232
10403SOL    HW232109   5.709   0.919   3.181
10404SOL     OW32110   6.383   0.219   4.865
10404SOL    HW132111   6.405   0.303   4.816
10404SOL    HW232112   6.286   0.199   4.855
10405SOL     OW32113   3.897   0.336   6.621
10405SOL    HW132114   3.837   0.318   6.543
10405SOL    HW232115   3.905   0.435   6.635
10406SOL     OW32116   1.266   6.261   4.713
10406SOL    HW132117   1.258   6.328   4.787
10406SOL    HW232118   1.200   6.187   4.727
10407SOL     OW32119   3.608   0.922   6.682
10407SOL    HW132120   3.649   0.831   6.687
10407SOL    HW232121   3.658   0.978   6.616
10408SOL     OW32122   3.049   0.176   2.403
10408SOL    HW132123   2.989   0.183   2.323
10408SOL    HW232124   3.021   0.098   2.459
10409SOL     OW32125   0.142   4.625   1.977
10409SOL    HW132126   0.206   4.555   1.947
10409SOL    HW232127   0.185   4.715   1.970
10410SOL     OW32128   5.505   5.066   0.681
10410SOL    HW132129   5.513   4.974   0.719
10410SOL    HW232130   5.408   5.085   0.662
10411SOL     OW32131   2.342   5.134   1.936
10411SOL    HW132132   2.268   5.097   1.993
10411SOL    HW232133   2.427   5.135   1.988
10412SOL     OW32134   1.003   3.901   5.992
10412SOL    HW132135   0.933   3.845   5.947
10412SOL    HW232136   0.960   3.973   6.045
10413SOL     OW32137   0.224   1.118   5.294
10413SOL    HW132138   0.201   1.185   5.365
10413SOL    HW232139   0.311   1.144   5.252
10414SOL     OW32140   5.263   5.083   4.822
10414SOL    HW132141   5.332   5.150   4.797
10414SOL    HW232142   5.172   5.124   4.815
10415SOL     OW32143   0.015   4.400   3.150
10415SOL    HW132144   0.113   4.381   3.150
10415SOL    HW232145   7.025   4.482   3.204
10416SOL     OW32146   5.070   0.995   6.993
10416SOL    HW132147   5.023   0.918   0.007
10416SOL    HW232148   5.070   1.072   0.029
10417SOL     OW32149   5.084   4.151   4.517
10417SOL    HW132150   5.136   4.144   4.602
10417SOL    HW232151   5.140   4.117   4.441
10418SOL     OW32152   6.389   2.888   0.349
10418SOL    HW132153   6.411   2.984   0.332
10418SOL    HW232154   6.379   2.873   0.448
10419SOL     OW32155   1.046   0.366   4.732
10419SOL    HW132156   0.957   0.322   4.743
10419SOL    HW232157   1.110   0.330   4.800
10420SOL     OW32158   6.495   3.759   4.556
10420SOL    HW132159   6.453   3.693   4.618
10420SOL    HW232160   6.593   3.764   4.574
10421SOL     OW32161   0.356   3.593   3.972
10421SOL    HW132162   0.371   3.564   4.066
10421SOL    HW232163   0.443   3.600   3.925
10422SOL     OW32164   5.985   2.859   6.132
10422SOL    HW132165   6.032   2.883   6.217
10422SOL    HW232166   5.948   2.942   6.089
10423SOL     OW32167   2.586   6.002   1.785
10423SOL    HW132168   2.575   6.054   1.700
10423SOL    HW232169   2.665   6.037   1.835
10424SOL     OW32170   5.022   0.592   3.006
10424SOL    HW132171   5.014   0.589   2.906
10424SOL    HW232172   5.064   0.508   3.038
10425SOL     OW32173   0.668   4.690   0.783
10425SOL    HW132174   0.653   4.596   0.753
10425SOL    HW232175   0.643   4.753   0.710
10426SOL     OW32176   6.459   3.206   6.890
10426SOL    HW132177   6.392   3.278   6.908
10426SOL    HW232178   6.548   3.233   6.927
10427SOL     OW32179   6.330   0.849   3.497
10427SOL    HW132180   6.423   0.874   3.523
10427SOL    HW232181   6.317   0.867   3.399
10428SOL     OW32182   1.538   0.507   5.353
10428SOL    HW132183   1.568   0.564   5.277
10428SOL    HW232184   1.531   0.562   5.436
10429SOL     OW32185   1.836   4.775   1.827
10429SOL    HW132186   1.864   4.825   1.745
10429SOL    HW232187   1.742   4.743   1.815
10430SOL     OW32188   3.791   1.813   4.846
10430SOL    HW132189   3.878   1.862   4.847
10430SOL    HW232190   3.786   1.756   4.764
10431SOL     OW32191   4.338   1.801   3.893
10431SOL    HW132192   4.246   1.762   3.900
10431SOL    HW232193   4.377   1.779   3.804
10432SOL     OW32194   1.482   4.743   1.195
10432SOL    HW132195   1.405   4.747   1.258
10432SOL    HW232196   1.501   4.648   1.171
10433SOL     OW32197   3.577   6.185   3.898
10433SOL    HW132198   3.505   6.116   3.899
10433SOL    HW232199   3.658   6.147   3.853
10434SOL     OW32200   5.031   2.094   0.890
10434SOL    HW132201   4.985   2.086   0.979
10434SOL    HW232202   4.962   2.092   0.817
10435SOL     OW32203   2.747   1.006   1.338
10435SOL    HW132204   2.798   0.960   1.265
10435SOL    HW232205   2.812   1.057   1.396
10436SOL     OW32206   1.782   4.174   5.215
10436SOL    HW132207   1.846   4.218   5.152
10436SOL    HW232208   1.738   4.244   5.271
10437SOL     OW32209   6.917   0.173   5.302
10437SOL    HW132210   6.829   0.220   5.309
10437SOL    HW232211   6.955   0.187   5.210
10438SOL     OW32212   6.718   6.477   7.005
10438SOL    HW132213   6.734   6.500   6.910
10438SOL    HW232214   6.782   6.527   0.035
10439SOL     OW32215   6.250   5.306   5.696
10439SOL    HW132216   6.283   5.332   5.606
10439SOL    HW232217   6.152   5.324   5.702
10440SOL     OW32218   5.404   2.851   2.273
10440SOL    HW132219   5.448   2.825   2.187
10440SOL    HW232220   5.312   2.886   2.254
10441SOL     OW32221   5.115   1.476   5.606
10441SOL    HW132222   5.174   1.518   5.675
10441SOL    HW232223   5.064   1.400   5.647
10442SOL     OW32224   2.805   0.503   5.709
10442SOL    HW132225   2.715   0.500   5.751
10442SOL    HW232226   2.848   0.412   5.716
10443SOL     OW32227   1.099   1.523   0.029
10443SOL    HW132228   1.108   1.618   0.002
10443SOL    HW232229   1.181   1.495   0.079
10444SOL     OW32230   4.509   5.938   3.378
10444SOL    HW132231   4.570   5.872   3.421
10444SOL    HW232232   4.450   5.891   3.313
10445SOL     OW32233   1.225   3.391   3.194
10445SOL    HW132234   1.240   3.344   3.281
10445SOL    HW232235   1.301   3.370   3.132
10446SOL     OW32236   2.912   4.819   5.312
10446SOL    HW132237   2.976   4.744   5.328
10446SOL    HW232238   2.823   4.781   5.287
10447SOL     OW32239   1.648   2.850   3.141
10447SOL    HW132240   1.689   2.760   3.159
10447SOL    HW232241   1.699   2.920   3.190
10448SOL     OW32242   0.433   5.021   1.643
10448SOL    HW132243   0.473   5.046   1.731
10448SOL    HW232244   0.481   4.942   1.605
10449SOL     OW32245   3.834   5.765   4.715
10449SOL    HW132246   3.858   5.859   4.691
10449SOL    HW232247   3.737   5.759   4.735
10450SOL     OW32248   0.608   2.544   4.781
10450SOL    HW132249   0.616   2.546   4.681
10450SOL    HW232250   0.585   2.451   4.810
10451SOL     OW32251   2.195   2.021   5.283
10451SOL    HW132252   2.137   1.994   5.206
10451SOL    HW232253   2.273   1.958   5.289
10452SOL     OW32254   0.206   2.893   4.857
10452SOL    HW132255   0.296   2.920   4.891
10452SOL    HW232256   0.161   2.971   4.815
10453SOL     OW32257   2.935   5.591   3.479
10453SOL    HW132258   2.953   5.626   3.571
10453SOL    HW232259   2.873   5.653   3.431
10454SOL     OW32260   6.825   2.636   6.682
10454SOL    HW132261   6.771   2.617   6.600
10454SOL    HW232262   6.848   2.551   6.729
10455SOL     OW32263   0.601   5.959   2.860
10455SOL    HW132264   0.657   6.039   2.883
10455SOL    HW232265   0.506   5.977   2.885
10456SOL     OW32266   1.103   6.242   5.748
10456SOL    HW132267   1.082   6.199   5.660
10456SOL    HW232268   1.192   6.211   5.780
10457SOL     OW32269   4.503   1.839   1.331
10457SOL    HW132270   4.498   1.839   1.431
10457SOL    HW232271   4.447   1.765   1.295
10458SOL     OW32272   2.135   6.542   6.626
10458SOL    HW132273   2.160   6.455   6.668
10458SOL    HW232274   2.215   6.602   6.625
10459SOL     OW32275   5.287   6.158   1.912
10459SOL    HW132276   5.262   6.244   1.957
10459SOL    HW232277   5.317   6.177   1.818
10460SOL     OW32278   5.739   1.530   6.193
10460SOL    HW132279   5.768   1.508   6.099
10460SOL    HW232280   5.640   1.526   6.198
10461SOL     OW32281   0.010   4.117   5.534
10461SOL    HW132282   0.023   4.034   5.588
10461SOL    HW232283   6.982   4.182   5.585
10462SOL     OW32284   4.466   4.044   6.982
10462SOL    HW132285   4.516   3.996   0.026
10462SOL    HW232286   4.414   4.120   7.023
10463SOL     OW32287   4.268   2.725   5.333
10463SOL    HW132288   4.214   2.661   5.279
10463SOL    HW232289   4.313   2.676   5.408
10464SOL     OW32290   6.047   4.534   1.337
10464SOL    HW132291   5.999   4.458   1.292
10464SOL    HW232292   6.033   4.618   1.284
10465SOL     OW32293   5.050   4.233   0.393
10465SOL    HW132294   5.112   4.304   0.360
10465SOL    HW232295   4.956   4.258   0.371
10466SOL     OW32296   6.610   4.131   5.679
10466SOL    HW132297   6.591   4.215   5.729
10466SOL    HW232298   6.681   4.079   5.727
10467SOL     OW32299   0.410   3.843   6.635
10467SOL    HW132300   0.414   3.802   6.544
10467SOL    HW232301   0.328   3.899   6.644
10468SOL     OW32302   1.746   4.505   3.653
10468SOL    HW132303   1.775   4.496   3.748
10468SOL    HW232304   1.659   4.554   3.650
10469SOL     OW32305   1.742   0.878   4.785
10469SOL    HW132306   1.806   0.948   4.755
10469SOL    HW232307   1.740   0.803   4.718
10470SOL     OW32308   2.544   4.030   1.650
10470SOL    HW132309   2.630   4.081   1.661
10470SOL    HW232310   2.474   4.070   1.709
10471SOL     OW32311   1.354   4.664   6.127
10471SOL    HW132312   1.416   4.598   6.085
10471SOL    HW232313   1.348   4.746   6.071
10472SOL     OW32314   4.047   5.434   6.212
10472SOL    HW132315   4.115   5.385   6.157
10472SOL    HW232316   4.002   5.371   6.274
10473SOL     OW32317   5.946   5.553   0.816
10473SOL    HW132318   5.886   5.474   0.834
10473SOL    HW232319   5.936   5.581   0.720
10474SOL     OW32320   5.924   5.375   5.449
10474SOL    HW132321   5.964   5.306   5.509
10474SOL    HW232322   5.859   5.332   5.387
10475SOL     OW32323   6.710   6.184   1.969
10475SOL    HW132324   6.735   6.145   1.880
10475SOL    HW232325   6.637   6.130   2.011
10476SOL     OW32326   5.178   6.052   1.127
10476SOL    HW132327   5.202   6.146   1.150
10476SOL    HW232328   5.234   6.021   1.049
10477SOL     OW32329   0.009   5.788   3.446
10477SOL    HW132330   7.002   5.881   3.443
10477SOL    HW232331   0.073   5.779   3.523
10478SOL     OW32332   6.969   1.294   0.461
10478SOL    HW132333   6.957   1.198   0.433
10478SOL    HW232334   7.027   1.298   0.542
10479SOL     OW32335   0.027   4.424   2.884
10479SOL    HW132336   0.119   4.463   2.882
10479SOL    HW232337   7.016   4.435   2.975
10480SOL     OW32338   2.834   1.597   3.751
10480SOL    HW132339   2.860   1.523   3.689
10480SOL    HW232340   2.741   1.581   3.784
10481SOL     OW32341   6.094   0.585   1.860
10481SOL    HW132342   6.179   0.607   1.909
10481SOL    HW232343   6.116   0.559   1.766
10482SOL     OW32344   4.608   4.373   4.558
10482SOL    HW132345   4.509   4.382   4.571
10482SOL    HW232346   4.632   4.404   4.466
10483SOL     OW32347   5.539   1.834   6.524
10483SOL    HW132348   5.447   1.797   6.512
10483SOL    HW232349   5.568   1.877   6.438
10484SOL     OW32350   5.647   0.462   1.213
10484SOL    HW132351   5.551   0.432   1.212
10484SOL    HW232352   5.690   0.440   1.126
10485SOL     OW32353   5.875   3.420   5.458
10485SOL    HW132354   5.854   3.333   5.504
10485SOL    HW232355   5.962   3.413   5.410
10486SOL     OW32356   6.247   3.198   3.241
10486SOL    HW132357   6.282   3.244   3.160
10486SOL    HW232358   6.194   3.262   3.297
10487SOL     OW32359   3.334   0.201   2.351
10487SOL    HW132360   3.239   0.193   2.380
10487SOL    HW232361   3.362   0.116   2.304
10488SOL     OW32362   4.036   3.956   0.069
10488SOL    HW132363   4.076   3.927   0.156
10488SOL    HW232364   4.056   4.052   0.053
10489SOL     OW32365   1.317   4.830   5.604
10489SOL    HW132366   1.333   4.810   5.508
10489SOL    HW232367   1.260   4.758   5.644
10490SOL     OW32368   6.229   6.571   4.319
10490SOL    HW132369   6.183   6.606   4.237
10490SOL    HW232370   6.180   6.603   4.400
10491SOL     OW32371   6.597   5.839   4.360
10491SOL    HW132372   6.531   5.842   4.435
10491SOL    HW232373   6.583   5.918   4.300
10492SOL     OW32374   4.475   3.768   5.974
10492SOL    HW132375   4.452   3.852   5.926
10492SOL    HW232376   4.412   3.756   6.051
10493SOL     OW32377   3.714   1.579   6.919
10493SOL    HW132378   3.615   1.572   6.908
10493SOL    HW232379   3.749   1.653   6.863
10494SOL     OW32380   5.774   1.418   5.129
10494SOL    HW132381   5.724   1.354   5.189
10494SOL    HW232382   5.856   1.451   5.176
10495SOL     OW32383   0.688   0.738   6.954
10495SOL    HW132384   0.702   0.758   6.857
10495SOL    HW232385   0.591   0.746   6.975
10496SOL     OW32386   0.260   0.303   5.206
10496SOL    HW132387   0.169   0.272   5.177
10496SOL    HW232388   0.330   0.247   5.163
10497SOL     OW32389   2.070   1.276   5.950
10497SOL    HW132390   2.041   1.273   6.046
10497SOL    HW232391   2.005   1.226   5.894
10498SOL     OW32392   2.474   5.571   5.328
10498SOL    HW132393   2.412   5.600   5.401
10498SOL    HW232394   2.534   5.499   5.362
10499SOL     OW32395   3.277   6.490   1.887
10499SOL    HW132396   3.288   6.424   1.812
10499SOL    HW232397   3.211   6.560   1.860
10500SOL     OW32398   1.744   0.917   6.991
10500SOL    HW132399   1.791   0.830   7.006
10500SOL    HW232400   1.791   0.968   6.919
10501SOL     OW32401   1.556   3.530   3.400
10501SOL    HW132402   1.540   3.433   3.386
10501SOL    HW232403   1.569   3.575   3.311
10502SOL     OW32404   3.613   6.635   4.440
10502SOL    HW132405   3.640   6.682   4.356
10502SOL    HW232406   3.542   6.689   4.487
10503SOL     OW32407   2.430   3.395   6.728
10503SOL    HW132408   2.382   3.482   6.721
10503SOL    HW232409   2.365   3.323   6.751
10504SOL     OW32410   1.942   2.718   0.449
10504SOL    HW132411   1.953   2.625   0.485
10504SOL    HW232412   1.962   2.784   0.520
10505SOL     OW32413   0.910   5.033   0.179
10505SOL    HW132414   0.831   5.024   0.118
10505SOL    HW232415   0.946   4.942   0.199
10506SOL     OW32416   6.760   5.880   6.421
10506SOL    HW132417   6.691   5.824   6.376
10506SOL    HW232418   6.729   5.975   6.427
10507SOL     OW32419   2.804   0.220   4.142
10507SOL    HW132420   2.881   0.158   4.154
10507SOL    HW232421   2.782   0.264   4.229
10508SOL     OW32422   5.706   5.496   3.318
10508SOL    HW132423   5.762   5.477   3.238
10508SOL    HW232424   5.642   5.570   3.297
10509SOL     OW32425   2.495   1.441   4.788
10509SOL    HW132426   2.408   1.394   4.773
10509SOL    HW232427   2.477   1.531   4.828
10510SOL     OW32428   5.300   0.392   6.352
10510SOL    HW132429   5.254   0.466   6.400
10510SOL    HW232430   5.398   0.394   6.373
10511SOL     OW32431   6.451   2.402   2.343
10511SOL    HW132432   6.517   2.394   2.417
10511SOL    HW232433   6.468   2.488   2.293
10512SOL     OW32434   1.854   0.009   0.018
10512SOL    HW132435   1.810   6.948   0.009
10512SOL    HW232436   1.937   0.011   6.990
10513SOL     OW32437   6.627   2.816   1.133
10513SOL    HW132438   6.579   2.822   1.220
10513SOL    HW232439   6.720   2.782   1.149
10514SOL     OW32440   1.978   2.396   1.679
10514SOL    HW132441   2.065   2.377   1.634
10514SOL    HW232442   1.954   2.492   1.667
10515SOL     OW32443   0.571   4.341   4.258
10515SOL    HW132444   0.572   4.441   4.260
10515SOL    HW232445   0.665   4.307   4.263
10516SOL     OW32446   2.771   6.145   0.335
10516SOL    HW132447   2.714   6.127   0.255
10516SOL    HW232448   2.801   6.058   0.375
10517SOL     OW32449   0.508   2.350   3.828
10517SOL    HW132450   0.606   2.343   3.841
10517SOL    HW232451   0.482   2.447   3.820
10518SOL     OW32452   1.325   6.130   3.627
10518SOL    HW132453   1.254   6.110   3.559
10518SOL    HW232454   1.282   6.164   3.710
10519SOL     OW32455   3.180   3.433   5.658
10519SOL    HW132456   3.233   3.402   5.579
10519SOL    HW232457   3.130   3.516   5.634
10520SOL     OW32458   2.605   4.744   6.856
10520SOL    HW132459   2.652   4.739   6.768
10520SOL    HW232460   2.591   4.652   6.892
10521SOL     OW32461   0.311   6.194   1.840
10521SOL    HW132462   0.282   6.274   1.786
10521SOL    HW232463   0.384   6.146   1.793
10522SOL     OW32464   5.792   6.453   2.412
10522SOL    HW132465   5.855   6.398   2.357
10522SOL    HW232466   5.779   6.543   2.370
10523SOL     OW32467   5.941   5.650   6.513
10523SOL    HW132468   5.901   5.560   6.493
10523SOL    HW232469   6.040   5.641   6.519
10524SOL     OW32470   5.058   0.821   4.956
10524SOL    HW132471   5.064   0.812   5.056
10524SOL    HW232472   5.017   0.738   4.918
10525SOL     OW32473   2.107   0.249   5.590
10525SOL    HW132474   2.026   0.298   5.558
10525SOL    HW232475   2.111   0.159   5.547
10526SOL     OW32476   4.324   5.372   2.826
10526SOL    HW132477   4.371   5.447   2.872
10526SOL    HW232478   4.267   5.408   2.752
10527SOL     OW32479   2.063   2.903   4.096
10527SOL    HW132480   2.006   2.980   4.125
10527SOL    HW232481   2.136   2.890   4.162
10528SOL     OW32482   5.275   4.121   6.541
10528SOL    HW132483   5.342   4.088   6.475
10528SOL    HW232484   5.322   4.153   6.623
10529SOL     OW32485   6.927   5.572   5.348
10529SOL    HW132486   6.914   5.476   5.373
10529SOL    HW232487   6.917   5.630   5.429
10530SOL     OW32488   1.266   1.330   4.495
10530SOL    HW132489   1.312   1.372   4.573
10530SOL    HW232490   1.333   1.280   4.440
10531SOL     OW32491   3.358   1.918   4.492
10531SOL    HW132492   3.306   1.835   4.510
10531SOL    HW232493   3.417   1.938   4.570
10532SOL     OW32494   3.282   4.093   4.111
10532SOL    HW132495   3.356   4.105   4.045
10532SOL    HW232496   3.312   4.128   4.200
10533SOL     OW32497   3.695   1.685   6.389
10533SOL    HW132498   3.780   1.634   6.382
10533SOL    HW232499   3.626   1.630   6.436
10534SOL     OW32500   5.703   4.973   2.360
10534SOL    HW132501   5.617   4.990   2.410
10534SOL    HW232502   5.711   5.039   2.285
10535SOL     OW32503   6.566   1.704   1.834
10535SOL    HW132504   6.530   1.797   1.843
10535SOL    HW232505   6.513   1.642   1.890
10536SOL     OW32506   6.180   6.018   2.151
10536SOL    HW132507   6.202   6.067   2.066
10536SOL    HW232508   6.228   5.930   2.151
10537SOL     OW32509   6.281   4.784   1.073
10537SOL    HW132510   6.371   4.774   1.116
10537SOL    HW232511   6.289   4.844   0.993
10538SOL     OW32512   4.787   3.529   6.467
10538SOL    HW132513   4.807   3.433   6.447
10538SOL    HW232514   4.840   3.587   6.405
10539SOL     OW32515   1.907   2.956   4.881
10539SOL    HW132516   1.956   2.869   4.873
10539SOL    HW232517   1.925   3.012   4.799
10540SOL     OW32518   3.880   1.045   0.725
10540SOL    HW132519   3.904   1.034   0.629
10540SOL    HW232520   3.893   1.141   0.752
10541SOL     OW32521   3.349   2.669   1.686
10541SOL    HW132522   3.408   2.593   1.659
10541SOL    HW232523   3.300   2.704   1.606
10542SOL     OW32524   1.796   2.853   0.257
10542SOL    HW132525   1.830   2.944   0.232
10542SOL    HW232526   1.842   2.822   0.341
10543SOL     OW32527   2.820   0.193   3.845
10543SOL    HW132528   2.816   0.230   3.938
10543SOL    HW232529   2.738   0.138   3.829
10544SOL     OW32530   7.003   1.645   1.413
10544SOL    HW132531   6.912   1.623   1.378
10544SOL    HW232532   7.009   1.744   1.430
10545SOL     OW32533   3.213   0.647   3.150
10545SOL    HW132534   3.219   0.745   3.127
10545SOL    HW232535   3.283   0.597   3.099
10546SOL     OW32536   4.352   1.118   4.843
10546SOL    HW132537   4.312   1.187   4.902
10546SOL    HW232538   4.307   1.030   4.858
10547SOL     OW32539   4.516   5.580   1.872
10547SOL    HW132540   4.611   5.559   1.851
10547SOL    HW232541   4.458   5.552   1.796
10548SOL     OW32542   4.511   4.196   5.925
10548SOL    HW132543   4.519   4.126   5.854
10548SOL    HW232544   4.433   4.177   5.983
10549SOL     OW32545   6.479   1.913   2.452
10549SOL    HW132546   6.446   1.859   2.374
10549SOL    HW232547   6.555   1.971   2.423
10550SOL     OW32548   4.538   6.641   5.520
10550SOL    HW132549   4.565   6.659   5.425
10550SOL    HW232550   4.578   6.554   5.550
10551SOL     OW32551   1.707   2.838   5.824
10551SOL    HW132552   1.758   2.897   5.762
10551SOL    HW232553   1.659   2.768   5.770
10552SOL     OW32554   3.667   0.991   5.408
10552SOL    HW132555   3.661   0.898   5.373
10552SOL    HW232556   3.583   1.041   5.386
10553SOL     OW32557   2.934   4.640   6.856
10553SOL    HW132558   2.858   4.647   6.792
10553SOL    HW232559   3.013   4.599   6.810
10554SOL     OW32560   6.565   3.792   6.164
10554SOL    HW132561   6.596   3.818   6.255
10554SOL    HW232562   6.506   3.864   6.127
10555SOL     OW32563   3.412   3.006   0.506
10555SOL    HW132564   3.314   2.992   0.519
10555SOL    HW232565   3.459   2.918   0.507
10556SOL     OW32566   3.012   5.001   4.139
10556SOL    HW132567   3.073   5.062   4.190
10556SOL    HW232568   2.972   4.933   4.200
10557SOL     OW32569   5.572   1.519   3.002
10557SOL    HW132570   5.503   1.465   2.953
10557SOL    HW232571   5.654   1.528   2.945
10558SOL     OW32572   5.821   5.410   6.573
10558SOL    HW132573   5.767   5.332   6.605
10558SOL    HW232574   5.886   5.437   6.644
10559SOL     OW32575   4.157   3.187   1.481
10559SOL    HW132576   4.204   3.213   1.565
10559SOL    HW232577   4.215   3.209   1.403
10560SOL     OW32578   6.829   2.056   3.919
10560SOL    HW132579   6.838   1.972   3.865
10560SOL    HW232580   6.742   2.054   3.969
10561SOL     OW32581   1.103   4.294   6.084
10561SOL    HW132582   1.008   4.262   6.079
10561SOL    HW232583   1.164   4.215   6.078
10562SOL     OW32584   4.499   2.065   1.052
10562SOL    HW132585   4.495   1.975   1.096
10562SOL    HW232586   4.542   2.130   1.114
10563SOL     OW32587   2.006   1.937   2.114
10563SOL    HW132588   2.062   1.863   2.150
10563SOL    HW232589   1.926   1.899   2.068
10564SOL     OW32590   0.382   2.099   2.888
10564SOL    HW132591   0.343   2.061   2.805
10564SOL    HW232592   0.478   2.071   2.897
10565SOL     OW32593   5.326   2.199   4.969
10565SOL    HW132594   5.228   2.215   4.954
10565SOL    HW232595   5.355   2.121   4.914
10566SOL     OW32596   4.914   5.733   0.267
10566SOL    HW132597   4.872   5.699   0.182
10566SOL    HW232598   4.862   5.699   0.345
10567SOL     OW32599   1.773   6.089   4.978
10567SOL    HW132600   1.831   6.156   5.023
10567SOL    HW232601   1.684   6.131   4.957
10568SOL     OW32602   4.026   0.177   4.026
10568SOL    HW132603   4.011   0.252   3.962
10568SOL    HW232604   4.036   0.091   3.976
10569SOL     OW32605   6.582   1.672   3.798
10569SOL    HW132606   6.541   1.585   3.771
10569SOL    HW232607   6.516   1.726   3.850
10570SOL     OW32608   0.783   2.380   1.718
10570SOL    HW132609   0.784   2.392   1.619
10570SOL    HW232610   0.829   2.458   1.761
10571SOL     OW32611   6.589   6.796   4.991
10571SOL    HW132612   6.672   6.749   5.018
10571SOL    HW232613   6.580   6.794   4.891
10572SOL     OW32614   6.457   3.975   2.998
10572SOL    HW132615   6.542   4.026   2.982
10572SOL    HW232616   6.387   4.037   3.034
10573SOL     OW32617   6.641   4.861   5.723
10573SOL    HW132618   6.648   4.785   5.658
10573SOL    HW232619   6.678   4.944   5.681
10574SOL     OW32620   0.410   2.478   3.140
10574SOL    HW132621   0.350   2.416   3.089
10574SOL    HW232622   0.406   2.569   3.098
10575SOL     OW32623   0.370   0.049   5.958
10575SOL    HW132624   0.452   7.020   5.961
10575SOL    HW232625   0.372   0.114   6.035
10576SOL     OW32626   0.327   6.038   3.756
10576SOL    HW132627   0.322   6.114   3.691
10576SOL    HW232628   0.327   6.074   3.849
10577SOL     OW32629   0.234   2.967   5.513
10577SOL    HW132630   0.279   3.054   5.531
10577SOL    HW232631   0.198   2.929   5.598
10578SOL     OW32632   5.759   0.463   5.884
10578SOL    HW132633   5.803   0.538   5.834
10578SOL    HW232634   5.802   0.377   5.859
10579SOL     OW32635   5.572   5.970   1.052
10579SOL    HW132636   5.540   6.015   0.968
10579SOL    HW232637   5.543   6.023   1.131
10580SOL     OW32638   0.812   4.717   1.404
10580SOL    HW132639   0.796   4.622   1.428
10580SOL    HW232640   0.795   4.775   1.484
10581SOL     OW32641   4.374   1.789   3.204
10581SOL    HW132642   4.472   1.774   3.190
10581SOL    HW232643   4.356   1.806   3.301
10582SOL     OW32644   3.371   4.189   6.931
10582SOL    HW132645   3.319   4.106   6.908
10582SOL    HW232646   3.463   4.182   6.893
10583SOL     OW32647   4.754   0.798   1.472
10583SOL    HW132648   4.775   0.733   1.399
10583SOL    HW232649   4.656   0.814   1.476
10584SOL     OW32650   5.765   6.280   1.977
10584SOL    HW132651   5.671   6.248   1.986
10584SOL    HW232652   5.769   6.379   1.995
10585SOL     OW32653   3.333   4.221   6.331
10585SOL    HW132654   3.304   4.316   6.321
10585SOL    HW232655   3.431   4.214   6.311
10586SOL     OW32656   5.410   1.932   1.719
10586SOL    HW132657   5.370   2.016   1.684
10586SOL    HW232658   5.406   1.861   1.648
10587SOL     OW32659   0.226   3.665   0.798
10587SOL    HW132660   0.141   3.612   0.794
10587SOL    HW232661   0.241   3.711   0.711
10588SOL     OW32662   1.560   5.379   3.826
10588SOL    HW132663   1.589   5.327   3.746
10588SOL    HW232664   1.629   5.447   3.849
10589SOL     OW32665   5.515   0.666   4.608
10589SOL    HW132666   5.467   0.754   4.599
10589SOL    HW232667   5.515   0.639   4.705
10590SOL     OW32668   1.100   0.067   4.525
10590SOL    HW132669   1.011   0.066   4.571
10590SOL    HW232670   1.087   0.089   4.428
10591SOL     OW32671   1.440   2.327   1.170
10591SOL    HW132672   1.467   2.382   1.091
10591SOL    HW232673   1.460   2.379   1.254
10592SOL     OW32674   5.042   1.768   6.406
10592SOL    HW132675   5.073   1.728   6.493
10592SOL    HW232676   5.028   1.694   6.339
10593SOL     OW32677   1.072   3.987   2.796
10593SOL    HW132678   1.117   3.956   2.712
10593SOL    HW232679   1.072   3.912   2.863
10594SOL     OW32680   1.729   1.383   3.732
10594SOL    HW132681   1.659   1.312   3.731
10594SOL    HW232682   1.816   1.342   3.763
10595SOL     OW32683   1.521   6.140   4.832
10595SOL    HW132684   1.482   6.216   4.885
10595SOL    HW232685   1.464   6.059   4.843
10596SOL     OW32686   2.346   1.490   0.799
10596SOL    HW132687   2.364   1.421   0.868
10596SOL    HW232688   2.300   1.569   0.841
10597SOL     OW32689   2.155   0.643   3.523
10597SOL    HW132690   2.118   0.628   3.615
10597SOL    HW232691   2.133   0.735   3.493
10598SOL     OW32692   2.989   1.181   0.644
10598SOL    HW132693   3.074   1.190   0.696
10598SOL    HW232694   2.952   1.089   0.658
10599SOL     OW32695   5.047   6.897   6.145
10599SOL    HW132696   5.049   6.814   6.088
10599SOL    HW232697   5.140   6.933   6.154
10600SOL     OW32698   1.612   3.252   5.360
10600SOL    HW132699   1.641   3.248   5.264
10600SOL    HW232700   1.606   3.159   5.396
10601SOL     OW32701   4.397   6.044   5.316
10601SOL    HW132702   4.456   5.969   5.288
10601SOL    HW232703   4.441   6.131   5.293
10602SOL     OW32704   4.397   2.073   2.187
10602SOL    HW132705   4.469   2.138   2.210
10602SOL    HW232706   4.384   2.071   2.088
10603SOL     OW32707   0.687   5.702   4.963
10603SOL    HW132708   0.668   5.715   5.061
10603SOL    HW232709   0.653   5.613   4.934
10604SOL     OW32710   1.042   4.732   6.247
10604SOL    HW132711   1.088   4.652   6.285
10604SOL    HW232712   0.943   4.724   6.263
10605SOL     OW32713   1.626   4.978   0.004
10605SOL    HW132714   1.652   4.891   0.045
10605SOL    HW232715   1.707   5.024   6.995
10606SOL     OW32716   1.187   0.646   1.583
10606SOL    HW132717   1.106   0.632   1.526
10606SOL    HW232718   1.191   0.575   1.653
10607SOL     OW32719   5.169   4.309   0.066
10607SOL    HW132720   5.098   4.240   0.051
10607SOL    HW232721   5.258   4.269   0.046
10608SOL     OW32722   4.996   6.390   2.128
10608SOL    HW132723   5.013   6.467   2.068
10608SOL    HW232724   4.897   6.374   2.135
10609SOL     OW32725   3.665   6.769   3.404
10609SOL    HW132726   3.623   6.706   3.338
10609SOL    HW232727   3.605   6.848   3.417
10610SOL     OW32728   2.182   4.787   5.035
10610SOL    HW132729   2.256   4.802   4.969
10610SOL    HW232730   2.118   4.863   5.030
10611SOL     OW32731   5.046   1.925   5.964
10611SOL    HW132732   5.088   1.886   5.881
10611SOL    HW232733   5.069   2.022   5.970
10612SOL     OW32734   1.456   0.504   1.496
10612SOL    HW132735   1.426   0.530   1.405
10612SOL    HW232736   1.396   0.546   1.564
10613SOL     OW32737   1.814   6.789   6.941
10613SOL    HW132738   1.721   6.765   6.970
10613SOL    HW232739   1.810   6.840   6.855
10614SOL     OW32740   0.873   0.595   3.041
10614SOL    HW132741   0.839   0.628   2.953
10614SOL    HW232742   0.846   0.658   3.113
10615SOL     OW32743   0.821   6.187   5.382
10615SOL    HW132744   0.762   6.141   5.449
10615SOL    HW232745   0.917   6.177   5.411
10616SOL     OW32746   3.402   5.580   1.680
10616SOL    HW132747   3.408   5.481   1.665
10616SOL    HW232748   3.414   5.628   1.594
10617SOL     OW32749   6.076   2.179   6.828
10617SOL    HW132750   6.096   2.187   6.925
10617SOL    HW232751   6.025   2.260   6.798
10618SOL     OW32752   6.954   3.956   1.455
10618SOL    HW132753   0.016   3.913   1.443
10618SOL    HW232754   6.920   3.988   1.367
10619SOL     OW32755   0.220   3.263   3.932
10619SOL    HW132756   0.317   3.280   3.913
10619SOL    HW232757   0.185   3.334   3.994
10620SOL     OW32758   1.804   5.156   3.469
10620SOL    HW132759   1.881   5.102   3.501
10620SOL    HW232760   1.761   5.111   3.391
10621SOL     OW32761   3.664   1.110   0.350
10621SOL    HW132762   3.579   1.162   0.344
10621SOL    HW232763   3.647   1.024   0.399
10622SOL     OW32764   4.578   2.414   0.919
10622SOL    HW132765   4.504   2.382   0.859
10622SOL    HW232766   4.540   2.472   0.990
10623SOL     OW32767   6.415   1.617   4.026
10623SOL    HW132768   6.420   1.557   3.947
10623SOL    HW232769   6.334   1.595   4.080
10624SOL     OW32770   2.906   1.375   3.169
10624SOL    HW132771   2.826   1.434   3.158
10624SOL    HW232772   2.877   1.285   3.202
10625SOL     OW32773   0.492   2.403   1.729
10625SOL    HW132774   0.492   2.434   1.634
10625SOL    HW232775   0.574   2.349   1.746
10626SOL     OW32776   6.783   1.457   2.457
10626SOL    HW132777   6.723   1.424   2.384
10626SOL    HW232778   6.845   1.527   2.421
10627SOL     OW32779   2.852   5.054   4.911
10627SOL    HW132780   2.762   5.021   4.884
10627SOL    HW232781   2.902   4.981   4.958
10628SOL     OW32782   0.407   0.753   4.819
10628SOL    HW132783   0.408   0.775   4.916
10628SOL    HW232784   0.319   0.711   4.795
10629SOL     OW32785   3.589   3.707   6.459
10629SOL    HW132786   3.602   3.722   6.557
10629SOL    HW232787   3.654   3.637   6.428
10630SOL     OW32788   5.221   1.141   1.235
10630SOL    HW132789   5.198   1.098   1.148
10630SOL    HW232790   5.310   1.108   1.266
10631SOL     OW32791   1.587   6.633   4.348
10631SOL    HW132792   1.626   6.632   4.256
10631SOL    HW232793   1.488   6.648   4.342
10632SOL     OW32794   6.667   3.226   0.765
10632SOL    HW132795   6.702   3.231   0.671
10632SOL    HW232796   6.680   3.134   0.801
10633SOL     OW32797   1.737   4.718   5.870
10633SOL    HW132798   1.727   4.817   5.877
10633SOL    HW232799   1.709   4.687   5.779
10634SOL     OW32800   3.337   6.994   2.642
10634SOL    HW132801   3.314   0.018   2.724
10634SOL    HW232802   3.300   6.902   2.649
10635SOL     OW32803   0.561   0.460   1.485
10635SOL    HW132804   0.582   0.538   1.426
10635SOL    HW232805   0.501   0.490   1.560
10636SOL     OW32806   5.250   1.973   6.467
10636SOL    HW132807   5.251   1.999   6.371
10636SOL    HW232808   5.270   1.875   6.475
10637SOL     OW32809   3.740   3.836   7.007
10637SOL    HW132810   3.786   3.781   6.937
10637SOL    HW232811   3.808   3.893   0.025
10638SOL     OW32812   6.559   1.911   6.083
10638SOL    HW132813   6.479   1.898   6.141
10638SOL    HW232814   6.574   1.830   6.026
10639SOL     OW32815   3.496   1.321   3.504
10639SOL    HW132816   3.499   1.403   3.561
10639SOL    HW232817   3.407   1.316   3.458
10640SOL     OW32818   4.803   6.393   0.456
10640SOL    HW132819   4.776   6.356   0.367
10640SOL    HW232820   4.754   6.345   0.528
10641SOL     OW32821   3.443   7.023   0.442
10641SOL    HW132822   3.432   0.085   0.399
10641SOL    HW232823   3.443   0.005   0.541
10642SOL     OW32824   0.473   6.191   2.145
10642SOL    HW132825   0.388   6.138   2.152
10642SOL    HW232826   0.522   6.188   2.232
10643SOL     OW32827   4.142   3.948   5.699
10643SOL    HW132828   4.089   3.881   5.647
10643SOL    HW232829   4.214   3.986   5.641
10644SOL     OW32830   4.146   1.581   5.495
10644SOL    HW132831   4.080   1.563   5.422
10644SOL    HW232832   4.142   1.678   5.520
10645SOL     OW32833   1.727   1.525   2.903
10645SOL    HW132834   1.670   1.539   2.822
10645SOL    HW232835   1.683   1.461   2.965
10646SOL     OW32836   0.006   4.126   0.201
10646SOL    HW132837   0.085   4.065   0.199
10646SOL    HW232838   7.017   4.162   0.110
10647SOL     OW32839   6.318   6.281   1.483
10647SOL    HW132840   6.313   6.380   1.489
10647SOL    HW232841   6.412   6.251   1.501
10648SOL     OW32842   4.436   4.027   5.702
10648SOL    HW132843   4.354   4.005   5.753
10648SOL    HW232844   4.448   3.962   5.627
10649SOL     OW32845   6.600   4.466   6.107
10649SOL    HW132846   6.514   4.516   6.119
10649SOL    HW232847   6.608   4.396   6.178
10650SOL     OW32848   2.027   1.359   5.631
10650SOL    HW132849   2.117   1.369   5.673
10650SOL    HW232850   1.965   1.314   5.695
10651SOL     OW32851   1.534   1.024   5.644
10651SOL    HW132852   1.630   1.001   5.626
10651SOL    HW232853   1.507   1.101   5.585
10652SOL     OW32854   4.363   0.555   0.635
10652SOL    HW132855   4.269   0.527   0.657
10652SOL    HW232856   4.392   0.509   0.551
10653SOL     OW32857   5.818   4.526   3.412
10653SOL    HW132858   5.881   4.468   3.464
10653SOL    HW232859   5.870   4.588   3.353
10654SOL     OW32860   5.020   6.763   1.218
10654SOL    HW132861   4.954   6.774   1.143
10654SOL    HW232862   5.000   6.678   1.267
10655SOL     OW32863   3.996   6.134   0.523
10655SOL    HW132864   4.038   6.148   0.613
10655SOL    HW232865   3.913   6.078   0.533
10656SOL     OW32866   0.527   3.672   5.872
10656SOL    HW132867   0.466   3.748   5.890
10656SOL    HW232868   0.527   3.651   5.774
10657SOL     OW32869   6.179   0.545   6.401
10657SOL    HW132870   6.266   0.514   6.363
10657SOL    HW232871   6.107   0.479   6.378
10658SOL     OW32872   6.969   6.055   3.470
10658SOL    HW132873   0.006   6.118   3.512
10658SOL    HW232874   6.901   6.106   3.419
10659SOL     OW32875   5.878   1.375   2.282
10659SOL    HW132876   5.923   1.406   2.365
10659SOL    HW232877   5.941   1.380   2.205
10660SOL     OW32878   4.519   4.743   5.000
10660SOL    HW132879   4.539   4.804   5.077
10660SOL    HW232880   4.425   4.710   5.008
10661SOL     OW32881   6.685   1.053   1.653
10661SOL    HW132882   6.634   1.120   1.598
10661SOL    HW232883   6.708   1.094   1.741
10662SOL     OW32884   0.793   2.108   0.626
10662SOL    HW132885   0.704   2.093   0.583
10662SOL    HW232886   0.790   2.079   0.721
10663SOL     OW32887   0.948   2.882   3.034
10663SOL    HW132888   0.975   2.924   3.120
10663SOL    HW232889   0.949   2.783   3.043
10664SOL     OW32890   2.160   5.163   6.113
10664SOL    HW132891   2.182   5.180   6.017
10664SOL    HW232892   2.099   5.085   6.120
10665SOL     OW32893   5.871   2.396   6.448
10665SOL    HW132894   5.920   2.380   6.362
10665SOL    HW232895   5.803   2.324   6.461
10666SOL     OW32896   0.237   6.040   0.994
10666SOL    HW132897   0.213   5.984   1.073
10666SOL    HW232898   0.307   6.107   1.021
10667SOL     OW32899   3.284   2.622   5.825
10667SOL    HW132900   3.321   2.715   5.816
10667SOL    HW232901   3.359   2.558   5.844
10668SOL     OW32902   1.577   7.011   6.280
10668SOL    HW132903   1.672   7.026   6.255
10668SOL    HW232904   1.550   0.048   6.351
10669SOL     OW32905   2.012   5.329   6.275
10669SOL    HW132906   2.022   5.298   6.370
10669SOL    HW232907   2.081   5.283   6.218
10670SOL     OW32908   6.022   3.996   5.368
10670SOL    HW132909   6.077   3.969   5.289
10670SOL    HW232910   5.927   3.971   5.353
10671SOL     OW32911   2.166   3.212   3.841
10671SOL    HW132912   2.174   3.264   3.756
10671SOL    HW232913   2.174   3.274   3.919
10672SOL     OW32914   6.135   2.642   0.818
10672SOL    HW132915   6.224   2.607   0.846
10672SOL    HW232916   6.086   2.677   0.899
10673SOL     OW32917   3.299   4.116   3.038
10673SOL    HW132918   3.280   4.213   3.047
10673SOL    HW232919   3.329   4.096   2.945
10674SOL     OW32920   2.830   1.977   2.558
10674SOL    HW132921   2.741   1.988   2.513
10674SOL    HW232922   2.865   1.885   2.541
10675SOL     OW32923   1.568   2.035   5.463
10675SOL    HW132924   1.484   1.982   5.478
10675SOL    HW232925   1.568   2.071   5.370
10676SOL     OW32926   6.369   0.755   6.887
10676SOL    HW132927   6.462   0.786   6.907
10676SOL    HW232928   6.304   0.818   6.930
10677SOL     OW32929   5.327   6.921   6.659
10677SOL    HW132930   5.364   6.882   6.575
10677SOL    HW232931   5.253   6.863   6.693
10678SOL     OW32932   1.847   6.094   3.806
10678SOL    HW132933   1.817   6.007   3.767
10678SOL    HW232934   1.811   6.169   3.750
10679SOL     OW32935   6.313   5.113   4.731
10679SOL    HW132936   6.288   5.155   4.819
10679SOL    HW232937   6.332   5.185   4.665
10680SOL     OW32938   0.456   2.233   3.535
10680SOL    HW132939   0.476   2.308   3.472
10680SOL    HW232940   0.424   2.272   3.622
10681SOL     OW32941   0.620   3.509   0.066
10681SOL    HW132942   0.548   3.475   0.127
10681SOL    HW232943   0.619   3.457   7.009
10682SOL     OW32944   6.484   2.533   3.458
10682SOL    HW132945   6.450   2.626   3.447
10682SOL    HW232946   6.416   2.477   3.505
10683SOL     OW32947   0.997   0.196   4.309
10683SOL    HW132948   0.901   0.179   4.286
10683SOL    HW232949   1.056   0.169   4.233
10684SOL     OW32950   5.232   6.238   0.732
10684SOL    HW132951   5.160   6.232   0.663
10684SOL    HW232952   5.316   6.272   0.690
10685SOL     OW32953   6.454   2.315   4.266
10685SOL    HW132954   6.502   2.275   4.344
10685SOL    HW232955   6.520   2.330   4.192
10686SOL     OW32956   5.352   3.651   1.490
10686SOL    HW132957   5.340   3.729   1.428
10686SOL    HW232958   5.442   3.656   1.533
10687SOL     OW32959   0.726   4.960   1.333
10687SOL    HW132960   0.645   4.940   1.278
10687SOL    HW232961   0.782   4.878   1.342
10688SOL     OW32962   1.701   5.325   1.489
10688SOL    HW132963   1.700   5.270   1.405
10688SOL    HW232964   1.795   5.339   1.519
10689SOL     OW32965   6.598   1.411   2.235
10689SOL    HW132966   6.632   1.332   2.184
10689SOL    HW232967   6.498   1.416   2.227
10690SOL     OW32968   3.742   0.729   2.496
10690SOL    HW132969   3.745   0.813   2.441
10690SOL    HW232970   3.824   0.725   2.553
10691SOL     OW32971   5.076   1.665   2.222
10691SOL    HW132972   4.986   1.678   2.262
10691SOL    HW232973   5.078   1.705   2.131
10692SOL     OW32974   5.607   6.139   4.225
10692SOL    HW132975   5.591   6.236   4.206
10692SOL    HW232976   5.531   6.103   4.280
10693SOL     OW32977   4.548   2.559   4.719
10693SOL    HW132978   4.639   2.527   4.746
10693SOL    HW232979   4.482   2.538   4.790
10694SOL     OW32980   3.493   6.813   0.173
10694SOL    HW132981   3.452   6.835   0.085
10694SOL    HW232982   3.423   6.816   0.244
10695SOL     OW32983   5.877   2.939   5.726
10695SOL    HW132984   5.798   2.906   5.777
10695SOL    HW232985   5.960   2.922   5.778
10696SOL     OW32986   6.290   0.615   0.673
10696SOL    HW132987   6.389   0.600   0.678
10696SOL    HW232988   6.271   0.712   0.681
10697SOL     OW32989   3.438   5.756   3.006
10697SOL    HW132990   3.456   5.841   2.957
10697SOL    HW232991   3.381   5.696   2.948
10698SOL     OW32992   3.893   6.921   3.465
10698SOL    HW132993   3.900   7.003   3.522
10698SOL    HW232994   3.802   6.880   3.476
10699SOL     OW32995   6.846   3.956   3.798
10699SOL    HW132996   6.868   4.014   3.720
10699SOL    HW232997   6.926   3.952   3.859
10700SOL     OW32998   0.149   2.444   3.327
10700SOL    HW132999   0.117   2.535   3.303
10700SOL    HW233000   0.131   2.381   3.252
10701SOL     OW33001   1.812   6.671   1.463
10701SOL    HW133002   1.802   6.717   1.551
10701SOL    HW233003   1.750   6.593   1.457
10702SOL     OW33004   4.881   1.932   1.060
10702SOL    HW133005   4.816   1.893   0.996
10702SOL    HW233006   4.832   1.974   1.137
10703SOL     OW33007   3.461   4.118   5.011
10703SOL    HW133008   3.543   4.175   5.004
10703SOL    HW233009   3.419   4.131   5.101
10704SOL     OW33010   5.682   5.392   1.810
10704SOL    HW133011   5.593   5.348   1.808
10704SOL    HW233012   5.683   5.469   1.747
10705SOL     OW33013   1.087   3.508   0.615
10705SOL    HW133014   1.008   3.569   0.610
10705SOL    HW233015   1.058   3.419   0.651
10706SOL     OW33016   3.298   3.954   0.168
10706SOL    HW133017   3.350   3.875   0.201
10706SOL    HW233018   3.294   3.951   0.068
10707SOL     OW33019   5.756   1.258   6.291
10707SOL    HW133020   5.798   1.218   6.209
10707SOL    HW233021   5.787   1.352   6.302
10708SOL     OW33022   4.295   3.540   0.993
10708SOL    HW133023   4.341   3.628   0.986
10708SOL    HW233024   4.361   3.470   1.021
10709SOL     OW33025   0.602   1.397   5.775
10709SOL    HW133026   0.682   1.450   5.746
10709SOL    HW233027   0.612   1.302   5.746
10710SOL     OW33028   6.934   6.900   3.758
10710SOL    HW133029   6.974   6.975   3.708
10710SOL    HW233030   6.991   6.819   3.750
10711SOL     OW33031   2.272   4.324   5.010
10711SOL    HW133032   2.349   4.372   5.052
10711SOL    HW233033   2.289   4.225   5.012
10712SOL     OW33034   3.538   2.305   5.629
10712SOL    HW133035   3.481   2.227   5.657
10712SOL    HW233036   3.514   2.332   5.536
10713SOL     OW33037   2.588   6.958   6.661
10713SOL    HW133038   2.654   7.022   6.621
10713SOL    HW233039   2.497   6.975   6.623
10714SOL     OW33040   5.638   5.103   4.758
10714SOL    HW133041   5.684   5.186   4.726
10714SOL    HW233042   5.688   5.065   4.836
10715SOL     OW33043   5.562   6.894   2.414
10715SOL    HW133044   5.488   6.957   2.391
10715SOL    HW233045   5.535   6.837   2.491
10716SOL     OW33046   6.495   2.082   3.018
10716SOL    HW133047   6.437   2.163   3.011
10716SOL    HW233048   6.522   2.068   3.113
10717SOL     OW33049   0.168   6.639   1.368
10717SOL    HW133050   0.189   6.612   1.274
10717SOL    HW233051   0.133   6.733   1.368
10718SOL     OW33052   0.329   4.730   5.666
10718SOL    HW133053   0.401   4.661   5.674
10718SOL    HW233054   0.251   4.692   5.617
10719SOL     OW33055   3.885   6.151   2.983
10719SOL    HW133056   3.808   6.172   3.042
10719SOL    HW233057   3.855   6.090   2.909
10720SOL     OW33058   1.215   3.675   5.473
10720SOL    HW133059   1.289   3.608   5.470
10720SOL    HW233060   1.147   3.654   5.403
10721SOL     OW33061   5.577   0.463   4.425
10721SOL    HW133062   5.496   0.406   4.413
10721SOL    HW233063   5.552   0.548   4.470
10722SOL     OW33064   0.801   5.021   0.962
10722SOL    HW133065   0.821   5.029   0.864
10722SOL    HW233066   0.739   4.945   0.978
10723SOL     OW33067   0.435   5.372   6.482
10723SOL    HW133068   0.384   5.317   6.548
10723SOL    HW233069   0.511   5.319   6.446
10724SOL     OW33070   3.642   6.840   5.907
10724SOL    HW133071   3.597   6.795   5.830
10724SOL    HW233072   3.727   6.883   5.876
10725SOL     OW33073   6.697   0.230   5.043
10725SOL    HW133074   6.727   0.318   5.005
10725SOL    HW233075   6.605   0.239   5.081
10726SOL     OW33076   0.427   1.340   3.513
10726SOL    HW133077   0.411   1.242   3.505
10726SOL    HW233078   0.495   1.357   3.584
10727SOL     OW33079   5.608   5.542   6.083
10727SOL    HW133080   5.537   5.606   6.111
10727SOL    HW233081   5.649   5.499   6.163
10728SOL     OW33082   5.287   5.948   4.919
10728SOL    HW133083   5.289   5.997   4.831
10728SOL    HW233084   5.366   5.975   4.974
10729SOL     OW33085   6.380   2.892   4.617
10729SOL    HW133086   6.385   2.911   4.519
10729SOL    HW233087   6.307   2.948   4.658
10730SOL     OW33088   0.714   5.806   3.955
10730SOL    HW133089   0.779   5.733   3.973
10730SOL    HW233090   0.750   5.892   3.991
10731SOL     OW33091   4.942   3.966   5.649
10731SOL    HW133092   5.029   3.986   5.604
10731SOL    HW233093   4.954   3.975   5.748
10732SOL     OW33094   5.877   5.203   1.859
10732SOL    HW133095   5.816   5.281   1.851
10732SOL    HW233096   5.864   5.141   1.781
10733SOL     OW33097   0.894   2.310   5.906
10733SOL    HW133098   0.870   2.390   5.960
10733SOL    HW233099   0.814   2.251   5.896
10734SOL     OW33100   0.738   1.533   4.049
10734SOL    HW133101   0.715   1.525   4.146
10734SOL    HW233102   0.799   1.458   4.023
10735SOL     OW33103   0.440   1.340   2.492
10735SOL    HW133104   0.374   1.411   2.468
10735SOL    HW233105   0.509   1.378   2.554
10736SOL     OW33106   5.025   5.983   4.054
10736SOL    HW133107   4.972   5.978   3.969
10736SOL    HW233108   4.992   5.914   4.118
10737SOL     OW33109   6.074   1.735   0.546
10737SOL    HW133110   6.020   1.699   0.622
10737SOL    HW233111   6.143   1.667   0.520
10738SOL     OW33112   0.667   6.729   2.382
10738SOL    HW133113   0.656   6.783   2.465
10738SOL    HW233114   0.608   6.649   2.387
10739SOL     OW33115   5.201   2.824   3.785
10739SOL    HW133116   5.206   2.767   3.703
10739SOL    HW233117   5.108   2.859   3.796
10740SOL     OW33118   3.167   1.263   6.768
10740SOL    HW133119   3.171   1.239   6.865
10740SOL    HW233120   3.079   1.305   6.748
10741SOL     OW33121   2.395   2.673   3.696
10741SOL    HW133122   2.375   2.771   3.690
10741SOL    HW233123   2.464   2.650   3.627
10742SOL     OW33124   6.346   0.443   2.502
10742SOL    HW133125   6.424   0.428   2.441
10742SOL    HW233126   6.321   0.540   2.501
10743SOL     OW33127   4.610   3.136   6.646
10743SOL    HW133128   4.555   3.200   6.699
10743SOL    HW233129   4.551   3.073   6.596
10744SOL     OW33130   1.820   1.448   1.081
10744SOL    HW133131   1.837   1.545   1.096
10744SOL    HW233132   1.728   1.425   1.111
10745SOL     OW33133   4.008   6.012   2.312
10745SOL    HW133134   4.022   6.062   2.398
10745SOL    HW233135   3.994   5.915   2.332
10746SOL     OW33136   2.509   5.691   4.652
10746SOL    HW133137   2.425   5.729   4.615
10746SOL    HW233138   2.488   5.609   4.706
10747SOL     OW33139   6.988   0.449   5.459
10747SOL    HW133140   6.949   0.453   5.367
10747SOL    HW233141   0.058   0.434   5.453
10748SOL     OW33142   3.105   6.331   1.659
10748SOL    HW133143   3.194   6.289   1.648
10748SOL    HW233144   3.054   6.327   1.573
10749SOL     OW33145   5.314   1.889   2.711
10749SOL    HW133146   5.257   1.906   2.631
10749SOL    HW233147   5.390   1.829   2.686
10750SOL     OW33148   3.674   1.960   3.927
10750SOL    HW133149   3.638   1.994   4.014
10750SOL    HW233150   3.707   2.037   3.873
10751SOL     OW33151   5.726   6.029   2.942
10751SOL    HW133152   5.695   6.093   2.872
10751SOL    HW233153   5.648   5.991   2.991
10752SOL     OW33154   0.047   6.472   6.661
10752SOL    HW133155   0.025   6.489   6.757
10752SOL    HW233156   0.021   6.552   6.606
10753SOL     OW33157   5.027   6.710   5.207
10753SOL    HW133158   4.992   6.635   5.262
10753SOL    HW233159   4.960   6.785   5.205
10754SOL     OW33160   6.236   5.391   1.989
10754SOL    HW133161   6.183   5.341   1.921
10754SOL    HW233162   6.194   5.380   2.079
10755SOL     OW33163   0.631   1.467   2.673
10755SOL    HW133164   0.667   1.517   2.751
10755SOL    HW233165   0.661   1.372   2.677
10756SOL     OW33166   0.875   6.482   6.956
10756SOL    HW133167   0.785   6.514   6.984
10756SOL    HW233168   0.903   6.530   6.872
10757SOL     OW33169   0.859   2.062   2.717
10757SOL    HW133170   0.877   1.964   2.717
10757SOL    HW233171   0.866   2.097   2.810
10758SOL     OW33172   0.576   1.406   1.009
10758SOL    HW133173   0.548   1.351   0.930
10758SOL    HW233174   0.674   1.427   1.002
10759SOL     OW33175   3.437   5.603   5.522
10759SOL    HW133176   3.469   5.543   5.449
10759SOL    HW233177   3.347   5.639   5.498
10760SOL     OW33178   1.183   4.943   6.524
10760SOL    HW133179   1.214   4.971   6.433
10760SOL    HW233180   1.085   4.958   6.532
10761SOL     OW33181   1.270   0.366   7.009
10761SOL    HW133182   1.341   0.372   6.938
10761SOL    HW233183   1.182   0.346   6.966
10762SOL     OW33184   1.453   5.089   0.873
10762SOL    HW133185   1.427   5.186   0.876
10762SOL    HW233186   1.406   5.044   0.797
10763SOL     OW33187   6.007   1.676   1.690
10763SOL    HW133188   6.102   1.698   1.670
10763SOL    HW233189   6.001   1.580   1.718
10764SOL     OW33190   5.198   7.010   3.595
10764SOL    HW133191   5.285   6.990   3.550
10764SOL    HW233192   5.213   0.051   3.666
10765SOL     OW33193   6.682   2.528   2.019
10765SOL    HW133194   6.645   2.618   2.043
10765SOL    HW233195   6.738   2.536   1.936
10766SOL     OW33196   3.425   6.426   0.293
10766SOL    HW133197   3.394   6.426   0.198
10766SOL    HW233198   3.505   6.366   0.302
10767SOL     OW33199   0.443   5.458   0.263
10767SOL    HW133200   0.480   5.508   0.185
10767SOL    HW233201   0.431   5.362   0.238
10768SOL     OW33202   6.870   6.153   0.462
10768SOL    HW133203   6.820   6.223   0.513
10768SOL    HW233204   6.816   6.069   0.459
10769SOL     OW33205   2.937   3.516   4.164
10769SOL    HW133206   2.991   3.438   4.196
10769SOL    HW233207   2.922   3.507   4.066
10770SOL     OW33208   4.559   0.866   5.650
10770SOL    HW133209   4.616   0.920   5.588
10770SOL    HW233210   4.511   0.928   5.713
10771SOL     OW33211   5.099   6.150   5.849
10771SOL    HW133212   5.196   6.168   5.864
10771SOL    HW233213   5.051   6.237   5.835
10772SOL     OW33214   5.336   3.034   4.138
10772SOL    HW133215   5.433   3.060   4.137
10772SOL    HW233216   5.280   3.112   4.111
10773SOL     OW33217   0.818   3.768   0.861
10773SOL    HW133218   0.910   3.755   0.897
10773SOL    HW233219   0.781   3.679   0.832
10774SOL     OW33220   6.414   2.847   1.896
10774SOL    HW133221   6.513   2.862   1.904
10774SOL    HW233222   6.387   2.847   1.800
10775SOL     OW33223   1.820   4.506   6.265
10775SOL    HW133224   1.749   4.447   6.225
10775SOL    HW233225   1.869   4.553   6.191
10776SOL     OW33226   0.103   3.539   3.885
10776SOL    HW133227   0.193   3.534   3.928
10776SOL    HW233228   0.107   3.602   3.807
10777SOL     OW33229   0.284   6.865   2.268
10777SOL    HW133230   0.286   6.955   2.225
10777SOL    HW233231   0.308   6.795   2.200
10778SOL     OW33232   4.346   6.520   3.293
10778SOL    HW133233   4.355   6.521   3.392
10778SOL    HW233234   4.257   6.482   3.268
10779SOL     OW33235   5.166   2.701   6.005
10779SOL    HW133236   5.101   2.656   5.945
10779SOL    HW233237   5.184   2.794   5.971
10780SOL     OW33238   1.007   5.845   4.328
10780SOL    HW133239   1.029   5.837   4.425
10780SOL    HW233240   0.990   5.755   4.290
10781SOL     OW33241   6.357   2.829   5.679
10781SOL    HW133242   6.306   2.788   5.603
10781SOL    HW233243   6.295   2.884   5.735
10782SOL     OW33244   1.369   3.640   4.831
10782SOL    HW133245   1.452   3.667   4.782
10782SOL    HW233246   1.325   3.720   4.871
10783SOL     OW33247   1.136   3.914   4.484
10783SOL    HW133248   1.195   3.990   4.460
10783SOL    HW233249   1.177   3.828   4.454
10784SOL     OW33250   4.988   6.014   3.439
10784SOL    HW133251   5.038   6.093   3.405
10784SOL    HW233252   5.048   5.959   3.497
10785SOL     OW33253   1.511   5.830   1.674
10785SOL    HW133254   1.597   5.878   1.658
10785SOL    HW233255   1.524   5.761   1.745
10786SOL     OW33256   4.408   1.661   2.381
10786SOL    HW133257   4.320   1.631   2.419
10786SOL    HW233258   4.444   1.591   2.320
10787SOL     OW33259   3.226   1.275   3.406
10787SOL    HW133260   3.212   1.229   3.494
10787SOL    HW233261   3.180   1.224   3.334
10788SOL     OW33262   1.387   2.844   6.918
10788SOL    HW133263   1.298   2.865   6.959
10788SOL    HW233264   1.437   2.782   6.979
10789SOL     OW33265   0.320   2.070   2.613
10789SOL    HW133266   0.364   2.085   2.524
10789SOL    HW233267   0.275   2.154   2.643
10790SOL     OW33268   6.943   2.937   4.504
10790SOL    HW133269   6.862   2.879   4.493
10790SOL    HW233270   7.014   2.887   4.554
10791SOL     OW33271   1.743   3.087   3.845
10791SOL    HW133272   1.680   3.011   3.853
10791SOL    HW233273   1.836   3.056   3.864
10792SOL     OW33274   2.885   0.537   1.433
10792SOL    HW133275   2.904   0.439   1.437
10792SOL    HW233276   2.791   0.555   1.463
10793SOL     OW33277   3.703   2.135   3.660
10793SOL    HW133278   3.794   2.171   3.639
10793SOL    HW233279   3.663   2.095   3.578
10794SOL     OW33280   4.927   2.909   0.489
10794SOL    HW133281   4.841   2.896   0.440
10794SOL    HW233282   4.981   2.980   0.445
10795SOL     OW33283   6.042   2.811   3.763
10795SOL    HW133284   6.121   2.811   3.701
10795SOL    HW233285   5.980   2.885   3.738
10796SOL     OW33286   6.683   1.827   0.089
10796SOL    HW133287   6.641   1.861   0.173
10796SOL    HW233288   6.669   1.728   0.082
10797SOL     OW33289   5.991   4.500   6.704
10797SOL    HW133290   5.907   4.541   6.740
10797SOL    HW233291   6.006   4.532   6.610
10798SOL     OW33292   3.469   5.858   0.673
10798SOL    HW133293   3.525   5.888   0.596
10798SOL    HW233294   3.382   5.908   0.673
10799SOL     OW33295   1.902   1.330   2.846
10799SOL    HW133296   1.814   1.375   2.863
10799SOL    HW233297   1.959   1.337   2.927
10800SOL     OW33298   0.996   0.852   5.194
10800SOL    HW133299   1.030   0.946   5.195
10800SOL    HW233300   1.024   0.807   5.109
10801SOL     OW33301   3.102   6.108   6.736
10801SOL    HW133302   3.033   6.132   6.668
10801SOL    HW233303   3.118   6.186   6.797
10802SOL     OW33304   0.988   5.123   3.252
10802SOL    HW133305   1.082   5.134   3.220
10802SOL    HW233306   0.927   5.109   3.174
10803SOL     OW33307   0.394   4.850   4.589
10803SOL    HW133308   0.339   4.784   4.640
10803SOL    HW233309   0.348   4.939   4.589
10804SOL     OW33310   5.169   5.080   6.094
10804SOL    HW133311   5.242   5.084   6.026
10804SOL    HW233312   5.168   4.989   6.136
10805SOL     OW33313   5.537   4.842   6.757
10805SOL    HW133314   5.579   4.867   6.844
10805SOL    HW233315   5.495   4.751   6.765
10806SOL     OW33316   6.903   2.778   5.552
10806SOL    HW133317   6.978   2.722   5.516
10806SOL    HW233318   6.853   2.726   5.621
10807SOL     OW33319   4.068   2.896   5.739
10807SOL    HW133320   4.064   2.952   5.657
10807SOL    HW233321   4.156   2.911   5.785
10808SOL     OW33322   0.171   2.737   1.028
10808SOL    HW133323   0.146   2.647   0.993
10808SOL    HW233324   0.139   2.746   1.122
10809SOL     OW33325   1.046   0.863   3.214
10809SOL    HW133326   0.985   0.940   3.195
10809SOL    HW233327   1.005   0.804   3.283
10810SOL     OW33328   1.825   1.701   6.250
10810SOL    HW133329   1.814   1.765   6.326
10810SOL    HW233330   1.848   1.751   6.167
10811SOL     OW33331   3.948   5.058   6.579
10811SOL    HW133332   3.907   4.974   6.544
10811SOL    HW233333   3.899   5.137   6.543
10812SOL     OW33334   6.315   3.049   2.024
10812SOL    HW133335   6.341   2.959   1.991
10812SOL    HW233336   6.309   3.113   1.947
10813SOL     OW33337   2.371   5.209   2.362
10813SOL    HW133338   2.308   5.164   2.299
10813SOL    HW233339   2.440   5.144   2.394
10814SOL     OW33340   1.453   5.868   4.152
10814SOL    HW133341   1.532   5.881   4.093
10814SOL    HW233342   1.480   5.821   4.236
10815SOL     OW33343   5.778   2.649   6.099
10815SOL    HW133344   5.695   2.699   6.073
10815SOL    HW233345   5.856   2.711   6.096
10816SOL     OW33346   2.243   2.126   1.309
10816SOL    HW133347   2.256   2.204   1.247
10816SOL    HW233348   2.157   2.138   1.359
10817SOL     OW33349   4.141   1.507   1.813
10817SOL    HW133350   4.063   1.564   1.786
10817SOL    HW233351   4.207   1.503   1.738
10818SOL     OW33352   4.550   3.664   5.743
10818SOL    HW133353   4.650   3.671   5.748
10818SOL    HW233354   4.509   3.704   5.825
10819SOL     OW33355   2.031   3.313   5.094
10819SOL    HW133356   2.085   3.229   5.089
10819SOL    HW233357   2.090   3.388   5.126
10820SOL     OW33358   0.935   6.477   4.603
10820SOL    HW133359   0.869   6.405   4.623
10820SOL    HW233360   0.970   6.466   4.509
10821SOL     OW33361   6.782   0.812   5.755
10821SOL    HW133362   6.770   0.729   5.809
10821SOL    HW233363   6.794   0.788   5.659
10822SOL     OW33364   0.875   6.023   6.202
10822SOL    HW133365   0.922   6.057   6.121
10822SOL    HW233366   0.829   5.936   6.179
10823SOL     OW33367   2.630   2.045   0.308
10823SOL    HW133368   2.649   1.952   0.340
10823SOL    HW233369   2.588   2.042   0.218
10824SOL     OW33370   5.216   1.547   4.459
10824SOL    HW133371   5.295   1.578   4.405
10824SOL    HW233372   5.138   1.533   4.398
10825SOL     OW33373   4.332   2.057   1.916
10825SOL    HW133374   4.281   2.129   1.869
10825SOL    HW233375   4.297   1.968   1.887
10826SOL     OW33376   7.016   3.476   0.818
10826SOL    HW133377   6.991   3.389   0.861
10826SOL    HW233378   6.933   3.525   0.792
10827SOL     OW33379   6.953   3.287   4.400
10827SOL    HW133380   7.025   3.226   4.433
10827SOL    HW233381   6.864   3.257   4.436
10828SOL     OW33382   2.909   4.665   0.108
10828SOL    HW133383   3.000   4.631   0.131
10828SOL    HW233384   2.903   4.681   0.009
10829SOL     OW33385   1.414   3.645   1.617
10829SOL    HW133386   1.382   3.705   1.690
10829SOL    HW233387   1.435   3.555   1.654
10830SOL     OW33388   6.538   0.610   3.815
10830SOL    HW133389   6.612   0.558   3.857
10830SOL    HW233390   6.451   0.587   3.860
10831SOL     OW33391   5.352   3.140   2.492
10831SOL    HW133392   5.253   3.129   2.492
10831SOL    HW233393   5.377   3.220   2.438
10832SOL     OW33394   1.813   2.935   2.319
10832SOL    HW133395   1.780   2.905   2.230
10832SOL    HW233396   1.887   3.001   2.308
10833SOL     OW33397   3.664   0.488   4.569
10833SOL    HW133398   3.589   0.483   4.635
10833SOL    HW233399   3.748   0.515   4.616
10834SOL     OW33400   0.169   2.176   6.310
10834SOL    HW133401   0.074   2.155   6.331
10834SOL    HW233402   0.207   2.105   6.250
10835SOL     OW33403   0.562   0.947   1.249
10835SOL    HW133404   0.571   1.016   1.321
10835SOL    HW233405   0.587   0.857   1.285
10836SOL     OW33406   6.535   1.237   1.479
10836SOL    HW133407   6.579   1.249   1.390
10836SOL    HW233408   6.506   1.326   1.514
10837SOL     OW33409   2.039   4.815   0.767
10837SOL    HW133410   2.133   4.842   0.787
10837SOL    HW233411   1.976   4.883   0.805
10838SOL     OW33412   6.130   6.711   1.116
10838SOL    HW133413   6.089   6.791   1.072
10838SOL    HW233414   6.169   6.739   1.204
10839SOL     OW33415   2.618   1.212   6.373
10839SOL    HW133416   2.701   1.222   6.319
10839SOL    HW233417   2.539   1.246   6.320
10840SOL     OW33418   1.173   0.817   3.491
10840SOL    HW133419   1.104   0.760   3.447
10840SOL    HW233420   1.263   0.792   3.458
10841SOL     OW33421   3.932   4.252   6.497
10841SOL    HW133422   4.011   4.197   6.523
10841SOL    HW233423   3.917   4.244   6.399
10842SOL     OW33424   5.918   2.248   2.407
10842SOL    HW133425   5.825   2.230   2.436
10842SOL    HW233426   5.950   2.334   2.448
10843SOL     OW33427   1.152   1.936   2.097
10843SOL    HW133428   1.100   1.855   2.124
10843SOL    HW233429   1.232   1.907   2.043
10844SOL     OW33430   4.113   6.386   3.272
10844SOL    HW133431   4.086   6.308   3.328
10844SOL    HW233432   4.057   6.465   3.298
10845SOL     OW33433   2.437   3.500   1.032
10845SOL    HW133434   2.380   3.545   1.101
10845SOL    HW233435   2.479   3.418   1.072
10846SOL     OW33436   3.207   1.034   2.012
10846SOL    HW133437   3.287   1.062   1.959
10846SOL    HW233438   3.217   1.065   2.106
10847SOL     OW33439   5.303   2.000   4.777
10847SOL    HW133440   5.264   2.053   4.702
10847SOL    HW233441   5.318   1.906   4.747
10848SOL     OW33442   2.094   0.505   6.126
10848SOL    HW133443   2.119   0.549   6.040
10848SOL    HW233444   2.081   0.574   6.196
10849SOL     OW33445   0.191   4.442   5.197
10849SOL    HW133446   0.290   4.433   5.202
10849SOL    HW233447   0.161   4.434   5.102
10850SOL     OW33448   6.150   0.423   4.354
10850SOL    HW133449   6.247   0.448   4.354
10850SOL    HW233450   6.098   0.492   4.405
10851SOL     OW33451   5.642   3.169   0.666
10851SOL    HW133452   5.650   3.205   0.759
10851SOL    HW233453   5.728   3.124   0.640
10852SOL     OW33454   5.464   1.409   5.627
10852SOL    HW133455   5.421   1.321   5.610
10852SOL    HW233456   5.442   1.472   5.553
10853SOL     OW33457   1.041   7.000   5.682
10853SOL    HW133458   1.006   0.008   5.596
10853SOL    HW233459   1.010   0.030   5.758
10854SOL     OW33460   5.935   6.042   6.977
10854SOL    HW133461   5.843   6.065   6.946
10854SOL    HW233462   5.960   6.102   0.026
10855SOL     OW33463   0.616   6.155   6.840
10855SOL    HW133464   0.710   6.180   6.818
10855SOL    HW233465   0.557   6.236   6.831
10856SOL     OW33466   4.000   6.821   6.986
10856SOL    HW133467   4.036   6.728   6.972
10856SOL    HW233468   3.966   6.830   0.051
10857SOL     OW33469   6.481   6.706   4.397
10857SOL    HW133470   6.389   6.669   4.406
10857SOL    HW233471   6.477   6.806   4.390
10858SOL     OW33472   1.290   2.767   1.570
10858SOL    HW133473   1.295   2.716   1.484
10858SOL    HW233474   1.383   2.785   1.603
10859SOL     OW33475   2.133   4.507   2.420
10859SOL    HW133476   2.208   4.441   2.429
10859SOL    HW233477   2.074   4.502   2.501
10860SOL     OW33478   5.305   0.734   2.597
10860SOL    HW133479   5.221   0.776   2.633
10860SOL    HW233480   5.301   0.733   2.497
10861SOL     OW33481   2.970   4.416   1.053
10861SOL    HW133482   2.872   4.400   1.060
10861SOL    HW233483   3.001   4.472   1.129
10862SOL     OW33484   3.533   4.334   5.862
10862SOL    HW133485   3.532   4.235   5.849
10862SOL    HW233486   3.604   4.375   5.805
10863SOL     OW33487   0.692   0.365   4.074
10863SOL    HW133488   0.705   0.323   4.163
10863SOL    HW233489   0.609   0.422   4.075
10864SOL     OW33490   2.964   3.256   2.150
10864SOL    HW133491   3.029   3.332   2.152
10864SOL    HW233492   2.951   3.220   2.242
10865SOL     OW33493   3.852   1.433   2.727
10865SOL    HW133494   3.763   1.435   2.681
10865SOL    HW233495   3.872   1.524   2.764
10866SOL     OW33496   0.223   3.200   4.972
10866SOL    HW133497   0.323   3.200   4.976
10866SOL    HW233498   0.187   3.164   5.058
10867SOL     OW33499   5.601   3.438   0.585
10867SOL    HW133500   5.634   3.355   0.631
10867SOL    HW233501   5.502   3.433   0.574
10868SOL     OW33502   0.052   0.308   5.982
10868SOL    HW133503   0.007   0.328   5.894
10868SOL    HW233504   0.000   0.352   6.056
10869NA      NA33505   6.366   1.468   6.842
10870NA      NA33506   4.763   4.434   4.735
10871NA      NA33507   1.231   4.387   3.042
10872NA      NA33508   6.109   3.539   3.758
10873NA      NA33509   4.155   2.295   5.260
10874NA      NA33510   2.825   3.702   6.614
10875NA      NA33511   1.901   5.100   0.325
10876NA      NA33512   4.378   4.890   2.023
10877NA      NA33513   5.505   3.701   0.957
10878NA      NA33514   3.784   2.077   0.758
10879NA      NA33515   4.749   6.117   1.728
10880NA      NA33516   3.076   6.413   3.939
10881NA      NA33517   4.012   5.572   3.315
10882NA      NA33518   4.638   4.864   5.614
   7.02840   7.02840   7.02840
