Generated by trjconv : CNT in water t= 587.00000
33518
    1C        C    1   2.844   2.766   4.745
    1C        C    2   2.897   2.715   4.866
    1C        C    3   2.844   2.770   4.983
    1C        C    4   2.848   2.770   4.259
    1C        C    5   2.907   2.729   4.380
    1C        C    6   2.848   2.772   4.501
    1C        C    7   3.014   2.640   4.623
    1C        C    8   2.896   2.717   4.623
    1C        C    9   3.077   2.603   4.744
    1C        C   10   3.008   2.628   4.864
    1C        C   11   3.182   2.493   4.975
    1C        C   12   3.057   2.556   4.974
    1C        C   13   2.844   2.764   3.770
    1C        C   14   2.898   2.717   3.892
    1C        C   15   2.846   2.764   4.014
    1C        C   16   3.018   2.643   4.137
    1C        C   17   2.900   2.721   4.137
    1C        C   18   3.085   2.614   4.258
    1C        C   19   3.023   2.648   4.380
    1C        C   20   3.212   2.557   4.502
    1C        C   21   3.080   2.606   4.503
    1C        C   22   3.279   2.533   4.624
    1C        C   23   3.208   2.547   4.745
    1C        C   24   3.412   2.477   4.861
    1C        C   25   3.271   2.502   4.864
    1C        C   26   3.488   2.468   4.978
    1C        C   27   2.844   2.763   3.283
    1C        C   28   2.902   2.718   3.404
    1C        C   29   2.847   2.766   3.525
    1C        C   30   3.020   2.645   3.650
    1C        C   31   2.901   2.721   3.648
    1C        C   32   3.080   2.603   3.771
    1C        C   33   3.015   2.637   3.892
    1C        C   34   3.209   2.553   4.013
    1C        C   35   3.079   2.608   4.014
    1C        C   36   3.279   2.532   4.134
    1C        C   37   3.216   2.561   4.256
    1C        C   38   3.418   2.510   4.376
    1C        C   39   3.280   2.535   4.380
    1C        C   40   3.488   2.499   4.499
    1C        C   41   3.417   2.500   4.621
    1C        C   42   3.631   2.479   4.742
    1C        C   43   3.489   2.482   4.741
    1C        C   44   3.704   2.477   4.863
    1C        C   45   3.627   2.470   4.979
    1C        C   46   2.838   2.754   2.794
    1C        C   47   2.895   2.710   2.916
    1C        C   48   2.839   2.755   3.037
    1C        C   49   3.017   2.640   3.159
    1C        C   50   2.899   2.718   3.160
    1C        C   51   3.079   2.605   3.281
    1C        C   52   3.018   2.636   3.405
    1C        C   53   3.211   2.552   3.525
    1C        C   54   3.082   2.611   3.528
    1C        C   55   3.279   2.526   3.646
    1C        C   56   3.211   2.551   3.767
    1C        C   57   3.416   2.508   3.891
    1C        C   58   3.277   2.530   3.891
    1C        C   59   3.486   2.499   4.013
    1C        C   60   3.417   2.503   4.136
    1C        C   61   3.632   2.492   4.256
    1C        C   62   3.491   2.499   4.256
    1C        C   63   3.701   2.501   4.379
    1C        C   64   3.629   2.497   4.501
    1C        C   65   3.837   2.536   4.622
    1C        C   66   3.702   2.495   4.621
    1C        C   67   3.904   2.559   4.745
    1C        C   68   3.839   2.520   4.863
    1C        C   69   4.049   2.583   4.977
    1C        C   70   3.920   2.528   4.977
    1C        C   71   2.824   2.733   2.307
    1C        C   72   2.880   2.690   2.429
    1C        C   73   2.834   2.745   2.550
    1C        C   74   3.007   2.622   2.671
    1C        C   75   2.892   2.705   2.673
    1C        C   76   3.073   2.592   2.792
    1C        C   77   3.014   2.634   2.914
    1C        C   78   3.204   2.543   3.036
    1C        C   79   3.074   2.599   3.037
    1C        C   80   3.275   2.531   3.157
    1C        C   81   3.210   2.553   3.281
    1C        C   82   3.415   2.498   3.402
    1C        C   83   3.277   2.526   3.402
    1C        C   84   3.487   2.487   3.523
    1C        C   85   3.417   2.496   3.646
    1C        C   86   3.627   2.493   3.768
    1C        C   87   3.486   2.493   3.769
    1C        C   88   3.697   2.501   3.890
    1C        C   89   3.628   2.491   4.013
    1C        C   90   3.837   2.537   4.135
    1C        C   91   3.701   2.499   4.133
    1C        C   92   3.905   2.562   4.257
    1C        C   93   3.838   2.537   4.378
    1C        C   94   4.028   2.630   4.500
    1C        C   95   3.905   2.560   4.501
    1C        C   96   4.090   2.669   4.620
    1C        C   97   4.031   2.623   4.740
    1C        C   98   4.189   2.763   4.857
    1C        C   99   4.098   2.653   4.862
    1C        C  100   4.214   2.836   4.974
    1C        C  101   2.825   2.731   2.068
    1C        C  102   2.988   2.587   2.192
    1C        C  103   2.881   2.683   2.187
    1C        C  104   3.063   2.572   2.311
    1C        C  105   2.997   2.610   2.430
    1C        C  106   3.200   2.537   2.548
    1C        C  107   3.067   2.584   2.550
    1C        C  108   3.272   2.522   2.669
    1C        C  109   3.204   2.540   2.792
    1C        C  110   3.411   2.498   2.914
    1C        C  111   3.272   2.522   2.915
    1C        C  112   3.484   2.495   3.035
    1C        C  113   3.414   2.502   3.157
    1C        C  114   3.625   2.495   3.277
    1C        C  115   3.484   2.492   3.279
    1C        C  116   3.695   2.503   3.399
    1C        C  117   3.628   2.491   3.524
    1C        C  118   3.835   2.536   3.643
    1C        C  119   3.698   2.502   3.646
    1C        C  120   3.898   2.558   3.768
    1C        C  121   3.834   2.535   3.891
    1C        C  122   4.026   2.629   4.012
    1C        C  123   3.901   2.564   4.012
    1C        C  124   4.087   2.670   4.133
    1C        C  125   4.028   2.633   4.255
    1C        C  126   4.190   2.767   4.374
    1C        C  127   4.085   2.673   4.378
    1C        C  128   4.243   2.817   4.495
    1C        C  129   4.198   2.761   4.617
    1C        C  130   4.325   2.934   4.740
    1C        C  131   4.245   2.816   4.737
    1C        C  132   4.349   3.003   4.860
    1C        C  133   4.280   2.959   4.973
    1C        C  134   3.169   2.465   2.080
    1C        C  135   3.036   2.509   2.081
    1C        C  136   3.256   2.473   2.189
    1C        C  137   3.195   2.519   2.307
    1C        C  138   3.405   2.477   2.427
    1C        C  139   3.266   2.502   2.428
    1C        C  140   3.481   2.482   2.546
    1C        C  141   3.410   2.496   2.668
    1C        C  142   3.621   2.490   2.788
    1C        C  143   3.479   2.485   2.791
    1C        C  144   3.692   2.503   2.909
    1C        C  145   3.626   2.495   3.033
    1C        C  146   3.836   2.527   3.154
    1C        C  147   3.697   2.498   3.155
    1C        C  148   3.901   2.554   3.276
    1C        C  149   3.833   2.533   3.398
    1C        C  150   4.027   2.620   3.522
    1C        C  151   3.901   2.556   3.519
    1C        C  152   4.083   2.663   3.644
    1C        C  153   4.022   2.627   3.766
    1C        C  154   4.190   2.757   3.885
    1C        C  155   4.080   2.669   3.888
    1C        C  156   4.244   2.809   4.005
    1C        C  157   4.196   2.761   4.129
    1C        C  158   4.332   2.922   4.250
    1C        C  159   4.245   2.811   4.252
    1C        C  160   4.367   2.986   4.371
    1C        C  161   4.328   2.929   4.495
    1C        C  162   4.433   3.114   4.616
    1C        C  163   4.365   2.990   4.617
    1C        C  164   4.462   3.184   4.736
    1C        C  165   4.425   3.122   4.857
    1C        C  166   4.506   3.321   4.970
    1C        C  167   4.474   3.186   4.972
    1C        C  168   3.474   2.440   2.070
    1C        C  169   3.397   2.458   2.185
    1C        C  170   3.616   2.471   2.304
    1C        C  171   3.473   2.467   2.304
    1C        C  172   3.689   2.485   2.424
    1C        C  173   3.622   2.483   2.548
    1C        C  174   3.832   2.529   2.665
    1C        C  175   3.695   2.493   2.668
    1C        C  176   3.896   2.557   2.788
    1C        C  177   3.830   2.534   2.911
    1C        C  178   4.027   2.615   3.031
    1C        C  179   3.903   2.547   3.032
    1C        C  180   4.088   2.655   3.152
    1C        C  181   4.028   2.617   3.275
    1C        C  182   4.193   2.745   3.397
    1C        C  183   4.086   2.653   3.398
    1C        C  184   4.240   2.803   3.517
    1C        C  185   4.192   2.752   3.641
    1C        C  186   4.327   2.916   3.762
    1C        C  187   4.243   2.802   3.763
    1C        C  188   4.372   2.976   3.882
    1C        C  189   4.334   2.918   4.005
    1C        C  190   4.442   3.101   4.125
    1C        C  191   4.374   2.977   4.127
    1C        C  192   4.458   3.172   4.246
    1C        C  193   4.429   3.113   4.371
    1C        C  194   4.498   3.314   4.489
    1C        C  195   4.458   3.178   4.492
    1C        C  196   4.521   3.384   4.609
    1C        C  197   4.508   3.318   4.733
    1C        C  198   4.549   3.534   4.851
    1C        C  199   4.528   3.393   4.852
    1C        C  200   4.575   3.619   4.964
    1C        C  201   3.612   2.418   2.073
    1C        C  202   3.825   2.512   2.183
    1C        C  203   3.690   2.464   2.184
    1C        C  204   3.899   2.537   2.302
    1C        C  205   3.828   2.514   2.422
    1C        C  206   4.019   2.617   2.541
    1C        C  207   3.895   2.550   2.541
    1C        C  208   4.079   2.656   2.663
    1C        C  209   4.021   2.622   2.787
    1C        C  210   4.196   2.743   2.906
    1C        C  211   4.083   2.659   2.909
    1C        C  212   4.245   2.796   3.027
    1C        C  213   4.194   2.748   3.150
    1C        C  214   4.331   2.905   3.271
    1C        C  215   4.242   2.795   3.274
    1C        C  216   4.363   2.972   3.391
    1C        C  217   4.323   2.917   3.515
    1C        C  218   4.417   3.104   3.637
    1C        C  219   4.363   2.974   3.638
    1C        C  220   4.448   3.171   3.758
    1C        C  221   4.433   3.104   3.881
    1C        C  222   4.495   3.305   4.002
    1C        C  223   4.467   3.167   4.003
    1C        C  224   4.505   3.378   4.123
    1C        C  225   4.493   3.309   4.245
    1C        C  226   4.512   3.523   4.364
    1C        C  227   4.507   3.382   4.366
    1C        C  228   4.517   3.595   4.486
    1C        C  229   4.526   3.526   4.609
    1C        C  230   4.501   3.741   4.727
    1C        C  231   4.535   3.602   4.727
    1C        C  232   4.492   3.816   4.845
    1C        C  233   4.543   3.755   4.960
    1C        C  234   4.013   2.616   2.062
    1C        C  235   3.893   2.546   2.065
    1C        C  236   4.086   2.645   2.178
    1C        C  237   4.025   2.603   2.298
    1C        C  238   4.200   2.727   2.419
    1C        C  239   4.083   2.646   2.419
    1C        C  240   4.251   2.782   2.539
    1C        C  241   4.192   2.741   2.661
    1C        C  242   4.326   2.906   2.783
    1C        C  243   4.245   2.791   2.782
    1C        C  244   4.372   2.963   2.904
    1C        C  245   4.332   2.907   3.027
    1C        C  246   4.426   3.096   3.149
    1C        C  247   4.370   2.966   3.150
    1C        C  248   4.448   3.164   3.271
    1C        C  249   4.421   3.101   3.394
    1C        C  250   4.493   3.303   3.512
    1C        C  251   4.444   3.170   3.515
    1C        C  252   4.505   3.372   3.634
    1C        C  253   4.492   3.305   3.758
    1C        C  254   4.524   3.515   3.879
    1C        C  255   4.511   3.374   3.880
    1C        C  256   4.520   3.591   3.999
    1C        C  257   4.515   3.519   4.120
    1C        C  258   4.492   3.733   4.241
    1C        C  259   4.514   3.593   4.241
    1C        C  260   4.473   3.804   4.361
    1C        C  261   4.493   3.734   4.482
    1C        C  262   4.426   3.937   4.601
    1C        C  263   4.476   3.805   4.603
    1C        C  264   4.397   4.006   4.721
    1C        C  265   4.431   3.944   4.843
    1C        C  266   4.318   4.125   4.955
    1C        C  267   4.385   4.004   4.962
    1C        C  268   4.259   2.776   2.060
    1C        C  269   4.200   2.728   2.178
    1C        C  270   4.345   2.888   2.298
    1C        C  271   4.254   2.778   2.298
    1C        C  272   4.380   2.952   2.419
    1C        C  273   4.340   2.892   2.540
    1C        C  274   4.442   3.081   2.660
    1C        C  275   4.375   2.957   2.660
    1C        C  276   4.469   3.150   2.780
    1C        C  277   4.438   3.088   2.903
    1C        C  278   4.495   3.292   3.022
    1C        C  279   4.460   3.156   3.025
    1C        C  280   4.509   3.366   3.142
    1C        C  281   4.489   3.299   3.265
    1C        C  282   4.516   3.509   3.389
    1C        C  283   4.502   3.369   3.387
    1C        C  284   4.515   3.582   3.510
    1C        C  285   4.512   3.513   3.633
    1C        C  286   4.498   3.723   3.750
    1C        C  287   4.516   3.583   3.756
    1C        C  288   4.478   3.793   3.871
    1C        C  289   4.494   3.730   3.996
    1C        C  290   4.427   3.932   4.116
    1C        C  291   4.479   3.800   4.117
    1C        C  292   4.396   3.998   4.237
    1C        C  293   4.425   3.937   4.361
    1C        C  294   4.323   4.126   4.479
    1C        C  295   4.390   4.002   4.481
    1C        C  296   4.283   4.186   4.600
    1C        C  297   4.328   4.130   4.722
    1C        C  298   4.191   4.306   4.840
    1C        C  299   4.284   4.197   4.840
    1C        C  300   4.164   4.396   4.947
    1C        C  301   4.347   2.883   2.061
    1C        C  302   4.470   3.066   2.176
    1C        C  303   4.399   2.942   2.178
    1C        C  304   4.479   3.141   2.296
    1C        C  305   4.443   3.078   2.417
    1C        C  306   4.505   3.283   2.534
    1C        C  307   4.470   3.146   2.537
    1C        C  308   4.516   3.355   2.655
    1C        C  309   4.502   3.287   2.778
    1C        C  310   4.516   3.501   2.899
    1C        C  311   4.510   3.360   2.899
    1C        C  312   4.513   3.575   3.019
    1C        C  313   4.519   3.507   3.143
    1C        C  314   4.489   3.716   3.261
    1C        C  315   4.515   3.577   3.265
    1C        C  316   4.479   3.790   3.382
    1C        C  317   4.491   3.721   3.504
    1C        C  318   4.434   3.925   3.626
    1C        C  319   4.478   3.790   3.627
    1C        C  320   4.398   3.987   3.748
    1C        C  321   4.431   3.927   3.871
    1C        C  322   4.321   4.111   3.989
    1C        C  323   4.401   3.994   3.992
    1C        C  324   4.277   4.169   4.110
    1C        C  325   4.322   4.118   4.234
    1C        C  326   4.180   4.277   4.354
    1C        C  327   4.279   4.178   4.355
    1C        C  328   4.132   4.332   4.475
    1C        C  329   4.185   4.288   4.598
    1C        C  330   4.020   4.432   4.710
    1C        C  331   4.132   4.345   4.716
    1C        C  332   3.969   4.492   4.827
    1C        C  333   4.052   4.480   4.940
    1C        C  334   4.550   3.263   2.059
    1C        C  335   4.536   3.124   2.063
    1C        C  336   4.533   3.347   2.170
    1C        C  337   4.513   3.279   2.292
    1C        C  338   4.520   3.494   2.410
    1C        C  339   4.516   3.353   2.412
    1C        C  340   4.518   3.567   2.532
    1C        C  341   4.522   3.496   2.654
    1C        C  342   4.491   3.708   2.771
    1C        C  343   4.519   3.570   2.775
    1C        C  344   4.476   3.781   2.891
    1C        C  345   4.488   3.714   3.015
    1C        C  346   4.426   3.916   3.138
    1C        C  347   4.471   3.782   3.137
    1C        C  348   4.397   3.984   3.259
    1C        C  349   4.433   3.924   3.381
    1C        C  350   4.320   4.102   3.502
    1C        C  351   4.406   3.989   3.503
    1C        C  352   4.275   4.160   3.623
    1C        C  353   4.320   4.105   3.746
    1C        C  354   4.179   4.267   3.867
    1C        C  355   4.274   4.163   3.866
    1C        C  356   4.124   4.316   3.988
    1C        C  357   4.178   4.270   4.110
    1C        C  358   4.005   4.396   4.229
    1C        C  359   4.122   4.317   4.231
    1C        C  360   3.948   4.441   4.350
    1C        C  361   4.016   4.413   4.470
    1C        C  362   3.825   4.517   4.591
    1C        C  363   3.954   4.459   4.588
    1C        C  364   3.760   4.555   4.711
    1C        C  365   3.838   4.543   4.829
    1C        C  366   3.630   4.588   4.947
    1C        C  367   3.768   4.577   4.946
    1C        C  368   4.502   3.559   2.052
    1C        C  369   4.522   3.488   2.171
    1C        C  370   4.501   3.706   2.286
    1C        C  371   4.515   3.566   2.289
    1C        C  372   4.479   3.775   2.408
    1C        C  373   4.495   3.706   2.530
    1C        C  374   4.428   3.912   2.647
    1C        C  375   4.474   3.778   2.649
    1C        C  376   4.399   3.976   2.769
    1C        C  377   4.428   3.914   2.893
    1C        C  378   4.317   4.095   3.011
    1C        C  379   4.396   3.978   3.015
    1C        C  380   4.271   4.151   3.133
    1C        C  381   4.316   4.100   3.256
    1C        C  382   4.174   4.255   3.376
    1C        C  383   4.272   4.152   3.380
    1C        C  384   4.119   4.300   3.498
    1C        C  385   4.172   4.256   3.621
    1C        C  386   4.006   4.385   3.740
    1C        C  387   4.125   4.308   3.744
    1C        C  388   3.943   4.423   3.861
    1C        C  389   4.005   4.391   3.984
    1C        C  390   3.812   4.481   4.107
    1C        C  391   3.943   4.426   4.106
    1C        C  392   3.746   4.508   4.229
    1C        C  393   3.819   4.499   4.350
    1C        C  394   3.613   4.552   4.473
    1C        C  395   3.751   4.524   4.471
    1C        C  396   3.542   4.567   4.594
    1C        C  397   3.620   4.566   4.712
    1C        C  398   3.410   4.546   4.837
    1C        C  399   3.549   4.568   4.834
    1C        C  400   3.341   4.508   4.953
    1C        C  401   4.502   3.698   2.053
    1C        C  402   4.455   3.916   2.163
    1C        C  403   4.494   3.780   2.166
    1C        C  404   4.414   3.978   2.283
    1C        C  405   4.433   3.908   2.405
    1C        C  406   4.322   4.094   2.524
    1C        C  407   4.398   3.975   2.524
    1C        C  408   4.275   4.146   2.646
    1C        C  409   4.320   4.093   2.769
    1C        C  410   4.174   4.250   2.888
    1C        C  411   4.276   4.153   2.889
    1C        C  412   4.120   4.296   3.010
    1C        C  413   4.173   4.252   3.133
    1C        C  414   3.995   4.369   3.250
    1C        C  415   4.117   4.299   3.255
    1C        C  416   3.938   4.408   3.374
    1C        C  417   4.000   4.377   3.497
    1C        C  418   3.811   4.472   3.617
    1C        C  419   3.941   4.417   3.619
    1C        C  420   3.743   4.492   3.739
    1C        C  421   3.811   4.473   3.862
    1C        C  422   3.608   4.532   3.985
    1C        C  423   3.746   4.503   3.984
    1C        C  424   3.538   4.540   4.107
    1C        C  425   3.608   4.537   4.229
    1C        C  426   3.399   4.547   4.355
    1C        C  427   3.540   4.550   4.352
    1C        C  428   3.328   4.543   4.478
    1C        C  429   3.401   4.561   4.598
    1C        C  430   3.191   4.521   4.722
    1C        C  431   3.332   4.544   4.720
    1C        C  432   3.121   4.497   4.844
    1C        C  433   3.203   4.495   4.957
    1C        C  434   4.378   4.119   2.047
    1C        C  435   4.444   3.996   2.048
    1C        C  436   4.296   4.157   2.158
    1C        C  437   4.330   4.092   2.280
    1C        C  438   4.179   4.246   2.400
    1C        C  439   4.283   4.150   2.400
    1C        C  440   4.123   4.293   2.521
    1C        C  441   4.178   4.250   2.643
    1C        C  442   4.004   4.374   2.762
    1C        C  443   4.123   4.297   2.764
    1C        C  444   3.939   4.406   2.883
    1C        C  445   3.999   4.370   3.006
    1C        C  446   3.806   4.463   3.127
    1C        C  447   3.934   4.402   3.127
    1C        C  448   3.741   4.487   3.250
    1C        C  449   3.810   4.467   3.372
    1C        C  450   3.605   4.519   3.496
    1C        C  451   3.744   4.492   3.494
    1C        C  452   3.536   4.530   3.619
    1C        C  453   3.606   4.524   3.742
    1C        C  454   3.395   4.541   3.865
    1C        C  455   3.536   4.539   3.864
    1C        C  456   3.326   4.538   3.988
    1C        C  457   3.397   4.540   4.111
    1C        C  458   3.189   4.506   4.237
    1C        C  459   3.328   4.532   4.234
    1C        C  460   3.121   4.491   4.359
    1C        C  461   3.189   4.516   4.480
    1C        C  462   2.994   4.434   4.604
    1C        C  463   3.124   4.491   4.602
    1C        C  464   2.927   4.400   4.723
    1C        C  465   2.989   4.441   4.845
    1C        C  466   2.799   4.336   4.957
    1C        C  467   2.904   4.429   4.958
    1C        C  468   4.115   4.281   2.041
    1C        C  469   4.181   4.242   2.159
    1C        C  470   4.001   4.365   2.277
    1C        C  471   4.123   4.292   2.279
    1C        C  472   3.938   4.397   2.399
    1C        C  473   4.004   4.370   2.521
    1C        C  474   3.808   4.457   2.640
    1C        C  475   3.939   4.405   2.641
    1C        C  476   3.740   4.486   2.760
    1C        C  477   3.808   4.459   2.881
    1C        C  478   3.604   4.516   3.005
    1C        C  479   3.742   4.485   3.003
    1C        C  480   3.534   4.527   3.127
    1C        C  481   3.603   4.514   3.250
    1C        C  482   3.394   4.527   3.375
    1C        C  483   3.536   4.528   3.373
    1C        C  484   3.325   4.522   3.499
    1C        C  485   3.395   4.536   3.621
    1C        C  486   3.186   4.502   3.746
    1C        C  487   3.324   4.532   3.743
    1C        C  488   3.121   4.483   3.870
    1C        C  489   3.189   4.503   3.992
    1C        C  490   2.997   4.416   4.113
    1C        C  491   3.122   4.481   4.115
    1C        C  492   2.939   4.381   4.237
    1C        C  493   2.996   4.425   4.359
    1C        C  494   2.823   4.306   4.481
    1C        C  495   2.934   4.394   4.482
    1C        C  496   2.774   4.251   4.601
    1C        C  497   2.821   4.306   4.723
    1C        C  498   2.668   4.158   4.844
    1C        C  499   2.755   4.270   4.842
    1C        C  500   2.591   4.119   4.954
    1C        C  501   4.001   4.360   2.037
    1C        C  502   3.808   4.456   2.153
    1C        C  503   3.936   4.397   2.156
    1C        C  504   3.738   4.470   2.275
    1C        C  505   3.806   4.445   2.397
    1C        C  506   3.601   4.506   2.516
    1C        C  507   3.737   4.469   2.518
    1C        C  508   3.530   4.513   2.638
    1C        C  509   3.603   4.518   2.759
    1C        C  510   3.393   4.521   2.885
    1C        C  511   3.534   4.526   2.883
    1C        C  512   3.321   4.521   3.006
    1C        C  513   3.393   4.527   3.128
    1C        C  514   3.188   4.494   3.253
    1C        C  515   3.326   4.524   3.252
    1C        C  516   3.121   4.473   3.375
    1C        C  517   3.187   4.492   3.499
    1C        C  518   2.994   4.416   3.623
    1C        C  519   3.121   4.477   3.623
    1C        C  520   2.934   4.380   3.746
    1C        C  521   2.998   4.414   3.867
    1C        C  522   2.832   4.286   3.994
    1C        C  523   2.940   4.377   3.990
    1C        C  524   2.784   4.236   4.117
    1C        C  525   2.830   4.291   4.239
    1C        C  526   2.698   4.129   4.364
    1C        C  527   2.775   4.247   4.362
    1C        C  528   2.655   4.070   4.485
    1C        C  529   2.690   4.138   4.604
    1C        C  530   2.579   3.959   4.731
    1C        C  531   2.635   4.090   4.725
    1C        C  532   2.543   3.896   4.853
    1C        C  533   2.530   3.993   4.958
    1C        C  534   3.615   4.558   2.041
    1C        C  535   3.748   4.513   2.040
    1C        C  536   3.531   4.538   2.154
    1C        C  537   3.600   4.504   2.274
    1C        C  538   3.389   4.518   2.399
    1C        C  539   3.530   4.519   2.395
    1C        C  540   3.315   4.510   2.520
    1C        C  541   3.389   4.514   2.640
    1C        C  542   3.181   4.489   2.764
    1C        C  543   3.320   4.512   2.764
    1C        C  544   3.115   4.470   2.888
    1C        C  545   3.183   4.491   3.010
    1C        C  546   2.991   4.405   3.135
    1C        C  547   3.119   4.465   3.133
    1C        C  548   2.932   4.371   3.259
    1C        C  549   2.993   4.412   3.380
    1C        C  550   2.828   4.280   3.504
    1C        C  551   2.934   4.374   3.502
    1C        C  552   2.777   4.234   3.628
    1C        C  553   2.825   4.289   3.748
    1C        C  554   2.699   4.123   3.875
    1C        C  555   2.779   4.239   3.872
    1C        C  556   2.659   4.063   3.997
    1C        C  557   2.699   4.123   4.118
    1C        C  558   2.601   3.940   4.246
    1C        C  559   2.662   4.068   4.242
    1C        C  560   2.574   3.875   4.368
    1C        C  561   2.591   3.945   4.490
    1C        C  562   2.528   3.746   4.613
    1C        C  563   2.559   3.883   4.613
    1C        C  564   2.511   3.679   4.736
    1C        C  565   2.518   3.755   4.856
    1C        C  566   2.529   3.544   4.975
    1C        C  567   2.529   3.683   4.975
    1C        C  568   3.322   4.475   2.038
    1C        C  569   3.392   4.508   2.155
    1C        C  570   3.180   4.479   2.278
    1C        C  571   3.319   4.509   2.277
    1C        C  572   3.110   4.459   2.399
    1C        C  573   3.177   4.483   2.521
    1C        C  574   2.984   4.402   2.645
    1C        C  575   3.110   4.467   2.644
    1C        C  576   2.929   4.365   2.770
    1C        C  577   2.989   4.406   2.891
    1C        C  578   2.826   4.271   3.016
    1C        C  579   2.930   4.366   3.013
    1C        C  580   2.776   4.221   3.139
    1C        C  581   2.825   4.280   3.258
    1C        C  582   2.697   4.114   3.385
    1C        C  583   2.779   4.230   3.382
    1C        C  584   2.663   4.056   3.508
    1C        C  585   2.696   4.118   3.631
    1C        C  586   2.595   3.935   3.755
    1C        C  587   2.662   4.059   3.754
    1C        C  588   2.573   3.869   3.878
    1C        C  589   2.596   3.936   4.000
    1C        C  590   2.537   3.737   4.128
    1C        C  591   2.572   3.874   4.124
    1C        C  592   2.524   3.669   4.251
    1C        C  593   2.531   3.741   4.373
    1C        C  594   2.510   3.529   4.495
    1C        C  595   2.521   3.670   4.494
    1C        C  596   2.518   3.461   4.619
    1C        C  597   2.516   3.537   4.739
    1C        C  598   2.531   3.323   4.858
    1C        C  599   2.524   3.464   4.859
    1C        C  600   2.524   3.246   4.975
    1C        C  601   3.188   4.441   2.043
    1C        C  602   2.978   4.389   2.158
    1C        C  603   3.112   4.440   2.160
    1C        C  604   2.915   4.361   2.282
    1C        C  605   2.983   4.397   2.401
    1C        C  606   2.818   4.268   2.528
    1C        C  607   2.924   4.362   2.524
    1C        C  608   2.772   4.218   2.652
    1C        C  609   2.823   4.272   2.772
    1C        C  610   2.691   4.107   2.896
    1C        C  611   2.776   4.220   2.894
    1C        C  612   2.649   4.050   3.018
    1C        C  613   2.690   4.109   3.140
    1C        C  614   2.590   3.928   3.267
    1C        C  615   2.655   4.053   3.265
    1C        C  616   2.569   3.863   3.391
    1C        C  617   2.603   3.928   3.512
    1C        C  618   2.537   3.728   3.635
    1C        C  619   2.571   3.865   3.634
    1C        C  620   2.521   3.662   3.760
    1C        C  621   2.535   3.733   3.881
    1C        C  622   2.510   3.527   4.007
    1C        C  623   2.521   3.668   4.006
    1C        C  624   2.517   3.458   4.130
    1C        C  625   2.517   3.528   4.252
    1C        C  626   2.540   3.318   4.376
    1C        C  627   2.515   3.457   4.374
    1C        C  628   2.558   3.250   4.498
    1C        C  629   2.545   3.323   4.619
    1C        C  630   2.596   3.114   4.741
    1C        C  631   2.554   3.250   4.739
    1C        C  632   2.614   3.045   4.864
    1C        C  633   2.561   3.111   4.980
    1C        C  634   2.774   4.309   2.054
    1C        C  635   2.887   4.391   2.048
    1C        C  636   2.744   4.227   2.164
    1C        C  637   2.803   4.273   2.284
    1C        C  638   2.677   4.107   2.407
    1C        C  639   2.759   4.222   2.408
    1C        C  640   2.645   4.046   2.530
    1C        C  641   2.686   4.106   2.651
    1C        C  642   2.591   3.918   2.776
    1C        C  643   2.655   4.044   2.774
    1C        C  644   2.562   3.854   2.899
    1C        C  645   2.590   3.922   3.019
    1C        C  646   2.533   3.724   3.148
    1C        C  647   2.568   3.861   3.145
    1C        C  648   2.521   3.654   3.270
    1C        C  649   2.534   3.726   3.391
    1C        C  650   2.513   3.516   3.519
    1C        C  651   2.528   3.656   3.514
    1C        C  652   2.512   3.448   3.643
    1C        C  653   2.514   3.521   3.764
    1C        C  654   2.536   3.314   3.887
    1C        C  655   2.510   3.453   3.887
    1C        C  656   2.556   3.248   4.010
    1C        C  657   2.541   3.318   4.132
    1C        C  658   2.604   3.116   4.257
    1C        C  659   2.556   3.248   4.254
    1C        C  660   2.631   3.049   4.378
    1C        C  661   2.600   3.115   4.500
    1C        C  662   2.710   2.933   4.625
    1C        C  663   2.627   3.047   4.621
    1C        C  664   2.751   2.873   4.746
    1C        C  665   2.698   2.929   4.865
    1C        C  666   2.740   2.862   4.981
    1C        C  667   2.675   4.023   2.052
    1C        C  668   2.679   4.102   2.168
    1C        C  669   2.581   3.911   2.287
    1C        C  670   2.637   4.041   2.288
    1C        C  671   2.556   3.847   2.411
    1C        C  672   2.588   3.916   2.530
    1C        C  673   2.521   3.718   2.657
    1C        C  674   2.567   3.851   2.653
    1C        C  675   2.511   3.648   2.779
    1C        C  676   2.529   3.717   2.901
    1C        C  677   2.509   3.512   3.028
    1C        C  678   2.519   3.653   3.026
    1C        C  679   2.516   3.442   3.151
    1C        C  680   2.512   3.513   3.273
    1C        C  681   2.530   3.305   3.401
    1C        C  682   2.511   3.445   3.396
    1C        C  683   2.550   3.238   3.523
    1C        C  684   2.531   3.308   3.644
    1C        C  685   2.605   3.110   3.770
    1C        C  686   2.553   3.241   3.767
    1C        C  687   2.636   3.048   3.893
    1C        C  688   2.603   3.114   4.013
    1C        C  689   2.712   2.932   4.136
    1C        C  690   2.637   3.052   4.135
    1C        C  691   2.756   2.877   4.259
    1C        C  692   2.708   2.931   4.381
    1C        C  693   2.752   2.875   4.503
    1C        C  694   2.623   3.893   2.056
    1C        C  695   2.528   3.697   2.176
    1C        C  696   2.573   3.831   2.171
    1C        C  697   2.508   3.632   2.299
    1C        C  698   2.522   3.710   2.416
    1C        C  699   2.492   3.502   2.543
    1C        C  700   2.501   3.643   2.539
    1C        C  701   2.502   3.433   2.665
    1C        C  702   2.504   3.507   2.786
    1C        C  703   2.527   3.298   2.908
    1C        C  704   2.505   3.438   2.908
    1C        C  705   2.548   3.233   3.032
    1C        C  706   2.535   3.302   3.155
    1C        C  707   2.596   3.103   3.278
    1C        C  708   2.545   3.235   3.279
    1C        C  709   2.633   3.045   3.401
    1C        C  710   2.605   3.108   3.525
    1C        C  711   2.708   2.926   3.648
    1C        C  712   2.630   3.044   3.648
    1C        C  713   2.753   2.872   3.771
    1C        C  714   2.713   2.930   3.893
    1C        C  715   2.756   2.873   4.015
    1C        C  716   2.445   3.495   2.064
    1C        C  717   2.496   3.626   2.059
    1C        C  718   2.460   3.417   2.183
    1C        C  719   2.480   3.493   2.301
    1C        C  720   2.512   3.286   2.423
    1C        C  721   2.486   3.424   2.425
    1C        C  722   2.537   3.220   2.546
    1C        C  723   2.525   3.294   2.666
    1C        C  724   2.595   3.094   2.791
    1C        C  725   2.542   3.225   2.788
    1C        C  726   2.622   3.031   2.915
    1C        C  727   2.594   3.100   3.035
    1C        C  728   2.702   2.918   3.158
    1C        C  729   2.627   3.038   3.157
    1C        C  730   2.749   2.867   3.281
    1C        C  731   2.709   2.925   3.404
    1C        C  732   2.750   2.868   3.526
    1C        C  733   2.491   3.196   2.068
    1C        C  734   2.490   3.277   2.182
    1C        C  735   2.591   3.086   2.302
    1C        C  736   2.524   3.212   2.304
    1C        C  737   2.622   3.023   2.424
    1C        C  738   2.591   3.090   2.545
    1C        C  739   2.695   2.909   2.669
    1C        C  740   2.618   3.027   2.669
    1C        C  741   2.738   2.854   2.791
    1C        C  742   2.698   2.911   2.914
    1C        C  743   2.745   2.860   3.037
    1C        C  744   2.543   3.067   2.069
    1C        C  745   2.685   2.895   2.184
    1C        C  746   2.606   3.012   2.182
    1C        C  747   2.727   2.838   2.305
    1C        C  748   2.687   2.898   2.427
    1C        C  749   2.737   2.847   2.549
    1C        C  750   2.736   2.838   2.067
    1C        C  751   3.654   2.297   1.998
    1C        O  752   3.632   2.182   2.044
    1C        O  753   3.698   2.298   1.865
    1C        C  754   4.618   3.038   1.974
    1C        O  755   4.633   3.073   1.854
    1C        O  756   4.734   2.985   2.029
    1C        C  757   4.440   4.218   1.957
    1C        O  758   4.554   4.265   1.983
    1C        O  759   4.371   4.275   1.849
    1C        C  760   3.584   4.666   1.944
    1C        O  761   3.583   4.788   1.976
    1C        O  762   3.588   4.635   1.808
    1C        C  763   2.877   4.511   1.962
    1C        O  764   2.940   4.514   1.853
    1C        O  765   2.824   4.636   1.999
    1C        C  766   2.329   3.465   1.978
    1C        O  767   2.333   3.401   1.869
    1C        O  768   2.221   3.552   1.961
    1C        C  769   4.685   3.593   5.059
    1C        O  770   4.674   3.554   5.178
    1C        O  771   4.815   3.590   5.005
    1C        C  772   4.266   4.458   5.035
    1C        O  773   4.272   4.427   5.156
    1C        O  774   4.346   4.562   4.985
    1C        C  775   4.146   2.515   5.066
    1C        O  776   4.197   2.403   5.041
    1C        O  777   4.124   2.548   5.200
    1C        C  778   2.867   4.554   5.030
    1C        O  779   2.812   4.644   4.961
    1C        O  780   2.946   4.603   5.134
    1C        C  781   2.481   3.039   5.082
    1C        O  782   2.392   2.955   5.054
    1C        O  783   2.510   3.037   5.218
    1C        C  784   2.415   3.987   5.052
    1C        O  785   2.294   3.972   5.021
    1C        O  786   2.441   3.948   5.184
    1C        C  787   2.955   2.435   1.983
    1C        O  788   2.951   2.462   1.860
    1C        O  789   2.884   2.318   2.010
    1C        C  790   3.185   2.389   5.081
    1C        O  791   3.181   2.265   5.059
    1C        O  792   3.206   2.425   5.215
    1C        H  793   4.293   3.007   5.068
    1C        H  794   4.208   2.789   5.069
    1C        H  795   4.517   3.125   5.049
    1C        H  796   4.492   3.375   5.061
    1C        H  797   4.609   3.819   5.014
    1C        H  798   4.395   3.954   5.056
    1C        H  799   4.269   4.159   5.044
    1C        H  800   4.041   4.552   5.018
    1C        H  801   3.827   4.621   5.024
    1C        H  802   3.584   4.637   5.031
    1C        H  803   3.396   4.450   5.025
    1C        H  804   3.164   4.465   5.052
    1C        H  805   3.879   2.507   5.073
    1C        H  806   3.675   2.445   5.071
    1C        H  807   2.998   2.551   5.064
    1C        H  808   3.439   2.467   5.074
    1C        H  809   2.888   2.754   5.079
    1C        H  810   2.668   2.852   5.059
    1C        H  811   2.471   3.283   5.060
    1C        H  812   2.549   3.495   5.068
    1C        H  813   2.494   3.729   5.065
    1C        H  814   2.555   4.199   5.015
    1C        H  815   2.740   4.329   5.046
    1C        H  816   2.733   2.894   1.975
    1C        H  817   2.854   2.694   1.972
    1C        H  818   3.217   2.467   1.985
    1C        H  819   3.444   2.491   1.981
    1C        H  820   3.880   2.484   1.979
    1C        H  821   4.060   2.627   1.967
    1C        H  822   4.276   2.701   1.985
    1C        H  823   4.354   2.938   1.970
    1C        H  824   4.510   3.302   1.968
    1C        H  825   4.515   3.507   1.959
    1C        H  826   4.541   3.745   1.965
    1C        H  827   3.810   4.563   1.969
    1C        H  828   3.962   4.381   1.940
    1C        H  829   4.126   4.215   1.958
    1C        H  830   4.516   3.978   1.970
    1C        H  831   2.657   3.830   1.976
    1C        H  832   2.743   4.049   1.974
    1C        H  833   2.716   4.293   1.966
    1C        H  834   3.377   4.430   1.958
    1C        H  835   3.143   4.414   1.950
    1C        H  836   2.511   2.994   1.998
    1C        H  837   2.501   3.254   1.978
    1C        H  838   2.512   3.670   1.963
    2V3OU   H29  839   2.806   3.553   6.375
    2V3OU   C27  840   2.773   3.505   6.471
    2V3OU   H27  841   2.716   3.578   6.534
    2V3OU   H28  842   2.732   3.407   6.436
    2V3OU   O11  843   2.899   3.478   6.532
    2V3OU   C15  844   2.917   3.400   6.644
    2V3OU   C13  845   3.048   3.371   6.688
    2V3OU   C14  846   3.073   3.264   6.775
    2V3OU   C16  847   2.967   3.185   6.817
    2V3OU    H6  848   2.990   3.097   6.879
    2V3OU   C12  849   3.209   3.231   6.822
    2V3OU    O2  850   3.234   3.122   6.877
    2V3OU   C10  851   3.322   3.310   6.769
    2V3OU    C8  852   3.454   3.275   6.792
    2V3OU   O10  853   3.488   3.159   6.853
    2V3OU   H26  854   3.401   3.118   6.864
    2V3OU    C6  855   3.562   3.349   6.733
    2V3OU    C5  856   3.537   3.465   6.662
    2V3OU    C4  857   3.701   3.294   6.734
    2V3OU    H4  858   3.722   3.226   6.821
    2V3OU    H5  859   3.710   3.225   6.645
    2V3OU    C2  860   3.815   3.396   6.730
    2V3OU    O6  861   3.803   3.471   6.851
    2V3OU   H21  862   3.761   3.557   6.838
    2V3OU    C3  863   3.781   3.494   6.618
    2V3OU    H2  864   3.862   3.570   6.605
    2V3OU    H3  865   3.778   3.437   6.521
    2V3OU   C25  866   3.951   3.329   6.711
    2V3OU    O7  867   3.999   3.289   6.604
    2V3OU   C26  868   4.030   3.293   6.835
    2V3OU   H22  869   4.071   3.385   6.884
    2V3OU   H23  870   4.115   3.224   6.807
    2V3OU    O8  871   3.960   3.210   6.925
    2V3OU   H24  872   3.923   3.261   6.999
    2V3OU    C1  873   3.647   3.563   6.636
    2V3OU    H1  874   3.622   3.619   6.540
    2V3OU    O3  875   3.655   3.652   6.748
    2V3OU   C19  876   3.619   3.790   6.734
    2V3OU    H9  877   3.518   3.795   6.685
    2V3OU    O4  878   3.715   3.846   6.648
    2V3OU   C20  879   3.843   3.873   6.707
    2V3OU   H10  880   3.896   3.774   6.716
    2V3OU   C24  881   3.605   3.854   6.873
    2V3OU   H16  882   3.538   3.788   6.934
    2V3OU   H17  883   3.557   3.954   6.862
    2V3OU   C23  884   3.745   3.871   6.933
    2V3OU   H15  885   3.787   3.768   6.958
    2V3OU    N1  886   3.731   3.955   0.030
    2V3OU   H19  887   3.802   3.922   0.093
    2V3OU   H20  888   3.644   3.932   0.073
    2V3OU   C21  889   3.844   3.947   6.841
    2V3OU   H11  890   3.948   3.921   6.876
    2V3OU    O5  891   3.831   4.089   6.839
    2V3OU   H18  892   3.777   4.104   6.918
    2V3OU   C22  893   3.910   3.944   6.590
    2V3OU   H12  894   3.858   4.042   6.573
    2V3OU   H13  895   3.904   3.884   6.496
    2V3OU   H14  896   4.018   3.960   6.614
    2V3OU   C11  897   3.156   3.468   6.662
    2V3OU    O1  898   3.142   3.577   6.602
    2V3OU    C9  899   3.294   3.428   6.695
    2V3OU    C7  900   3.400   3.501   6.642
    2V3OU    O9  901   3.388   3.619   6.571
    2V3OU   H25  902   3.292   3.627   6.573
    2V3OU   C17  903   2.814   3.317   6.693
    2V3OU    H7  904   2.712   3.343   6.667
    2V3OU   C18  905   2.835   3.208   6.777
    2V3OU    H8  906   2.754   3.139   6.804
    3SOL     OW  907   2.811   3.518   5.133
    3SOL    HW1  908   2.736   3.486   5.190
    3SOL    HW2  909   2.806   3.617   5.122
    4SOL     OW  910   1.012   0.143   0.370
    4SOL    HW1  911   0.913   0.136   0.373
    4SOL    HW2  912   1.041   0.223   0.423
    5SOL     OW  913   3.882   2.036   0.595
    5SOL    HW1  914   3.878   1.982   0.679
    5SOL    HW2  915   3.977   2.056   0.572
    6SOL     OW  916   3.041   2.089   2.025
    6SOL    HW1  917   2.996   2.178   2.014
    6SOL    HW2  918   3.129   2.090   1.978
    7SOL     OW  919   1.619   3.038   4.819
    7SOL    HW1  920   1.710   3.061   4.852
    7SOL    HW2  921   1.552   3.101   4.858
    8SOL     OW  922   1.142   1.729   6.065
    8SOL    HW1  923   1.100   1.810   6.024
    8SOL    HW2  924   1.071   1.662   6.087
    9SOL     OW  925   2.147   2.263   5.494
    9SOL    HW1  926   2.107   2.263   5.402
    9SOL    HW2  927   2.218   2.193   5.500
   10SOL     OW  928   5.595   4.869   0.837
   10SOL    HW1  929   5.644   4.880   0.751
   10SOL    HW2  930   5.617   4.781   0.878
   11SOL     OW  931   2.974   1.235   1.069
   11SOL    HW1  932   3.054   1.286   1.098
   11SOL    HW2  933   2.949   1.263   0.976
   12SOL     OW  934   5.642   4.667   1.291
   12SOL    HW1  935   5.567   4.643   1.230
   12SOL    HW2  936   5.626   4.758   1.329
   13SOL     OW  937   4.464   5.993   1.806
   13SOL    HW1  938   4.465   5.894   1.817
   13SOL    HW2  939   4.470   6.036   1.896
   14SOL     OW  940   4.616   5.905   0.996
   14SOL    HW1  941   4.698   5.955   1.026
   14SOL    HW2  942   4.640   5.809   0.979
   15SOL     OW  943   0.254   0.171   6.715
   15SOL    HW1  944   0.203   0.159   6.630
   15SOL    HW2  945   0.256   0.268   6.739
   16SOL     OW  946   1.696   5.112   5.610
   16SOL    HW1  947   1.604   5.089   5.644
   16SOL    HW2  948   1.698   5.103   5.510
   17SOL     OW  949   0.251   2.272   4.182
   17SOL    HW1  950   0.215   2.363   4.204
   17SOL    HW2  951   0.189   2.226   4.118
   18SOL     OW  952   2.347   0.018   5.262
   18SOL    HW1  953   2.254   7.001   5.267
   18SOL    HW2  954   2.401   7.003   5.339
   19SOL     OW  955   4.333   5.772   3.179
   19SOL    HW1  956   4.419   5.730   3.207
   19SOL    HW2  957   4.257   5.711   3.202
   20SOL     OW  958   0.080   1.711   4.535
   20SOL    HW1  959   0.036   1.799   4.518
   20SOL    HW2  960   0.057   1.648   4.461
   21SOL     OW  961   2.020   3.231   1.986
   21SOL    HW1  962   2.004   3.140   1.950
   21SOL    HW2  963   2.052   3.225   2.080
   22SOL     OW  964   0.481   0.504   0.325
   22SOL    HW1  965   0.559   0.534   0.380
   22SOL    HW2  966   0.405   0.568   0.339
   23SOL     OW  967   0.502   5.600   0.454
   23SOL    HW1  968   0.481   5.508   0.488
   23SOL    HW2  969   0.483   5.605   0.356
   24SOL     OW  970   4.422   0.771   6.666
   24SOL    HW1  971   4.469   0.822   6.593
   24SOL    HW2  972   4.347   0.826   6.701
   25SOL     OW  973   2.208   0.598   5.499
   25SOL    HW1  974   2.274   0.524   5.483
   25SOL    HW2  975   2.149   0.574   5.576
   26SOL     OW  976   2.429   6.471   5.458
   26SOL    HW1  977   2.337   6.464   5.421
   26SOL    HW2  978   2.476   6.550   5.418
   27SOL     OW  979   0.173   0.090   2.322
   27SOL    HW1  980   0.184   0.188   2.302
   27SOL    HW2  981   0.147   0.078   2.417
   28SOL     OW  982   2.153   0.723   5.257
   28SOL    HW1  983   2.172   0.691   5.349
   28SOL    HW2  984   2.117   0.816   5.260
   29SOL     OW  985   5.051   0.455   1.899
   29SOL    HW1  986   5.044   0.371   1.845
   29SOL    HW2  987   4.988   0.451   1.976
   30SOL     OW  988   4.863   6.741   4.640
   30SOL    HW1  989   4.794   6.702   4.702
   30SOL    HW2  990   4.894   6.670   4.577
   31SOL     OW  991   5.820   3.748   4.549
   31SOL    HW1  992   5.865   3.820   4.496
   31SOL    HW2  993   5.802   3.669   4.490
   32SOL     OW  994   3.653   1.449   1.508
   32SOL    HW1  995   3.591   1.450   1.586
   32SOL    HW2  996   3.608   1.492   1.429
   33SOL     OW  997   1.755   4.915   5.064
   33SOL    HW1  998   1.848   4.904   5.031
   33SOL    HW2  999   1.751   4.992   5.128
   34SOL     OW 1000   2.346   0.350   5.548
   34SOL    HW1 1001   2.251   0.325   5.530
   34SOL    HW2 1002   2.386   0.284   5.611
   35SOL     OW 1003   1.097   3.605   4.494
   35SOL    HW1 1004   1.087   3.508   4.471
   35SOL    HW2 1005   1.191   3.633   4.480
   36SOL     OW 1006   5.562   0.966   4.809
   36SOL    HW1 1007   5.468   0.932   4.817
   36SOL    HW2 1008   5.609   0.917   4.736
   37SOL     OW 1009   1.229   5.876   3.670
   37SOL    HW1 1010   1.140   5.832   3.681
   37SOL    HW2 1011   1.297   5.807   3.642
   38SOL     OW 1012   0.784   3.430   1.830
   38SOL    HW1 1013   0.689   3.461   1.838
   38SOL    HW2 1014   0.792   3.368   1.752
   39SOL     OW 1015   6.338   5.725   1.156
   39SOL    HW1 1016   6.276   5.667   1.208
   39SOL    HW2 1017   6.295   5.750   1.069
   40SOL     OW 1018   4.151   0.802   5.756
   40SOL    HW1 1019   4.251   0.800   5.759
   40SOL    HW2 1020   4.121   0.797   5.661
   41SOL     OW 1021   0.320   3.677   0.998
   41SOL    HW1 1022   0.395   3.706   0.939
   41SOL    HW2 1023   0.356   3.635   1.081
   42SOL     OW 1024   2.625   3.756   0.848
   42SOL    HW1 1025   2.537   3.737   0.893
   42SOL    HW2 1026   2.698   3.708   0.896
   43SOL     OW 1027   5.095   0.677   3.523
   43SOL    HW1 1028   5.096   0.581   3.497
   43SOL    HW2 1029   5.001   0.705   3.545
   44SOL     OW 1030   6.955   1.168   6.788
   44SOL    HW1 1031   6.926   1.260   6.763
   44SOL    HW2 1032   6.914   1.143   6.876
   45SOL     OW 1033   2.001   3.745   5.150
   45SOL    HW1 1034   1.946   3.827   5.131
   45SOL    HW2 1035   2.091   3.773   5.184
   46SOL     OW 1036   1.021   5.398   4.112
   46SOL    HW1 1037   0.924   5.407   4.090
   46SOL    HW2 1038   1.036   5.312   4.162
   47SOL     OW 1039   0.224   3.893   5.963
   47SOL    HW1 1040   0.249   3.859   5.872
   47SOL    HW2 1041   0.156   3.832   6.004
   48SOL     OW 1042   0.428   4.213   0.342
   48SOL    HW1 1043   0.433   4.312   0.353
   48SOL    HW2 1044   0.347   4.189   0.289
   49SOL     OW 1045   3.902   0.450   0.212
   49SOL    HW1 1046   3.833   0.386   0.246
   49SOL    HW2 1047   3.989   0.402   0.202
   50SOL     OW 1048   4.612   1.869   5.793
   50SOL    HW1 1049   4.667   1.921   5.859
   50SOL    HW2 1050   4.528   1.919   5.773
   51SOL     OW 1051   0.722   6.476   1.962
   51SOL    HW1 1052   0.720   6.571   1.930
   51SOL    HW2 1053   0.750   6.473   2.058
   52SOL     OW 1054   4.990   3.163   2.744
   52SOL    HW1 1055   4.940   3.166   2.657
   52SOL    HW2 1056   5.088   3.167   2.725
   53SOL     OW 1057   4.125   6.731   1.435
   53SOL    HW1 1058   4.212   6.778   1.416
   53SOL    HW2 1059   4.058   6.797   1.468
   54SOL     OW 1060   0.970   1.190   6.201
   54SOL    HW1 1061   1.066   1.163   6.192
   54SOL    HW2 1062   0.927   1.136   6.273
   55SOL     OW 1063   2.583   3.756   6.513
   55SOL    HW1 1064   2.504   3.707   6.550
   55SOL    HW2 1065   2.603   3.723   6.421
   56SOL     OW 1066   2.143   2.298   0.029
   56SOL    HW1 1067   2.178   2.370   0.089
   56SOL    HW2 1068   2.188   2.212   0.050
   57SOL     OW 1069   4.345   5.961   1.569
   57SOL    HW1 1070   4.358   5.862   1.561
   57SOL    HW2 1071   4.392   5.994   1.651
   58SOL     OW 1072   0.660   0.687   0.116
   58SOL    HW1 1073   0.577   0.733   0.084
   58SOL    HW2 1074   0.636   0.602   0.162
   59SOL     OW 1075   4.244   3.567   0.066
   59SOL    HW1 1076   4.185   3.648   0.057
   59SOL    HW2 1077   4.269   3.534   6.995
   60SOL     OW 1078   6.268   2.552   1.918
   60SOL    HW1 1079   6.262   2.453   1.928
   60SOL    HW2 1080   6.303   2.593   2.002
   61SOL     OW 1081   1.154   4.893   2.661
   61SOL    HW1 1082   1.175   4.888   2.564
   61SOL    HW2 1083   1.228   4.940   2.709
   62SOL     OW 1084   4.989   3.578   3.035
   62SOL    HW1 1085   4.982   3.513   2.960
   62SOL    HW2 1086   4.990   3.528   3.122
   63SOL     OW 1087   4.212   0.256   6.114
   63SOL    HW1 1088   4.238   0.343   6.155
   63SOL    HW2 1089   4.226   0.182   6.180
   64SOL     OW 1090   2.475   1.807   6.583
   64SOL    HW1 1091   2.513   1.715   6.597
   64SOL    HW2 1092   2.377   1.800   6.564
   65SOL     OW 1093   0.907   5.195   4.877
   65SOL    HW1 1094   0.889   5.114   4.933
   65SOL    HW2 1095   0.948   5.266   4.934
   66SOL     OW 1096   4.681   1.688   1.430
   66SOL    HW1 1097   4.587   1.704   1.399
   66SOL    HW2 1098   4.716   1.604   1.388
   67SOL     OW 1099   0.028   3.090   2.764
   67SOL    HW1 1100   0.037   3.125   2.857
   67SOL    HW2 1101   0.117   3.097   2.717
   68SOL     OW 1102   0.165   0.980   6.100
   68SOL    HW1 1103   0.102   1.013   6.171
   68SOL    HW2 1104   0.202   0.891   6.127
   69SOL     OW 1105   1.880   1.164   5.943
   69SOL    HW1 1106   1.968   1.121   5.963
   69SOL    HW2 1107   1.891   1.233   5.872
   70SOL     OW 1108   4.876   5.130   2.956
   70SOL    HW1 1109   4.975   5.135   2.947
   70SOL    HW2 1110   4.849   5.150   3.050
   71SOL     OW 1111   5.196   1.388   5.641
   71SOL    HW1 1112   5.146   1.342   5.568
   71SOL    HW2 1113   5.292   1.399   5.614
   72SOL     OW 1114   6.896   1.870   2.952
   72SOL    HW1 1115   6.870   1.836   3.043
   72SOL    HW2 1116   6.872   1.967   2.945
   73SOL     OW 1117   2.545   0.982   0.588
   73SOL    HW1 1118   2.621   0.980   0.652
   73SOL    HW2 1119   2.459   0.988   0.638
   74SOL     OW 1120   2.483   0.856   0.333
   74SOL    HW1 1121   2.392   0.862   0.294
   74SOL    HW2 1122   2.495   0.929   0.401
   75SOL     OW 1123   2.944   3.335   1.185
   75SOL    HW1 1124   2.934   3.340   1.085
   75SOL    HW2 1125   2.869   3.384   1.229
   76SOL     OW 1126   2.549   5.179   6.096
   76SOL    HW1 1127   2.495   5.156   6.177
   76SOL    HW2 1128   2.601   5.263   6.114
   77SOL     OW 1129   0.504   4.940   5.242
   77SOL    HW1 1130   0.491   4.849   5.203
   77SOL    HW2 1131   0.535   5.003   5.171
   78SOL     OW 1132   4.754   1.462   0.970
   78SOL    HW1 1133   4.820   1.494   1.038
   78SOL    HW2 1134   4.804   1.430   0.889
   79SOL     OW 1135   2.264   4.639   4.269
   79SOL    HW1 1136   2.324   4.640   4.189
   79SOL    HW2 1137   2.214   4.553   4.273
   80SOL     OW 1138   4.127   2.123   5.266
   80SOL    HW1 1139   4.100   2.083   5.353
   80SOL    HW2 1140   4.107   2.059   5.192
   81SOL     OW 1141   2.531   4.588   2.834
   81SOL    HW1 1142   2.527   4.497   2.794
   81SOL    HW2 1143   2.474   4.591   2.917
   82SOL     OW 1144   2.726   0.304   1.359
   82SOL    HW1 1145   2.733   0.273   1.264
   82SOL    HW2 1146   2.631   0.300   1.388
   83SOL     OW 1147   6.082   1.982   3.678
   83SOL    HW1 1148   6.146   1.947   3.610
   83SOL    HW2 1149   6.057   2.076   3.655
   84SOL     OW 1150   5.265   2.066   2.437
   84SOL    HW1 1151   5.179   2.108   2.410
   84SOL    HW2 1152   5.255   2.025   2.528
   85SOL     OW 1153   2.218   5.479   2.809
   85SOL    HW1 1154   2.146   5.470   2.878
   85SOL    HW2 1155   2.306   5.453   2.848
   86SOL     OW 1156   4.275   1.296   6.094
   86SOL    HW1 1157   4.320   1.270   6.180
   86SOL    HW2 1158   4.344   1.311   6.024
   87SOL     OW 1159   2.947   2.256   6.693
   87SOL    HW1 1160   2.880   2.182   6.696
   87SOL    HW2 1161   3.037   2.219   6.717
   88SOL     OW 1162   1.420   1.967   0.386
   88SOL    HW1 1163   1.338   1.955   0.442
   88SOL    HW2 1164   1.498   1.990   0.445
   89SOL     OW 1165   3.869   3.888   5.945
   89SOL    HW1 1166   3.801   3.851   5.882
   89SOL    HW2 1167   3.826   3.955   6.006
   90SOL     OW 1168   0.072   4.054   1.631
   90SOL    HW1 1169   0.148   4.013   1.580
   90SOL    HW2 1170   0.095   4.059   1.728
   91SOL     OW 1171   5.303   4.928   0.624
   91SOL    HW1 1172   5.215   4.918   0.671
   91SOL    HW2 1173   5.337   5.021   0.636
   92SOL     OW 1174   6.682   6.412   6.785
   92SOL    HW1 1175   6.670   6.510   6.800
   92SOL    HW2 1176   6.693   6.394   6.688
   93SOL     OW 1177   2.897   3.352   2.269
   93SOL    HW1 1178   2.997   3.349   2.280
   93SOL    HW2 1179   2.872   3.309   2.182
   94SOL     OW 1180   3.660   1.181   4.174
   94SOL    HW1 1181   3.617   1.148   4.090
   94SOL    HW2 1182   3.630   1.125   4.251
   95SOL     OW 1183   0.790   6.506   4.415
   95SOL    HW1 1184   0.884   6.486   4.444
   95SOL    HW2 1185   0.774   6.470   4.323
   96SOL     OW 1186   0.541   6.761   0.420
   96SOL    HW1 1187   0.639   6.759   0.405
   96SOL    HW2 1188   0.522   6.743   0.517
   97SOL     OW 1189   3.729   5.169   4.335
   97SOL    HW1 1190   3.738   5.075   4.301
   97SOL    HW2 1191   3.645   5.177   4.389
   98SOL     OW 1192   6.585   1.927   4.899
   98SOL    HW1 1193   6.667   1.941   4.844
   98SOL    HW2 1194   6.504   1.928   4.840
   99SOL     OW 1195   4.982   4.641   4.930
   99SOL    HW1 1196   4.996   4.599   4.841
   99SOL    HW2 1197   5.025   4.585   5.001
  100SOL     OW 1198   2.159   1.932   5.318
  100SOL    HW1 1199   2.059   1.931   5.306
  100SOL    HW2 1200   2.201   1.976   5.239
  101SOL     OW 1201   5.087   2.788   2.259
  101SOL    HW1 1202   5.050   2.876   2.287
  101SOL    HW2 1203   5.025   2.715   2.289
  102SOL     OW 1204   4.845   6.656   0.847
  102SOL    HW1 1205   4.884   6.620   0.931
  102SOL    HW2 1206   4.919   6.680   0.783
  103SOL     OW 1207   2.448   2.146   0.851
  103SOL    HW1 1208   2.512   2.096   0.793
  103SOL    HW2 1209   2.451   2.243   0.829
  104SOL     OW 1210   0.970   3.637   1.882
  104SOL    HW1 1211   0.894   3.573   1.878
  104SOL    HW2 1212   0.988   3.673   1.790
  105SOL     OW 1213   0.364   1.771   4.468
  105SOL    HW1 1214   0.273   1.730   4.457
  105SOL    HW2 1215   0.375   1.803   4.562
  106SOL     OW 1216   5.544   3.688   1.221
  106SOL    HW1 1217   5.565   3.600   1.263
  106SOL    HW2 1218   5.461   3.726   1.262
  107SOL     OW 1219   4.510   0.389   2.827
  107SOL    HW1 1220   4.480   0.477   2.864
  107SOL    HW2 1221   4.610   0.387   2.822
  108SOL     OW 1222   3.842   1.195   4.817
  108SOL    HW1 1223   3.746   1.182   4.838
  108SOL    HW2 1224   3.857   1.287   4.781
  109SOL     OW 1225   1.877   1.641   4.516
  109SOL    HW1 1226   1.913   1.625   4.425
  109SOL    HW2 1227   1.865   1.554   4.563
  110SOL     OW 1228   3.902   5.191   5.249
  110SOL    HW1 1229   3.990   5.225   5.283
  110SOL    HW2 1230   3.834   5.195   5.323
  111SOL     OW 1231   0.120   3.437   0.453
  111SOL    HW1 1232   0.077   3.367   0.510
  111SOL    HW2 1233   0.099   3.528   0.491
  112SOL     OW 1234   3.373   6.308   4.718
  112SOL    HW1 1235   3.383   6.398   4.676
  112SOL    HW2 1236   3.387   6.237   4.649
  113SOL     OW 1237   1.455   4.920   2.463
  113SOL    HW1 1238   1.408   5.005   2.440
  113SOL    HW2 1239   1.532   4.907   2.401
  114SOL     OW 1240   6.498   2.276   2.093
  114SOL    HW1 1241   6.399   2.282   2.097
  114SOL    HW2 1242   6.526   2.221   2.014
  115SOL     OW 1243   4.426   1.043   3.404
  115SOL    HW1 1244   4.402   1.112   3.472
  115SOL    HW2 1245   4.432   0.954   3.449
  116SOL     OW 1246   6.134   5.548   6.511
  116SOL    HW1 1247   6.179   5.619   6.566
  116SOL    HW2 1248   6.176   5.460   6.530
  117SOL     OW 1249   2.157   1.459   0.510
  117SOL    HW1 1250   2.195   1.463   0.417
  117SOL    HW2 1251   2.209   1.519   0.570
  118SOL     OW 1252   1.154   2.904   1.467
  118SOL    HW1 1253   1.180   2.833   1.532
  118SOL    HW2 1254   1.066   2.880   1.426
  119SOL     OW 1255   5.247   5.226   4.569
  119SOL    HW1 1256   5.264   5.140   4.618
  119SOL    HW2 1257   5.333   5.276   4.559
  120SOL     OW 1258   4.668   1.610   3.986
  120SOL    HW1 1259   4.583   1.651   4.020
  120SOL    HW2 1260   4.678   1.518   4.024
  121SOL     OW 1261   6.713   4.887   5.573
  121SOL    HW1 1262   6.692   4.873   5.669
  121SOL    HW2 1263   6.797   4.940   5.564
  122SOL     OW 1264   0.136   5.456   5.470
  122SOL    HW1 1265   0.228   5.469   5.433
  122SOL    HW2 1266   0.097   5.371   5.432
  123SOL     OW 1267   0.742   2.078   1.040
  123SOL    HW1 1268   0.797   2.162   1.036
  123SOL    HW2 1269   0.774   2.021   1.116
  124SOL     OW 1270   1.992   3.683   6.685
  124SOL    HW1 1271   2.074   3.740   6.696
  124SOL    HW2 1272   1.980   3.625   6.765
  125SOL     OW 1273   3.900   3.325   1.905
  125SOL    HW1 1274   3.964   3.250   1.922
  125SOL    HW2 1275   3.902   3.348   1.807
  126SOL     OW 1276   3.829   3.323   5.279
  126SOL    HW1 1277   3.806   3.420   5.290
  126SOL    HW2 1278   3.745   3.268   5.287
  127SOL     OW 1279   0.402   4.272   6.100
  127SOL    HW1 1280   0.421   4.230   6.012
  127SOL    HW2 1281   0.482   4.325   6.130
  128SOL     OW 1282   4.849   4.409   6.363
  128SOL    HW1 1283   4.834   4.392   6.460
  128SOL    HW2 1284   4.852   4.507   6.346
  129SOL     OW 1285   0.793   5.319   2.478
  129SOL    HW1 1286   0.739   5.331   2.561
  129SOL    HW2 1287   0.790   5.404   2.425
  130SOL     OW 1288   6.447   4.134   5.001
  130SOL    HW1 1289   6.503   4.206   5.043
  130SOL    HW2 1290   6.502   4.082   4.936
  131SOL     OW 1291   0.531   3.030   2.051
  131SOL    HW1 1292   0.602   3.006   2.117
  131SOL    HW2 1293   0.531   2.965   1.975
  132SOL     OW 1294   3.714   3.978   2.050
  132SOL    HW1 1295   3.689   3.892   2.005
  132SOL    HW2 1296   3.733   4.048   1.980
  133SOL     OW 1297   4.484   4.182   5.751
  133SOL    HW1 1298   4.469   4.083   5.748
  133SOL    HW2 1299   4.428   4.223   5.823
  134SOL     OW 1300   0.410   2.183   6.813
  134SOL    HW1 1301   0.319   2.144   6.799
  134SOL    HW2 1302   0.445   2.153   6.902
  135SOL     OW 1303   4.273   4.981   3.808
  135SOL    HW1 1304   4.341   5.008   3.740
  135SOL    HW2 1305   4.256   4.882   3.801
  136SOL     OW 1306   3.387   5.908   6.260
  136SOL    HW1 1307   3.378   5.873   6.353
  136SOL    HW2 1308   3.480   5.939   6.244
  137SOL     OW 1309   1.890   4.437   6.728
  137SOL    HW1 1310   1.811   4.497   6.716
  137SOL    HW2 1311   1.918   4.437   6.824
  138SOL     OW 1312   0.331   6.638   1.674
  138SOL    HW1 1313   0.266   6.583   1.622
  138SOL    HW2 1314   0.421   6.595   1.672
  139SOL     OW 1315   1.410   0.156   1.154
  139SOL    HW1 1316   1.390   0.089   1.082
  139SOL    HW2 1317   1.387   0.116   1.243
  140SOL     OW 1318   2.929   0.152   3.169
  140SOL    HW1 1319   3.005   0.154   3.234
  140SOL    HW2 1320   2.955   0.097   3.090
  141SOL     OW 1321   2.319   1.850   0.135
  141SOL    HW1 1322   2.284   1.873   0.044
  141SOL    HW2 1323   2.330   1.933   0.189
  142SOL     OW 1324   1.634   4.498   5.984
  142SOL    HW1 1325   1.604   4.520   6.077
  142SOL    HW2 1326   1.558   4.510   5.921
  143SOL     OW 1327   4.906   6.213   2.337
  143SOL    HW1 1328   4.958   6.234   2.254
  143SOL    HW2 1329   4.852   6.293   2.363
  144SOL     OW 1330   2.593   4.907   2.949
  144SOL    HW1 1331   2.659   4.840   2.916
  144SOL    HW2 1332   2.504   4.888   2.907
  145SOL     OW 1333   6.138   6.143   2.619
  145SOL    HW1 1334   6.109   6.238   2.631
  145SOL    HW2 1335   6.234   6.134   2.645
  146SOL     OW 1336   6.531   1.417   4.346
  146SOL    HW1 1337   6.570   1.328   4.371
  146SOL    HW2 1338   6.433   1.406   4.329
  147SOL     OW 1339   6.094   6.681   5.590
  147SOL    HW1 1340   6.106   6.780   5.602
  147SOL    HW2 1341   6.104   6.636   5.679
  148SOL     OW 1342   1.802   6.978   3.597
  148SOL    HW1 1343   1.771   0.034   3.653
  148SOL    HW2 1344   1.729   6.910   3.590
  149SOL     OW 1345   1.904   2.194   5.003
  149SOL    HW1 1346   2.000   2.197   4.973
  149SOL    HW2 1347   1.900   2.173   5.100
  150SOL     OW 1348   5.237   3.150   4.832
  150SOL    HW1 1349   5.179   3.138   4.913
  150SOL    HW2 1350   5.187   3.118   4.751
  151SOL     OW 1351   6.055   2.995   1.739
  151SOL    HW1 1352   6.153   2.989   1.758
  151SOL    HW2 1353   6.037   2.962   1.646
  152SOL     OW 1354   6.156   1.557   0.124
  152SOL    HW1 1355   6.224   1.486   0.142
  152SOL    HW2 1356   6.116   1.541   0.034
  153SOL     OW 1357   1.985   2.046   3.882
  153SOL    HW1 1358   2.069   2.013   3.841
  153SOL    HW2 1359   1.909   2.035   3.818
  154SOL     OW 1360   0.087   2.208   3.702
  154SOL    HW1 1361   0.148   2.140   3.742
  154SOL    HW2 1362   0.000   2.209   3.751
  155SOL     OW 1363   6.108   5.158   3.498
  155SOL    HW1 1364   6.207   5.157   3.509
  155SOL    HW2 1365   6.071   5.242   3.538
  156SOL     OW 1366   4.743   6.907   1.118
  156SOL    HW1 1367   4.695   6.988   1.083
  156SOL    HW2 1368   4.676   6.837   1.144
  157SOL     OW 1369   5.610   0.988   0.581
  157SOL    HW1 1370   5.542   0.952   0.518
  157SOL    HW2 1371   5.592   1.085   0.597
  158SOL     OW 1372   1.222   2.530   5.639
  158SOL    HW1 1373   1.144   2.570   5.591
  158SOL    HW2 1374   1.190   2.486   5.723
  159SOL     OW 1375   0.135   5.031   6.434
  159SOL    HW1 1376   0.119   5.123   6.397
  159SOL    HW2 1377   0.200   4.983   6.375
  160SOL     OW 1378   4.338   6.885   2.000
  160SOL    HW1 1379   4.425   6.845   2.030
  160SOL    HW2 1380   4.351   6.933   1.914
  161SOL     OW 1381   5.684   6.405   1.055
  161SOL    HW1 1382   5.612   6.365   0.997
  161SOL    HW2 1383   5.673   6.370   1.149
  162SOL     OW 1384   3.988   6.962   5.250
  162SOL    HW1 1385   4.040   6.909   5.183
  162SOL    HW2 1386   3.969   0.032   5.213
  163SOL     OW 1387   1.262   3.568   2.848
  163SOL    HW1 1388   1.255   3.476   2.810
  163SOL    HW2 1389   1.183   3.585   2.907
  164SOL     OW 1390   1.629   2.569   1.977
  164SOL    HW1 1391   1.580   2.537   2.058
  164SOL    HW2 1392   1.671   2.491   1.931
  165SOL     OW 1393   0.337   5.828   5.015
  165SOL    HW1 1394   0.292   5.891   4.952
  165SOL    HW2 1395   0.432   5.814   4.986
  166SOL     OW 1396   0.681   5.304   3.807
  166SOL    HW1 1397   0.737   5.362   3.748
  166SOL    HW2 1398   0.608   5.263   3.753
  167SOL     OW 1399   0.331   1.491   3.359
  167SOL    HW1 1400   0.285   1.482   3.447
  167SOL    HW2 1401   0.312   1.410   3.303
  168SOL     OW 1402   3.488   4.176   4.810
  168SOL    HW1 1403   3.397   4.136   4.818
  168SOL    HW2 1404   3.483   4.261   4.757
  169SOL     OW 1405   4.923   2.839   5.759
  169SOL    HW1 1406   5.023   2.842   5.764
  169SOL    HW2 1407   4.885   2.850   5.850
  170SOL     OW 1408   5.890   5.287   2.788
  170SOL    HW1 1409   5.871   5.190   2.780
  170SOL    HW2 1410   5.832   5.338   2.725
  171SOL     OW 1411   3.635   2.925   0.923
  171SOL    HW1 1412   3.704   2.920   0.995
  171SOL    HW2 1413   3.562   2.859   0.943
  172SOL     OW 1414   1.990   0.875   0.153
  172SOL    HW1 1415   1.965   0.847   0.060
  172SOL    HW2 1416   1.949   0.813   0.219
  173SOL     OW 1417   5.459   0.668   5.002
  173SOL    HW1 1418   5.507   0.598   4.949
  173SOL    HW2 1419   5.394   0.715   4.943
  174SOL     OW 1420   6.289   4.993   3.863
  174SOL    HW1 1421   6.193   4.982   3.839
  174SOL    HW2 1422   6.302   5.078   3.913
  175SOL     OW 1423   0.535   5.207   2.007
  175SOL    HW1 1424   0.437   5.212   1.986
  175SOL    HW2 1425   0.569   5.298   2.030
  176SOL     OW 1426   6.010   3.733   0.705
  176SOL    HW1 1427   5.937   3.703   0.766
  176SOL    HW2 1428   6.038   3.657   0.646
  177SOL     OW 1429   5.455   2.234   3.523
  177SOL    HW1 1430   5.370   2.260   3.477
  177SOL    HW2 1431   5.457   2.135   3.535
  178SOL     OW 1432   1.436   5.534   4.499
  178SOL    HW1 1433   1.428   5.435   4.509
  178SOL    HW2 1434   1.458   5.575   4.587
  179SOL     OW 1435   3.049   4.100   1.961
  179SOL    HW1 1436   3.042   4.193   1.999
  179SOL    HW2 1437   3.023   4.034   2.031
  180SOL     OW 1438   4.937   0.548   6.055
  180SOL    HW1 1439   4.967   0.483   6.125
  180SOL    HW2 1440   4.919   0.637   6.097
  181SOL     OW 1441   3.313   6.048   5.452
  181SOL    HW1 1442   3.342   6.021   5.360
  181SOL    HW2 1443   3.370   6.124   5.485
  182SOL     OW 1444   3.279   2.660   5.315
  182SOL    HW1 1445   3.218   2.736   5.293
  182SOL    HW2 1446   3.244   2.576   5.273
  183SOL     OW 1447   1.721   0.763   2.553
  183SOL    HW1 1448   1.693   0.685   2.608
  183SOL    HW2 1449   1.750   0.732   2.462
  184SOL     OW 1450   5.471   6.511   3.846
  184SOL    HW1 1451   5.557   6.558   3.868
  184SOL    HW2 1452   5.395   6.574   3.858
  185SOL     OW 1453   0.657   5.997   5.406
  185SOL    HW1 1454   0.619   6.089   5.405
  185SOL    HW2 1455   0.618   5.945   5.330
  186SOL     OW 1456   3.350   5.105   0.814
  186SOL    HW1 1457   3.396   5.067   0.894
  186SOL    HW2 1458   3.281   5.041   0.782
  187SOL     OW 1459   4.202   5.421   0.396
  187SOL    HW1 1460   4.128   5.439   0.332
  187SOL    HW2 1461   4.288   5.409   0.346
  188SOL     OW 1462   1.367   4.390   3.649
  188SOL    HW1 1463   1.341   4.413   3.555
  188SOL    HW2 1464   1.313   4.446   3.712
  189SOL     OW 1465   6.187   3.790   5.866
  189SOL    HW1 1466   6.262   3.847   5.899
  189SOL    HW2 1467   6.107   3.803   5.925
  190SOL     OW 1468   6.166   6.415   6.812
  190SOL    HW1 1469   6.080   6.451   6.849
  190SOL    HW2 1470   6.221   6.376   6.886
  191SOL     OW 1471   1.934   3.698   6.249
  191SOL    HW1 1472   1.931   3.786   6.203
  191SOL    HW2 1473   1.973   3.629   6.188
  192SOL     OW 1474   0.940   6.628   0.740
  192SOL    HW1 1475   0.942   6.727   0.723
  192SOL    HW2 1476   0.845   6.599   0.755
  193SOL     OW 1477   2.707   6.879   1.848
  193SOL    HW1 1478   2.794   6.927   1.835
  193SOL    HW2 1479   2.632   6.945   1.845
  194SOL     OW 1480   4.264   6.491   3.505
  194SOL    HW1 1481   4.225   6.399   3.498
  194SOL    HW2 1482   4.232   6.547   3.428
  195SOL     OW 1483   3.195   1.127   1.407
  195SOL    HW1 1484   3.253   1.179   1.471
  195SOL    HW2 1485   3.209   1.161   1.314
  196SOL     OW 1486   3.883   3.071   1.692
  196SOL    HW1 1487   3.786   3.087   1.707
  196SOL    HW2 1488   3.901   3.065   1.593
  197SOL     OW 1489   1.034   0.186   1.159
  197SOL    HW1 1490   1.052   0.096   1.199
  197SOL    HW2 1491   0.938   0.210   1.172
  198SOL     OW 1492   6.200   0.481   5.099
  198SOL    HW1 1493   6.231   0.396   5.058
  198SOL    HW2 1494   6.239   0.490   5.191
  199SOL     OW 1495   1.554   0.847   2.836
  199SOL    HW1 1496   1.560   0.777   2.765
  199SOL    HW2 1497   1.576   0.937   2.797
  200SOL     OW 1498   1.592   3.309   3.504
  200SOL    HW1 1499   1.570   3.361   3.421
  200SOL    HW2 1500   1.682   3.337   3.537
  201SOL     OW 1501   5.290   1.097   6.723
  201SOL    HW1 1502   5.292   1.190   6.686
  201SOL    HW2 1503   5.370   1.047   6.689
  202SOL     OW 1504   4.095   0.656   2.802
  202SOL    HW1 1505   4.066   0.749   2.822
  202SOL    HW2 1506   4.122   0.649   2.706
  203SOL     OW 1507   5.868   3.092   0.696
  203SOL    HW1 1508   5.809   3.161   0.654
  203SOL    HW2 1509   5.963   3.108   0.669
  204SOL     OW 1510   2.269   5.806   0.770
  204SOL    HW1 1511   2.362   5.781   0.797
  204SOL    HW2 1512   2.205   5.775   0.840
  205SOL     OW 1513   5.311   0.614   0.886
  205SOL    HW1 1514   5.259   0.698   0.870
  205SOL    HW2 1515   5.255   0.549   0.936
  206SOL     OW 1516   0.187   6.023   1.588
  206SOL    HW1 1517   0.269   5.970   1.608
  206SOL    HW2 1518   0.106   5.969   1.612
  207SOL     OW 1519   6.415   2.739   6.207
  207SOL    HW1 1520   6.440   2.827   6.167
  207SOL    HW2 1521   6.364   2.686   6.139
  208SOL     OW 1522   5.016   3.476   1.348
  208SOL    HW1 1523   5.106   3.445   1.378
  208SOL    HW2 1524   4.947   3.410   1.375
  209SOL     OW 1525   6.490   0.634   3.977
  209SOL    HW1 1526   6.568   0.594   3.930
  209SOL    HW2 1527   6.449   0.706   3.920
  210SOL     OW 1528   5.246   2.704   6.534
  210SOL    HW1 1529   5.325   2.764   6.536
  210SOL    HW2 1530   5.244   2.654   6.447
  211SOL     OW 1531   0.083   4.877   2.077
  211SOL    HW1 1532   0.113   4.783   2.061
  211SOL    HW2 1533   0.050   4.917   1.992
  212SOL     OW 1534   1.036   5.307   5.196
  212SOL    HW1 1535   1.135   5.303   5.204
  212SOL    HW2 1536   1.004   5.398   5.221
  213SOL     OW 1537   4.516   2.181   1.144
  213SOL    HW1 1538   4.478   2.273   1.157
  213SOL    HW2 1539   4.565   2.154   1.228
  214SOL     OW 1540   7.006   5.502   3.768
  214SOL    HW1 1541   6.939   5.497   3.842
  214SOL    HW2 1542   0.066   5.447   3.792
  215SOL     OW 1543   3.840   3.307   3.213
  215SOL    HW1 1544   3.916   3.268   3.159
  215SOL    HW2 1545   3.795   3.234   3.264
  216SOL     OW 1546   3.916   6.620   4.692
  216SOL    HW1 1547   3.919   6.697   4.627
  216SOL    HW2 1548   3.957   6.648   4.779
  217SOL     OW 1549   6.318   1.966   4.792
  217SOL    HW1 1550   6.269   1.933   4.872
  217SOL    HW2 1551   6.275   2.049   4.757
  218SOL     OW 1552   2.347   4.583   5.580
  218SOL    HW1 1553   2.400   4.621   5.505
  218SOL    HW2 1554   2.351   4.644   5.659
  219SOL     OW 1555   3.589   6.854   6.664
  219SOL    HW1 1556   3.652   6.811   6.729
  219SOL    HW2 1557   3.544   6.783   6.609
  220SOL     OW 1558   1.063   5.161   0.250
  220SOL    HW1 1559   1.158   5.144   0.224
  220SOL    HW2 1560   1.023   5.229   0.189
  221SOL     OW 1561   6.261   4.502   4.401
  221SOL    HW1 1562   6.355   4.469   4.412
  221SOL    HW2 1563   6.210   4.485   4.486
  222SOL     OW 1564   1.317   0.229   4.609
  222SOL    HW1 1565   1.290   0.135   4.590
  222SOL    HW2 1566   1.336   0.240   4.706
  223SOL     OW 1567   5.679   5.368   1.684
  223SOL    HW1 1568   5.606   5.300   1.675
  223SOL    HW2 1569   5.682   5.424   1.602
  224SOL     OW 1570   5.413   4.311   2.386
  224SOL    HW1 1571   5.419   4.211   2.387
  224SOL    HW2 1572   5.400   4.345   2.479
  225SOL     OW 1573   4.436   6.275   1.324
  225SOL    HW1 1574   4.425   6.368   1.360
  225SOL    HW2 1575   4.353   6.222   1.343
  226SOL     OW 1576   1.684   5.329   2.665
  226SOL    HW1 1577   1.665   5.232   2.651
  226SOL    HW2 1578   1.668   5.379   2.580
  227SOL     OW 1579   0.896   3.591   3.083
  227SOL    HW1 1580   0.857   3.605   3.174
  227SOL    HW2 1581   0.827   3.551   3.023
  228SOL     OW 1582   3.682   5.310   3.148
  228SOL    HW1 1583   3.631   5.359   3.078
  228SOL    HW2 1584   3.778   5.304   3.122
  229SOL     OW 1585   5.824   6.381   2.245
  229SOL    HW1 1586   5.889   6.428   2.304
  229SOL    HW2 1587   5.861   6.291   2.221
  230SOL     OW 1588   1.066   4.578   5.035
  230SOL    HW1 1589   1.000   4.528   4.978
  230SOL    HW2 1590   1.096   4.660   4.988
  231SOL     OW 1591   0.139   2.046   6.791
  231SOL    HW1 1592   0.189   1.962   6.769
  231SOL    HW2 1593   0.056   2.023   6.842
  232SOL     OW 1594   1.723   3.261   0.372
  232SOL    HW1 1595   1.723   3.225   0.466
  232SOL    HW2 1596   1.785   3.339   0.366
  233SOL     OW 1597   3.593   0.175   0.756
  233SOL    HW1 1598   3.525   0.111   0.792
  233SOL    HW2 1599   3.634   0.137   0.673
  234SOL     OW 1600   1.577   5.201   0.546
  234SOL    HW1 1601   1.649   5.223   0.481
  234SOL    HW2 1602   1.534   5.115   0.520
  235SOL     OW 1603   4.498   2.902   5.677
  235SOL    HW1 1604   4.407   2.867   5.657
  235SOL    HW2 1605   4.492   2.998   5.705
  236SOL     OW 1606   6.956   0.267   6.693
  236SOL    HW1 1607   6.864   0.307   6.695
  236SOL    HW2 1608   6.981   0.238   6.785
  237SOL     OW 1609   5.912   0.770   2.507
  237SOL    HW1 1610   5.827   0.717   2.513
  237SOL    HW2 1611   5.913   0.839   2.580
  238SOL     OW 1612   0.284   2.119   3.214
  238SOL    HW1 1613   0.188   2.091   3.210
  238SOL    HW2 1614   0.334   2.076   3.139
  239SOL     OW 1615   6.415   4.793   6.358
  239SOL    HW1 1616   6.361   4.714   6.387
  239SOL    HW2 1617   6.411   4.863   6.429
  240SOL     OW 1618   0.359   2.749   4.456
  240SOL    HW1 1619   0.314   2.676   4.509
  240SOL    HW2 1620   0.340   2.837   4.499
  241SOL     OW 1621   6.082   2.638   4.278
  241SOL    HW1 1622   6.086   2.732   4.312
  241SOL    HW2 1623   6.008   2.589   4.323
  242SOL     OW 1624   2.547   2.468   3.393
  242SOL    HW1 1625   2.524   2.370   3.393
  242SOL    HW2 1626   2.626   2.483   3.453
  243SOL     OW 1627   5.136   1.238   6.379
  243SOL    HW1 1628   5.223   1.288   6.374
  243SOL    HW2 1629   5.152   1.149   6.422
  244SOL     OW 1630   1.670   0.647   5.688
  244SOL    HW1 1631   1.662   0.712   5.612
  244SOL    HW2 1632   1.730   0.685   5.758
  245SOL     OW 1633   5.277   1.789   4.675
  245SOL    HW1 1634   5.344   1.860   4.655
  245SOL    HW2 1635   5.207   1.787   4.603
  246SOL     OW 1636   5.467   3.939   4.594
  246SOL    HW1 1637   5.421   4.028   4.600
  246SOL    HW2 1638   5.488   3.919   4.498
  247SOL     OW 1639   1.770   0.204   2.844
  247SOL    HW1 1640   1.708   0.162   2.778
  247SOL    HW2 1641   1.848   0.245   2.797
  248SOL     OW 1642   6.630   2.297   3.180
  248SOL    HW1 1643   6.539   2.277   3.216
  248SOL    HW2 1644   6.674   2.212   3.151
  249SOL     OW 1645   1.890   6.388   4.761
  249SOL    HW1 1646   1.842   6.411   4.845
  249SOL    HW2 1647   1.848   6.434   4.683
  250SOL     OW 1648   5.835   2.426   6.972
  250SOL    HW1 1649   5.908   2.366   7.004
  250SOL    HW2 1650   5.815   2.495   0.021
  251SOL     OW 1651   2.381   0.239   2.747
  251SOL    HW1 1652   2.478   0.233   2.773
  251SOL    HW2 1653   2.375   0.272   2.653
  252SOL     OW 1654   6.845   3.293   6.721
  252SOL    HW1 1655   6.854   3.308   6.820
  252SOL    HW2 1656   6.753   3.317   6.692
  253SOL     OW 1657   1.934   4.729   5.318
  253SOL    HW1 1658   1.835   4.732   5.332
  253SOL    HW2 1659   1.980   4.751   5.404
  254SOL     OW 1660   5.010   3.338   7.009
  254SOL    HW1 1661   4.925   3.349   0.041
  254SOL    HW2 1662   5.050   3.248   0.008
  255SOL     OW 1663   4.227   2.255   1.786
  255SOL    HW1 1664   4.129   2.266   1.766
  255SOL    HW2 1665   4.278   2.327   1.738
  256SOL     OW 1666   0.510   6.213   1.073
  256SOL    HW1 1667   0.589   6.260   1.035
  256SOL    HW2 1668   0.451   6.279   1.120
  257SOL     OW 1669   3.031   6.022   6.475
  257SOL    HW1 1670   3.104   5.966   6.517
  257SOL    HW2 1671   2.960   6.039   6.543
  258SOL     OW 1672   5.002   5.457   4.198
  258SOL    HW1 1673   5.047   5.507   4.272
  258SOL    HW2 1674   4.996   5.516   4.117
  259SOL     OW 1675   6.752   1.157   1.721
  259SOL    HW1 1676   6.691   1.094   1.770
  259SOL    HW2 1677   6.811   1.105   1.659
  260SOL     OW 1678   6.156   7.008   6.042
  260SOL    HW1 1679   6.073   0.044   6.039
  260SOL    HW2 1680   6.191   7.006   6.136
  261SOL     OW 1681   0.047   1.038   3.167
  261SOL    HW1 1682   0.051   0.941   3.192
  261SOL    HW2 1683   7.000   1.051   3.094
  262SOL     OW 1684   1.966   5.485   0.719
  262SOL    HW1 1685   2.060   5.463   0.744
  262SOL    HW2 1686   1.905   5.412   0.750
  263SOL     OW 1687   1.258   4.865   5.232
  263SOL    HW1 1688   1.196   4.804   5.281
  263SOL    HW2 1689   1.331   4.811   5.190
  264SOL     OW 1690   3.994   3.814   0.857
  264SOL    HW1 1691   4.000   3.760   0.941
  264SOL    HW2 1692   3.934   3.768   0.792
  265SOL     OW 1693   3.890   5.863   4.149
  265SOL    HW1 1694   3.819   5.795   4.166
  265SOL    HW2 1695   3.963   5.821   4.094
  266SOL     OW 1696   4.711   3.881   6.955
  266SOL    HW1 1697   4.699   3.831   0.020
  266SOL    HW2 1698   4.716   3.979   6.973
  267SOL     OW 1699   2.584   2.239   6.391
  267SOL    HW1 1700   2.573   2.140   6.395
  267SOL    HW2 1701   2.681   2.262   6.396
  268SOL     OW 1702   1.597   4.046   2.479
  268SOL    HW1 1703   1.614   4.049   2.380
  268SOL    HW2 1704   1.622   4.134   2.520
  269SOL     OW 1705   2.727   1.672   5.479
  269SOL    HW1 1706   2.763   1.679   5.572
  269SOL    HW2 1707   2.745   1.580   5.443
  270SOL     OW 1708   5.466   5.383   4.549
  270SOL    HW1 1709   5.470   5.477   4.515
  270SOL    HW2 1710   5.558   5.353   4.576
  271SOL     OW 1711   2.598   0.360   0.079
  271SOL    HW1 1712   2.634   0.315   0.161
  271SOL    HW2 1713   2.539   0.436   0.105
  272SOL     OW 1714   5.889   4.632   6.892
  272SOL    HW1 1715   5.958   4.699   6.864
  272SOL    HW2 1716   5.800   4.659   6.856
  273SOL     OW 1717   0.438   5.657   4.005
  273SOL    HW1 1718   0.421   5.702   3.918
  273SOL    HW2 1719   0.518   5.597   3.997
  274SOL     OW 1720   4.998   3.081   2.273
  274SOL    HW1 1721   4.946   3.125   2.199
  274SOL    HW2 1722   5.090   3.121   2.277
  275SOL     OW 1723   5.810   5.018   5.657
  275SOL    HW1 1724   5.835   5.115   5.654
  275SOL    HW2 1725   5.712   5.009   5.675
  276SOL     OW 1726   0.843   0.408   4.521
  276SOL    HW1 1727   0.845   0.376   4.427
  276SOL    HW2 1728   0.894   0.493   4.529
  277SOL     OW 1729   4.019   3.234   5.709
  277SOL    HW1 1730   4.091   3.172   5.679
  277SOL    HW2 1731   4.029   3.322   5.662
  278SOL     OW 1732   5.913   4.898   1.978
  278SOL    HW1 1733   5.964   4.947   2.049
  278SOL    HW2 1734   5.818   4.929   1.978
  279SOL     OW 1735   6.481   3.394   4.035
  279SOL    HW1 1736   6.546   3.372   4.108
  279SOL    HW2 1737   6.522   3.373   3.946
  280SOL     OW 1738   4.400   1.359   2.512
  280SOL    HW1 1739   4.324   1.422   2.498
  280SOL    HW2 1740   4.474   1.381   2.449
  281SOL     OW 1741   5.156   5.629   5.799
  281SOL    HW1 1742   5.063   5.617   5.834
  281SOL    HW2 1743   5.153   5.668   5.708
  282SOL     OW 1744   0.600   1.557   0.248
  282SOL    HW1 1745   0.669   1.611   0.200
  282SOL    HW2 1746   0.642   1.515   0.330
  283SOL     OW 1747   6.446   4.102   2.001
  283SOL    HW1 1748   6.361   4.092   1.949
  283SOL    HW2 1749   6.427   4.090   2.098
  284SOL     OW 1750   5.695   6.877   2.530
  284SOL    HW1 1751   5.739   6.836   2.610
  284SOL    HW2 1752   5.716   6.974   2.526
  285SOL     OW 1753   4.963   5.864   6.133
  285SOL    HW1 1754   4.872   5.823   6.123
  285SOL    HW2 1755   5.015   5.851   6.049
  286SOL     OW 1756   3.603   5.704   5.275
  286SOL    HW1 1757   3.519   5.653   5.296
  286SOL    HW2 1758   3.673   5.642   5.243
  287SOL     OW 1759   4.303   6.650   0.996
  287SOL    HW1 1760   4.341   6.558   0.986
  287SOL    HW2 1761   4.236   6.650   1.071
  288SOL     OW 1762   3.663   0.825   0.458
  288SOL    HW1 1763   3.686   0.919   0.482
  288SOL    HW2 1764   3.747   0.775   0.434
  289SOL     OW 1765   5.281   5.331   5.240
  289SOL    HW1 1766   5.201   5.272   5.246
  289SOL    HW2 1767   5.262   5.418   5.285
  290SOL     OW 1768   2.696   1.119   4.662
  290SOL    HW1 1769   2.599   1.103   4.683
  290SOL    HW2 1770   2.752   1.078   4.734
  291SOL     OW 1771   6.028   1.241   4.859
  291SOL    HW1 1772   5.999   1.148   4.836
  291SOL    HW2 1773   6.128   1.243   4.868
  292SOL     OW 1774   2.147   0.672   3.778
  292SOL    HW1 1775   2.179   0.657   3.684
  292SOL    HW2 1776   2.225   0.683   3.839
  293SOL     OW 1777   5.604   0.747   3.318
  293SOL    HW1 1778   5.662   0.680   3.273
  293SOL    HW2 1779   5.558   0.706   3.397
  294SOL     OW 1780   6.858   0.857   6.466
  294SOL    HW1 1781   6.811   0.773   6.494
  294SOL    HW2 1782   6.799   0.909   6.405
  295SOL     OW 1783   0.712   0.928   5.061
  295SOL    HW1 1784   0.732   0.839   5.102
  295SOL    HW2 1785   0.746   1.001   5.121
  296SOL     OW 1786   0.003   1.615   6.915
  296SOL    HW1 1787   7.011   1.558   6.997
  296SOL    HW2 1788   0.099   1.613   6.887
  297SOL     OW 1789   5.258   4.392   3.168
  297SOL    HW1 1790   5.303   4.468   3.216
  297SOL    HW2 1791   5.163   4.384   3.200
  298SOL     OW 1792   4.226   6.273   5.561
  298SOL    HW1 1793   4.248   6.294   5.466
  298SOL    HW2 1794   4.176   6.349   5.602
  299SOL     OW 1795   6.976   1.281   6.039
  299SOL    HW1 1796   0.032   1.346   6.031
  299SOL    HW2 1797   6.951   1.271   6.136
  300SOL     OW 1798   4.112   6.547   4.261
  300SOL    HW1 1799   4.030   6.518   4.310
  300SOL    HW2 1800   4.090   6.626   4.203
  301SOL     OW 1801   6.670   6.821   5.369
  301SOL    HW1 1802   6.592   6.883   5.367
  301SOL    HW2 1803   6.654   6.750   5.437
  302SOL     OW 1804   0.942   6.683   1.921
  302SOL    HW1 1805   1.020   6.740   1.894
  302SOL    HW2 1806   0.971   6.619   1.992
  303SOL     OW 1807   4.640   5.459   2.764
  303SOL    HW1 1808   4.564   5.408   2.723
  303SOL    HW2 1809   4.607   5.511   2.842
  304SOL     OW 1810   1.412   1.578   5.152
  304SOL    HW1 1811   1.398   1.553   5.057
  304SOL    HW2 1812   1.459   1.504   5.199
  305SOL     OW 1813   2.821   1.628   0.876
  305SOL    HW1 1814   2.909   1.592   0.908
  305SOL    HW2 1815   2.749   1.598   0.939
  306SOL     OW 1816   0.596   6.567   2.792
  306SOL    HW1 1817   0.574   6.619   2.874
  306SOL    HW2 1818   0.695   6.559   2.783
  307SOL     OW 1819   4.031   3.246   4.706
  307SOL    HW1 1820   4.068   3.331   4.742
  307SOL    HW2 1821   4.084   3.217   4.626
  308SOL     OW 1822   6.141   3.139   0.669
  308SOL    HW1 1823   6.124   3.135   0.768
  308SOL    HW2 1824   6.185   3.054   0.640
  309SOL     OW 1825   1.987   5.305   0.102
  309SOL    HW1 1826   1.983   5.402   0.077
  309SOL    HW2 1827   2.018   5.252   0.023
  310SOL     OW 1828   4.813   6.139   5.661
  310SOL    HW1 1829   4.911   6.116   5.659
  310SOL    HW2 1830   4.763   6.077   5.601
  311SOL     OW 1831   1.655   6.154   2.085
  311SOL    HW1 1832   1.609   6.129   2.170
  311SOL    HW2 1833   1.600   6.222   2.036
  312SOL     OW 1834   3.515   0.293   4.455
  312SOL    HW1 1835   3.591   0.314   4.393
  312SOL    HW2 1836   3.490   0.375   4.505
  313SOL     OW 1837   3.433   3.009   3.679
  313SOL    HW1 1838   3.512   3.060   3.647
  313SOL    HW2 1839   3.365   3.002   3.606
  314SOL     OW 1840   2.233   4.335   6.392
  314SOL    HW1 1841   2.141   4.334   6.431
  314SOL    HW2 1842   2.289   4.266   6.437
  315SOL     OW 1843   5.940   6.876   4.571
  315SOL    HW1 1844   5.890   6.789   4.581
  315SOL    HW2 1845   5.876   6.949   4.550
  316SOL     OW 1846   4.055   1.038   4.689
  316SOL    HW1 1847   4.113   0.976   4.742
  316SOL    HW2 1848   3.975   1.064   4.744
  317SOL     OW 1849   0.522   0.815   2.191
  317SOL    HW1 1850   0.476   0.802   2.103
  317SOL    HW2 1851   0.462   0.782   2.264
  318SOL     OW 1852   1.231   1.730   3.963
  318SOL    HW1 1853   1.303   1.795   3.938
  318SOL    HW2 1854   1.152   1.743   3.903
  319SOL     OW 1855   0.331   1.931   2.029
  319SOL    HW1 1856   0.257   1.963   2.087
  319SOL    HW2 1857   0.388   1.866   2.080
  320SOL     OW 1858   5.151   0.991   6.521
  320SOL    HW1 1859   5.065   0.942   6.538
  320SOL    HW2 1860   5.185   1.028   6.608
  321SOL     OW 1861   4.576   3.334   0.982
  321SOL    HW1 1862   4.537   3.309   0.893
  321SOL    HW2 1863   4.620   3.254   1.022
  322SOL     OW 1864   3.365   2.290   0.088
  322SOL    HW1 1865   3.308   2.209   0.098
  322SOL    HW2 1866   3.307   2.371   0.075
  323SOL     OW 1867   0.408   4.327   1.429
  323SOL    HW1 1868   0.508   4.325   1.434
  323SOL    HW2 1869   0.376   4.421   1.434
  324SOL     OW 1870   6.728   0.507   3.560
  324SOL    HW1 1871   6.692   0.558   3.481
  324SOL    HW2 1872   6.752   0.415   3.532
  325SOL     OW 1873   6.440   2.980   0.686
  325SOL    HW1 1874   6.390   2.939   0.761
  325SOL    HW2 1875   6.528   2.934   0.676
  326SOL     OW 1876   6.020   5.824   6.230
  326SOL    HW1 1877   5.930   5.856   6.203
  326SOL    HW2 1878   6.019   5.724   6.239
  327SOL     OW 1879   4.057   5.935   6.464
  327SOL    HW1 1880   4.018   5.844   6.473
  327SOL    HW2 1881   4.000   6.001   6.515
  328SOL     OW 1882   2.380   4.277   3.570
  328SOL    HW1 1883   2.412   4.356   3.622
  328SOL    HW2 1884   2.455   4.241   3.515
  329SOL     OW 1885   3.167   2.938   2.988
  329SOL    HW1 1886   3.085   2.881   2.991
  329SOL    HW2 1887   3.166   2.992   2.903
  330SOL     OW 1888   1.729   3.558   6.623
  330SOL    HW1 1889   1.661   3.631   6.625
  330SOL    HW2 1890   1.821   3.597   6.612
  331SOL     OW 1891   4.766   5.652   3.980
  331SOL    HW1 1892   4.861   5.628   3.963
  331SOL    HW2 1893   4.716   5.571   4.012
  332SOL     OW 1894   6.044   2.251   2.891
  332SOL    HW1 1895   5.962   2.219   2.939
  332SOL    HW2 1896   6.018   2.304   2.810
  333SOL     OW 1897   3.093   5.871   3.892
  333SOL    HW1 1898   3.011   5.869   3.948
  333SOL    HW2 1899   3.170   5.904   3.946
  334SOL     OW 1900   3.777   3.255   3.789
  334SOL    HW1 1901   3.786   3.157   3.774
  334SOL    HW2 1902   3.820   3.305   3.714
  335SOL     OW 1903   4.243   1.560   0.092
  335SOL    HW1 1904   4.298   1.626   0.144
  335SOL    HW2 1905   4.165   1.607   0.051
  336SOL     OW 1906   3.772   1.864   4.603
  336SOL    HW1 1907   3.759   1.948   4.656
  336SOL    HW2 1908   3.747   1.880   4.508
  337SOL     OW 1909   1.166   1.741   5.230
  337SOL    HW1 1910   1.262   1.717   5.218
  337SOL    HW2 1911   1.139   1.809   5.161
  338SOL     OW 1912   5.384   1.509   1.407
  338SOL    HW1 1913   5.320   1.575   1.447
  338SOL    HW2 1914   5.475   1.549   1.403
  339SOL     OW 1915   3.269   4.954   5.544
  339SOL    HW1 1916   3.355   4.991   5.509
  339SOL    HW2 1917   3.227   5.020   5.606
  340SOL     OW 1918   5.359   4.385   4.751
  340SOL    HW1 1919   5.451   4.354   4.728
  340SOL    HW2 1920   5.353   4.400   4.850
  341SOL     OW 1921   5.960   0.260   1.832
  341SOL    HW1 1922   5.991   0.321   1.760
  341SOL    HW2 1923   5.902   0.188   1.792
  342SOL     OW 1924   4.785   0.525   1.173
  342SOL    HW1 1925   4.743   0.518   1.264
  342SOL    HW2 1926   4.760   0.611   1.131
  343SOL     OW 1927   5.518   0.574   1.982
  343SOL    HW1 1928   5.592   0.579   1.914
  343SOL    HW2 1929   5.431   0.599   1.939
  344SOL     OW 1930   6.318   3.011   1.740
  344SOL    HW1 1931   6.394   2.947   1.728
  344SOL    HW2 1932   6.312   3.071   1.660
  345SOL     OW 1933   0.169   3.293   3.796
  345SOL    HW1 1934   0.163   3.214   3.735
  345SOL    HW2 1935   0.130   3.374   3.751
  346SOL     OW 1936   0.389   0.495   3.600
  346SOL    HW1 1937   0.306   0.511   3.654
  346SOL    HW2 1938   0.406   0.396   3.594
  347SOL     OW 1939   1.919   4.122   1.531
  347SOL    HW1 1940   1.923   4.216   1.564
  347SOL    HW2 1941   1.824   4.093   1.523
  348SOL     OW 1942   5.978   4.788   0.883
  348SOL    HW1 1943   5.943   4.877   0.914
  348SOL    HW2 1944   5.961   4.719   0.953
  349SOL     OW 1945   6.234   5.137   6.650
  349SOL    HW1 1946   6.328   5.165   6.633
  349SOL    HW2 1947   6.192   5.198   6.718
  350SOL     OW 1948   2.819   0.373   0.697
  350SOL    HW1 1949   2.735   0.417   0.728
  350SOL    HW2 1950   2.876   0.349   0.777
  351SOL     OW 1951   3.657   4.029   1.233
  351SOL    HW1 1952   3.719   3.958   1.268
  351SOL    HW2 1953   3.609   4.072   1.309
  352SOL     OW 1954   3.951   0.742   2.449
  352SOL    HW1 1955   4.044   0.774   2.433
  352SOL    HW2 1956   3.927   0.756   2.545
  353SOL     OW 1957   2.662   6.276   0.547
  353SOL    HW1 1958   2.609   6.326   0.479
  353SOL    HW2 1959   2.600   6.233   0.613
  354SOL     OW 1960   2.273   2.260   0.632
  354SOL    HW1 1961   2.347   2.316   0.671
  354SOL    HW2 1962   2.211   2.319   0.581
  355SOL     OW 1963   0.003   2.481   2.651
  355SOL    HW1 1964   6.967   2.432   2.586
  355SOL    HW2 1965   6.986   2.469   2.743
  356SOL     OW 1966   2.739   0.112   6.009
  356SOL    HW1 1967   2.702   0.033   5.960
  356SOL    HW2 1968   2.801   0.081   6.081
  357SOL     OW 1969   6.238   6.108   4.421
  357SOL    HW1 1970   6.280   6.195   4.447
  357SOL    HW2 1971   6.248   6.042   4.496
  358SOL     OW 1972   3.359   6.057   0.036
  358SOL    HW1 1973   3.402   5.976   0.075
  358SOL    HW2 1974   3.416   6.137   0.052
  359SOL     OW 1975   2.094   2.346   0.880
  359SOL    HW1 1976   2.167   2.316   0.820
  359SOL    HW2 1977   2.045   2.423   0.838
  360SOL     OW 1978   1.675   4.532   2.760
  360SOL    HW1 1979   1.603   4.598   2.739
  360SOL    HW2 1980   1.663   4.450   2.704
  361SOL     OW 1981   6.153   3.114   2.384
  361SOL    HW1 1982   6.116   3.109   2.292
  361SOL    HW2 1983   6.237   3.170   2.383
  362SOL     OW 1984   4.069   3.555   2.824
  362SOL    HW1 1985   4.149   3.579   2.878
  362SOL    HW2 1986   4.050   3.457   2.833
  363SOL     OW 1987   4.559   5.600   1.314
  363SOL    HW1 1988   4.556   5.501   1.300
  363SOL    HW2 1989   4.645   5.636   1.278
  364SOL     OW 1990   1.098   0.657   6.991
  364SOL    HW1 1991   1.174   0.722   6.991
  364SOL    HW2 1992   1.116   0.586   0.038
  365SOL     OW 1993   5.081   0.496   3.978
  365SOL    HW1 1994   5.102   0.569   3.913
  365SOL    HW2 1995   4.986   0.467   3.966
  366SOL     OW 1996   5.663   1.365   6.973
  366SOL    HW1 1997   5.717   1.421   0.016
  366SOL    HW2 1998   5.688   1.269   6.984
  367SOL     OW 1999   6.430   6.802   6.893
  367SOL    HW1 2000   6.459   6.729   6.832
  367SOL    HW2 2001   6.330   6.802   6.902
  368SOL     OW 2002   2.709   1.278   5.558
  368SOL    HW1 2003   2.771   1.202   5.544
  368SOL    HW2 2004   2.714   1.341   5.481
  369SOL     OW 2005   5.022   3.634   6.961
  369SOL    HW1 2006   5.047   3.538   6.976
  369SOL    HW2 2007   4.966   3.641   6.878
  370SOL     OW 2008   1.696   2.006   3.928
  370SOL    HW1 2009   1.703   2.088   3.871
  370SOL    HW2 2010   1.609   1.960   3.909
  371SOL     OW 2011   2.717   4.944   0.691
  371SOL    HW1 2012   2.769   4.980   0.768
  371SOL    HW2 2013   2.635   5.000   0.677
  372SOL     OW 2014   2.731   5.908   5.924
  372SOL    HW1 2015   2.788   5.868   5.996
  372SOL    HW2 2016   2.762   6.001   5.905
  373SOL     OW 2017   5.246   4.242   2.932
  373SOL    HW1 2018   5.259   4.293   3.017
  373SOL    HW2 2019   5.308   4.163   2.931
  374SOL     OW 2020   2.047   2.567   2.380
  374SOL    HW1 2021   2.047   2.504   2.301
  374SOL    HW2 2022   2.108   2.644   2.361
  375SOL     OW 2023   0.024   5.020   4.153
  375SOL    HW1 2024   0.114   5.057   4.175
  375SOL    HW2 2025   0.010   5.022   4.054
  376SOL     OW 2026   4.848   0.516   3.396
  376SOL    HW1 2027   4.822   0.609   3.370
  376SOL    HW2 2028   4.858   0.460   3.314
  377SOL     OW 2029   2.533   3.344   6.246
  377SOL    HW1 2030   2.467   3.309   6.180
  377SOL    HW2 2031   2.488   3.407   6.309
  378SOL     OW 2032   4.134   0.960   1.342
  378SOL    HW1 2033   4.121   0.898   1.265
  378SOL    HW2 2034   4.044   0.986   1.379
  379SOL     OW 2035   3.155   3.665   0.798
  379SOL    HW1 2036   3.191   3.612   0.876
  379SOL    HW2 2037   3.130   3.603   0.725
  380SOL     OW 2038   5.008   1.567   6.838
  380SOL    HW1 2039   5.099   1.529   6.824
  380SOL    HW2 2040   4.954   1.557   6.755
  381SOL     OW 2041   0.427   3.276   1.994
  381SOL    HW1 2042   0.330   3.254   2.001
  381SOL    HW2 2043   0.481   3.193   2.011
  382SOL     OW 2044   6.393   6.974   0.801
  382SOL    HW1 2045   6.377   0.051   0.820
  382SOL    HW2 2046   6.490   6.959   0.785
  383SOL     OW 2047   5.447   3.195   1.084
  383SOL    HW1 2048   5.444   3.114   1.025
  383SOL    HW2 2049   5.531   3.246   1.067
  384SOL     OW 2050   1.161   2.905   4.591
  384SOL    HW1 2051   1.238   2.906   4.655
  384SOL    HW2 2052   1.176   2.833   4.523
  385SOL     OW 2053   4.865   2.838   6.997
  385SOL    HW1 2054   4.914   2.817   6.912
  385SOL    HW2 2055   4.819   2.926   6.988
  386SOL     OW 2056   3.344   5.974   5.170
  386SOL    HW1 2057   3.295   6.022   5.097
  386SOL    HW2 2058   3.305   5.883   5.182
  387SOL     OW 2059   1.588   6.443   3.633
  387SOL    HW1 2060   1.656   6.381   3.670
  387SOL    HW2 2061   1.501   6.395   3.623
  388SOL     OW 2062   1.596   5.592   5.634
  388SOL    HW1 2063   1.598   5.591   5.734
  388SOL    HW2 2064   1.668   5.532   5.598
  389SOL     OW 2065   3.933   2.255   6.522
  389SOL    HW1 2066   4.001   2.228   6.591
  389SOL    HW2 2067   3.884   2.336   6.553
  390SOL     OW 2068   3.142   1.550   3.711
  390SOL    HW1 2069   3.132   1.497   3.795
  390SOL    HW2 2070   3.072   1.621   3.708
  391SOL     OW 2071   0.704   0.940   0.695
  391SOL    HW1 2072   0.659   1.015   0.646
  391SOL    HW2 2073   0.757   0.885   0.631
  392SOL     OW 2074   4.113   5.591   4.250
  392SOL    HW1 2075   4.064   5.505   4.265
  392SOL    HW2 2076   4.113   5.612   4.152
  393SOL     OW 2077   5.519   2.815   5.934
  393SOL    HW1 2078   5.552   2.735   5.884
  393SOL    HW2 2079   5.434   2.848   5.893
  394SOL     OW 2080   2.320   1.272   6.846
  394SOL    HW1 2081   2.381   1.291   6.769
  394SOL    HW2 2082   2.286   1.358   6.884
  395SOL     OW 2083   0.014   3.055   0.735
  395SOL    HW1 2084   6.949   3.018   0.772
  395SOL    HW2 2085   7.013   3.122   0.663
  396SOL     OW 2086   4.257   2.742   5.596
  396SOL    HW1 2087   4.244   2.643   5.607
  396SOL    HW2 2088   4.198   2.775   5.522
  397SOL     OW 2089   4.758   6.992   6.659
  397SOL    HW1 2090   4.704   7.017   6.740
  397SOL    HW2 2091   4.749   6.894   6.641
  398SOL     OW 2092   5.964   4.105   2.386
  398SOL    HW1 2093   5.955   4.169   2.462
  398SOL    HW2 2094   5.985   4.155   2.302
  399SOL     OW 2095   2.582   5.864   1.503
  399SOL    HW1 2096   2.534   5.776   1.505
  399SOL    HW2 2097   2.636   5.869   1.419
  400SOL     OW 2098   2.088   4.780   5.517
  400SOL    HW1 2099   2.185   4.806   5.525
  400SOL    HW2 2100   2.053   4.754   5.607
  401SOL     OW 2101   6.250   1.327   1.317
  401SOL    HW1 2102   6.349   1.332   1.327
  401SOL    HW2 2103   6.206   1.382   1.388
  402SOL     OW 2104   0.384   5.553   0.830
  402SOL    HW1 2105   0.483   5.569   0.828
  402SOL    HW2 2106   0.345   5.599   0.910
  403SOL     OW 2107   5.344   4.505   0.247
  403SOL    HW1 2108   5.343   4.435   0.318
  403SOL    HW2 2109   5.328   4.595   0.289
  404SOL     OW 2110   6.821   5.906   4.628
  404SOL    HW1 2111   6.845   5.983   4.569
  404SOL    HW2 2112   6.895   5.838   4.626
  405SOL     OW 2113   1.276   1.287   1.757
  405SOL    HW1 2114   1.269   1.383   1.783
  405SOL    HW2 2115   1.365   1.269   1.715
  406SOL     OW 2116   1.461   3.284   3.811
  406SOL    HW1 2117   1.480   3.327   3.723
  406SOL    HW2 2118   1.425   3.192   3.796
  407SOL     OW 2119   3.118   2.002   3.977
  407SOL    HW1 2120   3.077   1.997   3.886
  407SOL    HW2 2121   3.071   2.071   4.031
  408SOL     OW 2122   2.086   0.074   3.678
  408SOL    HW1 2123   1.987   0.064   3.665
  408SOL    HW2 2124   2.129   0.094   3.590
  409SOL     OW 2125   0.201   5.010   4.597
  409SOL    HW1 2126   0.101   5.011   4.587
  409SOL    HW2 2127   0.234   4.917   4.578
  410SOL     OW 2128   2.582   6.574   6.156
  410SOL    HW1 2129   2.591   6.494   6.096
  410SOL    HW2 2130   2.570   6.544   6.250
  411SOL     OW 2131   0.658   4.429   5.418
  411SOL    HW1 2132   0.640   4.387   5.507
  411SOL    HW2 2133   0.692   4.359   5.355
  412SOL     OW 2134   3.570   6.278   3.135
  412SOL    HW1 2135   3.632   6.261   3.212
  412SOL    HW2 2136   3.601   6.227   3.055
  413SOL     OW 2137   2.106   0.193   1.817
  413SOL    HW1 2138   2.086   0.291   1.828
  413SOL    HW2 2139   2.087   0.165   1.723
  414SOL     OW 2140   4.646   4.639   0.731
  414SOL    HW1 2141   4.610   4.550   0.759
  414SOL    HW2 2142   4.738   4.628   0.694
  415SOL     OW 2143   3.744   6.751   2.717
  415SOL    HW1 2144   3.795   6.827   2.679
  415SOL    HW2 2145   3.797   6.667   2.707
  416SOL     OW 2146   3.656   5.635   0.178
  416SOL    HW1 2147   3.728   5.706   0.179
  416SOL    HW2 2148   3.645   5.599   0.271
  417SOL     OW 2149   5.357   5.720   0.918
  417SOL    HW1 2150   5.318   5.719   0.826
  417SOL    HW2 2151   5.294   5.677   0.982
  418SOL     OW 2152   0.192   5.270   6.280
  418SOL    HW1 2153   0.154   5.358   6.306
  418SOL    HW2 2154   0.285   5.283   6.244
  419SOL     OW 2155   4.745   5.715   6.137
  419SOL    HW1 2156   4.686   5.697   6.215
  419SOL    HW2 2157   4.692   5.708   6.053
  420SOL     OW 2158   5.641   3.940   6.657
  420SOL    HW1 2159   5.721   3.925   6.598
  420SOL    HW2 2160   5.668   3.993   6.737
  421SOL     OW 2161   1.714   6.086   6.359
  421SOL    HW1 2162   1.731   6.078   6.261
  421SOL    HW2 2163   1.800   6.105   6.407
  422SOL     OW 2164   6.336   3.783   6.764
  422SOL    HW1 2165   6.405   3.817   6.700
  422SOL    HW2 2166   6.266   3.732   6.715
  423SOL     OW 2167   1.266   3.473   6.323
  423SOL    HW1 2168   1.360   3.439   6.330
  423SOL    HW2 2169   1.211   3.433   6.396
  424SOL     OW 2170   2.255   4.158   6.122
  424SOL    HW1 2171   2.199   4.076   6.118
  424SOL    HW2 2172   2.212   4.226   6.181
  425SOL     OW 2173   2.670   0.708   0.487
  425SOL    HW1 2174   2.731   0.765   0.542
  425SOL    HW2 2175   2.598   0.765   0.448
  426SOL     OW 2176   0.769   3.469   0.008
  426SOL    HW1 2177   0.831   3.408   6.978
  426SOL    HW2 2178   0.734   3.422   0.088
  427SOL     OW 2179   4.436   3.118   0.202
  427SOL    HW1 2180   4.490   3.034   0.191
  427SOL    HW2 2181   4.361   3.118   0.136
  428SOL     OW 2182   3.788   1.094   4.460
  428SOL    HW1 2183   3.812   1.155   4.385
  428SOL    HW2 2184   3.859   1.099   4.531
  429SOL     OW 2185   3.689   6.112   0.288
  429SOL    HW1 2186   3.653   6.130   0.379
  429SOL    HW2 2187   3.621   6.138   0.219
  430SOL     OW 2188   2.889   1.007   4.444
  430SOL    HW1 2189   2.841   1.071   4.504
  430SOL    HW2 2190   2.910   1.053   4.357
  431SOL     OW 2191   3.870   0.877   6.590
  431SOL    HW1 2192   3.901   0.785   6.615
  431SOL    HW2 2193   3.777   0.891   6.624
  432SOL     OW 2194   6.457   1.464   1.113
  432SOL    HW1 2195   6.443   1.543   1.173
  432SOL    HW2 2196   6.383   1.459   1.046
  433SOL     OW 2197   3.838   6.131   5.146
  433SOL    HW1 2198   3.764   6.067   5.169
  433SOL    HW2 2199   3.849   6.134   5.046
  434SOL     OW 2200   6.781   3.545   0.739
  434SOL    HW1 2201   6.718   3.473   0.709
  434SOL    HW2 2202   6.774   3.556   0.838
  435SOL     OW 2203   3.783   3.297   0.824
  435SOL    HW1 2204   3.782   3.264   0.729
  435SOL    HW2 2205   3.692   3.330   0.849
  436SOL     OW 2206   2.418   1.405   1.450
  436SOL    HW1 2207   2.334   1.389   1.503
  436SOL    HW2 2208   2.409   1.362   1.361
  437SOL     OW 2209   6.159   6.577   6.093
  437SOL    HW1 2210   6.179   6.659   6.040
  437SOL    HW2 2211   6.240   6.548   6.143
  438SOL     OW 2212   1.435   3.356   0.936
  438SOL    HW1 2213   1.411   3.348   1.033
  438SOL    HW2 2214   1.414   3.448   0.904
  439SOL     OW 2215   6.333   4.997   1.914
  439SOL    HW1 2216   6.394   4.921   1.890
  439SOL    HW2 2217   6.336   5.012   2.012
  440SOL     OW 2218   1.897   2.775   2.629
  440SOL    HW1 2219   1.904   2.820   2.540
  440SOL    HW2 2220   1.951   2.826   2.696
  441SOL     OW 2221   6.848   1.213   3.275
  441SOL    HW1 2222   6.859   1.216   3.374
  441SOL    HW2 2223   6.915   1.150   3.236
  442SOL     OW 2224   1.118   4.959   6.450
  442SOL    HW1 2225   1.128   4.887   6.382
  442SOL    HW2 2226   1.021   4.979   6.463
  443SOL     OW 2227   0.392   4.874   5.748
  443SOL    HW1 2228   0.478   4.920   5.771
  443SOL    HW2 2229   0.341   4.855   5.832
  444SOL     OW 2230   5.762   2.827   6.810
  444SOL    HW1 2231   5.682   2.874   6.849
  444SOL    HW2 2232   5.731   2.752   6.752
  445SOL     OW 2233   1.791   3.605   2.856
  445SOL    HW1 2234   1.814   3.518   2.900
  445SOL    HW2 2235   1.702   3.637   2.890
  446SOL     OW 2236   1.849   5.219   4.390
  446SOL    HW1 2237   1.935   5.232   4.440
  446SOL    HW2 2238   1.810   5.130   4.414
  447SOL     OW 2239   0.814   6.017   0.770
  447SOL    HW1 2240   0.775   5.982   0.855
  447SOL    HW2 2241   0.851   6.109   0.786
  448SOL     OW 2242   4.272   0.648   5.295
  448SOL    HW1 2243   4.230   0.617   5.380
  448SOL    HW2 2244   4.293   0.569   5.237
  449SOL     OW 2245   5.972   0.644   4.659
  449SOL    HW1 2246   5.954   0.558   4.612
  449SOL    HW2 2247   6.009   0.711   4.594
  450SOL     OW 2248   6.501   5.838   2.891
  450SOL    HW1 2249   6.598   5.840   2.865
  450SOL    HW2 2250   6.460   5.927   2.871
  451SOL     OW 2251   5.859   3.805   3.997
  451SOL    HW1 2252   5.953   3.829   4.023
  451SOL    HW2 2253   5.855   3.709   3.973
  452SOL     OW 2254   6.407   4.811   5.830
  452SOL    HW1 2255   6.383   4.782   5.923
  452SOL    HW2 2256   6.499   4.849   5.829
  453SOL     OW 2257   3.573   1.181   6.397
  453SOL    HW1 2258   3.547   1.267   6.440
  453SOL    HW2 2259   3.633   1.199   6.319
  454SOL     OW 2260   0.696   6.026   0.509
  454SOL    HW1 2261   0.722   6.039   0.604
  454SOL    HW2 2262   0.601   5.995   0.504
  455SOL     OW 2263   5.425   1.590   4.761
  455SOL    HW1 2264   5.368   1.664   4.725
  455SOL    HW2 2265   5.503   1.576   4.701
  456SOL     OW 2266   4.120   5.667   0.661
  456SOL    HW1 2267   4.141   5.672   0.564
  456SOL    HW2 2268   4.029   5.706   0.678
  457SOL     OW 2269   0.723   4.374   1.248
  457SOL    HW1 2270   0.649   4.358   1.182
  457SOL    HW2 2271   0.796   4.427   1.205
  458SOL     OW 2272   0.641   0.169   5.742
  458SOL    HW1 2273   0.585   0.091   5.768
  458SOL    HW2 2274   0.735   0.138   5.725
  459SOL     OW 2275   1.445   0.835   3.381
  459SOL    HW1 2276   1.540   0.852   3.407
  459SOL    HW2 2277   1.443   0.789   3.292
  460SOL     OW 2278   6.369   2.251   3.276
  460SOL    HW1 2279   6.273   2.274   3.262
  460SOL    HW2 2280   6.382   2.153   3.261
  461SOL     OW 2281   5.190   4.604   6.091
  461SOL    HW1 2282   5.114   4.542   6.112
  461SOL    HW2 2283   5.276   4.553   6.093
  462SOL     OW 2284   3.539   2.923   0.293
  462SOL    HW1 2285   3.561   2.879   0.205
  462SOL    HW2 2286   3.442   2.911   0.314
  463SOL     OW 2287   5.938   6.122   2.172
  463SOL    HW1 2288   5.942   6.090   2.078
  463SOL    HW2 2289   5.907   6.048   2.231
  464SOL     OW 2290   1.936   2.014   5.820
  464SOL    HW1 2291   1.987   1.929   5.807
  464SOL    HW2 2292   1.999   2.091   5.815
  465SOL     OW 2293   0.864   3.493   6.309
  465SOL    HW1 2294   0.823   3.511   6.219
  465SOL    HW2 2295   0.919   3.410   6.304
  466SOL     OW 2296   1.461   0.584   3.527
  466SOL    HW1 2297   1.435   0.675   3.494
  466SOL    HW2 2298   1.525   0.594   3.603
  467SOL     OW 2299   1.830   1.460   5.088
  467SOL    HW1 2300   1.904   1.491   5.029
  467SOL    HW2 2301   1.777   1.539   5.119
  468SOL     OW 2302   2.879   3.490   3.416
  468SOL    HW1 2303   2.798   3.545   3.437
  468SOL    HW2 2304   2.916   3.452   3.501
  469SOL     OW 2305   3.798   0.168   6.311
  469SOL    HW1 2306   3.776   0.071   6.296
  469SOL    HW2 2307   3.719   0.214   6.351
  470SOL     OW 2308   4.537   6.985   3.251
  470SOL    HW1 2309   4.518   6.980   3.153
  470SOL    HW2 2310   4.524   0.059   3.283
  471SOL     OW 2311   2.648   2.336   4.201
  471SOL    HW1 2312   2.606   2.267   4.143
  471SOL    HW2 2313   2.720   2.294   4.256
  472SOL     OW 2314   3.985   4.322   5.412
  472SOL    HW1 2315   4.047   4.348   5.338
  472SOL    HW2 2316   3.947   4.231   5.393
  473SOL     OW 2317   0.220   4.351   3.889
  473SOL    HW1 2318   0.195   4.433   3.939
  473SOL    HW2 2319   0.140   4.313   3.844
  474SOL     OW 2320   4.896   4.792   5.298
  474SOL    HW1 2321   4.877   4.890   5.298
  474SOL    HW2 2322   4.995   4.779   5.294
  475SOL     OW 2323   2.542   6.778   0.403
  475SOL    HW1 2324   2.609   6.847   0.376
  475SOL    HW2 2325   2.545   6.765   0.502
  476SOL     OW 2326   6.703   5.747   3.113
  476SOL    HW1 2327   6.648   5.819   3.071
  476SOL    HW2 2328   6.665   5.724   3.203
  477SOL     OW 2329   1.772   4.518   4.318
  477SOL    HW1 2330   1.779   4.420   4.296
  477SOL    HW2 2331   1.721   4.529   4.403
  478SOL     OW 2332   1.266   4.939   3.574
  478SOL    HW1 2333   1.255   4.936   3.673
  478SOL    HW2 2334   1.176   4.933   3.530
  479SOL     OW 2335   4.269   1.986   1.835
  479SOL    HW1 2336   4.270   2.085   1.817
  479SOL    HW2 2337   4.188   1.964   1.890
  480SOL     OW 2338   1.413   6.219   3.818
  480SOL    HW1 2339   1.453   6.127   3.813
  480SOL    HW2 2340   1.421   6.253   3.911
  481SOL     OW 2341   2.167   0.422   0.827
  481SOL    HW1 2342   2.154   0.512   0.870
  481SOL    HW2 2343   2.085   0.397   0.776
  482SOL     OW 2344   5.637   5.787   0.649
  482SOL    HW1 2345   5.661   5.775   0.745
  482SOL    HW2 2346   5.574   5.714   0.621
  483SOL     OW 2347   5.593   1.852   2.868
  483SOL    HW1 2348   5.663   1.791   2.905
  483SOL    HW2 2349   5.517   1.797   2.833
  484SOL     OW 2350   6.439   1.718   3.871
  484SOL    HW1 2351   6.512   1.779   3.902
  484SOL    HW2 2352   6.350   1.758   3.893
  485SOL     OW 2353   3.003   6.353   0.553
  485SOL    HW1 2354   2.914   6.354   0.508
  485SOL    HW2 2355   2.990   6.361   0.652
  486SOL     OW 2356   6.800   0.324   5.870
  486SOL    HW1 2357   6.809   0.307   5.968
  486SOL    HW2 2358   6.704   0.343   5.848
  487SOL     OW 2359   6.749   2.430   6.687
  487SOL    HW1 2360   6.652   2.406   6.696
  487SOL    HW2 2361   6.805   2.352   6.714
  488SOL     OW 2362   1.115   4.702   3.138
  488SOL    HW1 2363   1.193   4.657   3.095
  488SOL    HW2 2364   1.068   4.637   3.198
  489SOL     OW 2365   3.173   5.151   5.993
  489SOL    HW1 2366   3.151   5.120   6.086
  489SOL    HW2 2367   3.245   5.220   5.997
  490SOL     OW 2368   5.013   0.717   4.463
  490SOL    HW1 2369   4.952   0.736   4.541
  490SOL    HW2 2370   5.015   0.797   4.403
  491SOL     OW 2371   0.713   3.009   3.671
  491SOL    HW1 2372   0.794   2.999   3.612
  491SOL    HW2 2373   0.729   3.084   3.736
  492SOL     OW 2374   1.779   1.470   4.702
  492SOL    HW1 2375   1.853   1.501   4.761
  492SOL    HW2 2376   1.701   1.533   4.710
  493SOL     OW 2377   5.941   4.206   4.327
  493SOL    HW1 2378   5.887   4.127   4.356
  493SOL    HW2 2379   5.958   4.265   4.405
  494SOL     OW 2380   5.869   0.748   6.781
  494SOL    HW1 2381   5.896   0.652   6.780
  494SOL    HW2 2382   5.916   0.797   6.708
  495SOL     OW 2383   5.152   4.364   0.019
  495SOL    HW1 2384   5.151   4.405   0.111
  495SOL    HW2 2385   5.225   4.296   0.014
  496SOL     OW 2386   6.041   3.618   2.945
  496SOL    HW1 2387   6.008   3.565   3.024
  496SOL    HW2 2388   5.969   3.622   2.876
  497SOL     OW 2389   4.280   0.121   4.359
  497SOL    HW1 2390   4.373   0.091   4.337
  497SOL    HW2 2391   4.217   0.044   4.346
  498SOL     OW 2392   1.374   3.322   1.193
  498SOL    HW1 2393   1.292   3.315   1.250
  498SOL    HW2 2394   1.455   3.327   1.251
  499SOL     OW 2395   3.604   1.517   5.143
  499SOL    HW1 2396   3.515   1.564   5.147
  499SOL    HW2 2397   3.591   1.421   5.166
  500SOL     OW 2398   1.119   4.503   2.866
  500SOL    HW1 2399   1.074   4.584   2.828
  500SOL    HW2 2400   1.051   4.448   2.916
  501SOL     OW 2401   0.533   4.732   6.309
  501SOL    HW1 2402   0.584   4.648   6.326
  501SOL    HW2 2403   0.575   4.807   6.360
  502SOL     OW 2404   2.196   4.618   5.950
  502SOL    HW1 2405   2.213   4.704   5.996
  502SOL    HW2 2406   2.281   4.584   5.910
  503SOL     OW 2407   6.920   5.305   4.537
  503SOL    HW1 2408   6.922   5.238   4.463
  503SOL    HW2 2409   6.826   5.316   4.568
  504SOL     OW 2410   1.353   4.796   4.733
  504SOL    HW1 2411   1.392   4.864   4.795
  504SOL    HW2 2412   1.263   4.768   4.767
  505SOL     OW 2413   3.457   6.558   4.636
  505SOL    HW1 2414   3.454   6.613   4.719
  505SOL    HW2 2415   3.438   6.615   4.557
  506SOL     OW 2416   2.273   3.543   0.804
  506SOL    HW1 2417   2.229   3.454   0.818
  506SOL    HW2 2418   2.337   3.560   0.879
  507SOL     OW 2419   3.787   1.848   4.290
  507SOL    HW1 2420   3.886   1.837   4.300
  507SOL    HW2 2421   3.745   1.759   4.272
  508SOL     OW 2422   6.044   5.525   4.541
  508SOL    HW1 2423   6.099   5.491   4.465
  508SOL    HW2 2424   5.947   5.509   4.522
  509SOL     OW 2425   4.764   3.245   1.710
  509SOL    HW1 2426   4.724   3.192   1.785
  509SOL    HW2 2427   4.704   3.241   1.630
  510SOL     OW 2428   0.632   4.340   4.429
  510SOL    HW1 2429   0.658   4.407   4.360
  510SOL    HW2 2430   0.584   4.263   4.385
  511SOL     OW 2431   0.501   5.945   1.335
  511SOL    HW1 2432   0.477   6.008   1.261
  511SOL    HW2 2433   0.513   5.996   1.419
  512SOL     OW 2434   1.927   3.916   5.654
  512SOL    HW1 2435   2.011   3.883   5.696
  512SOL    HW2 2436   1.898   4.001   5.699
  513SOL     OW 2437   0.532   5.220   4.461
  513SOL    HW1 2438   0.565   5.247   4.371
  513SOL    HW2 2439   0.606   5.227   4.528
  514SOL     OW 2440   5.319   1.773   3.213
  514SOL    HW1 2441   5.379   1.840   3.169
  514SOL    HW2 2442   5.374   1.698   3.249
  515SOL     OW 2443   3.013   5.769   0.368
  515SOL    HW1 2444   3.002   5.696   0.301
  515SOL    HW2 2445   3.066   5.843   0.328
  516SOL     OW 2446   1.646   4.346   3.598
  516SOL    HW1 2447   1.705   4.284   3.649
  516SOL    HW2 2448   1.550   4.330   3.623
  517SOL     OW 2449   4.664   0.320   5.719
  517SOL    HW1 2450   4.606   0.401   5.709
  517SOL    HW2 2451   4.691   0.310   5.815
  518SOL     OW 2452   1.750   1.333   0.069
  518SOL    HW1 2453   1.733   1.316   6.993
  518SOL    HW2 2454   1.849   1.328   0.087
  519SOL     OW 2455   0.905   6.657   0.211
  519SOL    HW1 2456   0.888   6.732   0.275
  519SOL    HW2 2457   0.918   6.695   0.119
  520SOL     OW 2458   6.072   4.404   4.591
  520SOL    HW1 2459   5.990   4.438   4.545
  520SOL    HW2 2460   6.048   4.373   4.683
  521SOL     OW 2461   6.540   0.840   0.125
  521SOL    HW1 2462   6.446   0.872   0.129
  521SOL    HW2 2463   6.575   0.827   0.218
  522SOL     OW 2464   3.141   4.207   5.590
  522SOL    HW1 2465   3.095   4.234   5.506
  522SOL    HW2 2466   3.086   4.234   5.669
  523SOL     OW 2467   6.522   6.655   3.507
  523SOL    HW1 2468   6.508   6.754   3.503
  523SOL    HW2 2469   6.617   6.633   3.487
  524SOL     OW 2470   4.061   0.679   4.480
  524SOL    HW1 2471   3.971   0.645   4.506
  524SOL    HW2 2472   4.104   0.722   4.559
  525SOL     OW 2473   3.697   2.893   6.652
  525SOL    HW1 2474   3.729   2.803   6.683
  525SOL    HW2 2475   3.597   2.896   6.659
  526SOL     OW 2476   4.266   6.643   4.469
  526SOL    HW1 2477   4.212   6.606   4.394
  526SOL    HW2 2478   4.360   6.658   4.438
  527SOL     OW 2479   0.958   1.335   0.277
  527SOL    HW1 2480   0.985   1.267   0.345
  527SOL    HW2 2481   0.882   1.389   0.313
  528SOL     OW 2482   1.373   1.809   6.427
  528SOL    HW1 2483   1.323   1.895   6.429
  528SOL    HW2 2484   1.445   1.810   6.496
  529SOL     OW 2485   6.957   4.932   4.633
  529SOL    HW1 2486   6.907   4.918   4.548
  529SOL    HW2 2487   6.893   4.948   4.708
  530SOL     OW 2488   0.219   2.828   5.449
  530SOL    HW1 2489   0.144   2.826   5.515
  530SOL    HW2 2490   0.193   2.883   5.370
  531SOL     OW 2491   0.018   0.190   6.953
  531SOL    HW1 2492   0.056   0.106   6.992
  531SOL    HW2 2493   0.076   0.267   6.976
  532SOL     OW 2494   2.119   1.059   5.856
  532SOL    HW1 2495   2.179   1.139   5.856
  532SOL    HW2 2496   2.071   1.054   5.769
  533SOL     OW 2497   4.296   0.987   5.547
  533SOL    HW1 2498   4.331   0.977   5.454
  533SOL    HW2 2499   4.228   1.061   5.549
  534SOL     OW 2500   3.009   5.717   3.116
  534SOL    HW1 2501   2.933   5.777   3.142
  534SOL    HW2 2502   3.002   5.630   3.166
  535SOL     OW 2503   6.759   4.048   1.881
  535SOL    HW1 2504   6.706   3.967   1.907
  535SOL    HW2 2505   6.780   4.044   1.783
  536SOL     OW 2506   1.832   6.037   1.397
  536SOL    HW1 2507   1.843   5.983   1.480
  536SOL    HW2 2508   1.896   6.114   1.399
  537SOL     OW 2509   2.588   0.136   3.092
  537SOL    HW1 2510   2.596   0.040   3.068
  537SOL    HW2 2511   2.625   0.151   3.184
  538SOL     OW 2512   1.578   5.520   4.034
  538SOL    HW1 2513   1.632   5.465   4.097
  538SOL    HW2 2514   1.498   5.557   4.082
  539SOL     OW 2515   1.506   5.100   1.500
  539SOL    HW1 2516   1.477   5.109   1.405
  539SOL    HW2 2517   1.565   5.176   1.524
  540SOL     OW 2518   2.663   2.617   1.175
  540SOL    HW1 2519   2.652   2.561   1.256
  540SOL    HW2 2520   2.719   2.697   1.196
  541SOL     OW 2521   4.842   5.525   5.088
  541SOL    HW1 2522   4.850   5.575   5.002
  541SOL    HW2 2523   4.808   5.433   5.070
  542SOL     OW 2524   6.033   0.460   6.480
  542SOL    HW1 2525   6.109   0.511   6.521
  542SOL    HW2 2526   6.056   0.434   6.387
  543SOL     OW 2527   6.571   6.940   2.557
  543SOL    HW1 2528   6.612   6.913   2.470
  543SOL    HW2 2529   6.635   6.919   2.631
  544SOL     OW 2530   0.839   5.380   0.406
  544SOL    HW1 2531   0.777   5.319   0.456
  544SOL    HW2 2532   0.892   5.434   0.471
  545SOL     OW 2533   2.973   1.734   3.616
  545SOL    HW1 2534   2.952   1.796   3.540
  545SOL    HW2 2535   2.901   1.740   3.685
  546SOL     OW 2536   1.317   2.058   6.579
  546SOL    HW1 2537   1.285   2.128   6.643
  546SOL    HW2 2538   1.416   2.047   6.589
  547SOL     OW 2539   3.298   2.122   0.780
  547SOL    HW1 2540   3.326   2.149   0.872
  547SOL    HW2 2541   3.217   2.064   0.785
  548SOL     OW 2542   3.103   3.244   5.564
  548SOL    HW1 2543   3.087   3.192   5.648
  548SOL    HW2 2544   3.016   3.258   5.517
  549SOL     OW 2545   0.423   4.469   0.877
  549SOL    HW1 2546   0.369   4.540   0.831
  549SOL    HW2 2547   0.478   4.510   0.950
  550SOL     OW 2548   6.656   4.459   0.831
  550SOL    HW1 2549   6.729   4.444   0.764
  550SOL    HW2 2550   6.570   4.423   0.795
  551SOL     OW 2551   0.356   0.253   0.425
  551SOL    HW1 2552   0.380   0.256   0.327
  551SOL    HW2 2553   0.429   0.295   0.478
  552SOL     OW 2554   4.723   5.492   0.215
  552SOL    HW1 2555   4.721   5.475   0.117
  552SOL    HW2 2556   4.744   5.588   0.232
  553SOL     OW 2557   1.123   2.197   1.229
  553SOL    HW1 2558   1.199   2.253   1.195
  553SOL    HW2 2559   1.153   2.145   1.309
  554SOL     OW 2560   4.406   5.369   4.765
  554SOL    HW1 2561   4.444   5.456   4.795
  554SOL    HW2 2562   4.388   5.372   4.667
  555SOL     OW 2563   1.483   4.457   5.758
  555SOL    HW1 2564   1.427   4.375   5.746
  555SOL    HW2 2565   1.451   4.527   5.695
  556SOL     OW 2566   6.460   3.908   2.525
  556SOL    HW1 2567   6.501   3.881   2.613
  556SOL    HW2 2568   6.364   3.932   2.540
  557SOL     OW 2569   6.421   5.829   5.606
  557SOL    HW1 2570   6.516   5.853   5.584
  557SOL    HW2 2571   6.414   5.730   5.620
  558SOL     OW 2572   4.074   3.940   5.693
  558SOL    HW1 2573   4.051   3.889   5.610
  558SOL    HW2 2574   4.008   4.014   5.705
  559SOL     OW 2575   5.110   5.333   6.485
  559SOL    HW1 2576   5.135   5.272   6.410
  559SOL    HW2 2577   5.158   5.306   6.568
  560SOL     OW 2578   4.631   6.508   0.799
  560SOL    HW1 2579   4.674   6.484   0.712
  560SOL    HW2 2580   4.699   6.546   0.861
  561SOL     OW 2581   4.920   0.013   2.880
  561SOL    HW1 2582   4.892   0.083   2.946
  561SOL    HW2 2583   5.013   7.002   2.902
  562SOL     OW 2584   5.985   6.990   1.344
  562SOL    HW1 2585   5.982   6.912   1.406
  562SOL    HW2 2586   5.958   6.960   1.252
  563SOL     OW 2587   2.718   0.275   5.037
  563SOL    HW1 2588   2.704   0.370   5.009
  563SOL    HW2 2589   2.810   0.246   5.011
  564SOL     OW 2590   0.727   1.244   5.272
  564SOL    HW1 2591   0.780   1.213   5.193
  564SOL    HW2 2592   0.700   1.339   5.258
  565SOL     OW 2593   4.512   3.677   5.995
  565SOL    HW1 2594   4.449   3.616   6.043
  565SOL    HW2 2595   4.487   3.682   5.899
  566SOL     OW 2596   6.922   4.483   2.086
  566SOL    HW1 2597   6.962   4.471   2.177
  566SOL    HW2 2598   6.845   4.419   2.076
  567SOL     OW 2599   3.939   3.813   6.227
  567SOL    HW1 2600   4.021   3.820   6.283
  567SOL    HW2 2601   3.965   3.812   6.130
  568SOL     OW 2602   2.554   0.920   6.440
  568SOL    HW1 2603   2.501   1.004   6.453
  568SOL    HW2 2604   2.634   0.938   6.383
  569SOL     OW 2605   1.966   4.311   6.505
  569SOL    HW1 2606   1.902   4.344   6.436
  569SOL    HW2 2607   1.953   4.363   6.590
  570SOL     OW 2608   0.413   5.506   6.618
  570SOL    HW1 2609   0.371   5.560   6.545
  570SOL    HW2 2610   0.363   5.420   6.628
  571SOL     OW 2611   4.634   6.117   2.654
  571SOL    HW1 2612   4.661   6.030   2.694
  571SOL    HW2 2613   4.711   6.181   2.657
  572SOL     OW 2614   2.063   4.057   3.940
  572SOL    HW1 2615   2.102   4.012   3.859
  572SOL    HW2 2616   2.022   4.144   3.913
  573SOL     OW 2617   3.968   2.580   0.051
  573SOL    HW1 2618   4.045   2.607   7.013
  573SOL    HW2 2619   3.898   2.536   7.015
  574SOL     OW 2620   2.818   2.077   3.665
  574SOL    HW1 2621   2.836   2.014   3.591
  574SOL    HW2 2622   2.892   2.071   3.733
  575SOL     OW 2623   4.392   2.659   6.029
  575SOL    HW1 2624   4.363   2.674   5.934
  575SOL    HW2 2625   4.315   2.628   6.084
  576SOL     OW 2626   0.595   3.367   3.445
  576SOL    HW1 2627   0.517   3.305   3.452
  576SOL    HW2 2628   0.626   3.393   3.536
  577SOL     OW 2629   4.213   1.927   3.482
  577SOL    HW1 2630   4.165   1.914   3.569
  577SOL    HW2 2631   4.148   1.958   3.413
  578SOL     OW 2632   6.580   3.570   4.732
  578SOL    HW1 2633   6.522   3.640   4.775
  578SOL    HW2 2634   6.630   3.520   4.802
  579SOL     OW 2635   4.373   3.582   0.679
  579SOL    HW1 2636   4.318   3.662   0.657
  579SOL    HW2 2637   4.365   3.561   0.777
  580SOL     OW 2638   7.002   0.269   0.213
  580SOL    HW1 2639   0.002   0.257   0.116
  580SOL    HW2 2640   6.950   0.353   0.227
  581SOL     OW 2641   3.834   3.386   3.510
  581SOL    HW1 2642   3.931   3.396   3.533
  581SOL    HW2 2643   3.819   3.414   3.416
  582SOL     OW 2644   0.075   3.872   0.401
  582SOL    HW1 2645   0.141   3.889   0.475
  582SOL    HW2 2646   7.006   3.908   0.427
  583SOL     OW 2647   2.940   6.830   6.804
  583SOL    HW1 2648   2.880   6.786   6.738
  583SOL    HW2 2649   3.033   6.835   6.767
  584SOL     OW 2650   1.751   5.072   4.804
  584SOL    HW1 2651   1.824   5.106   4.746
  584SOL    HW2 2652   1.782   4.990   4.853
  585SOL     OW 2653   5.456   1.990   5.198
  585SOL    HW1 2654   5.426   2.012   5.105
  585SOL    HW2 2655   5.448   1.892   5.213
  586SOL     OW 2656   3.206   5.290   1.016
  586SOL    HW1 2657   3.304   5.300   1.036
  586SOL    HW2 2658   3.194   5.263   0.921
  587SOL     OW 2659   2.452   2.937   6.290
  587SOL    HW1 2660   2.426   2.960   6.384
  587SOL    HW2 2661   2.433   3.015   6.230
  588SOL     OW 2662   2.057   0.152   2.068
  588SOL    HW1 2663   2.014   0.063   2.087
  588SOL    HW2 2664   2.077   0.159   1.971
  589SOL     OW 2665   4.945   5.268   1.848
  589SOL    HW1 2666   4.872   5.200   1.843
  589SOL    HW2 2667   5.009   5.244   1.921
  590SOL     OW 2668   0.456   4.225   1.851
  590SOL    HW1 2669   0.420   4.318   1.839
  590SOL    HW2 2670   0.424   4.167   1.776
  591SOL     OW 2671   2.314   0.326   3.025
  591SOL    HW1 2672   2.354   0.322   2.934
  591SOL    HW2 2673   2.249   0.250   3.036
  592SOL     OW 2674   5.150   0.133   6.306
  592SOL    HW1 2675   5.167   0.130   6.404
  592SOL    HW2 2676   5.129   0.041   6.273
  593SOL     OW 2677   0.298   0.513   4.786
  593SOL    HW1 2678   0.388   0.506   4.828
  593SOL    HW2 2679   0.229   0.525   4.857
  594SOL     OW 2680   5.397   2.269   1.170
  594SOL    HW1 2681   5.447   2.291   1.253
  594SOL    HW2 2682   5.305   2.237   1.193
  595SOL     OW 2683   2.927   6.767   3.991
  595SOL    HW1 2684   2.864   6.717   4.050
  595SOL    HW2 2685   3.017   6.769   4.034
  596SOL     OW 2686   0.502   4.674   2.524
  596SOL    HW1 2687   0.466   4.753   2.575
  596SOL    HW2 2688   0.578   4.704   2.467
  597SOL     OW 2689   4.386   1.963   5.395
  597SOL    HW1 2690   4.396   2.035   5.327
  597SOL    HW2 2691   4.310   1.903   5.370
  598SOL     OW 2692   3.870   3.718   1.624
  598SOL    HW1 2693   3.783   3.704   1.671
  598SOL    HW2 2694   3.942   3.733   1.692
  599SOL     OW 2695   5.537   5.742   3.668
  599SOL    HW1 2696   5.562   5.712   3.576
  599SOL    HW2 2697   5.439   5.763   3.670
  600SOL     OW 2698   3.034   2.115   0.360
  600SOL    HW1 2699   3.014   2.205   0.400
  600SOL    HW2 2700   3.050   2.049   0.434
  601SOL     OW 2701   1.633   4.870   1.935
  601SOL    HW1 2702   1.596   4.778   1.916
  601SOL    HW2 2703   1.721   4.861   1.980
  602SOL     OW 2704   0.244   0.808   2.823
  602SOL    HW1 2705   0.254   0.761   2.736
  602SOL    HW2 2706   0.147   0.819   2.844
  603SOL     OW 2707   4.571   1.373   3.088
  603SOL    HW1 2708   4.586   1.289   3.141
  603SOL    HW2 2709   4.539   1.349   2.996
  604SOL     OW 2710   1.295   3.019   5.768
  604SOL    HW1 2711   1.374   3.009   5.708
  604SOL    HW2 2712   1.256   2.929   5.787
  605SOL     OW 2713   5.152   0.455   4.677
  605SOL    HW1 2714   5.151   0.428   4.581
  605SOL    HW2 2715   5.245   0.475   4.706
  606SOL     OW 2716   2.126   0.081   2.372
  606SOL    HW1 2717   2.036   0.105   2.336
  606SOL    HW2 2718   2.196   0.099   2.303
  607SOL     OW 2719   3.688   0.139   4.589
  607SOL    HW1 2720   3.620   0.192   4.539
  607SOL    HW2 2721   3.779   0.177   4.573
  608SOL     OW 2722   6.368   2.944   0.946
  608SOL    HW1 2723   6.279   2.911   0.978
  608SOL    HW2 2724   6.435   2.935   1.021
  609SOL     OW 2725   3.587   4.170   5.294
  609SOL    HW1 2726   3.648   4.119   5.355
  609SOL    HW2 2727   3.609   4.268   5.300
  610SOL     OW 2728   6.564   2.368   4.715
  610SOL    HW1 2729   6.464   2.375   4.711
  610SOL    HW2 2730   6.594   2.294   4.655
  611SOL     OW 2731   6.608   6.785   0.531
  611SOL    HW1 2732   6.572   6.823   0.445
  611SOL    HW2 2733   6.691   6.732   0.511
  612SOL     OW 2734   1.559   4.414   6.295
  612SOL    HW1 2735   1.605   4.325   6.304
  612SOL    HW2 2736   1.467   4.408   6.334
  613SOL     OW 2737   3.912   1.346   6.869
  613SOL    HW1 2738   3.961   1.428   6.836
  613SOL    HW2 2739   3.972   1.294   6.929
  614SOL     OW 2740   5.322   2.394   0.697
  614SOL    HW1 2741   5.349   2.308   0.653
  614SOL    HW2 2742   5.357   2.396   0.790
  615SOL     OW 2743   6.169   5.657   0.332
  615SOL    HW1 2744   6.085   5.622   0.374
  615SOL    HW2 2745   6.208   5.587   0.272
  616SOL     OW 2746   4.766   1.609   4.828
  616SOL    HW1 2747   4.835   1.609   4.900
  616SOL    HW2 2748   4.682   1.567   4.862
  617SOL     OW 2749   6.402   0.213   5.215
  617SOL    HW1 2750   6.491   0.258   5.207
  617SOL    HW2 2751   6.344   0.239   5.137
  618SOL     OW 2752   5.164   4.823   1.058
  618SOL    HW1 2753   5.191   4.819   1.154
  618SOL    HW2 2754   5.240   4.796   1.000
  619SOL     OW 2755   1.361   7.014   6.992
  619SOL    HW1 2756   1.447   6.995   0.019
  619SOL    HW2 2757   1.309   6.930   6.981
  620SOL     OW 2758   4.739   1.852   1.755
  620SOL    HW1 2759   4.780   1.942   1.771
  620SOL    HW2 2760   4.736   1.833   1.657
  621SOL     OW 2761   1.882   6.937   6.601
  621SOL    HW1 2762   1.861   0.014   6.599
  621SOL    HW2 2763   1.937   6.916   6.681
  622SOL     OW 2764   0.539   3.152   6.030
  622SOL    HW1 2765   0.621   3.117   5.985
  622SOL    HW2 2766   0.463   3.089   6.017
  623SOL     OW 2767   6.505   1.458   2.702
  623SOL    HW1 2768   6.585   1.455   2.762
  623SOL    HW2 2769   6.518   1.529   2.633
  624SOL     OW 2770   5.778   0.850   6.300
  624SOL    HW1 2771   5.865   0.899   6.290
  624SOL    HW2 2772   5.794   0.764   6.349
  625SOL     OW 2773   3.010   0.959   1.347
  625SOL    HW1 2774   3.084   1.010   1.389
  625SOL    HW2 2775   2.923   0.987   1.387
  626SOL     OW 2776   0.121   6.587   3.928
  626SOL    HW1 2777   0.110   6.541   3.840
  626SOL    HW2 2778   0.191   6.658   3.920
  627SOL     OW 2779   6.374   4.222   6.062
  627SOL    HW1 2780   6.446   4.209   6.130
  627SOL    HW2 2781   6.376   4.146   5.997
  628SOL     OW 2782   3.749   4.398   6.885
  628SOL    HW1 2783   3.700   4.341   6.952
  628SOL    HW2 2784   3.748   4.353   6.796
  629SOL     OW 2785   2.212   6.990   6.699
  629SOL    HW1 2786   2.198   6.984   6.600
  629SOL    HW2 2787   2.166   6.912   6.743
  630SOL     OW 2788   6.563   1.979   0.735
  630SOL    HW1 2789   6.471   1.976   0.775
  630SOL    HW2 2790   6.615   2.053   0.776
  631SOL     OW 2791   1.801   3.576   2.194
  631SOL    HW1 2792   1.900   3.568   2.185
  631SOL    HW2 2793   1.779   3.645   2.262
  632SOL     OW 2794   3.866   4.740   1.466
  632SOL    HW1 2795   3.857   4.712   1.561
  632SOL    HW2 2796   3.961   4.729   1.436
  633SOL     OW 2797   1.394   6.250   6.689
  633SOL    HW1 2798   1.345   6.163   6.677
  633SOL    HW2 2799   1.395   6.274   6.786
  634SOL     OW 2800   2.106   3.517   5.535
  634SOL    HW1 2801   2.157   3.597   5.504
  634SOL    HW2 2802   2.022   3.509   5.482
  635SOL     OW 2803   6.873   6.052   6.535
  635SOL    HW1 2804   6.909   6.131   6.585
  635SOL    HW2 2805   6.880   5.971   6.593
  636SOL     OW 2806   1.508   1.994   4.825
  636SOL    HW1 2807   1.429   1.940   4.852
  636SOL    HW2 2808   1.580   1.985   4.894
  637SOL     OW 2809   6.427   1.400   1.914
  637SOL    HW1 2810   6.388   1.460   1.984
  637SOL    HW2 2811   6.491   1.336   1.957
  638SOL     OW 2812   0.200   3.556   5.703
  638SOL    HW1 2813   0.140   3.628   5.739
  638SOL    HW2 2814   0.158   3.517   5.621
  639SOL     OW 2815   5.812   3.535   0.904
  639SOL    HW1 2816   5.868   3.558   0.983
  639SOL    HW2 2817   5.718   3.566   0.918
  640SOL     OW 2818   6.406   3.702   2.354
  640SOL    HW1 2819   6.423   3.798   2.378
  640SOL    HW2 2820   6.313   3.677   2.381
  641SOL     OW 2821   2.270   6.016   4.371
  641SOL    HW1 2822   2.195   6.026   4.305
  641SOL    HW2 2823   2.353   5.989   4.322
  642SOL     OW 2824   1.238   5.257   4.487
  642SOL    HW1 2825   1.255   5.162   4.461
  642SOL    HW2 2826   1.200   5.260   4.579
  643SOL     OW 2827   4.440   4.945   0.291
  643SOL    HW1 2828   4.466   4.888   0.369
  643SOL    HW2 2829   4.490   5.031   0.293
  644SOL     OW 2830   5.712   0.629   4.814
  644SOL    HW1 2831   5.807   0.632   4.784
  644SOL    HW2 2832   5.709   0.605   4.911
  645SOL     OW 2833   3.767   6.069   2.412
  645SOL    HW1 2834   3.828   6.098   2.339
  645SOL    HW2 2835   3.743   6.148   2.469
  646SOL     OW 2836   3.332   1.087   5.303
  646SOL    HW1 2837   3.257   1.051   5.359
  646SOL    HW2 2838   3.412   1.027   5.313
  647SOL     OW 2839   2.032   2.297   6.762
  647SOL    HW1 2840   2.073   2.229   6.701
  647SOL    HW2 2841   2.064   2.281   6.856
  648SOL     OW 2842   5.027   2.264   3.645
  648SOL    HW1 2843   5.068   2.258   3.554
  648SOL    HW2 2844   5.096   2.245   3.714
  649SOL     OW 2845   3.937   5.915   1.035
  649SOL    HW1 2846   3.978   5.963   1.113
  649SOL    HW2 2847   3.850   5.958   1.010
  650SOL     OW 2848   2.259   3.763   1.519
  650SOL    HW1 2849   2.347   3.748   1.566
  650SOL    HW2 2850   2.244   3.690   1.453
  651SOL     OW 2851   6.849   1.671   3.186
  651SOL    HW1 2852   6.750   1.679   3.178
  651SOL    HW2 2853   6.876   1.686   3.282
  652SOL     OW 2854   3.942   6.108   0.501
  652SOL    HW1 2855   3.910   6.025   0.546
  652SOL    HW2 2856   3.878   6.183   0.519
  653SOL     OW 2857   1.710   0.496   3.315
  653SOL    HW1 2858   1.786   0.431   3.307
  653SOL    HW2 2859   1.741   0.587   3.287
  654SOL     OW 2860   1.443   0.368   6.154
  654SOL    HW1 2861   1.426   0.431   6.230
  654SOL    HW2 2862   1.355   0.330   6.123
  655SOL     OW 2863   1.318   3.938   2.074
  655SOL    HW1 2864   1.329   3.910   1.978
  655SOL    HW2 2865   1.226   3.912   2.105
  656SOL     OW 2866   2.360   0.504   0.078
  656SOL    HW1 2867   2.290   0.558   0.029
  656SOL    HW2 2868   2.335   0.497   0.174
  657SOL     OW 2869   3.649   3.436   4.343
  657SOL    HW1 2870   3.653   3.535   4.337
  657SOL    HW2 2871   3.597   3.399   4.266
  658SOL     OW 2872   2.523   0.407   5.213
  658SOL    HW1 2873   2.585   0.401   5.135
  658SOL    HW2 2874   2.494   0.501   5.225
  659SOL     OW 2875   1.353   5.138   6.898
  659SOL    HW1 2876   1.303   5.141   6.812
  659SOL    HW2 2877   1.426   5.207   6.897
  660SOL     OW 2878   5.676   3.664   2.173
  660SOL    HW1 2879   5.698   3.725   2.249
  660SOL    HW2 2880   5.584   3.684   2.139
  661SOL     OW 2881   4.238   5.769   4.404
  661SOL    HW1 2882   4.250   5.854   4.353
  661SOL    HW2 2883   4.197   5.700   4.344
  662SOL     OW 2884   6.876   3.307   6.994
  662SOL    HW1 2885   6.926   3.386   6.960
  662SOL    HW2 2886   6.935   3.254   0.035
  663SOL     OW 2887   1.563   4.041   6.131
  663SOL    HW1 2888   1.612   4.099   6.065
  663SOL    HW2 2889   1.555   3.948   6.094
  664SOL     OW 2890   2.076   0.251   5.838
  664SOL    HW1 2891   2.127   0.165   5.831
  664SOL    HW2 2892   2.037   0.259   5.930
  665SOL     OW 2893   2.144   4.553   2.821
  665SOL    HW1 2894   2.215   4.484   2.835
  665SOL    HW2 2895   2.163   4.634   2.876
  666SOL     OW 2896   3.171   0.530   0.299
  666SOL    HW1 2897   3.118   0.613   0.279
  666SOL    HW2 2898   3.108   0.453   0.314
  667SOL     OW 2899   1.743   3.005   2.107
  667SOL    HW1 2900   1.649   3.030   2.083
  667SOL    HW2 2901   1.773   3.060   2.185
  668SOL     OW 2902   5.016   6.982   0.726
  668SOL    HW1 2903   4.941   6.916   0.722
  668SOL    HW2 2904   5.039   7.001   0.822
  669SOL     OW 2905   6.318   5.690   2.736
  669SOL    HW1 2906   6.404   5.695   2.786
  669SOL    HW2 2907   6.251   5.752   2.777
  670SOL     OW 2908   3.019   3.928   3.246
  670SOL    HW1 2909   2.930   3.961   3.278
  670SOL    HW2 2910   3.088   3.945   3.317
  671SOL     OW 2911   1.397   0.224   6.828
  671SOL    HW1 2912   1.365   0.141   6.874
  671SOL    HW2 2913   1.404   0.298   6.895
  672SOL     OW 2914   0.578   2.169   3.120
  672SOL    HW1 2915   0.581   2.070   3.111
  672SOL    HW2 2916   0.520   2.193   3.198
  673SOL     OW 2917   4.902   0.856   6.513
  673SOL    HW1 2918   4.865   0.834   6.423
  673SOL    HW2 2919   4.889   0.778   6.575
  674SOL     OW 2920   6.683   2.568   4.404
  674SOL    HW1 2921   6.743   2.504   4.356
  674SOL    HW2 2922   6.714   2.578   4.499
  675SOL     OW 2923   5.694   6.920   3.749
  675SOL    HW1 2924   5.647   7.007   3.739
  675SOL    HW2 2925   5.770   6.915   3.685
  676SOL     OW 2926   3.426   4.799   5.113
  676SOL    HW1 2927   3.460   4.893   5.104
  676SOL    HW2 2928   3.328   4.797   5.097
  677SOL     OW 2929   5.039   6.418   0.622
  677SOL    HW1 2930   5.039   6.393   0.525
  677SOL    HW2 2931   5.040   6.335   0.678
  678SOL     OW 2932   2.344   0.758   6.410
  678SOL    HW1 2933   2.431   0.804   6.421
  678SOL    HW2 2934   2.358   0.669   6.366
  679SOL     OW 2935   6.869   0.119   2.644
  679SOL    HW1 2936   6.809   0.194   2.614
  679SOL    HW2 2937   6.813   0.046   2.684
  680SOL     OW 2938   6.065   3.196   4.110
  680SOL    HW1 2939   6.090   3.226   4.018
  680SOL    HW2 2940   6.130   3.127   4.141
  681SOL     OW 2941   0.744   5.131   3.103
  681SOL    HW1 2942   0.745   5.196   3.179
  681SOL    HW2 2943   0.811   5.059   3.121
  682SOL     OW 2944   0.487   6.986   5.820
  682SOL    HW1 2945   0.470   6.892   5.792
  682SOL    HW2 2946   0.480   6.993   5.920
  683SOL     OW 2947   5.335   1.212   1.393
  683SOL    HW1 2948   5.386   1.298   1.388
  683SOL    HW2 2949   5.315   1.191   1.488
  684SOL     OW 2950   6.836   5.769   5.932
  684SOL    HW1 2951   6.907   5.761   5.862
  684SOL    HW2 2952   6.856   5.849   5.989
  685SOL     OW 2953   6.225   0.531   4.699
  685SOL    HW1 2954   6.289   0.601   4.730
  685SOL    HW2 2955   6.131   0.563   4.715
  686SOL     OW 2956   5.889   4.387   0.860
  686SOL    HW1 2957   5.907   4.289   0.862
  686SOL    HW2 2958   5.952   4.434   0.923
  687SOL     OW 2959   5.472   2.650   6.924
  687SOL    HW1 2960   5.538   2.597   6.871
  687SOL    HW2 2961   5.394   2.591   6.948
  688SOL     OW 2962   6.528   2.718   5.190
  688SOL    HW1 2963   6.547   2.729   5.093
  688SOL    HW2 2964   6.536   2.621   5.214
  689SOL     OW 2965   5.302   4.893   4.409
  689SOL    HW1 2966   5.397   4.863   4.401
  689SOL    HW2 2967   5.276   4.893   4.506
  690SOL     OW 2968   6.838   2.373   4.327
  690SOL    HW1 2969   6.937   2.384   4.339
  690SOL    HW2 2970   6.804   2.306   4.392
  691SOL     OW 2971   1.189   2.622   6.798
  691SOL    HW1 2972   1.224   2.669   6.879
  691SOL    HW2 2973   1.148   2.689   6.736
  692SOL     OW 2974   2.398   0.429   4.043
  692SOL    HW1 2975   2.465   0.358   4.020
  692SOL    HW2 2976   2.363   0.470   3.958
  693SOL     OW 2977   5.820   1.093   3.475
  693SOL    HW1 2978   5.917   1.108   3.495
  693SOL    HW2 2979   5.777   1.048   3.554
  694SOL     OW 2980   1.242   0.543   2.786
  694SOL    HW1 2981   1.240   0.459   2.732
  694SOL    HW2 2982   1.310   0.534   2.859
  695SOL     OW 2983   4.622   5.838   6.555
  695SOL    HW1 2984   4.604   5.758   6.498
  695SOL    HW2 2985   4.715   5.834   6.591
  696SOL     OW 2986   5.367   5.756   2.411
  696SOL    HW1 2987   5.446   5.761   2.472
  696SOL    HW2 2988   5.396   5.768   2.316
  697SOL     OW 2989   1.460   4.036   3.020
  697SOL    HW1 2990   1.404   4.002   2.944
  697SOL    HW2 2991   1.473   4.135   3.008
  698SOL     OW 2992   4.589   6.411   4.442
  698SOL    HW1 2993   4.586   6.334   4.378
  698SOL    HW2 2994   4.517   6.400   4.511
  699SOL     OW 2995   1.875   5.829   6.118
  699SOL    HW1 2996   1.873   5.790   6.210
  699SOL    HW2 2997   1.899   5.757   6.052
  700SOL     OW 2998   2.009   2.291   4.657
  700SOL    HW1 2999   1.913   2.267   4.643
  700SOL    HW2 3000   2.042   2.345   4.580
  701SOL     OW 3001   0.516   4.688   6.047
  701SOL    HW1 3002   0.422   4.664   6.023
  701SOL    HW2 3003   0.521   4.707   6.145
  702SOL     OW 3004   5.780   6.132   5.405
  702SOL    HW1 3005   5.723   6.065   5.453
  702SOL    HW2 3006   5.848   6.084   5.350
  703SOL     OW 3007   5.891   3.707   6.106
  703SOL    HW1 3008   5.838   3.633   6.064
  703SOL    HW2 3009   5.829   3.775   6.145
  704SOL     OW 3010   2.360   0.077   2.194
  704SOL    HW1 3011   2.450   0.117   2.176
  704SOL    HW2 3012   2.317   0.053   2.107
  705SOL     OW 3013   1.320   1.863   4.448
  705SOL    HW1 3014   1.375   1.924   4.506
  705SOL    HW2 3015   1.356   1.866   4.355
  706SOL     OW 3016   5.670   3.477   3.604
  706SOL    HW1 3017   5.600   3.519   3.546
  706SOL    HW2 3018   5.753   3.461   3.551
  707SOL     OW 3019   4.904   3.122   3.005
  707SOL    HW1 3020   4.936   3.108   2.911
  707SOL    HW2 3021   4.878   3.218   3.017
  708SOL     OW 3022   5.303   1.107   1.647
  708SOL    HW1 3023   5.241   1.033   1.673
  708SOL    HW2 3024   5.290   1.185   1.709
  709SOL     OW 3025   1.565   3.753   6.544
  709SOL    HW1 3026   1.472   3.727   6.567
  709SOL    HW2 3027   1.568   3.790   6.451
  710SOL     OW 3028   3.145   3.555   3.700
  710SOL    HW1 3029   3.177   3.593   3.787
  710SOL    HW2 3030   3.047   3.537   3.705
  711SOL     OW 3031   1.275   0.801   3.746
  711SOL    HW1 3032   1.333   0.720   3.759
  711SOL    HW2 3033   1.227   0.793   3.659
  712SOL     OW 3034   6.923   4.755   3.564
  712SOL    HW1 3035   6.841   4.798   3.601
  712SOL    HW2 3036   7.001   4.817   3.572
  713SOL     OW 3037   2.340   3.721   5.491
  713SOL    HW1 3038   2.306   3.756   5.403
  713SOL    HW2 3039   2.439   3.733   5.495
  714SOL     OW 3040   4.648   4.895   4.524
  714SOL    HW1 3041   4.668   4.811   4.576
  714SOL    HW2 3042   4.549   4.908   4.518
  715SOL     OW 3043   6.647   0.070   6.162
  715SOL    HW1 3044   6.729   0.125   6.173
  715SOL    HW2 3045   6.647   7.017   6.230
  716SOL     OW 3046   6.546   5.876   6.590
  716SOL    HW1 3047   6.619   5.812   6.568
  716SOL    HW2 3048   6.458   5.827   6.592
  717SOL     OW 3049   5.822   2.514   6.191
  717SOL    HW1 3050   5.884   2.592   6.202
  717SOL    HW2 3051   5.760   2.531   6.115
  718SOL     OW 3052   3.417   3.186   0.681
  718SOL    HW1 3053   3.477   3.164   0.604
  718SOL    HW2 3054   3.467   3.242   0.747
  719SOL     OW 3055   6.434   4.295   6.597
  719SOL    HW1 3056   6.393   4.265   6.683
  719SOL    HW2 3057   6.385   4.254   6.520
  720SOL     OW 3058   3.885   0.831   5.789
  720SOL    HW1 3059   3.850   0.748   5.833
  720SOL    HW2 3060   3.984   0.833   5.797
  721SOL     OW 3061   1.416   0.043   5.573
  721SOL    HW1 3062   1.353   6.989   5.592
  721SOL    HW2 3063   1.372   0.130   5.595
  722SOL     OW 3064   4.716   1.334   5.194
  722SOL    HW1 3065   4.703   1.308   5.099
  722SOL    HW2 3066   4.701   1.433   5.205
  723SOL     OW 3067   0.010   3.761   1.663
  723SOL    HW1 3068   0.003   3.843   1.606
  723SOL    HW2 3069   0.090   3.768   1.723
  724SOL     OW 3070   0.607   2.486   4.584
  724SOL    HW1 3071   0.620   2.568   4.640
  724SOL    HW2 3072   0.688   2.472   4.527
  725SOL     OW 3073   2.491   5.328   2.005
  725SOL    HW1 3074   2.519   5.233   2.016
  725SOL    HW2 3075   2.395   5.337   2.030
  726SOL     OW 3076   5.698   6.273   6.565
  726SOL    HW1 3077   5.770   6.308   6.506
  726SOL    HW2 3078   5.734   6.255   6.656
  727SOL     OW 3079   1.697   4.966   4.486
  727SOL    HW1 3080   1.724   4.925   4.573
  727SOL    HW2 3081   1.718   4.902   4.411
  728SOL     OW 3082   6.612   1.975   6.279
  728SOL    HW1 3083   6.652   2.046   6.222
  728SOL    HW2 3084   6.685   1.916   6.314
  729SOL     OW 3085   4.142   1.668   0.645
  729SOL    HW1 3086   4.187   1.753   0.673
  729SOL    HW2 3087   4.056   1.658   0.696
  730SOL     OW 3088   6.025   1.132   3.837
  730SOL    HW1 3089   6.125   1.136   3.826
  730SOL    HW2 3090   6.003   1.120   3.933
  731SOL     OW 3091   0.447   2.176   3.737
  731SOL    HW1 3092   0.524   2.121   3.704
  731SOL    HW2 3093   0.473   2.273   3.737
  732SOL     OW 3094   0.297   3.717   3.660
  732SOL    HW1 3095   0.389   3.748   3.684
  732SOL    HW2 3096   0.240   3.716   3.742
  733SOL     OW 3097   5.101   4.507   4.729
  733SOL    HW1 3098   5.192   4.467   4.746
  733SOL    HW2 3099   5.032   4.434   4.733
  734SOL     OW 3100   0.927   6.758   6.970
  734SOL    HW1 3101   0.836   6.763   6.928
  734SOL    HW2 3102   0.993   6.806   6.913
  735SOL     OW 3103   3.612   4.236   0.045
  735SOL    HW1 3104   3.524   4.239   7.018
  735SOL    HW2 3105   3.637   4.141   0.063
  736SOL     OW 3106   5.888   1.074   2.295
  736SOL    HW1 3107   5.810   1.015   2.274
  736SOL    HW2 3108   5.922   1.116   2.212
  737SOL     OW 3109   5.169   3.732   0.235
  737SOL    HW1 3110   5.203   3.788   0.311
  737SOL    HW2 3111   5.093   3.780   0.190
  738SOL     OW 3112   6.150   3.918   4.530
  738SOL    HW1 3113   6.096   3.880   4.456
  738SOL    HW2 3114   6.245   3.885   4.524
  739SOL     OW 3115   4.700   6.116   6.254
  739SOL    HW1 3116   4.617   6.152   6.296
  739SOL    HW2 3117   4.760   6.078   6.325
  740SOL     OW 3118   5.873   6.642   0.534
  740SOL    HW1 3119   5.777   6.663   0.517
  740SOL    HW2 3120   5.926   6.726   0.539
  741SOL     OW 3121   1.883   0.528   3.679
  741SOL    HW1 3122   1.832   0.445   3.655
  741SOL    HW2 3123   1.932   0.562   3.599
  742SOL     OW 3124   1.236   6.154   2.524
  742SOL    HW1 3125   1.208   6.246   2.498
  742SOL    HW2 3126   1.181   6.087   2.474
  743SOL     OW 3127   1.768   3.197   2.321
  743SOL    HW1 3128   1.827   3.252   2.380
  743SOL    HW2 3129   1.732   3.254   2.247
  744SOL     OW 3130   6.842   5.129   0.569
  744SOL    HW1 3131   6.777   5.063   0.606
  744SOL    HW2 3132   6.811   5.222   0.588
  745SOL     OW 3133   1.296   6.478   1.882
  745SOL    HW1 3134   1.307   6.577   1.872
  745SOL    HW2 3135   1.200   6.457   1.898
  746SOL     OW 3136   3.143   0.116   3.372
  746SOL    HW1 3137   3.175   0.076   3.458
  746SOL    HW2 3138   3.218   0.116   3.305
  747SOL     OW 3139   6.998   4.284   0.364
  747SOL    HW1 3140   0.022   4.263   0.452
  747SOL    HW2 3141   6.901   4.256   0.368
  748SOL     OW 3142   3.344   2.974   3.420
  748SOL    HW1 3143   3.383   2.906   3.358
  748SOL    HW2 3144   3.278   3.031   3.370
  749SOL     OW 3145   5.201   2.817   5.693
  749SOL    HW1 3146   5.235   2.728   5.723
  749SOL    HW2 3147   5.175   2.812   5.596
  750SOL     OW 3148   3.008   3.424   2.007
  750SOL    HW1 3149   2.955   3.504   1.979
  750SOL    HW2 3150   2.964   3.341   1.972
  751SOL     OW 3151   5.614   1.120   0.243
  751SOL    HW1 3152   5.544   1.105   0.313
  751SOL    HW2 3153   5.630   1.218   0.233
  752SOL     OW 3154   4.412   0.550   2.213
  752SOL    HW1 3155   4.383   0.590   2.300
  752SOL    HW2 3156   4.372   0.602   2.138
  753SOL     OW 3157   3.367   1.727   1.785
  753SOL    HW1 3158   3.320   1.814   1.772
  753SOL    HW2 3159   3.450   1.741   1.840
  754SOL     OW 3160   5.245   5.288   6.731
  754SOL    HW1 3161   5.265   5.216   6.798
  754SOL    HW2 3162   5.216   5.371   6.779
  755SOL     OW 3163   5.764   4.938   2.488
  755SOL    HW1 3164   5.736   4.864   2.426
  755SOL    HW2 3165   5.699   5.013   2.482
  756SOL     OW 3166   1.933   6.744   4.361
  756SOL    HW1 3167   2.021   6.773   4.396
  756SOL    HW2 3168   1.943   6.712   4.266
  757SOL     OW 3169   0.392   0.755   4.120
  757SOL    HW1 3170   0.298   0.788   4.124
  757SOL    HW2 3171   0.413   0.705   4.205
  758SOL     OW 3172   4.160   2.106   0.497
  758SOL    HW1 3173   4.238   2.122   0.557
  758SOL    HW2 3174   4.193   2.066   0.411
  759SOL     OW 3175   2.141   0.294   1.516
  759SOL    HW1 3176   2.069   0.237   1.555
  759SOL    HW2 3177   2.157   0.267   1.421
  760SOL     OW 3178   4.886   1.467   6.170
  760SOL    HW1 3179   4.823   1.496   6.242
  760SOL    HW2 3180   4.922   1.377   6.192
  761SOL     OW 3181   5.228   0.637   6.634
  761SOL    HW1 3182   5.255   0.696   6.558
  761SOL    HW2 3183   5.306   0.623   6.695
  762SOL     OW 3184   2.523   4.629   4.937
  762SOL    HW1 3185   2.510   4.605   4.841
  762SOL    HW2 3186   2.620   4.644   4.954
  763SOL     OW 3187   0.590   4.667   0.983
  763SOL    HW1 3188   0.547   4.721   1.056
  763SOL    HW2 3189   0.689   4.682   0.985
  764SOL     OW 3190   6.118   1.280   2.560
  764SOL    HW1 3191   6.172   1.343   2.617
  764SOL    HW2 3192   6.143   1.293   2.464
  765SOL     OW 3193   1.043   6.444   3.096
  765SOL    HW1 3194   1.123   6.488   3.055
  765SOL    HW2 3195   1.009   6.373   3.035
  766SOL     OW 3196   0.421   5.835   0.028
  766SOL    HW1 3197   0.505   5.883   0.053
  766SOL    HW2 3198   0.345   5.899   0.027
  767SOL     OW 3199   5.909   6.195   1.347
  767SOL    HW1 3200   6.006   6.173   1.360
  767SOL    HW2 3201   5.896   6.294   1.353
  768SOL     OW 3202   2.587   6.449   4.042
  768SOL    HW1 3203   2.573   6.474   3.947
  768SOL    HW2 3204   2.669   6.495   4.077
  769SOL     OW 3205   3.591   0.574   0.398
  769SOL    HW1 3206   3.616   0.669   0.420
  769SOL    HW2 3207   3.493   0.562   0.409
  770SOL     OW 3208   3.580   5.636   4.876
  770SOL    HW1 3209   3.655   5.678   4.927
  770SOL    HW2 3210   3.593   5.537   4.875
  771SOL     OW 3211   0.433   6.967   4.608
  771SOL    HW1 3212   0.453   6.895   4.675
  771SOL    HW2 3213   0.472   6.941   4.519
  772SOL     OW 3214   0.839   3.007   6.607
  772SOL    HW1 3215   0.825   3.102   6.580
  772SOL    HW2 3216   0.828   2.999   6.707
  773SOL     OW 3217   6.658   3.392   1.785
  773SOL    HW1 3218   6.622   3.352   1.700
  773SOL    HW2 3219   6.633   3.333   1.862
  774SOL     OW 3220   1.276   1.028   1.883
  774SOL    HW1 3221   1.184   1.005   1.915
  774SOL    HW2 3222   1.274   1.115   1.833
  775SOL     OW 3223   1.866   2.594   4.227
  775SOL    HW1 3224   1.882   2.631   4.318
  775SOL    HW2 3225   1.770   2.603   4.203
  776SOL     OW 3226   2.445   1.204   5.527
  776SOL    HW1 3227   2.430   1.185   5.430
  776SOL    HW2 3228   2.541   1.225   5.542
  777SOL     OW 3229   4.117   0.280   0.083
  777SOL    HW1 3230   4.071   0.204   0.038
  777SOL    HW2 3231   4.114   0.360   0.023
  778SOL     OW 3232   4.584   6.039   5.184
  778SOL    HW1 3233   4.510   5.975   5.163
  778SOL    HW2 3234   4.600   6.099   5.106
  779SOL     OW 3235   0.456   0.333   2.271
  779SOL    HW1 3236   0.363   0.359   2.298
  779SOL    HW2 3237   0.484   0.251   2.321
  780SOL     OW 3238   5.469   2.385   5.071
  780SOL    HW1 3239   5.424   2.320   5.132
  780SOL    HW2 3240   5.568   2.381   5.085
  781SOL     OW 3241   1.794   4.201   0.264
  781SOL    HW1 3242   1.784   4.301   0.256
  781SOL    HW2 3243   1.751   4.157   0.185
  782SOL     OW 3244   0.150   5.537   0.671
  782SOL    HW1 3245   0.242   5.541   0.709
  782SOL    HW2 3246   0.123   5.442   0.658
  783SOL     OW 3247   1.666   5.353   0.771
  783SOL    HW1 3248   1.749   5.322   0.818
  783SOL    HW2 3249   1.653   5.299   0.688
  784SOL     OW 3250   5.132   5.461   3.144
  784SOL    HW1 3251   5.079   5.545   3.147
  784SOL    HW2 3252   5.082   5.388   3.190
  785SOL     OW 3253   6.208   2.852   3.183
  785SOL    HW1 3254   6.231   2.860   3.280
  785SOL    HW2 3255   6.288   2.875   3.128
  786SOL     OW 3256   6.319   6.622   1.433
  786SOL    HW1 3257   6.265   6.578   1.362
  786SOL    HW2 3258   6.271   6.613   1.521
  787SOL     OW 3259   4.144   1.203   6.374
  787SOL    HW1 3260   4.078   1.146   6.324
  787SOL    HW2 3261   4.195   1.147   6.438
  788SOL     OW 3262   0.006   4.512   3.583
  788SOL    HW1 3263   0.041   4.481   3.495
  788SOL    HW2 3264   6.978   4.599   3.571
  789SOL     OW 3265   6.259   3.206   0.440
  789SOL    HW1 3266   6.231   3.218   0.535
  789SOL    HW2 3267   6.214   3.126   0.401
  790SOL     OW 3268   2.564   0.522   4.250
  790SOL    HW1 3269   2.523   0.538   4.339
  790SOL    HW2 3270   2.495   0.531   4.179
  791SOL     OW 3271   3.432   0.981   4.199
  791SOL    HW1 3272   3.453   1.016   4.107
  791SOL    HW2 3273   3.344   0.934   4.197
  792SOL     OW 3274   5.405   0.888   3.944
  792SOL    HW1 3275   5.490   0.939   3.944
  792SOL    HW2 3276   5.381   0.862   3.851
  793SOL     OW 3277   0.222   6.756   6.780
  793SOL    HW1 3278   0.227   6.825   6.708
  793SOL    HW2 3279   0.126   6.733   6.797
  794SOL     OW 3280   3.753   5.216   4.831
  794SOL    HW1 3281   3.767   5.124   4.795
  794SOL    HW2 3282   3.827   5.239   4.895
  795SOL     OW 3283   5.157   5.510   6.871
  795SOL    HW1 3284   5.190   5.598   6.904
  795SOL    HW2 3285   5.117   5.458   6.947
  796SOL     OW 3286   0.829   1.633   6.113
  796SOL    HW1 3287   0.824   1.536   6.089
  796SOL    HW2 3288   0.740   1.665   6.143
  797SOL     OW 3289   5.782   2.949   5.728
  797SOL    HW1 3290   5.719   3.027   5.729
  797SOL    HW2 3291   5.760   2.890   5.651
  798SOL     OW 3292   6.308   0.527   4.317
  798SOL    HW1 3293   6.356   0.607   4.280
  798SOL    HW2 3294   6.213   0.552   4.338
  799SOL     OW 3295   6.603   3.621   3.756
  799SOL    HW1 3296   6.517   3.672   3.750
  799SOL    HW2 3297   6.677   3.684   3.779
  800SOL     OW 3298   0.581   2.432   2.507
  800SOL    HW1 3299   0.587   2.345   2.556
  800SOL    HW2 3300   0.671   2.458   2.472
  801SOL     OW 3301   0.219   3.698   3.402
  801SOL    HW1 3302   0.270   3.718   3.486
  801SOL    HW2 3303   0.121   3.692   3.424
  802SOL     OW 3304   6.766   1.213   0.897
  802SOL    HW1 3305   6.667   1.205   0.902
  802SOL    HW2 3306   6.804   1.218   0.990
  803SOL     OW 3307   2.210   6.788   4.452
  803SOL    HW1 3308   2.207   6.741   4.540
  803SOL    HW2 3309   2.249   6.880   4.464
  804SOL     OW 3310   5.909   5.842   0.496
  804SOL    HW1 3311   5.843   5.789   0.549
  804SOL    HW2 3312   5.879   5.846   0.401
  805SOL     OW 3313   2.197   2.632   6.191
  805SOL    HW1 3314   2.140   2.704   6.151
  805SOL    HW2 3315   2.155   2.543   6.175
  806SOL     OW 3316   4.205   6.389   0.257
  806SOL    HW1 3317   4.200   6.299   0.303
  806SOL    HW2 3318   4.131   6.447   0.292
  807SOL     OW 3319   0.228   0.891   3.557
  807SOL    HW1 3320   0.156   0.859   3.494
  807SOL    HW2 3321   0.247   0.987   3.538
  808SOL     OW 3322   5.630   3.706   4.995
  808SOL    HW1 3323   5.561   3.751   5.052
  808SOL    HW2 3324   5.612   3.728   4.899
  809SOL     OW 3325   0.112   5.574   5.714
  809SOL    HW1 3326   0.075   5.501   5.772
  809SOL    HW2 3327   0.135   5.536   5.624
  810SOL     OW 3328   5.935   5.017   5.981
  810SOL    HW1 3329   5.982   5.105   5.990
  810SOL    HW2 3330   5.900   5.007   5.887
  811SOL     OW 3331   2.901   4.978   2.865
  811SOL    HW1 3332   2.870   4.884   2.848
  811SOL    HW2 3333   2.973   5.001   2.799
  812SOL     OW 3334   0.028   0.477   2.851
  812SOL    HW1 3335   0.125   0.481   2.878
  812SOL    HW2 3336   7.010   0.388   2.877
  813SOL     OW 3337   4.946   4.817   1.695
  813SOL    HW1 3338   4.879   4.823   1.769
  813SOL    HW2 3339   5.024   4.762   1.725
  814SOL     OW 3340   5.174   5.320   1.505
  814SOL    HW1 3341   5.191   5.267   1.589
  814SOL    HW2 3342   5.225   5.278   1.429
  815SOL     OW 3343   1.013   1.138   1.348
  815SOL    HW1 3344   0.944   1.210   1.355
  815SOL    HW2 3345   0.971   1.054   1.313
  816SOL     OW 3346   5.715   0.401   1.829
  816SOL    HW1 3347   5.638   0.340   1.850
  816SOL    HW2 3348   5.801   0.356   1.854
  817SOL     OW 3349   0.619   2.348   1.961
  817SOL    HW1 3350   0.592   2.255   1.936
  817SOL    HW2 3351   0.545   2.392   2.011
  818SOL     OW 3352   5.702   1.438   2.937
  818SOL    HW1 3353   5.726   1.534   2.953
  818SOL    HW2 3354   5.748   1.406   2.854
  819SOL     OW 3355   0.149   5.098   2.589
  819SOL    HW1 3356   0.101   5.048   2.517
  819SOL    HW2 3357   0.150   5.196   2.568
  820SOL     OW 3358   2.407   3.305   5.781
  820SOL    HW1 3359   2.487   3.338   5.832
  820SOL    HW2 3360   2.376   3.218   5.820
  821SOL     OW 3361   1.353   4.282   0.479
  821SOL    HW1 3362   1.361   4.367   0.427
  821SOL    HW2 3363   1.436   4.267   0.533
  822SOL     OW 3364   0.381   3.218   5.280
  822SOL    HW1 3365   0.412   3.290   5.342
  822SOL    HW2 3366   0.450   3.146   5.274
  823SOL     OW 3367   4.086   4.201   1.498
  823SOL    HW1 3368   4.157   4.188   1.567
  823SOL    HW2 3369   4.121   4.173   1.409
  824SOL     OW 3370   6.448   3.161   6.569
  824SOL    HW1 3371   6.399   3.089   6.618
  824SOL    HW2 3372   6.516   3.120   6.508
  825SOL     OW 3373   2.096   2.968   1.240
  825SOL    HW1 3374   2.088   2.928   1.331
  825SOL    HW2 3375   2.005   2.986   1.203
  826SOL     OW 3376   0.984   1.736   6.848
  826SOL    HW1 3377   0.977   1.644   6.809
  826SOL    HW2 3378   1.066   1.781   6.813
  827SOL     OW 3379   3.727   4.639   1.093
  827SOL    HW1 3380   3.784   4.612   1.015
  827SOL    HW2 3381   3.646   4.688   1.060
  828SOL     OW 3382   5.741   1.247   5.472
  828SOL    HW1 3383   5.786   1.159   5.455
  828SOL    HW2 3384   5.644   1.232   5.488
  829SOL     OW 3385   4.208   4.448   5.533
  829SOL    HW1 3386   4.222   4.525   5.471
  829SOL    HW2 3387   4.112   4.422   5.533
  830SOL     OW 3388   4.250   3.292   6.461
  830SOL    HW1 3389   4.291   3.378   6.493
  830SOL    HW2 3390   4.151   3.303   6.455
  831SOL     OW 3391   5.247   1.762   5.333
  831SOL    HW1 3392   5.317   1.792   5.398
  831SOL    HW2 3393   5.282   1.685   5.279
  832SOL     OW 3394   2.849   1.638   5.740
  832SOL    HW1 3395   2.866   1.575   5.816
  832SOL    HW2 3396   2.936   1.657   5.693
  833SOL     OW 3397   1.260   0.356   5.339
  833SOL    HW1 3398   1.297   0.381   5.429
  833SOL    HW2 3399   1.214   0.435   5.298
  834SOL     OW 3400   2.708   4.687   5.660
  834SOL    HW1 3401   2.633   4.682   5.727
  834SOL    HW2 3402   2.734   4.595   5.632
  835SOL     OW 3403   3.992   1.816   2.772
  835SOL    HW1 3404   3.941   1.816   2.859
  835SOL    HW2 3405   4.046   1.900   2.766
  836SOL     OW 3406   2.235   1.334   5.606
  836SOL    HW1 3407   2.331   1.318   5.585
  836SOL    HW2 3408   2.190   1.247   5.626
  837SOL     OW 3409   4.077   1.607   4.182
  837SOL    HW1 3410   4.095   1.509   4.175
  837SOL    HW2 3411   3.988   1.627   4.141
  838SOL     OW 3412   0.464   6.623   2.328
  838SOL    HW1 3413   0.421   6.572   2.403
  838SOL    HW2 3414   0.420   6.712   2.318
  839SOL     OW 3415   2.059   1.681   2.220
  839SOL    HW1 3416   1.974   1.637   2.190
  839SOL    HW2 3417   2.049   1.713   2.314
  840SOL     OW 3418   2.002   0.939   5.302
  840SOL    HW1 3419   2.008   0.965   5.398
  840SOL    HW2 3420   1.927   0.874   5.289
  841SOL     OW 3421   0.604   3.571   0.744
  841SOL    HW1 3422   0.603   3.631   0.824
  841SOL    HW2 3423   0.643   3.483   0.769
  842SOL     OW 3424   3.861   4.934   3.867
  842SOL    HW1 3425   3.826   4.859   3.810
  842SOL    HW2 3426   3.800   4.948   3.945
  843SOL     OW 3427   6.662   2.869   1.400
  843SOL    HW1 3428   6.676   2.955   1.449
  843SOL    HW2 3429   6.747   2.818   1.396
  844SOL     OW 3430   5.528   4.984   6.409
  844SOL    HW1 3431   5.564   5.067   6.366
  844SOL    HW2 3432   5.587   4.907   6.388
  845SOL     OW 3433   2.027   5.200   5.570
  845SOL    HW1 3434   1.961   5.158   5.632
  845SOL    HW2 3435   2.049   5.293   5.602
  846SOL     OW 3436   5.096   1.865   0.213
  846SOL    HW1 3437   5.156   1.801   0.164
  846SOL    HW2 3438   5.009   1.821   0.233
  847SOL     OW 3439   5.134   4.449   1.876
  847SOL    HW1 3440   5.229   4.422   1.862
  847SOL    HW2 3441   5.099   4.406   1.959
  848SOL     OW 3442   5.554   0.400   5.692
  848SOL    HW1 3443   5.564   0.308   5.654
  848SOL    HW2 3444   5.553   0.467   5.617
  849SOL     OW 3445   0.974   7.000   3.863
  849SOL    HW1 3446   1.064   0.015   3.890
  849SOL    HW2 3447   0.914   6.997   3.943
  850SOL     OW 3448   2.796   0.838   3.341
  850SOL    HW1 3449   2.846   0.855   3.426
  850SOL    HW2 3450   2.859   0.807   3.270
  851SOL     OW 3451   6.753   1.390   5.926
  851SOL    HW1 3452   6.825   1.323   5.944
  851SOL    HW2 3453   6.790   1.482   5.932
  852SOL     OW 3454   3.498   5.226   4.499
  852SOL    HW1 3455   3.499   5.148   4.562
  852SOL    HW2 3456   3.519   5.309   4.550
  853SOL     OW 3457   0.829   4.082   0.510
  853SOL    HW1 3458   0.741   4.063   0.466
  853SOL    HW2 3459   0.903   4.064   0.445
  854SOL     OW 3460   6.448   5.161   1.086
  854SOL    HW1 3461   6.354   5.192   1.072
  854SOL    HW2 3462   6.449   5.089   1.156
  855SOL     OW 3463   4.806   0.411   0.431
  855SOL    HW1 3464   4.817   0.430   0.334
  855SOL    HW2 3465   4.875   0.344   0.460
  856SOL     OW 3466   1.440   0.714   5.188
  856SOL    HW1 3467   1.419   0.809   5.212
  856SOL    HW2 3468   1.488   0.670   5.264
  857SOL     OW 3469   6.314   4.375   2.224
  857SOL    HW1 3470   6.385   4.419   2.169
  857SOL    HW2 3471   6.339   4.279   2.240
  858SOL     OW 3472   3.356   3.966   1.713
  858SOL    HW1 3473   3.376   3.916   1.797
  858SOL    HW2 3474   3.270   4.015   1.723
  859SOL     OW 3475   6.580   4.400   1.118
  859SOL    HW1 3476   6.614   4.477   1.172
  859SOL    HW2 3477   6.594   4.419   1.021
  860SOL     OW 3478   1.548   4.114   5.628
  860SOL    HW1 3479   1.504   4.056   5.560
  860SOL    HW2 3480   1.522   4.085   5.719
  861SOL     OW 3481   4.452   4.428   6.326
  861SOL    HW1 3482   4.405   4.517   6.324
  861SOL    HW2 3483   4.471   4.404   6.421
  862SOL     OW 3484   4.405   4.594   3.641
  862SOL    HW1 3485   4.470   4.669   3.627
  862SOL    HW2 3486   4.399   4.539   3.558
  863SOL     OW 3487   6.306   3.223   1.544
  863SOL    HW1 3488   6.303   3.319   1.571
  863SOL    HW2 3489   6.217   3.197   1.506
  864SOL     OW 3490   1.000   6.298   1.905
  864SOL    HW1 3491   0.911   6.318   1.946
  864SOL    HW2 3492   1.066   6.275   1.977
  865SOL     OW 3493   1.498   1.312   3.773
  865SOL    HW1 3494   1.493   1.365   3.689
  865SOL    HW2 3495   1.501   1.375   3.851
  866SOL     OW 3496   4.174   1.126   1.735
  866SOL    HW1 3497   4.133   1.119   1.826
  866SOL    HW2 3498   4.245   1.057   1.724
  867SOL     OW 3499   3.004   1.552   6.232
  867SOL    HW1 3500   2.928   1.617   6.222
  867SOL    HW2 3501   3.086   1.590   6.190
  868SOL     OW 3502   4.948   1.899   3.104
  868SOL    HW1 3503   4.868   1.890   3.044
  868SOL    HW2 3504   4.954   1.993   3.137
  869SOL     OW 3505   6.814   3.892   0.580
  869SOL    HW1 3506   6.832   3.893   0.678
  869SOL    HW2 3507   6.775   3.803   0.554
  870SOL     OW 3508   6.134   1.455   0.758
  870SOL    HW1 3509   6.148   1.427   0.663
  870SOL    HW2 3510   6.218   1.439   0.810
  871SOL     OW 3511   6.675   4.440   0.324
  871SOL    HW1 3512   6.748   4.501   0.354
  871SOL    HW2 3513   6.685   4.351   0.368
  872SOL     OW 3514   6.973   1.566   1.982
  872SOL    HW1 3515   6.950   1.595   2.074
  872SOL    HW2 3516   6.954   1.641   1.918
  873SOL     OW 3517   3.960   0.175   4.272
  873SOL    HW1 3518   4.021   0.254   4.284
  873SOL    HW2 3519   3.929   0.142   4.361
  874SOL     OW 3520   1.304   3.654   6.617
  874SOL    HW1 3521   1.256   3.722   6.562
  874SOL    HW2 3522   1.248   3.572   6.626
  875SOL     OW 3523   5.868   6.238   6.334
  875SOL    HW1 3524   5.874   6.328   6.290
  875SOL    HW2 3525   5.831   6.171   6.270
  876SOL     OW 3526   2.813   2.237   1.776
  876SOL    HW1 3527   2.714   2.242   1.761
  876SOL    HW2 3528   2.835   2.271   1.868
  877SOL     OW 3529   6.416   5.994   6.182
  877SOL    HW1 3530   6.459   6.025   6.098
  877SOL    HW2 3531   6.473   5.923   6.224
  878SOL     OW 3532   4.384   3.546   0.978
  878SOL    HW1 3533   4.441   3.627   0.980
  878SOL    HW2 3534   4.430   3.471   1.025
  879SOL     OW 3535   5.223   3.094   3.057
  879SOL    HW1 3536   5.229   3.183   3.011
  879SOL    HW2 3537   5.138   3.089   3.108
  880SOL     OW 3538   4.524   0.159   1.425
  880SOL    HW1 3539   4.429   0.177   1.448
  880SOL    HW2 3540   4.577   0.148   1.509
  881SOL     OW 3541   4.780   5.486   3.187
  881SOL    HW1 3542   4.851   5.515   3.122
  881SOL    HW2 3543   4.789   5.539   3.272
  882SOL     OW 3544   0.697   2.277   4.931
  882SOL    HW1 3545   0.608   2.269   4.888
  882SOL    HW2 3546   0.689   2.257   5.029
  883SOL     OW 3547   3.327   5.002   6.746
  883SOL    HW1 3548   3.232   5.032   6.755
  883SOL    HW2 3549   3.362   4.975   6.836
  884SOL     OW 3550   4.086   4.772   1.000
  884SOL    HW1 3551   4.017   4.704   0.975
  884SOL    HW2 3552   4.067   4.858   0.953
  885SOL     OW 3553   3.639   5.504   6.336
  885SOL    HW1 3554   3.715   5.556   6.377
  885SOL    HW2 3555   3.672   5.414   6.307
  886SOL     OW 3556   4.183   2.572   6.229
  886SOL    HW1 3557   4.123   2.522   6.167
  886SOL    HW2 3558   4.208   2.513   6.306
  887SOL     OW 3559   6.327   6.728   5.101
  887SOL    HW1 3560   6.307   6.646   5.047
  887SOL    HW2 3561   6.329   6.705   5.198
  888SOL     OW 3562   6.428   1.288   3.619
  888SOL    HW1 3563   6.376   1.363   3.660
  888SOL    HW2 3564   6.525   1.311   3.619
  889SOL     OW 3565   0.785   0.685   4.660
  889SOL    HW1 3566   0.802   0.598   4.707
  889SOL    HW2 3567   0.872   0.724   4.629
  890SOL     OW 3568   2.700   3.134   0.581
  890SOL    HW1 3569   2.662   3.113   0.672
  890SOL    HW2 3570   2.628   3.171   0.523
  891SOL     OW 3571   6.108   3.039   5.540
  891SOL    HW1 3572   6.028   3.098   5.532
  891SOL    HW2 3573   6.101   2.985   5.624
  892SOL     OW 3574   2.218   4.660   2.004
  892SOL    HW1 3575   2.307   4.691   2.038
  892SOL    HW2 3576   2.229   4.570   1.961
  893SOL     OW 3577   1.869   0.395   2.153
  893SOL    HW1 3578   1.825   0.471   2.105
  893SOL    HW2 3579   1.899   0.326   2.087
  894SOL     OW 3580   1.299   5.002   4.209
  894SOL    HW1 3581   1.340   5.065   4.274
  894SOL    HW2 3582   1.316   5.034   4.116
  895SOL     OW 3583   2.566   1.308   4.460
  895SOL    HW1 3584   2.625   1.255   4.522
  895SOL    HW2 3585   2.538   1.250   4.384
  896SOL     OW 3586   4.791   0.439   3.645
  896SOL    HW1 3587   4.831   0.357   3.687
  896SOL    HW2 3588   4.823   0.447   3.551
  897SOL     OW 3589   6.360   1.220   6.974
  897SOL    HW1 3590   6.282   1.199   6.914
  897SOL    HW2 3591   6.341   1.185   0.046
  898SOL     OW 3592   4.962   5.814   3.567
  898SOL    HW1 3593   4.960   5.893   3.506
  898SOL    HW2 3594   4.999   5.842   3.656
  899SOL     OW 3595   1.468   4.749   0.186
  899SOL    HW1 3596   1.427   4.818   0.245
  899SOL    HW2 3597   1.513   4.679   0.242
  900SOL     OW 3598   0.100   5.800   3.664
  900SOL    HW1 3599   0.054   5.720   3.627
  900SOL    HW2 3600   0.158   5.841   3.593
  901SOL     OW 3601   6.675   2.001   3.503
  901SOL    HW1 3602   6.604   1.938   3.536
  901SOL    HW2 3603   6.641   2.095   3.508
  902SOL     OW 3604   1.474   5.894   0.091
  902SOL    HW1 3605   1.413   5.883   0.169
  902SOL    HW2 3606   1.568   5.874   0.119
  903SOL     OW 3607   1.266   4.727   6.630
  903SOL    HW1 3608   1.334   4.655   6.643
  903SOL    HW2 3609   1.299   4.793   6.562
  904SOL     OW 3610   1.429   2.552   4.475
  904SOL    HW1 3611   1.372   2.606   4.414
  904SOL    HW2 3612   1.400   2.566   4.570
  905SOL     OW 3613   6.328   3.070   3.581
  905SOL    HW1 3614   6.304   3.064   3.678
  905SOL    HW2 3615   6.386   3.151   3.566
  906SOL     OW 3616   6.862   2.931   5.532
  906SOL    HW1 3617   6.807   2.903   5.453
  906SOL    HW2 3618   6.866   2.856   5.598
  907SOL     OW 3619   6.904   4.081   3.127
  907SOL    HW1 3620   6.817   4.033   3.126
  907SOL    HW2 3621   6.971   4.028   3.074
  908SOL     OW 3622   2.604   1.167   3.552
  908SOL    HW1 3623   2.681   1.215   3.593
  908SOL    HW2 3624   2.521   1.223   3.560
  909SOL     OW 3625   3.167   6.886   2.549
  909SOL    HW1 3626   3.179   6.906   2.452
  909SOL    HW2 3627   3.253   6.902   2.597
  910SOL     OW 3628   1.233   0.677   2.530
  910SOL    HW1 3629   1.248   0.621   2.449
  910SOL    HW2 3630   1.252   0.622   2.612
  911SOL     OW 3631   1.198   2.629   0.924
  911SOL    HW1 3632   1.198   2.724   0.894
  911SOL    HW2 3633   1.107   2.590   0.911
  912SOL     OW 3634   2.126   0.895   1.140
  912SOL    HW1 3635   2.130   0.966   1.069
  912SOL    HW2 3636   2.203   0.906   1.203
  913SOL     OW 3637   2.105   0.572   1.636
  913SOL    HW1 3638   2.113   0.664   1.598
  913SOL    HW2 3639   2.127   0.504   1.566
  914SOL     OW 3640   3.175   4.852   2.214
  914SOL    HW1 3641   3.163   4.756   2.189
  914SOL    HW2 3642   3.109   4.908   2.165
  915SOL     OW 3643   3.485   2.438   1.319
  915SOL    HW1 3644   3.437   2.384   1.251
  915SOL    HW2 3645   3.553   2.381   1.365
  916SOL     OW 3646   0.308   3.927   2.603
  916SOL    HW1 3647   0.368   4.005   2.586
  916SOL    HW2 3648   0.360   3.842   2.592
  917SOL     OW 3649   3.766   0.783   5.361
  917SOL    HW1 3650   3.834   0.714   5.338
  917SOL    HW2 3651   3.700   0.744   5.426
  918SOL     OW 3652   6.725   2.424   5.119
  918SOL    HW1 3653   6.796   2.435   5.189
  918SOL    HW2 3654   6.748   2.346   5.061
  919SOL     OW 3655   0.924   0.207   0.882
  919SOL    HW1 3656   0.865   0.169   0.954
  919SOL    HW2 3657   0.944   0.303   0.903
  920SOL     OW 3658   1.415   1.888   2.644
  920SOL    HW1 3659   1.377   1.943   2.570
  920SOL    HW2 3660   1.505   1.924   2.670
  921SOL     OW 3661   4.364   4.191   0.136
  921SOL    HW1 3662   4.272   4.198   0.097
  921SOL    HW2 3663   4.423   4.259   0.092
  922SOL     OW 3664   2.238   5.993   6.497
  922SOL    HW1 3665   2.192   5.906   6.481
  922SOL    HW2 3666   2.325   5.976   6.545
  923SOL     OW 3667   3.506   1.112   6.980
  923SOL    HW1 3668   3.418   1.154   7.000
  923SOL    HW2 3669   3.518   1.031   0.017
  924SOL     OW 3670   5.483   5.179   1.731
  924SOL    HW1 3671   5.513   5.085   1.742
  924SOL    HW2 3672   5.383   5.181   1.723
  925SOL     OW 3673   5.903   1.905   1.684
  925SOL    HW1 3674   5.860   1.875   1.769
  925SOL    HW2 3675   5.854   1.864   1.607
  926SOL     OW 3676   4.072   5.841   1.691
  926SOL    HW1 3677   4.005   5.902   1.733
  926SOL    HW2 3678   4.152   5.894   1.660
  927SOL     OW 3679   5.577   5.323   5.607
  927SOL    HW1 3680   5.490   5.352   5.646
  927SOL    HW2 3681   5.563   5.290   5.514
  928SOL     OW 3682   0.005   1.311   1.761
  928SOL    HW1 3683   6.942   1.256   1.765
  928SOL    HW2 3684   7.003   1.406   1.785
  929SOL     OW 3685   6.870   1.983   2.462
  929SOL    HW1 3686   6.841   2.033   2.544
  929SOL    HW2 3687   6.936   2.038   2.411
  930SOL     OW 3688   5.923   4.339   2.513
  930SOL    HW1 3689   5.825   4.325   2.524
  930SOL    HW2 3690   5.939   4.429   2.472
  931SOL     OW 3691   0.088   2.887   1.171
  931SOL    HW1 3692   0.104   2.980   1.139
  931SOL    HW2 3693   0.090   2.825   1.092
  932SOL     OW 3694   4.777   6.214   0.359
  932SOL    HW1 3695   4.832   6.173   0.432
  932SOL    HW2 3696   4.699   6.262   0.398
  933SOL     OW 3697   0.601   6.522   3.231
  933SOL    HW1 3698   0.618   6.462   3.308
  933SOL    HW2 3699   0.608   6.470   3.146
  934SOL     OW 3700   4.097   1.994   5.025
  934SOL    HW1 3701   4.147   1.911   5.003
  934SOL    HW2 3702   4.127   2.068   4.965
  935SOL     OW 3703   0.974   4.218   4.286
  935SOL    HW1 3704   1.069   4.212   4.255
  935SOL    HW2 3705   0.913   4.221   4.207
  936SOL     OW 3706   0.926   1.087   1.660
  936SOL    HW1 3707   0.845   1.087   1.601
  936SOL    HW2 3708   0.959   1.181   1.671
  937SOL     OW 3709   4.693   2.133   2.626
  937SOL    HW1 3710   4.620   2.107   2.689
  937SOL    HW2 3711   4.666   2.214   2.575
  938SOL     OW 3712   0.523   0.773   6.325
  938SOL    HW1 3713   0.439   0.769   6.379
  938SOL    HW2 3714   0.591   0.713   6.366
  939SOL     OW 3715   0.324   0.793   4.694
  939SOL    HW1 3716   0.423   0.803   4.711
  939SOL    HW2 3717   0.298   0.697   4.708
  940SOL     OW 3718   6.124   0.116   3.772
  940SOL    HW1 3719   6.139   0.142   3.676
  940SOL    HW2 3720   6.155   0.022   3.786
  941SOL     OW 3721   5.626   2.917   4.684
  941SOL    HW1 3722   5.578   2.875   4.607
  941SOL    HW2 3723   5.642   2.848   4.754
  942SOL     OW 3724   4.021   6.302   6.373
  942SOL    HW1 3725   4.076   6.353   6.440
  942SOL    HW2 3726   3.952   6.248   6.422
  943SOL     OW 3727   5.246   1.691   0.062
  943SOL    HW1 3728   5.312   1.748   0.112
  943SOL    HW2 3729   5.280   1.597   0.057
  944SOL     OW 3730   5.110   4.677   4.283
  944SOL    HW1 3731   5.193   4.729   4.301
  944SOL    HW2 3732   5.034   4.716   4.335
  945SOL     OW 3733   6.150   3.089   6.316
  945SOL    HW1 3734   6.198   3.096   6.228
  945SOL    HW2 3735   6.155   2.995   6.349
  946SOL     OW 3736   6.440   3.000   6.099
  946SOL    HW1 3737   6.539   3.010   6.111
  946SOL    HW2 3738   6.412   3.047   6.015
  947SOL     OW 3739   1.412   1.756   6.170
  947SOL    HW1 3740   1.392   1.765   6.267
  947SOL    HW2 3741   1.329   1.731   6.121
  948SOL     OW 3742   3.555   2.091   1.190
  948SOL    HW1 3743   3.538   2.124   1.097
  948SOL    HW2 3744   3.654   2.082   1.204
  949SOL     OW 3745   5.407   5.087   6.004
  949SOL    HW1 3746   5.367   5.109   5.915
  949SOL    HW2 3747   5.372   5.152   6.073
  950SOL     OW 3748   3.705   5.223   0.929
  950SOL    HW1 3749   3.666   5.220   0.837
  950SOL    HW2 3750   3.759   5.307   0.939
  951SOL     OW 3751   0.349   3.194   3.222
  951SOL    HW1 3752   0.315   3.271   3.276
  951SOL    HW2 3753   0.383   3.123   3.283
  952SOL     OW 3754   4.596   1.322   1.151
  952SOL    HW1 3755   4.647   1.244   1.190
  952SOL    HW2 3756   4.654   1.371   1.086
  953SOL     OW 3757   4.178   6.696   5.784
  953SOL    HW1 3758   4.125   6.616   5.755
  953SOL    HW2 3759   4.154   6.774   5.726
  954SOL     OW 3760   6.463   6.376   1.482
  954SOL    HW1 3761   6.448   6.326   1.396
  954SOL    HW2 3762   6.445   6.474   1.467
  955SOL     OW 3763   1.370   6.260   3.563
  955SOL    HW1 3764   1.397   6.269   3.659
  955SOL    HW2 3765   1.359   6.163   3.540
  956SOL     OW 3766   1.779   2.736   0.637
  956SOL    HW1 3767   1.834   2.815   0.607
  956SOL    HW2 3768   1.697   2.769   0.684
  957SOL     OW 3769   2.504   5.917   4.250
  957SOL    HW1 3770   2.549   6.005   4.270
  957SOL    HW2 3771   2.504   5.861   4.333
  958SOL     OW 3772   4.407   2.634   6.551
  958SOL    HW1 3773   4.317   2.591   6.544
  958SOL    HW2 3774   4.396   2.733   6.556
  959SOL     OW 3775   1.748   4.452   0.205
  959SOL    HW1 3776   1.762   4.531   0.265
  959SOL    HW2 3777   1.651   4.445   0.182
  960SOL     OW 3778   1.753   3.727   5.758
  960SOL    HW1 3779   1.785   3.635   5.735
  960SOL    HW2 3780   1.807   3.794   5.707
  961SOL     OW 3781   3.698   6.453   6.699
  961SOL    HW1 3782   3.600   6.459   6.676
  961SOL    HW2 3783   3.722   6.528   6.760
  962SOL     OW 3784   0.391   0.080   3.800
  962SOL    HW1 3785   0.461   0.010   3.785
  962SOL    HW2 3786   0.300   0.036   3.802
  963SOL     OW 3787   5.752   6.850   3.236
  963SOL    HW1 3788   5.667   6.901   3.225
  963SOL    HW2 3789   5.802   6.848   3.149
  964SOL     OW 3790   6.152   4.228   1.570
  964SOL    HW1 3791   6.249   4.246   1.585
  964SOL    HW2 3792   6.112   4.190   1.654
  965SOL     OW 3793   1.878   2.276   0.049
  965SOL    HW1 3794   1.970   2.250   0.023
  965SOL    HW2 3795   1.880   2.363   0.097
  966SOL     OW 3796   5.557   2.026   1.880
  966SOL    HW1 3797   5.598   2.070   1.960
  966SOL    HW2 3798   5.457   2.035   1.886
  967SOL     OW 3799   0.301   5.562   3.049
  967SOL    HW1 3800   0.285   5.465   3.033
  967SOL    HW2 3801   0.345   5.602   2.968
  968SOL     OW 3802   0.297   4.605   0.360
  968SOL    HW1 3803   0.232   4.651   0.419
  968SOL    HW2 3804   0.250   4.568   0.280
  969SOL     OW 3805   3.925   6.831   6.724
  969SOL    HW1 3806   3.865   6.895   6.772
  969SOL    HW2 3807   3.926   6.743   6.771
  970SOL     OW 3808   5.572   4.232   6.485
  970SOL    HW1 3809   5.528   4.143   6.475
  970SOL    HW2 3810   5.562   4.263   6.579
  971SOL     OW 3811   0.394   1.994   0.191
  971SOL    HW1 3812   0.392   1.907   0.239
  971SOL    HW2 3813   0.462   1.990   0.117
  972SOL     OW 3814   3.988   6.907   6.243
  972SOL    HW1 3815   4.033   6.843   6.180
  972SOL    HW2 3816   3.891   6.911   6.222
  973SOL     OW 3817   6.204   3.085   5.922
  973SOL    HW1 3818   6.139   3.161   5.928
  973SOL    HW2 3819   6.297   3.120   5.925
  974SOL     OW 3820   2.092   0.375   3.915
  974SOL    HW1 3821   2.104   0.469   3.881
  974SOL    HW2 3822   2.147   0.313   3.859
  975SOL     OW 3823   3.015   6.704   4.254
  975SOL    HW1 3824   2.990   6.796   4.285
  975SOL    HW2 3825   2.932   6.651   4.238
  976SOL     OW 3826   0.239   5.093   4.329
  976SOL    HW1 3827   0.224   5.128   4.422
  976SOL    HW2 3828   0.323   5.037   4.328
  977SOL     OW 3829   0.848   2.458   2.132
  977SOL    HW1 3830   0.947   2.467   2.133
  977SOL    HW2 3831   0.823   2.372   2.088
  978SOL     OW 3832   6.099   2.708   3.624
  978SOL    HW1 3833   6.011   2.748   3.648
  978SOL    HW2 3834   6.170   2.746   3.684
  979SOL     OW 3835   5.736   1.260   2.716
  979SOL    HW1 3836   5.772   1.261   2.623
  979SOL    HW2 3837   5.681   1.177   2.730
  980SOL     OW 3838   6.267   5.860   5.138
  980SOL    HW1 3839   6.261   5.931   5.207
  980SOL    HW2 3840   6.248   5.771   5.179
  981SOL     OW 3841   6.186   3.169   0.004
  981SOL    HW1 3842   6.130   3.250   0.025
  981SOL    HW2 3843   6.173   3.145   6.928
  982SOL     OW 3844   1.471   4.870   6.940
  982SOL    HW1 3845   1.505   4.877   0.013
  982SOL    HW2 3846   1.422   4.954   6.916
  983SOL     OW 3847   5.703   1.306   3.337
  983SOL    HW1 3848   5.755   1.228   3.371
  983SOL    HW2 3849   5.754   1.390   3.355
  984SOL     OW 3850   4.808   3.317   5.135
  984SOL    HW1 3851   4.762   3.253   5.073
  984SOL    HW2 3852   4.758   3.403   5.138
  985SOL     OW 3853   2.157   4.420   0.151
  985SOL    HW1 3854   2.183   4.346   0.213
  985SOL    HW2 3855   2.225   4.429   0.078
  986SOL     OW 3856   5.302   4.318   5.122
  986SOL    HW1 3857   5.387   4.364   5.096
  986SOL    HW2 3858   5.313   4.276   5.212
  987SOL     OW 3859   2.740   1.215   3.032
  987SOL    HW1 3860   2.721   1.309   3.061
  987SOL    HW2 3861   2.814   1.177   3.086
  988SOL     OW 3862   3.914   3.536   1.411
  988SOL    HW1 3863   3.926   3.598   1.488
  988SOL    HW2 3864   3.842   3.470   1.432
  989SOL     OW 3865   1.228   1.091   4.748
  989SOL    HW1 3866   1.140   1.076   4.793
  989SOL    HW2 3867   1.300   1.044   4.799
  990SOL     OW 3868   4.435   6.015   2.112
  990SOL    HW1 3869   4.439   5.919   2.140
  990SOL    HW2 3870   4.528   6.053   2.109
  991SOL     OW 3871   6.102   1.444   6.211
  991SOL    HW1 3872   6.030   1.383   6.244
  991SOL    HW2 3873   6.172   1.390   6.164
  992SOL     OW 3874   0.039   2.649   0.639
  992SOL    HW1 3875   7.019   2.570   0.593
  992SOL    HW2 3876   0.086   2.706   0.571
  993SOL     OW 3877   4.231   6.647   3.926
  993SOL    HW1 3878   4.142   6.601   3.936
  993SOL    HW2 3879   4.303   6.578   3.925
  994SOL     OW 3880   2.892   3.682   3.800
  994SOL    HW1 3881   2.919   3.690   3.896
  994SOL    HW2 3882   2.798   3.648   3.795
  995SOL     OW 3883   1.407   1.579   4.875
  995SOL    HW1 3884   1.387   1.483   4.860
  995SOL    HW2 3885   1.472   1.611   4.806
  996SOL     OW 3886   2.343   3.178   0.222
  996SOL    HW1 3887   2.258   3.227   0.203
  996SOL    HW2 3888   2.389   3.156   0.135
  997SOL     OW 3889   6.823   1.059   0.693
  997SOL    HW1 3890   6.857   1.109   0.613
  997SOL    HW2 3891   6.829   1.118   0.773
  998SOL     OW 3892   4.817   6.744   3.564
  998SOL    HW1 3893   4.806   6.646   3.577
  998SOL    HW2 3894   4.796   6.768   3.469
  999SOL     OW 3895   6.832   4.594   6.614
  999SOL    HW1 3896   6.822   4.554   6.522
  999SOL    HW2 3897   6.764   4.553   6.675
 1000SOL     OW 3898   3.611   1.661   5.500
 1000SOL    HW1 3899   3.594   1.564   5.481
 1000SOL    HW2 3900   3.620   1.710   5.414
 1001SOL     OW 3901   4.782   1.055   4.774
 1001SOL    HW1 3902   4.783   1.018   4.681
 1001SOL    HW2 3903   4.867   1.105   4.791
 1002SOL     OW 3904   0.091   0.999   0.650
 1002SOL    HW1 3905   0.172   1.049   0.681
 1002SOL    HW2 3906   0.015   1.015   0.714
 1003SOL     OW 3907   4.529   5.347   2.314
 1003SOL    HW1 3908   4.597   5.333   2.242
 1003SOL    HW2 3909   4.438   5.327   2.278
 1004SOL     OW 3910   6.118   6.231   6.631
 1004SOL    HW1 3911   6.140   6.322   6.666
 1004SOL    HW2 3912   6.082   6.175   6.706
 1005SOL     OW 3913   5.427   6.577   2.956
 1005SOL    HW1 3914   5.505   6.579   2.894
 1005SOL    HW2 3915   5.353   6.524   2.914
 1006SOL     OW 3916   1.754   5.808   0.148
 1006SOL    HW1 3917   1.765   5.716   0.186
 1006SOL    HW2 3918   1.804   5.814   0.061
 1007SOL     OW 3919   6.003   2.065   2.597
 1007SOL    HW1 3920   5.957   1.977   2.590
 1007SOL    HW2 3921   5.950   2.125   2.657
 1008SOL     OW 3922   3.527   1.268   5.225
 1008SOL    HW1 3923   3.441   1.243   5.269
 1008SOL    HW2 3924   3.568   1.187   5.183
 1009SOL     OW 3925   3.205   6.435   5.471
 1009SOL    HW1 3926   3.163   6.497   5.538
 1009SOL    HW2 3927   3.161   6.345   5.476
 1010SOL     OW 3928   4.999   6.382   5.772
 1010SOL    HW1 3929   4.987   6.299   5.826
 1010SOL    HW2 3930   5.025   6.458   5.832
 1011SOL     OW 3931   2.475   5.026   4.324
 1011SOL    HW1 3932   2.548   5.094   4.336
 1011SOL    HW2 3933   2.390   5.060   4.364
 1012SOL     OW 3934   2.951   6.376   0.846
 1012SOL    HW1 3935   3.037   6.370   0.898
 1012SOL    HW2 3936   2.881   6.322   0.892
 1013SOL     OW 3937   0.601   0.079   0.128
 1013SOL    HW1 3938   0.555   7.011   0.122
 1013SOL    HW2 3939   0.540   0.145   0.172
 1014SOL     OW 3940   6.063   6.748   6.762
 1014SOL    HW1 3941   6.108   6.800   6.834
 1014SOL    HW2 3942   6.123   6.741   6.683
 1015SOL     OW 3943   2.552   0.162   4.768
 1015SOL    HW1 3944   2.476   0.226   4.751
 1015SOL    HW2 3945   2.636   0.200   4.730
 1016SOL     OW 3946   4.245   3.273   1.891
 1016SOL    HW1 3947   4.181   3.197   1.876
 1016SOL    HW2 3948   4.327   3.258   1.836
 1017SOL     OW 3949   4.724   6.953   6.311
 1017SOL    HW1 3950   4.638   6.904   6.297
 1017SOL    HW2 3951   4.711   0.030   6.287
 1018SOL     OW 3952   1.083   1.495   1.472
 1018SOL    HW1 3953   1.118   1.422   1.531
 1018SOL    HW2 3954   1.004   1.539   1.516
 1019SOL     OW 3955   5.761   0.482   0.425
 1019SOL    HW1 3956   5.843   0.538   0.433
 1019SOL    HW2 3957   5.680   0.539   0.437
 1020SOL     OW 3958   4.008   1.789   1.493
 1020SOL    HW1 3959   4.020   1.880   1.533
 1020SOL    HW2 3960   4.080   1.728   1.527
 1021SOL     OW 3961   5.520   0.955   1.621
 1021SOL    HW1 3962   5.442   1.017   1.612
 1021SOL    HW2 3963   5.567   0.972   1.708
 1022SOL     OW 3964   2.894   3.682   6.887
 1022SOL    HW1 3965   2.940   3.748   6.829
 1022SOL    HW2 3966   2.798   3.673   6.859
 1023SOL     OW 3967   6.856   1.214   4.175
 1023SOL    HW1 3968   6.947   1.251   4.191
 1023SOL    HW2 3969   6.831   1.227   4.079
 1024SOL     OW 3970   6.463   2.351   3.942
 1024SOL    HW1 3971   6.495   2.410   4.017
 1024SOL    HW2 3972   6.371   2.381   3.915
 1025SOL     OW 3973   2.404   4.406   1.520
 1025SOL    HW1 3974   2.330   4.340   1.538
 1025SOL    HW2 3975   2.376   4.496   1.553
 1026SOL     OW 3976   0.544   2.763   6.551
 1026SOL    HW1 3977   0.637   2.793   6.530
 1026SOL    HW2 3978   0.484   2.843   6.560
 1027SOL     OW 3979   1.851   4.960   0.860
 1027SOL    HW1 3980   1.930   4.899   0.870
 1027SOL    HW2 3981   1.792   4.951   0.940
 1028SOL     OW 3982   0.618   5.381   6.716
 1028SOL    HW1 3983   0.560   5.453   6.678
 1028SOL    HW2 3984   0.683   5.421   6.780
 1029SOL     OW 3985   4.129   0.954   4.423
 1029SOL    HW1 3986   4.065   0.882   4.399
 1029SOL    HW2 3987   4.108   0.988   4.515
 1030SOL     OW 3988   4.288   4.638   4.372
 1030SOL    HW1 3989   4.312   4.652   4.468
 1030SOL    HW2 3990   4.361   4.586   4.327
 1031SOL     OW 3991   2.393   5.718   1.241
 1031SOL    HW1 3992   2.434   5.790   1.186
 1031SOL    HW2 3993   2.311   5.753   1.286
 1032SOL     OW 3994   0.941   2.155   5.000
 1032SOL    HW1 3995   0.942   2.198   5.090
 1032SOL    HW2 3996   0.868   2.196   4.945
 1033SOL     OW 3997   2.899   0.279   2.382
 1033SOL    HW1 3998   2.938   0.259   2.292
 1033SOL    HW2 3999   2.931   0.211   2.447
 1034SOL     OW 4000   0.168   5.258   2.168
 1034SOL    HW1 4001   0.226   5.180   2.144
 1034SOL    HW2 4002   0.212   5.342   2.135
 1035SOL     OW 4003   3.232   2.016   3.477
 1035SOL    HW1 4004   3.316   2.070   3.472
 1035SOL    HW2 4005   3.250   1.929   3.524
 1036SOL     OW 4006   4.776   6.716   6.605
 1036SOL    HW1 4007   4.809   6.727   6.511
 1036SOL    HW2 4008   4.784   6.620   6.632
 1037SOL     OW 4009   3.606   1.129   6.025
 1037SOL    HW1 4010   3.656   1.115   5.939
 1037SOL    HW2 4011   3.539   1.202   6.012
 1038SOL     OW 4012   3.185   1.715   4.937
 1038SOL    HW1 4013   3.149   1.622   4.930
 1038SOL    HW2 4014   3.109   1.779   4.949
 1039SOL     OW 4015   5.375   1.788   2.101
 1039SOL    HW1 4016   5.302   1.774   2.168
 1039SOL    HW2 4017   5.395   1.886   2.093
 1040SOL     OW 4018   5.926   4.874   4.749
 1040SOL    HW1 4019   5.988   4.950   4.769
 1040SOL    HW2 4020   5.852   4.872   4.816
 1041SOL     OW 4021   1.456   6.638   5.042
 1041SOL    HW1 4022   1.390   6.697   4.996
 1041SOL    HW2 4023   1.451   6.653   5.140
 1042SOL     OW 4024   4.461   4.726   0.472
 1042SOL    HW1 4025   4.382   4.690   0.522
 1042SOL    HW2 4026   4.521   4.650   0.445
 1043SOL     OW 4027   4.630   0.213   6.231
 1043SOL    HW1 4028   4.698   0.205   6.304
 1043SOL    HW2 4029   4.544   0.247   6.268
 1044SOL     OW 4030   4.130   3.693   4.028
 1044SOL    HW1 4031   4.171   3.653   4.110
 1044SOL    HW2 4032   4.164   3.644   3.947
 1045SOL     OW 4033   2.038   1.699   2.508
 1045SOL    HW1 4034   2.023   1.798   2.506
 1045SOL    HW2 4035   2.124   1.679   2.556
 1046SOL     OW 4036   2.698   0.800   2.147
 1046SOL    HW1 4037   2.708   0.762   2.055
 1046SOL    HW2 4038   2.762   0.876   2.158
 1047SOL     OW 4039   0.508   6.339   2.231
 1047SOL    HW1 4040   0.461   6.252   2.215
 1047SOL    HW2 4041   0.451   6.398   2.287
 1048SOL     OW 4042   0.082   3.381   5.180
 1048SOL    HW1 4043   0.143   3.320   5.232
 1048SOL    HW2 4044   0.096   3.367   5.082
 1049SOL     OW 4045   0.357   3.798   5.734
 1049SOL    HW1 4046   0.346   3.707   5.694
 1049SOL    HW2 4047   0.454   3.823   5.734
 1050SOL     OW 4048   3.114   0.239   1.708
 1050SOL    HW1 4049   3.126   0.140   1.716
 1050SOL    HW2 4050   3.048   0.258   1.634
 1051SOL     OW 4051   5.260   3.474   2.304
 1051SOL    HW1 4052   5.175   3.437   2.265
 1051SOL    HW2 4053   5.336   3.453   2.243
 1052SOL     OW 4054   2.555   6.467   3.753
 1052SOL    HW1 4055   2.516   6.559   3.745
 1052SOL    HW2 4056   2.482   6.399   3.740
 1053SOL     OW 4057   3.469   5.399   3.001
 1053SOL    HW1 4058   3.435   5.433   3.089
 1053SOL    HW2 4059   3.431   5.308   2.984
 1054SOL     OW 4060   3.440   5.916   5.671
 1054SOL    HW1 4061   3.427   5.966   5.585
 1054SOL    HW2 4062   3.375   5.948   5.739
 1055SOL     OW 4063   3.817   4.912   4.335
 1055SOL    HW1 4064   3.747   4.899   4.405
 1055SOL    HW2 4065   3.900   4.862   4.361
 1056SOL     OW 4066   2.841   5.968   0.498
 1056SOL    HW1 4067   2.883   6.017   0.574
 1056SOL    HW2 4068   2.912   5.922   0.445
 1057SOL     OW 4069   3.831   3.820   1.370
 1057SOL    HW1 4070   3.925   3.828   1.337
 1057SOL    HW2 4071   3.832   3.786   1.464
 1058SOL     OW 4072   2.358   0.316   2.482
 1058SOL    HW1 4073   2.407   0.399   2.456
 1058SOL    HW2 4074   2.283   0.300   2.418
 1059SOL     OW 4075   4.140   6.787   0.638
 1059SOL    HW1 4076   4.195   6.814   0.717
 1059SOL    HW2 4077   4.201   6.755   0.565
 1060SOL     OW 4078   3.434   1.734   3.792
 1060SOL    HW1 4079   3.380   1.783   3.861
 1060SOL    HW2 4080   3.464   1.646   3.830
 1061SOL     OW 4081   2.541   5.312   1.090
 1061SOL    HW1 4082   2.631   5.317   1.047
 1061SOL    HW2 4083   2.475   5.272   1.026
 1062SOL     OW 4084   5.455   4.061   4.884
 1062SOL    HW1 4085   5.440   4.029   4.791
 1062SOL    HW2 4086   5.378   4.118   4.913
 1063SOL     OW 4087   3.904   2.109   5.931
 1063SOL    HW1 4088   3.926   2.059   6.015
 1063SOL    HW2 4089   3.985   2.114   5.873
 1064SOL     OW 4090   0.717   3.087   2.522
 1064SOL    HW1 4091   0.787   3.058   2.587
 1064SOL    HW2 4092   0.685   3.008   2.470
 1065SOL     OW 4093   4.013   5.703   0.283
 1065SOL    HW1 4094   4.038   5.645   0.205
 1065SOL    HW2 4095   4.094   5.725   0.336
 1066SOL     OW 4096   5.476   6.773   3.646
 1066SOL    HW1 4097   5.470   6.730   3.555
 1066SOL    HW2 4098   5.569   6.805   3.661
 1067SOL     OW 4099   3.416   4.530   0.781
 1067SOL    HW1 4100   3.458   4.487   0.861
 1067SOL    HW2 4101   3.372   4.615   0.809
 1068SOL     OW 4102   1.185   5.298   2.202
 1068SOL    HW1 4103   1.147   5.324   2.291
 1068SOL    HW2 4104   1.249   5.222   2.214
 1069SOL     OW 4105   3.815   4.020   2.949
 1069SOL    HW1 4106   3.866   4.078   2.886
 1069SOL    HW2 4107   3.721   4.011   2.917
 1070SOL     OW 4108   1.285   6.295   0.493
 1070SOL    HW1 4109   1.369   6.349   0.492
 1070SOL    HW2 4110   1.206   6.355   0.506
 1071SOL     OW 4111   4.380   5.447   3.658
 1071SOL    HW1 4112   4.291   5.471   3.696
 1071SOL    HW2 4113   4.438   5.407   3.729
 1072SOL     OW 4114   4.145   5.395   3.423
 1072SOL    HW1 4115   4.130   5.400   3.522
 1072SOL    HW2 4116   4.242   5.400   3.403
 1073SOL     OW 4117   2.762   5.690   3.696
 1073SOL    HW1 4118   2.766   5.599   3.655
 1073SOL    HW2 4119   2.756   5.759   3.623
 1074SOL     OW 4120   2.393   5.122   3.936
 1074SOL    HW1 4121   2.468   5.081   3.884
 1074SOL    HW2 4122   2.344   5.050   3.985
 1075SOL     OW 4123   0.688   4.425   2.870
 1075SOL    HW1 4124   0.625   4.446   2.944
 1075SOL    HW2 4125   0.773   4.390   2.908
 1076SOL     OW 4126   5.246   3.479   3.340
 1076SOL    HW1 4127   5.224   3.383   3.359
 1076SOL    HW2 4128   5.164   3.535   3.352
 1077SOL     OW 4129   3.643   0.739   2.149
 1077SOL    HW1 4130   3.734   0.756   2.113
 1077SOL    HW2 4131   3.650   0.685   2.233
 1078SOL     OW 4132   5.957   2.517   1.859
 1078SOL    HW1 4133   5.923   2.610   1.876
 1078SOL    HW2 4134   6.054   2.522   1.835
 1079SOL     OW 4135   1.741   4.802   2.883
 1079SOL    HW1 4136   1.709   4.871   2.948
 1079SOL    HW2 4137   1.665   4.772   2.826
 1080SOL     OW 4138   2.486   5.372   3.974
 1080SOL    HW1 4139   2.573   5.391   3.927
 1080SOL    HW2 4140   2.445   5.289   3.937
 1081SOL     OW 4141   1.278   0.587   0.352
 1081SOL    HW1 4142   1.186   0.616   0.377
 1081SOL    HW2 4143   1.302   0.504   0.403
 1082SOL     OW 4144   1.945   0.723   1.225
 1082SOL    HW1 4145   2.020   0.786   1.204
 1082SOL    HW2 4146   1.883   0.766   1.291
 1083SOL     OW 4147   3.399   3.658   1.583
 1083SOL    HW1 4148   3.455   3.632   1.662
 1083SOL    HW2 4149   3.433   3.744   1.545
 1084SOL     OW 4150   6.032   4.189   1.827
 1084SOL    HW1 4151   6.054   4.278   1.867
 1084SOL    HW2 4152   6.096   4.120   1.861
 1085SOL     OW 4153   1.740   5.965   3.518
 1085SOL    HW1 4154   1.776   6.058   3.508
 1085SOL    HW2 4155   1.815   5.900   3.519
 1086SOL     OW 4156   2.662   6.373   2.174
 1086SOL    HW1 4157   2.754   6.411   2.163
 1086SOL    HW2 4158   2.664   6.298   2.240
 1087SOL     OW 4159   3.635   3.115   5.329
 1087SOL    HW1 4160   3.549   3.068   5.310
 1087SOL    HW2 4161   3.674   3.080   5.415
 1088SOL     OW 4162   6.789   5.332   2.402
 1088SOL    HW1 4163   6.739   5.245   2.399
 1088SOL    HW2 4164   6.733   5.401   2.448
 1089SOL     OW 4165   6.655   0.848   3.424
 1089SOL    HW1 4166   6.631   0.761   3.380
 1089SOL    HW2 4167   6.647   0.922   3.358
 1090SOL     OW 4168   3.218   2.084   6.815
 1090SOL    HW1 4169   3.298   2.024   6.821
 1090SOL    HW2 4170   3.148   2.040   6.759
 1091SOL     OW 4171   1.534   1.700   5.893
 1091SOL    HW1 4172   1.455   1.693   5.953
 1091SOL    HW2 4173   1.567   1.794   5.892
 1092SOL     OW 4174   3.089   4.789   0.999
 1092SOL    HW1 4175   2.997   4.763   0.970
 1092SOL    HW2 4176   3.085   4.873   1.052
 1093SOL     OW 4177   0.305   1.989   1.539
 1093SOL    HW1 4178   0.245   2.057   1.496
 1093SOL    HW2 4179   0.265   1.961   1.627
 1094SOL     OW 4180   0.771   5.666   2.762
 1094SOL    HW1 4181   0.724   5.582   2.733
 1094SOL    HW2 4182   0.722   5.705   2.840
 1095SOL     OW 4183   1.676   3.103   5.361
 1095SOL    HW1 4184   1.642   3.178   5.304
 1095SOL    HW2 4185   1.776   3.097   5.351
 1096SOL     OW 4186   3.599   2.849   2.163
 1096SOL    HW1 4187   3.677   2.894   2.206
 1096SOL    HW2 4188   3.623   2.755   2.139
 1097SOL     OW 4189   2.797   5.432   5.455
 1097SOL    HW1 4190   2.886   5.427   5.500
 1097SOL    HW2 4191   2.741   5.503   5.499
 1098SOL     OW 4192   2.568   0.808   2.767
 1098SOL    HW1 4193   2.574   0.710   2.747
 1098SOL    HW2 4194   2.472   0.834   2.775
 1099SOL     OW 4195   3.539   0.388   2.389
 1099SOL    HW1 4196   3.454   0.420   2.347
 1099SOL    HW2 4197   3.615   0.445   2.358
 1100SOL     OW 4198   6.807   0.571   0.607
 1100SOL    HW1 4199   6.721   0.531   0.574
 1100SOL    HW2 4200   6.880   0.503   0.599
 1101SOL     OW 4201   6.132   4.353   1.041
 1101SOL    HW1 4202   6.192   4.355   1.121
 1101SOL    HW2 4203   6.165   4.284   0.976
 1102SOL     OW 4204   6.471   4.019   4.245
 1102SOL    HW1 4205   6.532   3.941   4.237
 1102SOL    HW2 4206   6.486   4.064   4.333
 1103SOL     OW 4207   0.776   2.393   6.712
 1103SOL    HW1 4208   0.809   2.460   6.778
 1103SOL    HW2 4209   0.841   2.318   6.705
 1104SOL     OW 4210   3.251   5.357   5.359
 1104SOL    HW1 4211   3.180   5.359   5.430
 1104SOL    HW2 4212   3.255   5.265   5.320
 1105SOL     OW 4213   4.191   5.899   0.873
 1105SOL    HW1 4214   4.172   5.802   0.886
 1105SOL    HW2 4215   4.154   5.951   0.950
 1106SOL     OW 4216   0.872   2.093   6.493
 1106SOL    HW1 4217   0.840   2.181   6.457
 1106SOL    HW2 4218   0.828   2.076   6.581
 1107SOL     OW 4219   6.570   6.577   1.757
 1107SOL    HW1 4220   6.554   6.517   1.679
 1107SOL    HW2 4221   6.510   6.550   1.832
 1108SOL     OW 4222   1.051   0.977   0.219
 1108SOL    HW1 4223   1.042   0.878   0.207
 1108SOL    HW2 4224   1.006   1.024   0.143
 1109SOL     OW 4225   4.181   1.752   3.135
 1109SOL    HW1 4226   4.138   1.686   3.197
 1109SOL    HW2 4227   4.268   1.715   3.102
 1110SOL     OW 4228   3.680   3.733   3.090
 1110SOL    HW1 4229   3.589   3.765   3.115
 1110SOL    HW2 4230   3.694   3.641   3.126
 1111SOL     OW 4231   4.128   0.023   6.874
 1111SOL    HW1 4232   4.153   6.982   6.950
 1111SOL    HW2 4233   4.069   6.993   6.810
 1112SOL     OW 4234   0.993   1.396   2.462
 1112SOL    HW1 4235   0.930   1.318   2.455
 1112SOL    HW2 4236   0.960   1.461   2.530
 1113SOL     OW 4237   0.333   4.473   1.807
 1113SOL    HW1 4238   0.324   4.535   1.884
 1113SOL    HW2 4239   0.257   4.408   1.807
 1114SOL     OW 4240   6.062   1.054   5.882
 1114SOL    HW1 4241   5.974   1.022   5.847
 1114SOL    HW2 4242   6.078   1.148   5.851
 1115SOL     OW 4243   1.871   4.862   0.327
 1115SOL    HW1 4244   1.841   4.906   0.412
 1115SOL    HW2 4245   1.963   4.825   0.339
 1116SOL     OW 4246   3.230   6.572   6.460
 1116SOL    HW1 4247   3.171   6.602   6.385
 1116SOL    HW2 4248   3.211   6.476   6.482
 1117SOL     OW 4249   3.009   2.617   0.660
 1117SOL    HW1 4250   3.093   2.568   0.683
 1117SOL    HW2 4251   2.999   2.622   0.561
 1118SOL     OW 4252   2.038   2.262   1.301
 1118SOL    HW1 4253   1.982   2.191   1.258
 1118SOL    HW2 4254   2.128   2.265   1.257
 1119SOL     OW 4255   3.095   3.149   3.574
 1119SOL    HW1 4256   3.117   3.146   3.672
 1119SOL    HW2 4257   3.109   3.058   3.534
 1120SOL     OW 4258   3.123   1.449   3.094
 1120SOL    HW1 4259   3.056   1.502   3.146
 1120SOL    HW2 4260   3.215   1.482   3.115
 1121SOL     OW 4261   4.749   4.136   2.845
 1121SOL    HW1 4262   4.833   4.160   2.796
 1121SOL    HW2 4263   4.670   4.172   2.796
 1122SOL     OW 4264   4.620   4.992   6.522
 1122SOL    HW1 4265   4.642   5.077   6.473
 1122SOL    HW2 4266   4.674   4.987   6.606
 1123SOL     OW 4267   3.844   0.425   2.153
 1123SOL    HW1 4268   3.818   0.521   2.158
 1123SOL    HW2 4269   3.873   0.393   2.243
 1124SOL     OW 4270   2.536   4.944   3.423
 1124SOL    HW1 4271   2.607   4.935   3.353
 1124SOL    HW2 4272   2.477   5.023   3.401
 1125SOL     OW 4273   3.261   4.684   5.516
 1125SOL    HW1 4274   3.182   4.645   5.564
 1125SOL    HW2 4275   3.254   4.784   5.519
 1126SOL     OW 4276   6.254   0.797   2.166
 1126SOL    HW1 4277   6.235   0.831   2.258
 1126SOL    HW2 4278   6.338   0.742   2.168
 1127SOL     OW 4279   2.962   5.495   5.769
 1127SOL    HW1 4280   2.910   5.580   5.758
 1127SOL    HW2 4281   2.899   5.420   5.786
 1128SOL     OW 4282   2.460   1.725   5.456
 1128SOL    HW1 4283   2.450   1.718   5.356
 1128SOL    HW2 4284   2.554   1.702   5.481
 1129SOL     OW 4285   3.928   5.696   6.486
 1129SOL    HW1 4286   3.972   5.617   6.443
 1129SOL    HW2 4287   3.882   5.666   6.570
 1130SOL     OW 4288   1.054   4.749   5.413
 1130SOL    HW1 4289   1.025   4.662   5.451
 1130SOL    HW2 4290   1.006   4.824   5.459
 1131SOL     OW 4291   0.966   3.830   5.649
 1131SOL    HW1 4292   0.972   3.808   5.552
 1131SOL    HW2 4293   1.011   3.918   5.666
 1132SOL     OW 4294   5.114   6.480   4.663
 1132SOL    HW1 4295   5.094   6.382   4.658
 1132SOL    HW2 4296   5.035   6.532   4.630
 1133SOL     OW 4297   0.159   2.114   0.111
 1133SOL    HW1 4298   0.198   2.201   0.082
 1133SOL    HW2 4299   0.232   2.052   0.140
 1134SOL     OW 4300   6.983   3.363   5.903
 1134SOL    HW1 4301   0.025   3.302   5.953
 1134SOL    HW2 4302   6.889   3.338   5.925
 1135SOL     OW 4303   6.815   1.868   3.886
 1135SOL    HW1 4304   6.910   1.894   3.907
 1135SOL    HW2 4305   6.791   1.902   3.795
 1136SOL     OW 4306   3.814   5.418   3.868
 1136SOL    HW1 4307   3.861   5.363   3.938
 1136SOL    HW2 4308   3.747   5.362   3.821
 1137SOL     OW 4309   0.646   0.430   6.848
 1137SOL    HW1 4310   0.641   0.342   6.895
 1137SOL    HW2 4311   0.732   0.475   6.871
 1138SOL     OW 4312   1.072   2.415   5.824
 1138SOL    HW1 4313   1.057   2.448   5.917
 1138SOL    HW2 4314   0.987   2.425   5.772
 1139SOL     OW 4315   6.914   7.011   3.010
 1139SOL    HW1 4316   6.901   6.967   2.922
 1139SOL    HW2 4317   6.917   6.942   3.082
 1140SOL     OW 4318   4.439   1.946   3.293
 1140SOL    HW1 4319   4.364   1.935   3.358
 1140SOL    HW2 4320   4.426   2.031   3.242
 1141SOL     OW 4321   0.404   7.019   6.119
 1141SOL    HW1 4322   0.359   6.930   6.127
 1141SOL    HW2 4323   0.503   7.007   6.125
 1142SOL     OW 4324   5.668   0.133   5.679
 1142SOL    HW1 4325   5.762   0.160   5.696
 1142SOL    HW2 4326   5.642   0.060   5.742
 1143SOL     OW 4327   5.532   2.669   1.282
 1143SOL    HW1 4328   5.537   2.713   1.192
 1143SOL    HW2 4329   5.438   2.674   1.316
 1144SOL     OW 4330   1.037   6.866   4.592
 1144SOL    HW1 4331   1.039   6.793   4.660
 1144SOL    HW2 4332   1.126   6.910   4.586
 1145SOL     OW 4333   3.256   5.157   5.182
 1145SOL    HW1 4334   3.207   5.155   5.095
 1145SOL    HW2 4335   3.245   5.070   5.229
 1146SOL     OW 4336   5.786   1.835   2.168
 1146SOL    HW1 4337   5.793   1.830   2.068
 1146SOL    HW2 4338   5.723   1.908   2.194
 1147SOL     OW 4339   6.737   3.940   2.374
 1147SOL    HW1 4340   6.644   3.924   2.409
 1147SOL    HW2 4341   6.803   3.898   2.436
 1148SOL     OW 4342   5.708   6.788   6.042
 1148SOL    HW1 4343   5.709   6.852   5.965
 1148SOL    HW2 4344   5.654   6.708   6.018
 1149SOL     OW 4345   4.874   3.497   2.443
 1149SOL    HW1 4346   4.905   3.568   2.506
 1149SOL    HW2 4347   4.932   3.498   2.361
 1150SOL     OW 4348   2.635   5.916   5.020
 1150SOL    HW1 4349   2.732   5.905   4.997
 1150SOL    HW2 4350   2.582   5.931   4.937
 1151SOL     OW 4351   2.005   5.275   0.515
 1151SOL    HW1 4352   2.098   5.285   0.481
 1151SOL    HW2 4353   1.973   5.362   0.552
 1152SOL     OW 4354   6.623   0.813   3.723
 1152SOL    HW1 4355   6.622   0.812   3.623
 1152SOL    HW2 4356   6.529   0.811   3.757
 1153SOL     OW 4357   1.427   4.556   2.158
 1153SOL    HW1 4358   1.338   4.532   2.119
 1153SOL    HW2 4359   1.421   4.558   2.257
 1154SOL     OW 4360   1.610   3.520   1.827
 1154SOL    HW1 4361   1.519   3.510   1.867
 1154SOL    HW2 4362   1.645   3.612   1.844
 1155SOL     OW 4363   4.948   0.809   2.344
 1155SOL    HW1 4364   4.955   0.796   2.443
 1155SOL    HW2 4365   4.945   0.906   2.323
 1156SOL     OW 4366   2.943   1.213   4.266
 1156SOL    HW1 4367   2.939   1.172   4.175
 1156SOL    HW2 4368   3.033   1.255   4.280
 1157SOL     OW 4369   2.099   3.620   3.442
 1157SOL    HW1 4370   2.173   3.686   3.458
 1157SOL    HW2 4371   2.072   3.622   3.346
 1158SOL     OW 4372   4.651   5.397   5.357
 1158SOL    HW1 4373   4.642   5.355   5.267
 1158SOL    HW2 4374   4.748   5.416   5.374
 1159SOL     OW 4375   6.149   3.938   3.022
 1159SOL    HW1 4376   6.150   3.942   2.922
 1159SOL    HW2 4377   6.116   3.848   3.051
 1160SOL     OW 4378   2.684   2.494   1.411
 1160SOL    HW1 4379   2.662   2.525   1.504
 1160SOL    HW2 4380   2.767   2.438   1.414
 1161SOL     OW 4381   3.945   1.354   2.958
 1161SOL    HW1 4382   4.045   1.350   2.951
 1161SOL    HW2 4383   3.912   1.273   3.006
 1162SOL     OW 4384   3.292   4.857   1.198
 1162SOL    HW1 4385   3.352   4.862   1.278
 1162SOL    HW2 4386   3.237   4.941   1.193
 1163SOL     OW 4387   4.758   6.452   3.546
 1163SOL    HW1 4388   4.810   6.383   3.595
 1163SOL    HW2 4389   4.672   6.469   3.593
 1164SOL     OW 4390   6.545   4.207   4.465
 1164SOL    HW1 4391   6.579   4.300   4.480
 1164SOL    HW2 4392   6.450   4.201   4.496
 1165SOL     OW 4393   0.016   5.095   1.901
 1165SOL    HW1 4394   0.042   5.032   1.828
 1165SOL    HW2 4395   6.945   5.132   1.882
 1166SOL     OW 4396   3.419   1.291   5.953
 1166SOL    HW1 4397   3.408   1.245   5.865
 1166SOL    HW2 4398   3.344   1.266   6.014
 1167SOL     OW 4399   4.338   1.603   5.557
 1167SOL    HW1 4400   4.338   1.510   5.520
 1167SOL    HW2 4401   4.429   1.625   5.592
 1168SOL     OW 4402   5.615   1.227   4.351
 1168SOL    HW1 4403   5.670   1.265   4.426
 1168SOL    HW2 4404   5.527   1.276   4.347
 1169SOL     OW 4405   2.244   2.351   1.117
 1169SOL    HW1 4406   2.207   2.346   1.024
 1169SOL    HW2 4407   2.343   2.359   1.113
 1170SOL     OW 4408   2.434   0.875   2.279
 1170SOL    HW1 4409   2.511   0.929   2.244
 1170SOL    HW2 4410   2.445   0.780   2.250
 1171SOL     OW 4411   4.396   0.613   0.919
 1171SOL    HW1 4412   4.327   0.685   0.923
 1171SOL    HW2 4413   4.414   0.589   0.823
 1172SOL     OW 4414   3.668   3.307   5.643
 1172SOL    HW1 4415   3.610   3.229   5.665
 1172SOL    HW2 4416   3.764   3.278   5.640
 1173SOL     OW 4417   5.716   5.894   6.644
 1173SOL    HW1 4418   5.762   5.841   6.715
 1173SOL    HW2 4419   5.772   5.973   6.619
 1174SOL     OW 4420   3.539   5.741   6.721
 1174SOL    HW1 4421   3.451   5.781   6.696
 1174SOL    HW2 4422   3.539   5.643   6.700
 1175SOL     OW 4423   0.271   5.131   5.035
 1175SOL    HW1 4424   0.213   5.055   5.063
 1175SOL    HW2 4425   0.267   5.140   4.935
 1176SOL     OW 4426   6.029   3.178   1.426
 1176SOL    HW1 4427   6.010   3.081   1.438
 1176SOL    HW2 4428   5.973   3.214   1.352
 1177SOL     OW 4429   6.738   2.860   5.302
 1177SOL    HW1 4430   6.780   2.902   5.222
 1177SOL    HW2 4431   6.675   2.788   5.273
 1178SOL     OW 4432   4.646   4.800   2.285
 1178SOL    HW1 4433   4.684   4.886   2.252
 1178SOL    HW2 4434   4.591   4.758   2.212
 1179SOL     OW 4435   1.529   5.295   6.278
 1179SOL    HW1 4436   1.467   5.233   6.230
 1179SOL    HW2 4437   1.609   5.244   6.309
 1180SOL     OW 4438   2.447   1.185   4.229
 1180SOL    HW1 4439   2.435   1.263   4.167
 1180SOL    HW2 4440   2.505   1.116   4.185
 1181SOL     OW 4441   1.038   4.145   1.891
 1181SOL    HW1 4442   0.980   4.070   1.923
 1181SOL    HW2 4443   0.980   4.224   1.867
 1182SOL     OW 4444   6.674   3.606   4.043
 1182SOL    HW1 4445   6.609   3.586   3.970
 1182SOL    HW2 4446   6.701   3.520   4.087
 1183SOL     OW 4447   4.457   6.342   0.991
 1183SOL    HW1 4448   4.507   6.375   0.910
 1183SOL    HW2 4449   4.437   6.244   0.979
 1184SOL     OW 4450   4.478   3.314   6.726
 1184SOL    HW1 4451   4.452   3.397   6.775
 1184SOL    HW2 4452   4.396   3.268   6.692
 1185SOL     OW 4453   3.502   1.428   6.479
 1185SOL    HW1 4454   3.503   1.473   6.568
 1185SOL    HW2 4455   3.552   1.484   6.413
 1186SOL     OW 4456   4.318   6.675   5.393
 1186SOL    HW1 4457   4.236   6.619   5.385
 1186SOL    HW2 4458   4.366   6.677   5.305
 1187SOL     OW 4459   0.304   2.491   5.222
 1187SOL    HW1 4460   0.285   2.393   5.227
 1187SOL    HW2 4461   0.317   2.517   5.127
 1188SOL     OW 4462   2.415   0.953   5.694
 1188SOL    HW1 4463   2.421   1.052   5.679
 1188SOL    HW2 4464   2.388   0.908   5.609
 1189SOL     OW 4465   0.653   1.650   1.392
 1189SOL    HW1 4466   0.579   1.692   1.445
 1189SOL    HW2 4467   0.738   1.654   1.444
 1190SOL     OW 4468   2.860   6.175   1.716
 1190SOL    HW1 4469   2.821   6.179   1.624
 1190SOL    HW2 4470   2.823   6.249   1.772
 1191SOL     OW 4471   1.601   3.903   1.745
 1191SOL    HW1 4472   1.606   3.828   1.811
 1191SOL    HW2 4473   1.622   3.989   1.792
 1192SOL     OW 4474   3.544   5.613   2.565
 1192SOL    HW1 4475   3.554   5.602   2.664
 1192SOL    HW2 4476   3.595   5.693   2.535
 1193SOL     OW 4477   2.834   2.349   3.935
 1193SOL    HW1 4478   2.755   2.400   3.970
 1193SOL    HW2 4479   2.834   2.355   3.835
 1194SOL     OW 4480   6.560   2.539   2.562
 1194SOL    HW1 4481   6.495   2.543   2.486
 1194SOL    HW2 4482   6.640   2.596   2.541
 1195SOL     OW 4483   4.149   0.506   6.903
 1195SOL    HW1 4484   4.168   0.596   6.943
 1195SOL    HW2 4485   4.122   0.517   6.808
 1196SOL     OW 4486   1.316   5.357   3.404
 1196SOL    HW1 4487   1.327   5.376   3.306
 1196SOL    HW2 4488   1.401   5.378   3.452
 1197SOL     OW 4489   3.742   4.820   0.031
 1197SOL    HW1 4490   3.841   4.827   0.047
 1197SOL    HW2 4491   3.702   4.911   0.033
 1198SOL     OW 4492   3.615   1.484   3.189
 1198SOL    HW1 4493   3.588   1.473   3.285
 1198SOL    HW2 4494   3.710   1.517   3.185
 1199SOL     OW 4495   3.369   3.861   3.782
 1199SOL    HW1 4496   3.333   3.871   3.690
 1199SOL    HW2 4497   3.328   3.781   3.826
 1200SOL     OW 4498   5.002   4.251   1.128
 1200SOL    HW1 4499   4.946   4.172   1.152
 1200SOL    HW2 4500   5.041   4.290   1.212
 1201SOL     OW 4501   1.911   1.615   5.663
 1201SOL    HW1 4502   1.947   1.625   5.570
 1201SOL    HW2 4503   1.959   1.677   5.725
 1202SOL     OW 4504   6.148   6.781   4.361
 1202SOL    HW1 4505   6.168   6.833   4.444
 1202SOL    HW2 4506   6.233   6.742   4.324
 1203SOL     OW 4507   5.555   0.184   1.921
 1203SOL    HW1 4508   5.568   0.152   2.014
 1203SOL    HW2 4509   5.462   0.219   1.911
 1204SOL     OW 4510   2.662   0.245   0.377
 1204SOL    HW1 4511   2.734   0.314   0.388
 1204SOL    HW2 4512   2.618   0.228   0.465
 1205SOL     OW 4513   1.151   2.778   6.421
 1205SOL    HW1 4514   1.152   2.866   6.374
 1205SOL    HW2 4515   1.219   2.717   6.380
 1206SOL     OW 4516   6.269   1.707   5.457
 1206SOL    HW1 4517   6.297   1.612   5.437
 1206SOL    HW2 4518   6.228   1.711   5.548
 1207SOL     OW 4519   6.483   6.063   5.915
 1207SOL    HW1 4520   6.572   6.066   5.868
 1207SOL    HW2 4521   6.416   6.019   5.856
 1208SOL     OW 4522   3.410   4.181   3.160
 1208SOL    HW1 4523   3.485   4.126   3.197
 1208SOL    HW2 4524   3.423   4.277   3.188
 1209SOL     OW 4525   6.748   3.418   4.898
 1209SOL    HW1 4526   6.770   3.505   4.942
 1209SOL    HW2 4527   6.820   3.395   4.833
 1210SOL     OW 4528   2.478   0.026   4.319
 1210SOL    HW1 4529   2.412   0.062   4.253
 1210SOL    HW2 4530   2.542   0.098   4.345
 1211SOL     OW 4531   6.776   3.502   3.439
 1211SOL    HW1 4532   6.685   3.541   3.449
 1211SOL    HW2 4533   6.831   3.524   3.520
 1212SOL     OW 4534   1.151   4.019   2.574
 1212SOL    HW1 4535   1.191   4.005   2.665
 1212SOL    HW2 4536   1.212   3.981   2.505
 1213SOL     OW 4537   6.554   3.650   5.154
 1213SOL    HW1 4538   6.540   3.553   5.170
 1213SOL    HW2 4539   6.651   3.668   5.139
 1214SOL     OW 4540   0.416   1.897   0.616
 1214SOL    HW1 4541   0.478   1.943   0.552
 1214SOL    HW2 4542   0.380   1.964   0.681
 1215SOL     OW 4543   0.629   0.293   1.836
 1215SOL    HW1 4544   0.571   0.277   1.916
 1215SOL    HW2 4545   0.637   0.209   1.783
 1216SOL     OW 4546   1.917   0.267   0.790
 1216SOL    HW1 4547   1.898   0.319   0.707
 1216SOL    HW2 4548   1.837   0.269   0.850
 1217SOL     OW 4549   1.642   2.924   3.168
 1217SOL    HW1 4550   1.684   2.889   3.085
 1217SOL    HW2 4551   1.592   2.850   3.214
 1218SOL     OW 4552   6.996   4.254   3.770
 1218SOL    HW1 4553   6.924   4.186   3.759
 1218SOL    HW2 4554   6.971   4.337   3.721
 1219SOL     OW 4555   1.349   6.024   2.728
 1219SOL    HW1 4556   1.320   6.093   2.661
 1219SOL    HW2 4557   1.377   6.070   2.812
 1220SOL     OW 4558   6.538   4.358   3.168
 1220SOL    HW1 4559   6.515   4.280   3.225
 1220SOL    HW2 4560   6.625   4.397   3.198
 1221SOL     OW 4561   4.639   4.889   7.002
 1221SOL    HW1 4562   4.710   4.841   0.034
 1221SOL    HW2 4563   4.669   4.983   6.983
 1222SOL     OW 4564   6.727   5.150   1.015
 1222SOL    HW1 4565   6.628   5.156   1.021
 1222SOL    HW2 4566   6.768   5.240   1.027
 1223SOL     OW 4567   0.804   4.248   5.077
 1223SOL    HW1 4568   0.784   4.234   5.174
 1223SOL    HW2 4569   0.766   4.335   5.047
 1224SOL     OW 4570   4.167   5.351   1.662
 1224SOL    HW1 4571   4.165   5.435   1.608
 1224SOL    HW2 4572   4.250   5.300   1.642
 1225SOL     OW 4573   5.348   1.686   6.583
 1225SOL    HW1 4574   5.441   1.707   6.613
 1225SOL    HW2 4575   5.298   1.771   6.568
 1226SOL     OW 4576   5.839   5.585   0.608
 1226SOL    HW1 4577   5.884   5.533   0.536
 1226SOL    HW2 4578   5.774   5.526   0.656
 1227SOL     OW 4579   6.149   4.390   0.611
 1227SOL    HW1 4580   6.170   4.343   0.525
 1227SOL    HW2 4581   6.085   4.465   0.594
 1228SOL     OW 4582   4.155   3.727   5.233
 1228SOL    HW1 4583   4.119   3.742   5.141
 1228SOL    HW2 4584   4.209   3.643   5.234
 1229SOL     OW 4585   1.682   5.486   1.963
 1229SOL    HW1 4586   1.728   5.473   1.875
 1229SOL    HW2 4587   1.750   5.511   2.032
 1230SOL     OW 4588   5.371   4.548   7.004
 1230SOL    HW1 4589   5.372   4.555   0.083
 1230SOL    HW2 4590   5.322   4.466   6.976
 1231SOL     OW 4591   1.991   0.683   0.951
 1231SOL    HW1 4592   1.981   0.710   1.047
 1231SOL    HW2 4593   2.083   0.705   0.920
 1232SOL     OW 4594   2.214   2.210   6.142
 1232SOL    HW1 4595   2.263   2.235   6.058
 1232SOL    HW2 4596   2.119   2.188   6.120
 1233SOL     OW 4597   0.265   5.199   4.757
 1233SOL    HW1 4598   0.263   5.121   4.695
 1233SOL    HW2 4599   0.175   5.242   4.759
 1234SOL     OW 4600   7.011   4.078   5.316
 1234SOL    HW1 4601   6.956   4.149   5.359
 1234SOL    HW2 4602   0.083   4.079   5.355
 1235SOL     OW 4603   6.808   4.969   6.992
 1235SOL    HW1 4604   6.791   5.058   6.950
 1235SOL    HW2 4605   6.773   4.968   0.065
 1236SOL     OW 4606   0.309   1.036   3.001
 1236SOL    HW1 4607   0.311   0.975   2.921
 1236SOL    HW2 4608   0.247   1.112   2.982
 1237SOL     OW 4609   0.420   0.539   5.369
 1237SOL    HW1 4610   0.514   0.506   5.361
 1237SOL    HW2 4611   0.419   0.639   5.367
 1238SOL     OW 4612   0.631   0.729   4.364
 1238SOL    HW1 4613   0.538   0.733   4.399
 1238SOL    HW2 4614   0.695   0.716   4.441
 1239SOL     OW 4615   4.747   5.080   3.439
 1239SOL    HW1 4616   4.783   4.999   3.392
 1239SOL    HW2 4617   4.695   5.052   3.519
 1240SOL     OW 4618   0.718   4.056   1.826
 1240SOL    HW1 4619   0.710   4.030   1.730
 1240SOL    HW2 4620   0.700   3.977   1.884
 1241SOL     OW 4621   3.274   5.755   6.099
 1241SOL    HW1 4622   3.211   5.696   6.150
 1241SOL    HW2 4623   3.313   5.823   6.162
 1242SOL     OW 4624   2.518   5.596   0.604
 1242SOL    HW1 4625   2.583   5.565   0.535
 1242SOL    HW2 4626   2.428   5.556   0.586
 1243SOL     OW 4627   0.650   4.562   3.962
 1243SOL    HW1 4628   0.711   4.515   3.898
 1243SOL    HW2 4629   0.561   4.577   3.918
 1244SOL     OW 4630   6.155   6.424   4.609
 1244SOL    HW1 4631   6.131   6.519   4.630
 1244SOL    HW2 4632   6.239   6.422   4.555
 1245SOL     OW 4633   4.418   7.019   1.774
 1245SOL    HW1 4634   4.342   6.971   1.730
 1245SOL    HW2 4635   4.503   6.972   1.752
 1246SOL     OW 4636   5.107   2.354   2.083
 1246SOL    HW1 4637   5.040   2.385   2.151
 1246SOL    HW2 4638   5.198   2.357   2.124
 1247SOL     OW 4639   4.396   6.294   2.979
 1247SOL    HW1 4640   4.397   6.368   3.046
 1247SOL    HW2 4641   4.453   6.218   3.011
 1248SOL     OW 4642   0.265   0.214   4.864
 1248SOL    HW1 4643   0.286   0.300   4.912
 1248SOL    HW2 4644   0.166   0.202   4.860
 1249SOL     OW 4645   6.347   6.775   0.303
 1249SOL    HW1 4646   6.416   6.828   0.254
 1249SOL    HW2 4647   6.294   6.721   0.239
 1250SOL     OW 4648   0.413   4.019   4.756
 1250SOL    HW1 4649   0.402   3.991   4.851
 1250SOL    HW2 4650   0.326   4.052   4.720
 1251SOL     OW 4651   1.918   0.332   3.354
 1251SOL    HW1 4652   1.957   0.270   3.286
 1251SOL    HW2 4653   1.865   0.280   3.421
 1252SOL     OW 4654   2.697   5.010   6.358
 1252SOL    HW1 4655   2.658   5.101   6.371
 1252SOL    HW2 4656   2.626   4.941   6.372
 1253SOL     OW 4657   3.420   4.796   0.595
 1253SOL    HW1 4658   3.459   4.879   0.555
 1253SOL    HW2 4659   3.396   4.813   0.690
 1254SOL     OW 4660   6.729   1.010   3.910
 1254SOL    HW1 4661   6.647   1.039   3.959
 1254SOL    HW2 4662   6.701   0.960   3.828
 1255SOL     OW 4663   5.557   1.867   6.610
 1255SOL    HW1 4664   5.550   1.865   6.710
 1255SOL    HW2 4665   5.491   1.933   6.574
 1256SOL     OW 4666   6.430   6.293   6.053
 1256SOL    HW1 4667   6.392   6.355   5.985
 1256SOL    HW2 4668   6.446   6.203   6.011
 1257SOL     OW 4669   6.916   6.257   2.028
 1257SOL    HW1 4670   7.016   6.254   2.029
 1257SOL    HW2 4671   6.883   6.300   2.112
 1258SOL     OW 4672   5.183   5.597   6.465
 1258SOL    HW1 4673   5.235   5.615   6.549
 1258SOL    HW2 4674   5.151   5.502   6.465
 1259SOL     OW 4675   6.223   6.932   4.911
 1259SOL    HW1 4676   6.250   6.872   4.986
 1259SOL    HW2 4677   6.124   6.943   4.911
 1260SOL     OW 4678   3.425   0.806   0.614
 1260SOL    HW1 4679   3.368   0.727   0.590
 1260SOL    HW2 4680   3.499   0.815   0.547
 1261SOL     OW 4681   0.703   3.988   5.023
 1261SOL    HW1 4682   0.694   3.967   4.926
 1261SOL    HW2 4683   0.745   4.078   5.035
 1262SOL     OW 4684   5.028   6.762   0.437
 1262SOL    HW1 4685   5.034   6.726   0.530
 1262SOL    HW2 4686   4.974   6.847   0.438
 1263SOL     OW 4687   6.941   1.453   1.082
 1263SOL    HW1 4688   6.941   1.359   1.115
 1263SOL    HW2 4689   6.857   1.499   1.110
 1264SOL     OW 4690   5.693   2.619   5.123
 1264SOL    HW1 4691   5.738   2.697   5.079
 1264SOL    HW2 4692   5.599   2.645   5.148
 1265SOL     OW 4693   5.594   5.511   4.084
 1265SOL    HW1 4694   5.608   5.608   4.102
 1265SOL    HW2 4695   5.672   5.459   4.118
 1266SOL     OW 4696   2.388   0.797   3.951
 1266SOL    HW1 4697   2.422   0.843   3.870
 1266SOL    HW2 4698   2.465   0.764   4.005
 1267SOL     OW 4699   0.108   4.655   2.379
 1267SOL    HW1 4700   0.106   4.683   2.283
 1267SOL    HW2 4701   0.188   4.598   2.396
 1268SOL     OW 4702   6.234   4.393   6.268
 1268SOL    HW1 4703   6.280   4.408   6.180
 1268SOL    HW2 4704   6.268   4.458   6.336
 1269SOL     OW 4705   1.259   3.471   5.710
 1269SOL    HW1 4706   1.324   3.434   5.776
 1269SOL    HW2 4707   1.199   3.398   5.678
 1270SOL     OW 4708   1.371   2.414   3.671
 1270SOL    HW1 4709   1.424   2.417   3.586
 1270SOL    HW2 4710   1.280   2.377   3.653
 1271SOL     OW 4711   5.175   3.884   3.048
 1271SOL    HW1 4712   5.160   3.912   2.953
 1271SOL    HW2 4713   5.087   3.875   3.095
 1272SOL     OW 4714   5.513   6.618   0.878
 1272SOL    HW1 4715   5.592   6.603   0.819
 1272SOL    HW2 4716   5.494   6.535   0.930
 1273SOL     OW 4717   2.671   6.492   4.426
 1273SOL    HW1 4718   2.673   6.590   4.448
 1273SOL    HW2 4719   2.593   6.449   4.472
 1274SOL     OW 4720   5.470   2.361   1.425
 1274SOL    HW1 4721   5.372   2.382   1.431
 1274SOL    HW2 4722   5.519   2.413   1.496
 1275SOL     OW 4723   3.698   1.261   3.756
 1275SOL    HW1 4724   3.682   1.168   3.725
 1275SOL    HW2 4725   3.642   1.280   3.837
 1276SOL     OW 4726   5.461   6.631   3.411
 1276SOL    HW1 4727   5.483   6.691   3.334
 1276SOL    HW2 4728   5.440   6.539   3.378
 1277SOL     OW 4729   0.643   1.842   4.662
 1277SOL    HW1 4730   0.628   1.908   4.589
 1277SOL    HW2 4731   0.717   1.875   4.722
 1278SOL     OW 4732   2.760   1.636   4.981
 1278SOL    HW1 4733   2.683   1.646   4.919
 1278SOL    HW2 4734   2.775   1.722   5.030
 1279SOL     OW 4735   1.908   5.031   0.593
 1279SOL    HW1 4736   1.891   5.024   0.691
 1279SOL    HW2 4737   1.957   5.115   0.573
 1280SOL     OW 4738   0.705   6.333   2.990
 1280SOL    HW1 4739   0.797   6.298   2.971
 1280SOL    HW2 4740   0.642   6.257   3.002
 1281SOL     OW 4741   1.177   6.540   4.046
 1281SOL    HW1 4742   1.136   6.584   4.127
 1281SOL    HW2 4743   1.227   6.608   3.993
 1282SOL     OW 4744   1.757   6.639   2.539
 1282SOL    HW1 4745   1.847   6.602   2.514
 1282SOL    HW2 4746   1.687   6.599   2.481
 1283SOL     OW 4747   5.471   4.530   5.012
 1283SOL    HW1 4748   5.395   4.594   5.020
 1283SOL    HW2 4749   5.540   4.551   5.081
 1284SOL     OW 4750   2.912   2.135   2.895
 1284SOL    HW1 4751   2.877   2.096   2.980
 1284SOL    HW2 4752   2.960   2.064   2.843
 1285SOL     OW 4753   6.089   2.204   5.788
 1285SOL    HW1 4754   6.088   2.278   5.855
 1285SOL    HW2 4755   5.997   2.188   5.755
 1286SOL     OW 4756   5.230   5.951   0.751
 1286SOL    HW1 4757   5.312   5.940   0.808
 1286SOL    HW2 4758   5.168   5.874   0.766
 1287SOL     OW 4759   6.054   3.300   6.011
 1287SOL    HW1 4760   6.085   3.354   6.089
 1287SOL    HW2 4761   5.955   3.307   6.003
 1288SOL     OW 4762   7.011   3.021   3.177
 1288SOL    HW1 4763   0.061   2.952   3.196
 1288SOL    HW2 4764   0.030   3.094   3.120
 1289SOL     OW 4765   0.253   5.003   2.954
 1289SOL    HW1 4766   0.225   4.984   3.048
 1289SOL    HW2 4767   0.341   5.052   2.955
 1290SOL     OW 4768   6.444   0.330   2.209
 1290SOL    HW1 4769   6.498   0.277   2.143
 1290SOL    HW2 4770   6.482   0.317   2.301
 1291SOL     OW 4771   1.952   5.656   1.229
 1291SOL    HW1 4772   2.031   5.681   1.285
 1291SOL    HW2 4773   1.909   5.575   1.268
 1292SOL     OW 4774   1.717   6.833   0.684
 1292SOL    HW1 4775   1.706   6.921   0.639
 1292SOL    HW2 4776   1.701   6.759   0.619
 1293SOL     OW 4777   6.823   1.456   6.818
 1293SOL    HW1 4778   6.907   1.506   6.838
 1293SOL    HW2 4779   6.788   1.484   6.728
 1294SOL     OW 4780   0.505   1.776   4.005
 1294SOL    HW1 4781   0.489   1.874   4.001
 1294SOL    HW2 4782   0.526   1.749   4.099
 1295SOL     OW 4783   5.058   4.361   0.569
 1295SOL    HW1 4784   5.134   4.421   0.542
 1295SOL    HW2 4785   5.092   4.269   0.587
 1296SOL     OW 4786   3.681   1.179   0.601
 1296SOL    HW1 4787   3.696   1.278   0.605
 1296SOL    HW2 4788   3.640   1.155   0.512
 1297SOL     OW 4789   5.491   0.838   6.034
 1297SOL    HW1 4790   5.442   0.767   6.085
 1297SOL    HW2 4791   5.523   0.908   6.098
 1298SOL     OW 4792   5.947   2.585   2.832
 1298SOL    HW1 4793   5.945   2.644   2.751
 1298SOL    HW2 4794   6.041   2.573   2.862
 1299SOL     OW 4795   1.366   4.377   4.384
 1299SOL    HW1 4796   1.283   4.385   4.439
 1299SOL    HW2 4797   1.350   4.414   4.293
 1300SOL     OW 4798   3.860   3.011   2.818
 1300SOL    HW1 4799   3.864   3.019   2.918
 1300SOL    HW2 4800   3.783   2.954   2.791
 1301SOL     OW 4801   0.694   0.840   1.485
 1301SOL    HW1 4802   0.775   0.799   1.529
 1301SOL    HW2 4803   0.654   0.774   1.422
 1302SOL     OW 4804   2.740   5.797   5.436
 1302SOL    HW1 4805   2.837   5.779   5.420
 1302SOL    HW2 4806   2.731   5.874   5.500
 1303SOL     OW 4807   2.973   6.987   1.785
 1303SOL    HW1 4808   3.069   6.987   1.759
 1303SOL    HW2 4809   2.919   0.004   1.709
 1304SOL     OW 4810   3.440   0.795   5.694
 1304SOL    HW1 4811   3.511   0.757   5.635
 1304SOL    HW2 4812   3.462   0.776   5.790
 1305SOL     OW 4813   5.689   6.793   4.384
 1305SOL    HW1 4814   5.626   6.752   4.318
 1305SOL    HW2 4815   5.771   6.737   4.391
 1306SOL     OW 4816   1.566   5.414   3.551
 1306SOL    HW1 4817   1.622   5.355   3.493
 1306SOL    HW2 4818   1.593   5.403   3.646
 1307SOL     OW 4819   1.127   0.885   5.344
 1307SOL    HW1 4820   1.090   0.970   5.307
 1307SOL    HW2 4821   1.223   0.899   5.370
 1308SOL     OW 4822   4.489   6.736   3.318
 1308SOL    HW1 4823   4.409   6.712   3.373
 1308SOL    HW2 4824   4.500   6.835   3.317
 1309SOL     OW 4825   6.523   3.020   4.159
 1309SOL    HW1 4826   6.574   3.049   4.240
 1309SOL    HW2 4827   6.552   3.073   4.080
 1310SOL     OW 4828   5.616   4.096   5.961
 1310SOL    HW1 4829   5.524   4.134   5.971
 1310SOL    HW2 4830   5.614   4.022   5.894
 1311SOL     OW 4831   5.033   4.762   0.255
 1311SOL    HW1 4832   5.050   4.854   0.291
 1311SOL    HW2 4833   4.935   4.750   0.239
 1312SOL     OW 4834   6.883   1.215   2.270
 1312SOL    HW1 4835   6.870   1.264   2.184
 1312SOL    HW2 4836   6.837   1.263   2.344
 1313SOL     OW 4837   4.190   5.001   5.035
 1313SOL    HW1 4838   4.248   4.928   4.998
 1313SOL    HW2 4839   4.143   5.048   4.961
 1314SOL     OW 4840   0.053   1.026   6.355
 1314SOL    HW1 4841   0.002   0.941   6.370
 1314SOL    HW2 4842   7.015   1.104   6.375
 1315SOL     OW 4843   1.170   6.670   3.711
 1315SOL    HW1 4844   1.179   6.633   3.619
 1315SOL    HW2 4845   1.103   6.744   3.712
 1316SOL     OW 4846   3.386   5.708   4.039
 1316SOL    HW1 4847   3.388   5.644   4.116
 1316SOL    HW2 4848   3.415   5.661   3.956
 1317SOL     OW 4849   0.088   3.069   3.636
 1317SOL    HW1 4850   0.000   3.116   3.645
 1317SOL    HW2 4851   0.084   3.004   3.560
 1318SOL     OW 4852   0.679   6.657   2.515
 1318SOL    HW1 4853   0.590   6.634   2.476
 1318SOL    HW2 4854   0.673   6.744   2.564
 1319SOL     OW 4855   0.480   6.627   1.059
 1319SOL    HW1 4856   0.579   6.629   1.046
 1319SOL    HW2 4857   0.459   6.601   1.154
 1320SOL     OW 4858   5.438   4.934   5.273
 1320SOL    HW1 4859   5.475   5.011   5.220
 1320SOL    HW2 4860   5.353   4.903   5.231
 1321SOL     OW 4861   3.637   1.136   0.921
 1321SOL    HW1 4862   3.665   1.162   0.828
 1321SOL    HW2 4863   3.577   1.056   0.917
 1322SOL     OW 4864   4.993   1.099   6.180
 1322SOL    HW1 4865   5.063   1.154   6.225
 1322SOL    HW2 4866   4.903   1.129   6.209
 1323SOL     OW 4867   6.489   0.746   4.237
 1323SOL    HW1 4868   6.584   0.768   4.257
 1323SOL    HW2 4869   6.480   0.719   4.141
 1324SOL     OW 4870   1.289   2.579   0.432
 1324SOL    HW1 4871   1.365   2.538   0.483
 1324SOL    HW2 4872   1.224   2.620   0.496
 1325SOL     OW 4873   4.437   5.204   3.502
 1325SOL    HW1 4874   4.397   5.113   3.499
 1325SOL    HW2 4875   4.384   5.263   3.562
 1326SOL     OW 4876   5.230   3.999   4.299
 1326SOL    HW1 4877   5.205   4.078   4.243
 1326SOL    HW2 4878   5.178   3.919   4.270
 1327SOL     OW 4879   3.302   6.473   3.337
 1327SOL    HW1 4880   3.312   6.384   3.294
 1327SOL    HW2 4881   3.222   6.520   3.300
 1328SOL     OW 4882   2.274   1.952   1.687
 1328SOL    HW1 4883   2.261   1.944   1.589
 1328SOL    HW2 4884   2.284   2.048   1.713
 1329SOL     OW 4885   1.080   5.911   1.411
 1329SOL    HW1 4886   0.988   5.877   1.392
 1329SOL    HW2 4887   1.116   5.866   1.492
 1330SOL     OW 4888   5.753   6.648   1.939
 1330SOL    HW1 4889   5.823   6.683   1.876
 1330SOL    HW2 4890   5.663   6.679   1.909
 1331SOL     OW 4891   0.713   2.384   1.477
 1331SOL    HW1 4892   0.662   2.353   1.397
 1331SOL    HW2 4893   0.811   2.386   1.456
 1332SOL     OW 4894   4.573   2.021   0.342
 1332SOL    HW1 4895   4.625   2.101   0.372
 1332SOL    HW2 4896   4.599   1.999   0.248
 1333SOL     OW 4897   4.253   3.455   5.239
 1333SOL    HW1 4898   4.345   3.435   5.271
 1333SOL    HW2 4899   4.189   3.391   5.281
 1334SOL     OW 4900   1.678   3.323   4.451
 1334SOL    HW1 4901   1.593   3.362   4.486
 1334SOL    HW2 4902   1.739   3.397   4.423
 1335SOL     OW 4903   1.912   5.163   3.568
 1335SOL    HW1 4904   1.972   5.238   3.593
 1335SOL    HW2 4905   1.927   5.086   3.630
 1336SOL     OW 4906   0.489   6.606   5.053
 1336SOL    HW1 4907   0.549   6.659   4.994
 1336SOL    HW2 4908   0.422   6.668   5.095
 1337SOL     OW 4909   3.227   0.275   6.983
 1337SOL    HW1 4910   3.196   0.293   6.890
 1337SOL    HW2 4911   3.262   0.359   0.004
 1338SOL     OW 4912   3.857   4.682   0.640
 1338SOL    HW1 4913   3.836   4.761   0.697
 1338SOL    HW2 4914   3.774   4.629   0.625
 1339SOL     OW 4915   0.234   4.228   6.482
 1339SOL    HW1 4916   0.310   4.289   6.504
 1339SOL    HW2 4917   0.268   4.135   6.472
 1340SOL     OW 4918   2.822   2.009   6.168
 1340SOL    HW1 4919   2.760   2.084   6.189
 1340SOL    HW2 4920   2.873   2.029   6.085
 1341SOL     OW 4921   5.469   1.686   4.087
 1341SOL    HW1 4922   5.481   1.720   4.180
 1341SOL    HW2 4923   5.411   1.749   4.035
 1342SOL     OW 4924   0.544   6.259   0.440
 1342SOL    HW1 4925   0.613   6.194   0.470
 1342SOL    HW2 4926   0.473   6.211   0.388
 1343SOL     OW 4927   2.977   6.236   3.091
 1343SOL    HW1 4928   3.049   6.169   3.075
 1343SOL    HW2 4929   3.004   6.324   3.052
 1344SOL     OW 4930   4.483   1.533   2.261
 1344SOL    HW1 4931   4.488   1.455   2.198
 1344SOL    HW2 4932   4.458   1.616   2.211
 1345SOL     OW 4933   6.236   5.523   2.289
 1345SOL    HW1 4934   6.229   5.488   2.195
 1345SOL    HW2 4935   6.298   5.464   2.341
 1346SOL     OW 4936   6.516   1.909   3.049
 1346SOL    HW1 4937   6.529   1.824   3.100
 1346SOL    HW2 4938   6.445   1.895   2.980
 1347SOL     OW 4939   4.202   0.979   3.998
 1347SOL    HW1 4940   4.207   1.039   4.078
 1347SOL    HW2 4941   4.137   1.018   3.932
 1348SOL     OW 4942   5.324   6.244   4.719
 1348SOL    HW1 4943   5.352   6.281   4.808
 1348SOL    HW2 4944   5.228   6.216   4.724
 1349SOL     OW 4945   5.295   1.399   6.677
 1349SOL    HW1 4946   5.350   1.477   6.709
 1349SOL    HW2 4947   5.276   1.410   6.579
 1350SOL     OW 4948   3.711   1.530   4.566
 1350SOL    HW1 4949   3.708   1.603   4.498
 1350SOL    HW2 4950   3.659   1.451   4.533
 1351SOL     OW 4951   1.162   1.564   4.195
 1351SOL    HW1 4952   1.185   1.641   4.136
 1351SOL    HW2 4953   1.190   1.585   4.289
 1352SOL     OW 4954   0.932   6.095   4.575
 1352SOL    HW1 4955   0.874   6.014   4.580
 1352SOL    HW2 4956   1.024   6.068   4.548
 1353SOL     OW 4957   2.612   3.357   5.965
 1353SOL    HW1 4958   2.644   3.341   6.058
 1353SOL    HW2 4959   2.686   3.338   5.900
 1354SOL     OW 4960   0.331   6.313   6.726
 1354SOL    HW1 4961   0.419   6.269   6.710
 1354SOL    HW2 4962   0.258   6.259   6.683
 1355SOL     OW 4963   5.137   3.446   0.347
 1355SOL    HW1 4964   5.072   3.378   0.312
 1355SOL    HW2 4965   5.142   3.523   0.284
 1356SOL     OW 4966   3.621   3.325   2.765
 1356SOL    HW1 4967   3.625   3.406   2.707
 1356SOL    HW2 4968   3.588   3.247   2.712
 1357SOL     OW 4969   3.687   2.228   5.561
 1357SOL    HW1 4970   3.761   2.201   5.623
 1357SOL    HW2 4971   3.643   2.146   5.524
 1358SOL     OW 4972   1.660   3.192   5.088
 1358SOL    HW1 4973   1.630   3.277   5.045
 1358SOL    HW2 4974   1.706   3.135   5.019
 1359SOL     OW 4975   0.621   1.580   6.775
 1359SOL    HW1 4976   0.646   1.536   6.861
 1359SOL    HW2 4977   0.572   1.514   6.718
 1360SOL     OW 4978   2.985   3.460   4.620
 1360SOL    HW1 4979   3.068   3.406   4.607
 1360SOL    HW2 4980   2.957   3.455   4.716
 1361SOL     OW 4981   1.527   6.400   1.075
 1361SOL    HW1 4982   1.463   6.435   1.007
 1361SOL    HW2 4983   1.588   6.333   1.033
 1362SOL     OW 4984   3.529   0.920   6.395
 1362SOL    HW1 4985   3.553   1.012   6.366
 1362SOL    HW2 4986   3.550   0.855   6.322
 1363SOL     OW 4987   6.648   6.349   1.157
 1363SOL    HW1 4988   6.624   6.260   1.119
 1363SOL    HW2 4989   6.582   6.418   1.128
 1364SOL     OW 4990   1.348   3.094   0.798
 1364SOL    HW1 4991   1.438   3.120   0.832
 1364SOL    HW2 4992   1.278   3.122   0.864
 1365SOL     OW 4993   1.508   2.637   6.471
 1365SOL    HW1 4994   1.508   2.735   6.491
 1365SOL    HW2 4995   1.603   2.605   6.461
 1366SOL     OW 4996   3.891   1.484   1.876
 1366SOL    HW1 4997   3.883   1.392   1.912
 1366SOL    HW2 4998   3.887   1.481   1.776
 1367SOL     OW 4999   1.603   0.240   4.490
 1367SOL    HW1 5000   1.512   0.271   4.517
 1367SOL    HW2 5001   1.611   0.141   4.505
 1368SOL     OW 5002   1.508   6.017   5.044
 1368SOL    HW1 5003   1.606   6.033   5.041
 1368SOL    HW2 5004   1.490   5.920   5.055
 1369SOL     OW 5005   2.295   5.712   3.410
 1369SOL    HW1 5006   2.344   5.662   3.338
 1369SOL    HW2 5007   2.245   5.789   3.369
 1370SOL     OW 5008   6.774   2.659   2.781
 1370SOL    HW1 5009   6.698   2.647   2.844
 1370SOL    HW2 5010   6.855   2.612   2.818
 1371SOL     OW 5011   6.247   1.597   6.857
 1371SOL    HW1 5012   6.245   1.695   6.838
 1371SOL    HW2 5013   6.327   1.576   6.914
 1372SOL     OW 5014   5.020   2.176   1.907
 1372SOL    HW1 5015   5.036   2.257   1.964
 1372SOL    HW2 5016   4.941   2.126   1.942
 1373SOL     OW 5017   4.372   2.601   1.415
 1373SOL    HW1 5018   4.305   2.670   1.386
 1373SOL    HW2 5019   4.434   2.641   1.482
 1374SOL     OW 5020   3.201   3.649   3.944
 1374SOL    HW1 5021   3.105   3.654   3.969
 1374SOL    HW2 5022   3.257   3.650   4.027
 1375SOL     OW 5023   5.797   4.238   5.224
 1375SOL    HW1 5024   5.885   4.190   5.231
 1375SOL    HW2 5025   5.723   4.171   5.223
 1376SOL     OW 5026   3.163   4.785   5.873
 1376SOL    HW1 5027   3.082   4.802   5.928
 1376SOL    HW2 5028   3.237   4.846   5.903
 1377SOL     OW 5029   1.138   2.266   3.610
 1377SOL    HW1 5030   1.154   2.168   3.625
 1377SOL    HW2 5031   1.070   2.278   3.538
 1378SOL     OW 5032   4.759   2.899   3.494
 1378SOL    HW1 5033   4.720   2.831   3.555
 1378SOL    HW2 5034   4.721   2.887   3.402
 1379SOL     OW 5035   4.913   5.985   6.406
 1379SOL    HW1 5036   4.927   5.940   6.318
 1379SOL    HW2 5037   4.916   5.917   6.479
 1380SOL     OW 5038   0.089   6.603   4.199
 1380SOL    HW1 5039   0.168   6.641   4.246
 1380SOL    HW2 5040   0.106   6.601   4.100
 1381SOL     OW 5041   6.898   2.400   6.246
 1381SOL    HW1 5042   6.890   2.482   6.303
 1381SOL    HW2 5043   6.822   2.339   6.265
 1382SOL     OW 5044   4.488   2.230   5.598
 1382SOL    HW1 5045   4.508   2.319   5.640
 1382SOL    HW2 5046   4.565   2.204   5.540
 1383SOL     OW 5047   5.296   0.266   0.775
 1383SOL    HW1 5048   5.338   0.329   0.709
 1383SOL    HW2 5049   5.255   0.319   0.849
 1384SOL     OW 5050   5.601   2.058   2.462
 1384SOL    HW1 5051   5.531   2.009   2.410
 1384SOL    HW2 5052   5.570   2.151   2.480
 1385SOL     OW 5053   6.844   6.619   1.792
 1385SOL    HW1 5054   6.870   6.600   1.697
 1385SOL    HW2 5055   6.746   6.601   1.804
 1386SOL     OW 5056   1.653   0.444   4.277
 1386SOL    HW1 5057   1.728   0.403   4.224
 1386SOL    HW2 5058   1.627   0.382   4.351
 1387SOL     OW 5059   0.881   5.927   1.830
 1387SOL    HW1 5060   0.969   5.973   1.844
 1387SOL    HW2 5061   0.883   5.876   1.744
 1388SOL     OW 5062   6.505   1.053   1.494
 1388SOL    HW1 5063   6.506   1.132   1.434
 1388SOL    HW2 5064   6.515   1.083   1.589
 1389SOL     OW 5065   6.426   1.041   1.142
 1389SOL    HW1 5066   6.464   0.968   1.085
 1389SOL    HW2 5067   6.333   1.016   1.170
 1390SOL     OW 5068   1.243   1.592   4.436
 1390SOL    HW1 5069   1.267   1.689   4.442
 1390SOL    HW2 5070   1.320   1.537   4.470
 1391SOL     OW 5071   0.689   3.423   3.703
 1391SOL    HW1 5072   0.734   3.342   3.741
 1391SOL    HW2 5073   0.753   3.500   3.704
 1392SOL     OW 5074   5.471   5.352   3.673
 1392SOL    HW1 5075   5.449   5.437   3.720
 1392SOL    HW2 5076   5.526   5.372   3.592
 1393SOL     OW 5077   3.385   4.718   6.734
 1393SOL    HW1 5078   3.358   4.808   6.699
 1393SOL    HW2 5079   3.388   4.721   6.834
 1394SOL     OW 5080   1.337   6.964   6.631
 1394SOL    HW1 5081   1.363   6.918   6.546
 1394SOL    HW2 5082   1.367   0.039   6.629
 1395SOL     OW 5083   4.098   4.605   6.616
 1395SOL    HW1 5084   4.026   4.599   6.685
 1395SOL    HW2 5085   4.185   4.577   6.656
 1396SOL     OW 5086   5.121   5.929   3.144
 1396SOL    HW1 5087   5.122   5.977   3.056
 1396SOL    HW2 5088   5.034   5.946   3.190
 1397SOL     OW 5089   5.951   5.909   4.851
 1397SOL    HW1 5090   5.978   5.900   4.755
 1397SOL    HW2 5091   5.895   5.831   4.877
 1398SOL     OW 5092   1.656   0.186   5.199
 1398SOL    HW1 5093   1.632   0.238   5.282
 1398SOL    HW2 5094   1.755   0.180   5.191
 1399SOL     OW 5095   2.818   5.324   2.402
 1399SOL    HW1 5096   2.898   5.292   2.453
 1399SOL    HW2 5097   2.799   5.260   2.327
 1400SOL     OW 5098   0.970   0.512   3.241
 1400SOL    HW1 5099   0.916   0.474   3.316
 1400SOL    HW2 5100   1.015   0.596   3.272
 1401SOL     OW 5101   6.805   2.186   4.126
 1401SOL    HW1 5102   6.838   2.258   4.187
 1401SOL    HW2 5103   6.845   2.198   4.035
 1402SOL     OW 5104   5.738   2.206   0.295
 1402SOL    HW1 5105   5.675   2.204   0.372
 1402SOL    HW2 5106   5.750   2.301   0.263
 1403SOL     OW 5107   4.117   1.063   2.016
 1403SOL    HW1 5108   4.169   1.133   2.065
 1403SOL    HW2 5109   4.099   0.986   2.077
 1404SOL     OW 5110   4.388   1.381   6.979
 1404SOL    HW1 5111   4.358   1.470   7.014
 1404SOL    HW2 5112   4.316   1.313   6.995
 1405SOL     OW 5113   3.912   2.745   0.684
 1405SOL    HW1 5114   3.968   2.664   0.663
 1405SOL    HW2 5115   3.873   2.781   0.600
 1406SOL     OW 5116   0.823   3.117   2.198
 1406SOL    HW1 5117   0.784   3.190   2.254
 1406SOL    HW2 5118   0.807   3.137   2.101
 1407SOL     OW 5119   6.671   2.367   2.758
 1407SOL    HW1 5120   6.647   2.438   2.691
 1407SOL    HW2 5121   6.707   2.410   2.840
 1408SOL     OW 5122   6.673   4.919   6.553
 1408SOL    HW1 5123   6.627   4.979   6.488
 1408SOL    HW2 5124   6.728   4.852   6.503
 1409SOL     OW 5125   0.578   1.103   3.898
 1409SOL    HW1 5126   0.500   1.046   3.875
 1409SOL    HW2 5127   0.658   1.046   3.913
 1410SOL     OW 5128   6.790   1.803   6.886
 1410SOL    HW1 5129   6.817   1.888   6.931
 1410SOL    HW2 5130   6.866   1.739   6.886
 1411SOL     OW 5131   1.828   1.527   1.549
 1411SOL    HW1 5132   1.744   1.516   1.497
 1411SOL    HW2 5133   1.906   1.504   1.491
 1412SOL     OW 5134   1.785   2.307   0.561
 1412SOL    HW1 5135   1.788   2.244   0.484
 1412SOL    HW2 5136   1.771   2.400   0.527
 1413SOL     OW 5137   3.163   7.000   3.638
 1413SOL    HW1 5138   3.174   6.902   3.656
 1413SOL    HW2 5139   3.252   0.025   3.643
 1414SOL     OW 5140   1.588   1.231   2.465
 1414SOL    HW1 5141   1.505   1.225   2.409
 1414SOL    HW2 5142   1.617   1.326   2.472
 1415SOL     OW 5143   5.743   6.812   4.844
 1415SOL    HW1 5144   5.795   6.728   4.828
 1415SOL    HW2 5145   5.650   6.800   4.811
 1416SOL     OW 5146   4.643   5.372   3.611
 1416SOL    HW1 5147   4.650   5.295   3.547
 1416SOL    HW2 5148   4.550   5.409   3.607
 1417SOL     OW 5149   3.701   2.939   5.555
 1417SOL    HW1 5150   3.706   2.840   5.556
 1417SOL    HW2 5151   3.631   2.970   5.619
 1418SOL     OW 5152   3.409   4.123   3.798
 1418SOL    HW1 5153   3.397   4.023   3.800
 1418SOL    HW2 5154   3.320   4.168   3.804
 1419SOL     OW 5155   3.138   6.065   3.689
 1419SOL    HW1 5156   3.237   6.062   3.677
 1419SOL    HW2 5157   3.112   6.007   3.767
 1420SOL     OW 5158   0.341   6.468   2.905
 1420SOL    HW1 5159   0.341   6.492   3.002
 1420SOL    HW2 5160   0.434   6.472   2.870
 1421SOL     OW 5161   3.476   1.236   3.155
 1421SOL    HW1 5162   3.420   1.231   3.072
 1421SOL    HW2 5163   3.534   1.317   3.151
 1422SOL     OW 5164   2.736   6.224   0.917
 1422SOL    HW1 5165   2.684   6.307   0.894
 1422SOL    HW2 5166   2.701   6.147   0.864
 1423SOL     OW 5167   4.691   0.755   2.670
 1423SOL    HW1 5168   4.669   0.668   2.625
 1423SOL    HW2 5169   4.610   0.812   2.674
 1424SOL     OW 5170   6.406   5.346   2.446
 1424SOL    HW1 5171   6.331   5.351   2.513
 1424SOL    HW2 5172   6.432   5.250   2.434
 1425SOL     OW 5173   2.161   0.518   4.226
 1425SOL    HW1 5174   2.203   0.448   4.168
 1425SOL    HW2 5175   2.166   0.607   4.179
 1426SOL     OW 5176   1.479   1.353   5.806
 1426SOL    HW1 5177   1.563   1.395   5.771
 1426SOL    HW2 5178   1.441   1.410   5.878
 1427SOL     OW 5179   5.476   1.962   6.013
 1427SOL    HW1 5180   5.437   1.927   6.098
 1427SOL    HW2 5181   5.562   1.913   5.994
 1428SOL     OW 5182   5.876   0.761   0.965
 1428SOL    HW1 5183   5.863   0.861   0.963
 1428SOL    HW2 5184   5.788   0.716   0.952
 1429SOL     OW 5185   5.607   5.920   0.206
 1429SOL    HW1 5186   5.686   5.862   0.222
 1429SOL    HW2 5187   5.544   5.912   0.283
 1430SOL     OW 5188   3.170   4.855   2.502
 1430SOL    HW1 5189   3.099   4.801   2.548
 1430SOL    HW2 5190   3.165   4.839   2.404
 1431SOL     OW 5191   2.123   0.676   0.535
 1431SOL    HW1 5192   2.084   0.766   0.555
 1431SOL    HW2 5193   2.187   0.651   0.608
 1432SOL     OW 5194   3.330   0.032   1.489
 1432SOL    HW1 5195   3.405   6.998   1.453
 1432SOL    HW2 5196   3.332   0.124   1.448
 1433SOL     OW 5197   5.297   6.992   3.510
 1433SOL    HW1 5198   5.384   6.945   3.522
 1433SOL    HW2 5199   5.223   6.926   3.499
 1434SOL     OW 5200   0.885   1.204   5.042
 1434SOL    HW1 5201   0.808   1.246   4.994
 1434SOL    HW2 5202   0.971   1.229   4.997
 1435SOL     OW 5203   6.894   2.214   3.867
 1435SOL    HW1 5204   6.868   2.310   3.867
 1435SOL    HW2 5205   6.828   2.162   3.813
 1436SOL     OW 5206   5.279   3.217   1.280
 1436SOL    HW1 5207   5.360   3.214   1.222
 1436SOL    HW2 5208   5.268   3.310   1.316
 1437SOL     OW 5209   4.828   0.767   3.013
 1437SOL    HW1 5210   4.730   0.783   3.017
 1437SOL    HW2 5211   4.872   0.839   2.959
 1438SOL     OW 5212   2.635   0.123   2.098
 1438SOL    HW1 5213   2.711   0.071   2.135
 1438SOL    HW2 5214   2.630   0.109   1.999
 1439SOL     OW 5215   0.650   5.857   2.215
 1439SOL    HW1 5216   0.706   5.811   2.146
 1439SOL    HW2 5217   0.554   5.857   2.186
 1440SOL     OW 5218   2.645   2.892   1.494
 1440SOL    HW1 5219   2.583   2.836   1.438
 1440SOL    HW2 5220   2.630   2.870   1.591
 1441SOL     OW 5221   4.785   6.449   6.671
 1441SOL    HW1 5222   4.856   6.380   6.657
 1441SOL    HW2 5223   4.695   6.404   6.672
 1442SOL     OW 5224   5.345   5.477   1.679
 1442SOL    HW1 5225   5.320   5.437   1.767
 1442SOL    HW2 5226   5.313   5.417   1.605
 1443SOL     OW 5227   6.918   2.570   2.271
 1443SOL    HW1 5228   6.894   2.529   2.183
 1443SOL    HW2 5229   7.017   2.588   2.273
 1444SOL     OW 5230   0.615   6.440   5.200
 1444SOL    HW1 5231   0.568   6.504   5.139
 1444SOL    HW2 5232   0.711   6.466   5.209
 1445SOL     OW 5233   0.991   2.430   1.334
 1445SOL    HW1 5234   1.050   2.354   1.309
 1445SOL    HW2 5235   1.005   2.506   1.271
 1446SOL     OW 5236   6.384   5.169   1.721
 1446SOL    HW1 5237   6.341   5.120   1.797
 1446SOL    HW2 5238   6.433   5.104   1.663
 1447SOL     OW 5239   0.529   6.714   4.037
 1447SOL    HW1 5240   0.498   6.708   4.131
 1447SOL    HW2 5241   0.450   6.726   3.976
 1448SOL     OW 5242   1.768   1.165   5.534
 1448SOL    HW1 5243   1.673   1.179   5.559
 1448SOL    HW2 5244   1.780   1.184   5.436
 1449SOL     OW 5245   1.831   3.068   2.776
 1449SOL    HW1 5246   1.879   3.140   2.726
 1449SOL    HW2 5247   1.896   3.013   2.827
 1450SOL     OW 5248   3.112   2.045   2.633
 1450SOL    HW1 5249   3.084   2.077   2.543
 1450SOL    HW2 5250   3.198   2.089   2.658
 1451SOL     OW 5251   4.441   1.966   2.754
 1451SOL    HW1 5252   4.465   1.875   2.789
 1451SOL    HW2 5253   4.422   1.961   2.656
 1452SOL     OW 5254   4.485   2.780   5.377
 1452SOL    HW1 5255   4.482   2.690   5.333
 1452SOL    HW2 5256   4.392   2.817   5.385
 1453SOL     OW 5257   1.368   3.591   5.261
 1453SOL    HW1 5258   1.353   3.498   5.226
 1453SOL    HW2 5259   1.317   3.602   5.346
 1454SOL     OW 5260   2.983   2.061   2.399
 1454SOL    HW1 5261   2.940   2.129   2.339
 1454SOL    HW2 5262   2.970   1.970   2.359
 1455SOL     OW 5263   0.478   5.647   2.413
 1455SOL    HW1 5264   0.572   5.669   2.387
 1455SOL    HW2 5265   0.459   5.551   2.392
 1456SOL     OW 5266   6.574   5.622   3.875
 1456SOL    HW1 5267   6.596   5.718   3.890
 1456SOL    HW2 5268   6.478   5.613   3.849
 1457SOL     OW 5269   1.034   5.465   5.586
 1457SOL    HW1 5270   1.081   5.488   5.671
 1457SOL    HW2 5271   0.937   5.452   5.605
 1458SOL     OW 5272   6.778   5.432   4.896
 1458SOL    HW1 5273   6.855   5.375   4.924
 1458SOL    HW2 5274   6.731   5.389   4.819
 1459SOL     OW 5275   0.173   6.353   5.626
 1459SOL    HW1 5276   0.233   6.279   5.596
 1459SOL    HW2 5277   0.148   6.410   5.547
 1460SOL     OW 5278   1.410   6.139   4.832
 1460SOL    HW1 5279   1.416   6.239   4.845
 1460SOL    HW2 5280   1.462   6.094   4.904
 1461SOL     OW 5281   6.012   3.863   3.501
 1461SOL    HW1 5282   6.079   3.920   3.548
 1461SOL    HW2 5283   5.939   3.838   3.564
 1462SOL     OW 5284   1.010   2.085   2.043
 1462SOL    HW1 5285   1.019   2.093   2.143
 1462SOL    HW2 5286   0.981   1.992   2.020
 1463SOL     OW 5287   1.878   4.849   6.654
 1463SOL    HW1 5288   1.787   4.834   6.693
 1463SOL    HW2 5289   1.869   4.868   6.556
 1464SOL     OW 5290   0.882   4.268   5.633
 1464SOL    HW1 5291   0.949   4.236   5.699
 1464SOL    HW2 5292   0.841   4.353   5.664
 1465SOL     OW 5293   0.943   2.889   5.737
 1465SOL    HW1 5294   1.001   2.829   5.682
 1465SOL    HW2 5295   0.918   2.842   5.822
 1466SOL     OW 5296   5.839   0.904   2.734
 1466SOL    HW1 5297   5.765   0.932   2.796
 1466SOL    HW2 5298   5.864   0.980   2.675
 1467SOL     OW 5299   6.994   0.273   3.907
 1467SOL    HW1 5300   0.018   0.338   3.968
 1467SOL    HW2 5301   0.035   0.196   3.890
 1468SOL     OW 5302   3.515   6.567   3.760
 1468SOL    HW1 5303   3.471   6.513   3.689
 1468SOL    HW2 5304   3.558   6.647   3.718
 1469SOL     OW 5305   5.702   4.659   2.970
 1469SOL    HW1 5306   5.791   4.697   2.945
 1469SOL    HW2 5307   5.716   4.586   3.038
 1470SOL     OW 5308   6.142   1.883   1.855
 1470SOL    HW1 5309   6.092   1.962   1.891
 1470SOL    HW2 5310   6.077   1.820   1.812
 1471SOL     OW 5311   5.056   6.824   0.107
 1471SOL    HW1 5312   5.090   6.757   0.173
 1471SOL    HW2 5313   5.012   6.777   0.030
 1472SOL     OW 5314   2.577   0.871   6.874
 1472SOL    HW1 5315   2.491   0.922   6.877
 1472SOL    HW2 5316   2.651   0.932   6.845
 1473SOL     OW 5317   1.734   5.525   3.297
 1473SOL    HW1 5318   1.716   5.443   3.242
 1473SOL    HW2 5319   1.706   5.509   3.392
 1474SOL     OW 5320   1.639   4.055   1.501
 1474SOL    HW1 5321   1.633   4.002   1.586
 1474SOL    HW2 5322   1.606   3.998   1.425
 1475SOL     OW 5323   6.598   0.087   6.580
 1475SOL    HW1 5324   6.542   0.004   6.581
 1475SOL    HW2 5325   6.679   0.072   6.522
 1476SOL     OW 5326   5.826   0.205   6.846
 1476SOL    HW1 5327   5.784   0.162   6.766
 1476SOL    HW2 5328   5.759   0.210   6.920
 1477SOL     OW 5329   3.193   4.167   1.734
 1477SOL    HW1 5330   3.189   4.266   1.726
 1477SOL    HW2 5331   3.138   4.138   1.812
 1478SOL     OW 5332   4.739   4.087   6.455
 1478SOL    HW1 5333   4.641   4.098   6.439
 1478SOL    HW2 5334   4.785   4.064   6.369
 1479SOL     OW 5335   4.684   4.718   0.992
 1479SOL    HW1 5336   4.689   4.699   0.894
 1479SOL    HW2 5337   4.597   4.684   1.029
 1480SOL     OW 5338   3.262   1.773   3.564
 1480SOL    HW1 5339   3.183   1.713   3.567
 1480SOL    HW2 5340   3.327   1.746   3.635
 1481SOL     OW 5341   4.232   1.714   5.318
 1481SOL    HW1 5342   4.264   1.673   5.403
 1481SOL    HW2 5343   4.308   1.717   5.252
 1482SOL     OW 5344   6.414   1.510   1.596
 1482SOL    HW1 5345   6.385   1.487   1.689
 1482SOL    HW2 5346   6.368   1.594   1.567
 1483SOL     OW 5347   6.263   6.366   0.460
 1483SOL    HW1 5348   6.261   6.296   0.388
 1483SOL    HW2 5349   6.187   6.429   0.446
 1484SOL     OW 5350   2.841   6.405   5.366
 1484SOL    HW1 5351   2.917   6.350   5.401
 1484SOL    HW2 5352   2.754   6.360   5.387
 1485SOL     OW 5353   5.157   3.733   3.706
 1485SOL    HW1 5354   5.064   3.716   3.671
 1485SOL    HW2 5355   5.175   3.672   3.783
 1486SOL     OW 5356   6.050   6.377   4.269
 1486SOL    HW1 5357   6.030   6.281   4.250
 1486SOL    HW2 5358   6.143   6.398   4.238
 1487SOL     OW 5359   5.832   0.692   0.034
 1487SOL    HW1 5360   5.861   0.603   0.068
 1487SOL    HW2 5361   5.856   0.701   6.958
 1488SOL     OW 5362   6.452   2.880   2.501
 1488SOL    HW1 5363   6.408   2.865   2.589
 1488SOL    HW2 5364   6.546   2.846   2.505
 1489SOL     OW 5365   3.160   5.470   6.808
 1489SOL    HW1 5366   3.230   5.401   6.789
 1489SOL    HW2 5367   3.081   5.454   6.749
 1490SOL     OW 5368   5.836   2.749   2.201
 1490SOL    HW1 5369   5.753   2.772   2.252
 1490SOL    HW2 5370   5.851   2.651   2.203
 1491SOL     OW 5371   5.295   2.979   4.299
 1491SOL    HW1 5372   5.370   3.010   4.357
 1491SOL    HW2 5373   5.226   3.051   4.292
 1492SOL     OW 5374   1.212   2.792   2.034
 1492SOL    HW1 5375   1.304   2.795   1.995
 1492SOL    HW2 5376   1.179   2.885   2.050
 1493SOL     OW 5377   6.046   1.869   6.176
 1493SOL    HW1 5378   6.041   1.775   6.144
 1493SOL    HW2 5379   5.967   1.888   6.235
 1494SOL     OW 5380   1.368   3.337   6.772
 1494SOL    HW1 5381   1.348   3.240   6.784
 1494SOL    HW2 5382   1.304   3.376   6.706
 1495SOL     OW 5383   5.861   4.209   3.968
 1495SOL    HW1 5384   5.908   4.127   3.999
 1495SOL    HW2 5385   5.928   4.280   3.946
 1496SOL     OW 5386   6.703   6.365   5.646
 1496SOL    HW1 5387   6.791   6.393   5.685
 1496SOL    HW2 5388   6.657   6.304   5.710
 1497SOL     OW 5389   4.637   2.365   2.525
 1497SOL    HW1 5390   4.666   2.452   2.484
 1497SOL    HW2 5391   4.544   2.344   2.495
 1498SOL     OW 5392   3.533   4.425   1.013
 1498SOL    HW1 5393   3.528   4.340   1.066
 1498SOL    HW2 5394   3.460   4.487   1.043
 1499SOL     OW 5395   1.066   4.539   4.300
 1499SOL    HW1 5396   1.082   4.636   4.279
 1499SOL    HW2 5397   1.103   4.482   4.226
 1500SOL     OW 5398   2.291   5.399   1.611
 1500SOL    HW1 5399   2.225   5.426   1.540
 1500SOL    HW2 5400   2.323   5.481   1.659
 1501SOL     OW 5401   5.593   1.022   1.330
 1501SOL    HW1 5402   5.603   0.948   1.397
 1501SOL    HW2 5403   5.529   1.090   1.366
 1502SOL     OW 5404   1.023   6.192   5.931
 1502SOL    HW1 5405   0.937   6.215   5.975
 1502SOL    HW2 5406   1.068   6.118   5.981
 1503SOL     OW 5407   6.283   5.751   2.091
 1503SOL    HW1 5408   6.285   5.668   2.146
 1503SOL    HW2 5409   6.260   5.829   2.150
 1504SOL     OW 5410   1.679   6.684   3.511
 1504SOL    HW1 5411   1.630   6.617   3.566
 1504SOL    HW2 5412   1.672   6.660   3.414
 1505SOL     OW 5413   6.951   4.337   5.020
 1505SOL    HW1 5414   6.961   4.424   5.068
 1505SOL    HW2 5415   6.862   4.297   5.042
 1506SOL     OW 5416   0.891   1.227   0.673
 1506SOL    HW1 5417   0.925   1.199   0.583
 1506SOL    HW2 5418   0.902   1.152   0.738
 1507SOL     OW 5419   2.243   2.397   3.725
 1507SOL    HW1 5420   2.182   2.324   3.694
 1507SOL    HW2 5421   2.222   2.481   3.675
 1508SOL     OW 5422   1.147   0.821   1.699
 1508SOL    HW1 5423   1.245   0.828   1.684
 1508SOL    HW2 5424   1.106   0.913   1.697
 1509SOL     OW 5425   4.399   0.992   4.480
 1509SOL    HW1 5426   4.302   0.965   4.473
 1509SOL    HW2 5427   4.431   1.023   4.391
 1510SOL     OW 5428   2.610   0.012   5.447
 1510SOL    HW1 5429   2.652   0.072   5.379
 1510SOL    HW2 5430   2.674   7.019   5.523
 1511SOL     OW 5431   4.003   4.059   5.271
 1511SOL    HW1 5432   4.095   4.096   5.287
 1511SOL    HW2 5433   3.983   4.061   5.173
 1512SOL     OW 5434   5.540   6.719   1.141
 1512SOL    HW1 5435   5.563   6.811   1.109
 1512SOL    HW2 5436   5.559   6.653   1.069
 1513SOL     OW 5437   3.303   6.482   5.224
 1513SOL    HW1 5438   3.381   6.420   5.219
 1513SOL    HW2 5439   3.251   6.464   5.307
 1514SOL     OW 5440   3.240   1.859   0.203
 1514SOL    HW1 5441   3.186   1.873   0.285
 1514SOL    HW2 5442   3.229   1.937   0.141
 1515SOL     OW 5443   3.583   0.886   1.689
 1515SOL    HW1 5444   3.521   0.882   1.611
 1515SOL    HW2 5445   3.532   0.910   1.771
 1516SOL     OW 5446   6.858   6.813   6.514
 1516SOL    HW1 5447   6.901   6.852   6.597
 1516SOL    HW2 5448   6.872   6.714   6.513
 1517SOL     OW 5449   2.170   6.446   2.622
 1517SOL    HW1 5450   2.168   6.524   2.684
 1517SOL    HW2 5451   2.150   6.362   2.673
 1518SOL     OW 5452   1.427   2.345   6.506
 1518SOL    HW1 5453   1.457   2.333   6.601
 1518SOL    HW2 5454   1.423   2.443   6.484
 1519SOL     OW 5455   0.631   4.145   6.965
 1519SOL    HW1 5456   0.691   4.104   6.897
 1519SOL    HW2 5457   0.560   4.200   6.920
 1520SOL     OW 5458   0.081   6.562   3.461
 1520SOL    HW1 5459   0.042   6.652   3.444
 1520SOL    HW2 5460   0.079   6.509   3.376
 1521SOL     OW 5461   2.570   4.885   6.849
 1521SOL    HW1 5462   2.520   4.896   6.935
 1521SOL    HW2 5463   2.590   4.788   6.834
 1522SOL     OW 5464   6.013   6.237   3.714
 1522SOL    HW1 5465   5.999   6.336   3.714
 1522SOL    HW2 5466   5.941   6.193   3.661
 1523SOL     OW 5467   2.815   6.600   0.507
 1523SOL    HW1 5468   2.911   6.582   0.485
 1523SOL    HW2 5469   2.758   6.571   0.430
 1524SOL     OW 5470   2.016   2.656   4.464
 1524SOL    HW1 5471   2.104   2.698   4.487
 1524SOL    HW2 5472   1.943   2.698   4.519
 1525SOL     OW 5473   6.439   4.046   0.204
 1525SOL    HW1 5474   6.527   4.014   0.170
 1525SOL    HW2 5475   6.411   3.988   0.281
 1526SOL     OW 5476   0.969   1.346   1.699
 1526SOL    HW1 5477   0.912   1.423   1.669
 1526SOL    HW2 5478   1.003   1.364   1.791
 1527SOL     OW 5479   5.232   1.010   4.446
 1527SOL    HW1 5480   5.142   1.014   4.402
 1527SOL    HW2 5481   5.225   1.044   4.540
 1528SOL     OW 5482   3.232   3.684   2.106
 1528SOL    HW1 5483   3.147   3.633   2.116
 1528SOL    HW2 5484   3.300   3.626   2.062
 1529SOL     OW 5485   3.949   0.954   5.513
 1529SOL    HW1 5486   3.956   0.867   5.464
 1529SOL    HW2 5487   3.891   0.942   5.593
 1530SOL     OW 5488   3.008   6.931   2.044
 1530SOL    HW1 5489   2.979   6.973   1.958
 1530SOL    HW2 5490   2.934   6.936   2.111
 1531SOL     OW 5491   5.622   6.045   4.490
 1531SOL    HW1 5492   5.525   6.048   4.513
 1531SOL    HW2 5493   5.670   6.120   4.535
 1532SOL     OW 5494   2.819   5.208   2.143
 1532SOL    HW1 5495   2.733   5.163   2.118
 1532SOL    HW2 5496   2.892   5.175   2.083
 1533SOL     OW 5497   5.737   6.082   1.527
 1533SOL    HW1 5498   5.822   6.105   1.479
 1533SOL    HW2 5499   5.754   6.003   1.587
 1534SOL     OW 5500   2.313   5.310   6.529
 1534SOL    HW1 5501   2.334   5.261   6.445
 1534SOL    HW2 5502   2.398   5.333   6.577
 1535SOL     OW 5503   4.799   4.706   3.542
 1535SOL    HW1 5504   4.836   4.614   3.549
 1535SOL    HW2 5505   4.825   4.746   3.454
 1536SOL     OW 5506   4.439   4.360   6.605
 1536SOL    HW1 5507   4.419   4.416   6.686
 1536SOL    HW2 5508   4.440   4.264   6.631
 1537SOL     OW 5509   3.216   6.029   1.989
 1537SOL    HW1 5510   3.294   6.090   2.003
 1537SOL    HW2 5511   3.132   6.082   1.989
 1538SOL     OW 5512   2.185   1.508   0.832
 1538SOL    HW1 5513   2.244   1.573   0.879
 1538SOL    HW2 5514   2.241   1.435   0.792
 1539SOL     OW 5515   0.281   3.065   0.800
 1539SOL    HW1 5516   0.324   3.040   0.713
 1539SOL    HW2 5517   0.182   3.071   0.787
 1540SOL     OW 5518   3.644   5.545   3.277
 1540SOL    HW1 5519   3.658   5.448   3.260
 1540SOL    HW2 5520   3.733   5.590   3.289
 1541SOL     OW 5521   4.895   2.415   5.301
 1541SOL    HW1 5522   4.866   2.480   5.231
 1541SOL    HW2 5523   4.857   2.442   5.389
 1542SOL     OW 5524   0.836   4.368   2.616
 1542SOL    HW1 5525   0.925   4.322   2.622
 1542SOL    HW2 5526   0.815   4.412   2.703
 1543SOL     OW 5527   4.094   5.052   1.411
 1543SOL    HW1 5528   4.087   4.953   1.404
 1543SOL    HW2 5529   4.010   5.088   1.453
 1544SOL     OW 5530   4.065   3.202   3.912
 1544SOL    HW1 5531   4.116   3.208   3.998
 1544SOL    HW2 5532   3.971   3.232   3.927
 1545SOL     OW 5533   6.422   4.861   1.111
 1545SOL    HW1 5534   6.362   4.928   1.066
 1545SOL    HW2 5535   6.462   4.902   1.193
 1546SOL     OW 5536   6.400   6.396   5.451
 1546SOL    HW1 5537   6.308   6.384   5.489
 1546SOL    HW2 5538   6.454   6.314   5.471
 1547SOL     OW 5539   1.642   3.013   6.609
 1547SOL    HW1 5540   1.592   2.989   6.525
 1547SOL    HW2 5541   1.665   3.110   6.607
 1548SOL     OW 5542   0.121   2.409   0.348
 1548SOL    HW1 5543   0.189   2.441   0.282
 1548SOL    HW2 5544   0.118   2.309   0.348
 1549SOL     OW 5545   5.216   0.608   4.214
 1549SOL    HW1 5546   5.186   0.703   4.215
 1549SOL    HW2 5547   5.177   0.561   4.135
 1550SOL     OW 5548   3.088   3.989   4.538
 1550SOL    HW1 5549   3.028   3.915   4.508
 1550SOL    HW2 5550   3.105   3.981   4.636
 1551SOL     OW 5551   7.004   5.205   5.789
 1551SOL    HW1 5552   0.065   5.156   5.821
 1551SOL    HW2 5553   6.926   5.180   5.847
 1552SOL     OW 5554   2.500   4.113   1.170
 1552SOL    HW1 5555   2.446   4.192   1.139
 1552SOL    HW2 5556   2.541   4.134   1.259
 1553SOL     OW 5557   1.489   2.074   5.488
 1553SOL    HW1 5558   1.406   2.117   5.453
 1553SOL    HW2 5559   1.497   2.090   5.586
 1554SOL     OW 5560   4.422   1.646   3.381
 1554SOL    HW1 5561   4.463   1.555   3.382
 1554SOL    HW2 5562   4.488   1.712   3.344
 1555SOL     OW 5563   6.279   4.691   4.969
 1555SOL    HW1 5564   6.208   4.761   4.968
 1555SOL    HW2 5565   6.330   4.694   4.883
 1556SOL     OW 5566   2.007   1.054   5.606
 1556SOL    HW1 5567   1.990   0.957   5.621
 1556SOL    HW2 5568   1.921   1.104   5.605
 1557SOL     OW 5569   1.332   1.551   5.986
 1557SOL    HW1 5570   1.254   1.611   6.002
 1557SOL    HW2 5571   1.335   1.480   6.057
 1558SOL     OW 5572   6.644   0.057   4.204
 1558SOL    HW1 5573   6.611   0.068   4.298
 1558SOL    HW2 5574   6.674   0.145   4.168
 1559SOL     OW 5575   1.606   1.113   6.243
 1559SOL    HW1 5576   1.544   1.067   6.307
 1559SOL    HW2 5577   1.560   1.127   6.156
 1560SOL     OW 5578   6.972   0.621   1.213
 1560SOL    HW1 5579   6.972   0.525   1.185
 1560SOL    HW2 5580   6.878   0.652   1.227
 1561SOL     OW 5581   6.302   6.483   1.890
 1561SOL    HW1 5582   6.277   6.418   1.818
 1561SOL    HW2 5583   6.339   6.433   1.968
 1562SOL     OW 5584   5.296   6.927   4.643
 1562SOL    HW1 5585   5.352   6.884   4.572
 1562SOL    HW2 5586   5.297   0.006   4.631
 1563SOL     OW 5587   2.861   6.919   6.208
 1563SOL    HW1 5588   2.839   6.987   6.277
 1563SOL    HW2 5589   2.957   6.891   6.217
 1564SOL     OW 5590   1.886   3.046   3.237
 1564SOL    HW1 5591   1.892   3.126   3.297
 1564SOL    HW2 5592   1.801   3.049   3.184
 1565SOL     OW 5593   6.290   4.622   1.181
 1565SOL    HW1 5594   6.195   4.622   1.212
 1565SOL    HW2 5595   6.317   4.715   1.155
 1566SOL     OW 5596   5.679   4.213   2.330
 1566SOL    HW1 5597   5.754   4.206   2.264
 1566SOL    HW2 5598   5.625   4.295   2.309
 1567SOL     OW 5599   6.707   5.627   5.550
 1567SOL    HW1 5600   6.776   5.637   5.478
 1567SOL    HW2 5601   6.744   5.572   5.625
 1568SOL     OW 5602   0.396   6.470   0.837
 1568SOL    HW1 5603   0.334   6.411   0.889
 1568SOL    HW2 5604   0.423   6.548   0.893
 1569SOL     OW 5605   3.796   5.744   4.990
 1569SOL    HW1 5606   3.859   5.744   5.067
 1569SOL    HW2 5607   3.848   5.737   4.905
 1570SOL     OW 5608   2.691   1.912   1.825
 1570SOL    HW1 5609   2.788   1.909   1.800
 1570SOL    HW2 5610   2.638   1.951   1.749
 1571SOL     OW 5611   0.538   2.501   6.484
 1571SOL    HW1 5612   0.459   2.496   6.424
 1571SOL    HW2 5613   0.553   2.597   6.511
 1572SOL     OW 5614   0.652   5.501   3.981
 1572SOL    HW1 5615   0.661   5.421   3.922
 1572SOL    HW2 5616   0.736   5.554   3.977
 1573SOL     OW 5617   4.305   0.333   0.270
 1573SOL    HW1 5618   4.242   0.305   0.197
 1573SOL    HW2 5619   4.300   0.432   0.282
 1574SOL     OW 5620   5.110   3.675   1.965
 1574SOL    HW1 5621   5.037   3.645   2.026
 1574SOL    HW2 5622   5.082   3.758   1.917
 1575SOL     OW 5623   3.375   2.673   0.110
 1575SOL    HW1 5624   3.344   2.765   0.084
 1575SOL    HW2 5625   3.470   2.661   0.080
 1576SOL     OW 5626   6.314   5.311   3.361
 1576SOL    HW1 5627   6.224   5.294   3.323
 1576SOL    HW2 5628   6.378   5.333   3.288
 1577SOL     OW 5629   1.671   0.606   0.935
 1577SOL    HW1 5630   1.697   0.517   0.971
 1577SOL    HW2 5631   1.736   0.675   0.966
 1578SOL     OW 5632   6.023   6.187   4.861
 1578SOL    HW1 5633   5.984   6.228   4.778
 1578SOL    HW2 5634   5.993   6.092   4.868
 1579SOL     OW 5635   6.845   1.126   3.544
 1579SOL    HW1 5636   6.907   1.113   3.621
 1579SOL    HW2 5637   6.836   1.040   3.494
 1580SOL     OW 5638   3.704   3.820   5.718
 1580SOL    HW1 5639   3.634   3.756   5.686
 1580SOL    HW2 5640   3.662   3.910   5.733
 1581SOL     OW 5641   6.094   3.404   4.475
 1581SOL    HW1 5642   6.134   3.412   4.566
 1581SOL    HW2 5643   6.164   3.423   4.406
 1582SOL     OW 5644   6.342   6.709   4.090
 1582SOL    HW1 5645   6.250   6.678   4.065
 1582SOL    HW2 5646   6.355   6.803   4.058
 1583SOL     OW 5647   2.581   3.090   0.811
 1583SOL    HW1 5648   2.495   3.124   0.847
 1583SOL    HW2 5649   2.608   3.008   0.863
 1584SOL     OW 5650   1.793   0.185   6.559
 1584SOL    HW1 5651   1.722   0.246   6.594
 1584SOL    HW2 5652   1.880   0.206   6.604
 1585SOL     OW 5653   5.411   1.089   5.831
 1585SOL    HW1 5654   5.454   1.123   5.748
 1585SOL    HW2 5655   5.355   1.009   5.809
 1586SOL     OW 5656   4.016   3.827   2.862
 1586SOL    HW1 5657   4.001   3.875   2.776
 1586SOL    HW2 5658   4.017   3.728   2.845
 1587SOL     OW 5659   1.736   6.884   5.884
 1587SOL    HW1 5660   1.698   6.965   5.839
 1587SOL    HW2 5661   1.823   6.860   5.840
 1588SOL     OW 5662   6.729   4.198   0.427
 1588SOL    HW1 5663   6.724   4.113   0.374
 1588SOL    HW2 5664   6.707   4.178   0.523
 1589SOL     OW 5665   5.177   5.061   2.940
 1589SOL    HW1 5666   5.166   5.017   2.851
 1589SOL    HW2 5667   5.225   4.999   3.003
 1590SOL     OW 5668   2.111   6.098   4.601
 1590SOL    HW1 5669   2.140   6.057   4.687
 1590SOL    HW2 5670   2.179   6.078   4.530
 1591SOL     OW 5671   2.502   3.221   0.427
 1591SOL    HW1 5672   2.465   3.297   0.481
 1591SOL    HW2 5673   2.448   3.210   0.344
 1592SOL     OW 5674   3.555   3.802   4.108
 1592SOL    HW1 5675   3.471   3.791   4.161
 1592SOL    HW2 5676   3.548   3.751   4.023
 1593SOL     OW 5677   0.928   4.822   3.763
 1593SOL    HW1 5678   0.867   4.752   3.801
 1593SOL    HW2 5679   0.987   4.857   3.836
 1594SOL     OW 5680   0.791   5.643   2.411
 1594SOL    HW1 5681   0.841   5.656   2.497
 1594SOL    HW2 5682   0.800   5.724   2.354
 1595SOL     OW 5683   6.219   3.403   4.752
 1595SOL    HW1 5684   6.148   3.340   4.782
 1595SOL    HW2 5685   6.226   3.479   4.817
 1596SOL     OW 5686   3.391   4.848   6.452
 1596SOL    HW1 5687   3.392   4.834   6.354
 1596SOL    HW2 5688   3.353   4.768   6.498
 1597SOL     OW 5689   2.697   6.623   1.192
 1597SOL    HW1 5690   2.637   6.568   1.133
 1597SOL    HW2 5691   2.787   6.631   1.148
 1598SOL     OW 5692   6.781   5.448   1.757
 1598SOL    HW1 5693   6.713   5.515   1.785
 1598SOL    HW2 5694   6.786   5.445   1.658
 1599SOL     OW 5695   3.126   5.172   0.330
 1599SOL    HW1 5696   3.103   5.186   0.426
 1599SOL    HW2 5697   3.045   5.138   0.282
 1600SOL     OW 5698   3.508   1.609   4.718
 1600SOL    HW1 5699   3.432   1.667   4.689
 1600SOL    HW2 5700   3.576   1.603   4.645
 1601SOL     OW 5701   1.500   4.990   4.872
 1601SOL    HW1 5702   1.467   5.077   4.910
 1601SOL    HW2 5703   1.589   5.004   4.829
 1602SOL     OW 5704   6.688   3.062   1.730
 1602SOL    HW1 5705   6.761   3.112   1.775
 1602SOL    HW2 5706   6.650   2.994   1.793
 1603SOL     OW 5707   5.871   6.835   1.098
 1603SOL    HW1 5708   5.790   6.893   1.104
 1603SOL    HW2 5709   5.928   6.866   1.022
 1604SOL     OW 5710   1.349   5.102   3.930
 1604SOL    HW1 5711   1.286   5.177   3.909
 1604SOL    HW2 5712   1.443   5.138   3.934
 1605SOL     OW 5713   5.075   5.084   1.986
 1605SOL    HW1 5714   5.133   5.124   2.056
 1605SOL    HW2 5715   5.047   4.992   2.013
 1606SOL     OW 5716   6.057   5.106   4.806
 1606SOL    HW1 5717   6.107   5.139   4.725
 1606SOL    HW2 5718   5.999   5.178   4.842
 1607SOL     OW 5719   5.681   3.987   1.659
 1607SOL    HW1 5720   5.637   3.918   1.716
 1607SOL    HW2 5721   5.624   4.070   1.658
 1608SOL     OW 5722   2.350   6.842   0.916
 1608SOL    HW1 5723   2.258   6.808   0.934
 1608SOL    HW2 5724   2.360   6.934   0.954
 1609SOL     OW 5725   5.925   2.359   5.350
 1609SOL    HW1 5726   6.020   2.329   5.336
 1609SOL    HW2 5727   5.924   2.436   5.413
 1610SOL     OW 5728   4.586   0.105   3.769
 1610SOL    HW1 5729   4.556   0.063   3.854
 1610SOL    HW2 5730   4.524   0.179   3.744
 1611SOL     OW 5731   4.428   3.560   1.669
 1611SOL    HW1 5732   4.502   3.627   1.656
 1611SOL    HW2 5733   4.347   3.606   1.706
 1612SOL     OW 5734   2.893   0.100   4.744
 1612SOL    HW1 5735   2.958   0.074   4.673
 1612SOL    HW2 5736   2.885   0.200   4.747
 1613SOL     OW 5737   2.339   0.082   1.909
 1613SOL    HW1 5738   2.316   7.007   1.927
 1613SOL    HW2 5739   2.262   0.125   1.860
 1614SOL     OW 5740   6.883   2.134   5.319
 1614SOL    HW1 5741   6.900   2.056   5.380
 1614SOL    HW2 5742   6.813   2.109   5.252
 1615SOL     OW 5743   6.486   5.542   5.457
 1615SOL    HW1 5744   6.438   5.474   5.514
 1615SOL    HW2 5745   6.568   5.574   5.504
 1616SOL     OW 5746   2.599   2.269   5.720
 1616SOL    HW1 5747   2.657   2.199   5.679
 1616SOL    HW2 5748   2.652   2.323   5.785
 1617SOL     OW 5749   3.119   1.168   3.171
 1617SOL    HW1 5750   3.032   1.147   3.216
 1617SOL    HW2 5751   3.116   1.261   3.135
 1618SOL     OW 5752   5.268   2.940   1.864
 1618SOL    HW1 5753   5.319   2.878   1.924
 1618SOL    HW2 5754   5.171   2.936   1.887
 1619SOL     OW 5755   1.365   3.179   4.973
 1619SOL    HW1 5756   1.410   3.229   5.047
 1619SOL    HW2 5757   1.270   3.210   4.964
 1620SOL     OW 5758   3.491   5.938   1.194
 1620SOL    HW1 5759   3.547   5.862   1.227
 1620SOL    HW2 5760   3.414   5.903   1.140
 1621SOL     OW 5761   2.436   2.329   1.409
 1621SOL    HW1 5762   2.529   2.333   1.444
 1621SOL    HW2 5763   2.430   2.263   1.334
 1622SOL     OW 5764   2.101   2.699   5.413
 1622SOL    HW1 5765   2.171   2.745   5.359
 1622SOL    HW2 5766   2.010   2.723   5.379
 1623SOL     OW 5767   2.429   2.219   4.492
 1623SOL    HW1 5768   2.484   2.295   4.528
 1623SOL    HW2 5769   2.336   2.250   4.476
 1624SOL     OW 5770   2.050   0.475   0.120
 1624SOL    HW1 5771   2.089   0.484   0.028
 1624SOL    HW2 5772   1.952   0.461   0.113
 1625SOL     OW 5773   1.648   0.158   0.918
 1625SOL    HW1 5774   1.579   0.187   0.852
 1625SOL    HW2 5775   1.639   0.059   0.933
 1626SOL     OW 5776   2.048   3.540   6.437
 1626SOL    HW1 5777   2.027   3.574   6.529
 1626SOL    HW2 5778   2.025   3.611   6.370
 1627SOL     OW 5779   4.595   4.300   3.133
 1627SOL    HW1 5780   4.600   4.362   3.211
 1627SOL    HW2 5781   4.602   4.205   3.166
 1628SOL     OW 5782   4.175   3.163   0.119
 1628SOL    HW1 5783   4.132   3.096   0.058
 1628SOL    HW2 5784   4.113   3.240   0.132
 1629SOL     OW 5785   2.064   2.378   3.244
 1629SOL    HW1 5786   2.145   2.326   3.220
 1629SOL    HW2 5787   2.088   2.474   3.259
 1630SOL     OW 5788   5.911   4.717   4.356
 1630SOL    HW1 5789   5.921   4.781   4.280
 1630SOL    HW2 5790   5.960   4.752   4.436
 1631SOL     OW 5791   1.312   0.584   5.613
 1631SOL    HW1 5792   1.215   0.600   5.599
 1631SOL    HW2 5793   1.352   0.661   5.663
 1632SOL     OW 5794   4.012   6.640   6.890
 1632SOL    HW1 5795   4.077   6.601   6.825
 1632SOL    HW2 5796   4.058   6.708   6.947
 1633SOL     OW 5797   6.536   3.868   2.771
 1633SOL    HW1 5798   6.621   3.817   2.765
 1633SOL    HW2 5799   6.537   3.924   2.854
 1634SOL     OW 5800   3.772   0.844   1.055
 1634SOL    HW1 5801   3.713   0.905   1.108
 1634SOL    HW2 5802   3.732   0.752   1.052
 1635SOL     OW 5803   1.863   3.844   3.572
 1635SOL    HW1 5804   1.841   3.920   3.511
 1635SOL    HW2 5805   1.791   3.774   3.566
 1636SOL     OW 5806   2.382   6.262   0.658
 1636SOL    HW1 5807   2.316   6.188   0.650
 1636SOL    HW2 5808   2.421   6.263   0.750
 1637SOL     OW 5809   1.207   3.018   2.324
 1637SOL    HW1 5810   1.157   2.981   2.246
 1637SOL    HW2 5811   1.227   2.945   2.389
 1638SOL     OW 5812   0.741   2.417   5.882
 1638SOL    HW1 5813   0.641   2.406   5.876
 1638SOL    HW2 5814   0.767   2.440   5.975
 1639SOL     OW 5815   3.612   5.284   2.691
 1639SOL    HW1 5816   3.604   5.379   2.720
 1639SOL    HW2 5817   3.521   5.241   2.696
 1640SOL     OW 5818   5.343   6.848   0.890
 1640SOL    HW1 5819   5.352   6.889   0.799
 1640SOL    HW2 5820   5.396   6.764   0.894
 1641SOL     OW 5821   6.260   2.601   4.511
 1641SOL    HW1 5822   6.174   2.612   4.462
 1641SOL    HW2 5823   6.330   2.660   4.471
 1642SOL     OW 5824   0.280   2.576   1.001
 1642SOL    HW1 5825   0.190   2.563   0.960
 1642SOL    HW2 5826   0.285   2.526   1.088
 1643SOL     OW 5827   4.124   0.561   5.557
 1643SOL    HW1 5828   4.032   0.544   5.593
 1643SOL    HW2 5829   4.187   0.491   5.593
 1644SOL     OW 5830   3.846   1.589   1.266
 1644SOL    HW1 5831   3.746   1.587   1.278
 1644SOL    HW2 5832   3.874   1.680   1.236
 1645SOL     OW 5833   2.322   5.617   5.737
 1645SOL    HW1 5834   2.414   5.581   5.719
 1645SOL    HW2 5835   2.326   5.717   5.741
 1646SOL     OW 5836   3.013   3.694   0.307
 1646SOL    HW1 5837   3.082   3.655   0.369
 1646SOL    HW2 5838   3.038   3.672   0.213
 1647SOL     OW 5839   5.914   3.103   1.943
 1647SOL    HW1 5840   5.963   3.095   1.856
 1647SOL    HW2 5841   5.822   3.138   1.926
 1648SOL     OW 5842   2.749   0.548   3.510
 1648SOL    HW1 5843   2.760   0.454   3.544
 1648SOL    HW2 5844   2.805   0.560   3.428
 1649SOL     OW 5845   2.809   0.733   4.376
 1649SOL    HW1 5846   2.885   0.688   4.329
 1649SOL    HW2 5847   2.835   0.826   4.401
 1650SOL     OW 5848   2.899   6.937   4.361
 1650SOL    HW1 5849   2.896   0.005   4.314
 1650SOL    HW2 5850   2.964   6.942   4.438
 1651SOL     OW 5851   1.593   6.848   2.567
 1651SOL    HW1 5852   1.540   6.868   2.650
 1651SOL    HW2 5853   1.627   6.754   2.570
 1652SOL     OW 5854   3.946   3.464   1.159
 1652SOL    HW1 5855   3.850   3.459   1.134
 1652SOL    HW2 5856   3.954   3.492   1.255
 1653SOL     OW 5857   1.190   4.345   1.013
 1653SOL    HW1 5858   1.131   4.412   0.968
 1653SOL    HW2 5859   1.168   4.253   0.981
 1654SOL     OW 5860   0.928   2.522   3.813
 1654SOL    HW1 5861   0.877   2.608   3.820
 1654SOL    HW2 5862   0.894   2.471   3.734
 1655SOL     OW 5863   4.248   4.196   5.290
 1655SOL    HW1 5864   4.308   4.222   5.366
 1655SOL    HW2 5865   4.242   4.271   5.224
 1656SOL     OW 5866   0.142   3.315   2.044
 1656SOL    HW1 5867   0.176   3.405   2.072
 1656SOL    HW2 5868   0.094   3.272   2.120
 1657SOL     OW 5869   1.040   0.884   5.869
 1657SOL    HW1 5870   1.018   0.898   5.772
 1657SOL    HW2 5871   0.955   0.871   5.920
 1658SOL     OW 5872   6.063   6.536   3.520
 1658SOL    HW1 5873   6.055   6.558   3.423
 1658SOL    HW2 5874   5.973   6.515   3.557
 1659SOL     OW 5875   5.900   2.479   6.563
 1659SOL    HW1 5876   5.843   2.406   6.525
 1659SOL    HW2 5877   5.859   2.568   6.541
 1660SOL     OW 5878   2.454   5.797   3.630
 1660SOL    HW1 5879   2.427   5.759   3.542
 1660SOL    HW2 5880   2.553   5.798   3.638
 1661SOL     OW 5881   2.568   1.007   3.328
 1661SOL    HW1 5882   2.597   1.042   3.416
 1661SOL    HW2 5883   2.627   0.930   3.302
 1662SOL     OW 5884   0.534   1.355   3.760
 1662SOL    HW1 5885   0.572   1.363   3.667
 1662SOL    HW2 5886   0.574   1.276   3.805
 1663SOL     OW 5887   1.158   0.337   3.148
 1663SOL    HW1 5888   1.189   0.356   3.241
 1663SOL    HW2 5889   1.106   0.415   3.114
 1664SOL     OW 5890   1.870   5.983   4.218
 1664SOL    HW1 5891   1.873   6.044   4.298
 1664SOL    HW2 5892   1.937   5.909   4.230
 1665SOL     OW 5893   0.177   1.026   4.039
 1665SOL    HW1 5894   0.186   1.108   4.097
 1665SOL    HW2 5895   0.221   1.043   3.951
 1666SOL     OW 5896   6.312   2.163   6.905
 1666SOL    HW1 5897   6.325   2.111   6.989
 1666SOL    HW2 5898   6.342   2.257   6.918
 1667SOL     OW 5899   6.787   0.029   0.885
 1667SOL    HW1 5900   6.843   0.012   0.966
 1667SOL    HW2 5901   6.725   6.972   0.871
 1668SOL     OW 5902   2.305   0.252   4.688
 1668SOL    HW1 5903   2.267   0.287   4.774
 1668SOL    HW2 5904   2.279   0.312   4.613
 1669SOL     OW 5905   5.201   5.786   6.247
 1669SOL    HW1 5906   5.109   5.825   6.243
 1669SOL    HW2 5907   5.205   5.715   6.317
 1670SOL     OW 5908   6.680   3.566   5.842
 1670SOL    HW1 5909   6.596   3.533   5.799
 1670SOL    HW2 5910   6.724   3.490   5.890
 1671SOL     OW 5911   6.383   4.550   0.871
 1671SOL    HW1 5912   6.392   4.553   0.971
 1671SOL    HW2 5913   6.286   4.547   0.847
 1672SOL     OW 5914   2.365   4.353   2.785
 1672SOL    HW1 5915   2.357   4.256   2.807
 1672SOL    HW2 5916   2.320   4.371   2.697
 1673SOL     OW 5917   6.273   3.394   3.256
 1673SOL    HW1 5918   6.271   3.483   3.211
 1673SOL    HW2 5919   6.358   3.346   3.232
 1674SOL     OW 5920   2.553   5.606   0.167
 1674SOL    HW1 5921   2.491   5.657   0.228
 1674SOL    HW2 5922   2.620   5.669   0.128
 1675SOL     OW 5923   5.107   2.166   6.401
 1675SOL    HW1 5924   5.034   2.187   6.336
 1675SOL    HW2 5925   5.115   2.242   6.466
 1676SOL     OW 5926   3.216   1.911   3.090
 1676SOL    HW1 5927   3.233   1.842   3.019
 1676SOL    HW2 5928   3.223   2.002   3.050
 1677SOL     OW 5929   5.333   0.146   6.105
 1677SOL    HW1 5930   5.386   0.061   6.115
 1677SOL    HW2 5931   5.270   0.154   6.183
 1678SOL     OW 5932   4.564   6.566   2.238
 1678SOL    HW1 5933   4.567   6.466   2.238
 1678SOL    HW2 5934   4.522   6.598   2.323
 1679SOL     OW 5935   6.340   4.451   0.118
 1679SOL    HW1 5936   6.434   4.445   0.086
 1679SOL    HW2 5937   6.297   4.360   0.113
 1680SOL     OW 5938   0.136   2.276   5.679
 1680SOL    HW1 5939   0.057   2.214   5.686
 1680SOL    HW2 5940   0.145   2.328   5.764
 1681SOL     OW 5941   4.897   5.469   0.817
 1681SOL    HW1 5942   4.924   5.470   0.721
 1681SOL    HW2 5943   4.927   5.384   0.860
 1682SOL     OW 5944   7.007   3.637   5.822
 1682SOL    HW1 5945   7.019   3.540   5.843
 1682SOL    HW2 5946   6.913   3.654   5.795
 1683SOL     OW 5947   5.990   5.432   5.459
 1683SOL    HW1 5948   6.037   5.423   5.372
 1683SOL    HW2 5949   6.001   5.525   5.494
 1684SOL     OW 5950   0.585   6.903   4.361
 1684SOL    HW1 5951   0.678   6.870   4.380
 1684SOL    HW2 5952   0.589   7.001   4.343
 1685SOL     OW 5953   1.100   2.009   6.973
 1685SOL    HW1 5954   1.180   2.008   0.011
 1685SOL    HW2 5955   1.084   1.918   6.935
 1686SOL     OW 5956   1.559   0.018   6.202
 1686SOL    HW1 5957   1.611   6.964   6.243
 1686SOL    HW2 5958   1.623   0.089   6.170
 1687SOL     OW 5959   2.722   6.677   2.557
 1687SOL    HW1 5960   2.695   6.592   2.511
 1687SOL    HW2 5961   2.822   6.680   2.564
 1688SOL     OW 5962   0.572   1.922   3.667
 1688SOL    HW1 5963   0.644   1.989   3.688
 1688SOL    HW2 5964   0.613   1.841   3.626
 1689SOL     OW 5965   2.061   1.859   1.830
 1689SOL    HW1 5966   1.978   1.860   1.775
 1689SOL    HW2 5967   2.140   1.880   1.772
 1690SOL     OW 5968   1.361   1.684   0.244
 1690SOL    HW1 5969   1.392   1.772   0.280
 1690SOL    HW2 5970   1.413   1.662   0.161
 1691SOL     OW 5971   5.052   4.002   3.494
 1691SOL    HW1 5972   4.998   4.033   3.573
 1691SOL    HW2 5973   5.144   4.042   3.500
 1692SOL     OW 5974   0.572   6.433   4.112
 1692SOL    HW1 5975   0.575   6.532   4.122
 1692SOL    HW2 5976   0.477   6.403   4.105
 1693SOL     OW 5977   3.577   2.041   3.988
 1693SOL    HW1 5978   3.665   2.073   3.953
 1693SOL    HW2 5979   3.505   2.061   3.921
 1694SOL     OW 5980   6.095   6.363   5.288
 1694SOL    HW1 5981   6.121   6.332   5.380
 1694SOL    HW2 5982   6.114   6.461   5.279
 1695SOL     OW 5983   3.749   1.793   6.491
 1695SOL    HW1 5984   3.749   1.760   6.586
 1695SOL    HW2 5985   3.662   1.841   6.473
 1696SOL     OW 5986   3.333   5.724   2.247
 1696SOL    HW1 5987   3.274   5.719   2.167
 1696SOL    HW2 5988   3.414   5.780   2.227
 1697SOL     OW 5989   1.736   1.754   1.993
 1697SOL    HW1 5990   1.734   1.692   2.071
 1697SOL    HW2 5991   1.752   1.702   1.909
 1698SOL     OW 5992   5.062   1.015   6.841
 1698SOL    HW1 5993   5.150   1.055   6.817
 1698SOL    HW2 5994   5.024   1.063   6.921
 1699SOL     OW 5995   2.695   4.783   1.545
 1699SOL    HW1 5996   2.714   4.845   1.621
 1699SOL    HW2 5997   2.732   4.692   1.566
 1700SOL     OW 5998   5.623   2.861   4.356
 1700SOL    HW1 5999   5.531   2.827   4.379
 1700SOL    HW2 6000   5.675   2.789   4.310
 1701SOL     OW 6001   5.504   2.949   4.981
 1701SOL    HW1 6002   5.560   3.015   4.932
 1701SOL    HW2 6003   5.407   2.964   4.960
 1702SOL     OW 6004   5.153   3.051   1.446
 1702SOL    HW1 6005   5.182   3.068   1.540
 1702SOL    HW2 6006   5.207   3.108   1.383
 1703SOL     OW 6007   2.110   3.902   1.730
 1703SOL    HW1 6008   2.159   3.843   1.665
 1703SOL    HW2 6009   2.119   3.997   1.702
 1704SOL     OW 6010   6.974   1.643   2.486
 1704SOL    HW1 6011   0.027   1.709   2.503
 1704SOL    HW2 6012   6.899   1.661   2.549
 1705SOL     OW 6013   4.101   3.327   2.486
 1705SOL    HW1 6014   4.062   3.261   2.550
 1705SOL    HW2 6015   4.121   3.283   2.399
 1706SOL     OW 6016   2.371   0.518   6.299
 1706SOL    HW1 6017   2.317   0.485   6.222
 1706SOL    HW2 6018   2.433   0.446   6.330
 1707SOL     OW 6019   4.935   1.476   2.347
 1707SOL    HW1 6020   4.904   1.478   2.252
 1707SOL    HW2 6021   5.032   1.500   2.351
 1708SOL     OW 6022   0.231   4.086   1.017
 1708SOL    HW1 6023   0.295   4.120   0.948
 1708SOL    HW2 6024   0.276   4.016   1.072
 1709SOL     OW 6025   3.188   5.345   3.743
 1709SOL    HW1 6026   3.209   5.363   3.839
 1709SOL    HW2 6027   3.193   5.247   3.725
 1710SOL     OW 6028   6.707   4.250   5.093
 1710SOL    HW1 6029   6.696   4.295   5.182
 1710SOL    HW2 6030   6.695   4.152   5.104
 1711SOL     OW 6031   0.933   4.424   6.043
 1711SOL    HW1 6032   0.981   4.441   6.128
 1711SOL    HW2 6033   0.978   4.472   5.968
 1712SOL     OW 6034   1.621   4.149   1.866
 1712SOL    HW1 6035   1.636   4.174   1.962
 1712SOL    HW2 6036   1.579   4.226   1.818
 1713SOL     OW 6037   2.492   3.832   1.155
 1713SOL    HW1 6038   2.563   3.817   1.223
 1713SOL    HW2 6039   2.491   3.928   1.128
 1714SOL     OW 6040   4.797   1.216   0.788
 1714SOL    HW1 6041   4.703   1.240   0.814
 1714SOL    HW2 6042   4.800   1.198   0.690
 1715SOL     OW 6043   1.261   3.771   3.210
 1715SOL    HW1 6044   1.327   3.707   3.171
 1715SOL    HW2 6045   1.253   3.754   3.309
 1716SOL     OW 6046   7.010   6.689   0.262
 1716SOL    HW1 6047   0.040   6.667   0.178
 1716SOL    HW2 6048   0.035   6.766   0.308
 1717SOL     OW 6049   3.016   0.749   0.269
 1717SOL    HW1 6050   2.936   0.744   0.209
 1717SOL    HW2 6051   2.985   0.752   0.365
 1718SOL     OW 6052   1.869   4.248   5.528
 1718SOL    HW1 6053   1.816   4.331   5.545
 1718SOL    HW2 6054   1.814   4.182   5.478
 1719SOL     OW 6055   2.193   2.775   0.575
 1719SOL    HW1 6056   2.233   2.731   0.655
 1719SOL    HW2 6057   2.250   2.853   0.547
 1720SOL     OW 6058   0.179   2.373   2.478
 1720SOL    HW1 6059   0.234   2.297   2.513
 1720SOL    HW2 6060   0.109   2.397   2.545
 1721SOL     OW 6061   0.845   5.690   4.000
 1721SOL    HW1 6062   0.884   5.777   3.971
 1721SOL    HW2 6063   0.820   5.695   4.097
 1722SOL     OW 6064   5.375   0.008   1.778
 1722SOL    HW1 6065   5.298   0.070   1.796
 1722SOL    HW2 6066   5.461   0.057   1.793
 1723SOL     OW 6067   6.147   0.853   3.296
 1723SOL    HW1 6068   6.050   0.843   3.316
 1723SOL    HW2 6069   6.161   0.923   3.226
 1724SOL     OW 6070   5.208   0.397   7.005
 1724SOL    HW1 6071   5.306   0.412   0.001
 1724SOL    HW2 6072   5.178   0.317   0.036
 1725SOL     OW 6073   4.013   5.865   2.064
 1725SOL    HW1 6074   4.044   5.860   2.158
 1725SOL    HW2 6075   3.914   5.845   2.060
 1726SOL     OW 6076   5.976   4.485   4.946
 1726SOL    HW1 6077   5.932   4.487   5.035
 1726SOL    HW2 6078   6.044   4.559   4.940
 1727SOL     OW 6079   2.712   4.713   6.142
 1727SOL    HW1 6080   2.637   4.707   6.207
 1727SOL    HW2 6081   2.750   4.621   6.127
 1728SOL     OW 6082   4.855   5.610   3.444
 1728SOL    HW1 6083   4.895   5.692   3.485
 1728SOL    HW2 6084   4.867   5.532   3.505
 1729SOL     OW 6085   6.848   2.917   2.642
 1729SOL    HW1 6086   6.794   2.858   2.703
 1729SOL    HW2 6087   6.921   2.961   2.694
 1730SOL     OW 6088   4.565   2.422   4.604
 1730SOL    HW1 6089   4.654   2.451   4.640
 1730SOL    HW2 6090   4.493   2.444   4.670
 1731SOL     OW 6091   0.236   6.934   6.554
 1731SOL    HW1 6092   0.179   7.003   6.509
 1731SOL    HW2 6093   0.295   6.891   6.486
 1732SOL     OW 6094   1.137   4.463   6.590
 1732SOL    HW1 6095   1.054   4.519   6.583
 1732SOL    HW2 6096   1.186   4.486   6.674
 1733SOL     OW 6097   1.737   3.961   6.670
 1733SOL    HW1 6098   1.665   3.906   6.628
 1733SOL    HW2 6099   1.811   3.973   6.604
 1734SOL     OW 6100   5.429   4.070   0.555
 1734SOL    HW1 6101   5.520   4.038   0.583
 1734SOL    HW2 6102   5.387   4.121   0.630
 1735SOL     OW 6103   4.954   5.516   6.680
 1735SOL    HW1 6104   4.978   5.441   6.618
 1735SOL    HW2 6105   5.023   5.523   6.752
 1736SOL     OW 6106   3.889   3.233   0.524
 1736SOL    HW1 6107   3.929   3.203   0.437
 1736SOL    HW2 6108   3.847   3.154   0.570
 1737SOL     OW 6109   0.691   6.131   3.326
 1737SOL    HW1 6110   0.790   6.137   3.342
 1737SOL    HW2 6111   0.650   6.221   3.339
 1738SOL     OW 6112   0.699   1.151   1.887
 1738SOL    HW1 6113   0.707   1.084   1.961
 1738SOL    HW2 6114   0.668   1.105   1.803
 1739SOL     OW 6115   4.267   1.758   6.677
 1739SOL    HW1 6116   4.264   1.817   6.597
 1739SOL    HW2 6117   4.345   1.696   6.671
 1740SOL     OW 6118   0.784   1.727   0.049
 1740SOL    HW1 6119   0.729   1.791   7.015
 1740SOL    HW2 6120   0.876   1.722   0.011
 1741SOL     OW 6121   0.576   0.256   2.619
 1741SOL    HW1 6122   0.593   0.217   2.529
 1741SOL    HW2 6123   0.610   0.350   2.622
 1742SOL     OW 6124   6.243   6.112   3.778
 1742SOL    HW1 6125   6.299   6.186   3.814
 1742SOL    HW2 6126   6.161   6.149   3.736
 1743SOL     OW 6127   4.478   1.611   0.500
 1743SOL    HW1 6128   4.542   1.550   0.546
 1743SOL    HW2 6129   4.384   1.582   0.521
 1744SOL     OW 6130   4.233   6.454   1.632
 1744SOL    HW1 6131   4.191   6.372   1.669
 1744SOL    HW2 6132   4.197   6.535   1.679
 1745SOL     OW 6133   0.720   2.216   5.205
 1745SOL    HW1 6134   0.745   2.295   5.261
 1745SOL    HW2 6135   0.712   2.135   5.265
 1746SOL     OW 6136   2.832   1.473   0.360
 1746SOL    HW1 6137   2.820   1.402   0.430
 1746SOL    HW2 6138   2.885   1.549   0.398
 1747SOL     OW 6139   3.905   6.889   4.552
 1747SOL    HW1 6140   3.861   6.858   4.467
 1747SOL    HW2 6141   3.879   6.984   4.570
 1748SOL     OW 6142   5.612   0.895   1.869
 1748SOL    HW1 6143   5.661   0.850   1.944
 1748SOL    HW2 6144   5.514   0.875   1.877
 1749SOL     OW 6145   5.356   6.660   6.261
 1749SOL    HW1 6146   5.274   6.613   6.227
 1749SOL    HW2 6147   5.426   6.594   6.284
 1750SOL     OW 6148   3.696   1.112   3.287
 1750SOL    HW1 6149   3.724   1.144   3.377
 1750SOL    HW2 6150   3.623   1.170   3.252
 1751SOL     OW 6151   2.228   5.719   4.515
 1751SOL    HW1 6152   2.304   5.784   4.520
 1751SOL    HW2 6153   2.263   5.627   4.501
 1752SOL     OW 6154   6.817   1.661   5.986
 1752SOL    HW1 6155   6.894   1.726   5.983
 1752SOL    HW2 6156   6.762   1.672   5.903
 1753SOL     OW 6157   1.740   6.855   2.245
 1753SOL    HW1 6158   1.738   6.773   2.302
 1753SOL    HW2 6159   1.652   6.866   2.199
 1754SOL     OW 6160   3.175   3.104   3.252
 1754SOL    HW1 6161   3.091   3.158   3.263
 1754SOL    HW2 6162   3.178   3.065   3.160
 1755SOL     OW 6163   0.295   4.003   6.822
 1755SOL    HW1 6164   0.331   4.025   6.913
 1755SOL    HW2 6165   0.316   4.078   6.759
 1756SOL     OW 6166   5.906   5.289   5.680
 1756SOL    HW1 6167   5.951   5.364   5.631
 1756SOL    HW2 6168   5.825   5.324   5.726
 1757SOL     OW 6169   3.746   0.513   4.990
 1757SOL    HW1 6170   3.705   0.585   4.935
 1757SOL    HW2 6171   3.831   0.548   5.031
 1758SOL     OW 6172   2.071   1.217   3.270
 1758SOL    HW1 6173   1.971   1.210   3.281
 1758SOL    HW2 6174   2.091   1.274   3.190
 1759SOL     OW 6175   6.994   6.054   5.858
 1759SOL    HW1 6176   0.020   5.976   5.816
 1759SOL    HW2 6177   6.970   6.032   5.952
 1760SOL     OW 6178   4.499   6.528   3.663
 1760SOL    HW1 6179   4.408   6.521   3.621
 1760SOL    HW2 6180   4.515   6.621   3.695
 1761SOL     OW 6181   6.105   3.445   0.893
 1761SOL    HW1 6182   6.161   3.506   0.950
 1761SOL    HW2 6183   6.080   3.365   0.946
 1762SOL     OW 6184   6.197   2.637   0.354
 1762SOL    HW1 6185   6.136   2.688   0.293
 1762SOL    HW2 6186   6.272   2.696   0.383
 1763SOL     OW 6187   1.990   2.277   4.063
 1763SOL    HW1 6188   1.897   2.263   4.099
 1763SOL    HW2 6189   2.000   2.226   3.978
 1764SOL     OW 6190   6.425   3.992   3.061
 1764SOL    HW1 6191   6.452   4.066   3.123
 1764SOL    HW2 6192   6.330   3.967   3.078
 1765SOL     OW 6193   1.679   3.211   6.377
 1765SOL    HW1 6194   1.637   3.231   6.465
 1765SOL    HW2 6195   1.760   3.269   6.365
 1766SOL     OW 6196   5.944   4.479   5.543
 1766SOL    HW1 6197   5.864   4.538   5.557
 1766SOL    HW2 6198   6.021   4.534   5.510
 1767SOL     OW 6199   6.826   5.077   1.251
 1767SOL    HW1 6200   6.764   5.117   1.319
 1767SOL    HW2 6201   6.793   5.097   1.159
 1768SOL     OW 6202   6.171   0.330   3.170
 1768SOL    HW1 6203   6.107   0.403   3.145
 1768SOL    HW2 6204   6.235   0.363   3.239
 1769SOL     OW 6205   4.599   0.810   3.922
 1769SOL    HW1 6206   4.656   0.760   3.987
 1769SOL    HW2 6207   4.504   0.780   3.931
 1770SOL     OW 6208   3.376   5.611   5.387
 1770SOL    HW1 6209   3.384   5.610   5.487
 1770SOL    HW2 6210   3.341   5.523   5.355
 1771SOL     OW 6211   5.233   5.769   6.903
 1771SOL    HW1 6212   5.160   5.829   6.872
 1771SOL    HW2 6213   5.295   5.820   6.963
 1772SOL     OW 6214   2.248   6.129   2.395
 1772SOL    HW1 6215   2.272   6.220   2.429
 1772SOL    HW2 6216   2.231   6.134   2.297
 1773SOL     OW 6217   1.912   6.823   6.877
 1773SOL    HW1 6218   1.990   6.857   6.929
 1773SOL    HW2 6219   1.832   6.818   6.936
 1774SOL     OW 6220   2.359   5.363   1.296
 1774SOL    HW1 6221   2.408   5.335   1.214
 1774SOL    HW2 6222   2.424   5.384   1.369
 1775SOL     OW 6223   0.457   5.249   0.372
 1775SOL    HW1 6224   0.475   5.243   0.471
 1775SOL    HW2 6225   0.473   5.160   0.330
 1776SOL     OW 6226   2.916   6.079   4.869
 1776SOL    HW1 6227   2.834   6.135   4.880
 1776SOL    HW2 6228   2.996   6.133   4.894
 1777SOL     OW 6229   4.543   6.345   6.610
 1777SOL    HW1 6230   4.538   6.405   6.530
 1777SOL    HW2 6231   4.510   6.254   6.586
 1778SOL     OW 6232   0.752   3.542   6.076
 1778SOL    HW1 6233   0.655   3.518   6.068
 1778SOL    HW2 6234   0.760   3.633   6.118
 1779SOL     OW 6235   3.982   6.676   4.996
 1779SOL    HW1 6236   4.066   6.730   4.999
 1779SOL    HW2 6237   3.948   6.662   5.089
 1780SOL     OW 6238   4.185   2.356   6.387
 1780SOL    HW1 6239   4.103   2.335   6.441
 1780SOL    HW2 6240   4.220   2.272   6.347
 1781SOL     OW 6241   1.795   6.251   3.282
 1781SOL    HW1 6242   1.766   6.176   3.223
 1781SOL    HW2 6243   1.885   6.230   3.322
 1782SOL     OW 6244   3.314   1.240   4.754
 1782SOL    HW1 6245   3.360   1.297   4.822
 1782SOL    HW2 6246   3.333   1.144   4.773
 1783SOL     OW 6247   2.348   6.004   0.068
 1783SOL    HW1 6248   2.295   6.052   0.137
 1783SOL    HW2 6249   2.295   5.996   7.004
 1784SOL     OW 6250   1.458   6.710   6.173
 1784SOL    HW1 6251   1.450   6.707   6.272
 1784SOL    HW2 6252   1.547   6.675   6.145
 1785SOL     OW 6253   6.947   5.166   2.788
 1785SOL    HW1 6254   7.017   5.119   2.735
 1785SOL    HW2 6255   6.940   5.261   2.759
 1786SOL     OW 6256   4.032   2.320   1.206
 1786SOL    HW1 6257   4.033   2.364   1.296
 1786SOL    HW2 6258   4.026   2.390   1.135
 1787SOL     OW 6259   3.651   0.407   5.217
 1787SOL    HW1 6260   3.721   0.365   5.275
 1787SOL    HW2 6261   3.692   0.432   5.129
 1788SOL     OW 6262   1.515   4.755   5.041
 1788SOL    HW1 6263   1.611   4.754   5.069
 1788SOL    HW2 6264   1.501   4.831   4.977
 1789SOL     OW 6265   5.699   6.495   0.710
 1789SOL    HW1 6266   5.762   6.559   0.665
 1789SOL    HW2 6267   5.627   6.468   0.645
 1790SOL     OW 6268   1.888   6.910   2.600
 1790SOL    HW1 6269   1.844   6.821   2.587
 1790SOL    HW2 6270   1.849   6.976   2.537
 1791SOL     OW 6271   0.811   6.839   3.374
 1791SOL    HW1 6272   0.832   6.927   3.332
 1791SOL    HW2 6273   0.847   6.766   3.316
 1792SOL     OW 6274   0.353   3.821   4.025
 1792SOL    HW1 6275   0.328   3.851   4.117
 1792SOL    HW2 6276   0.296   3.744   3.998
 1793SOL     OW 6277   7.006   0.370   4.339
 1793SOL    HW1 6278   0.027   0.279   4.338
 1793SOL    HW2 6279   0.025   0.423   4.415
 1794SOL     OW 6280   4.406   6.144   6.250
 1794SOL    HW1 6281   4.401   6.105   6.342
 1794SOL    HW2 6282   4.314   6.169   6.219
 1795SOL     OW 6283   1.055   3.449   0.154
 1795SOL    HW1 6284   1.023   3.382   0.086
 1795SOL    HW2 6285   1.141   3.489   0.122
 1796SOL     OW 6286   3.680   0.190   5.506
 1796SOL    HW1 6287   3.597   0.162   5.459
 1796SOL    HW2 6288   3.733   0.109   5.533
 1797SOL     OW 6289   0.201   0.959   2.066
 1797SOL    HW1 6290   0.192   0.877   2.121
 1797SOL    HW2 6291   0.202   1.040   2.125
 1798SOL     OW 6292   6.140   1.688   3.034
 1798SOL    HW1 6293   6.205   1.662   2.962
 1798SOL    HW2 6294   6.120   1.785   3.027
 1799SOL     OW 6295   2.923   7.014   0.596
 1799SOL    HW1 6296   2.901   6.922   0.564
 1799SOL    HW2 6297   2.838   0.045   0.611
 1800SOL     OW 6298   2.826   4.734   2.245
 1800SOL    HW1 6299   2.776   4.665   2.298
 1800SOL    HW2 6300   2.849   4.697   2.155
 1801SOL     OW 6301   5.430   6.369   0.927
 1801SOL    HW1 6302   5.343   6.416   0.909
 1801SOL    HW2 6303   5.412   6.274   0.950
 1802SOL     OW 6304   5.776   5.486   4.472
 1802SOL    HW1 6305   5.783   5.465   4.374
 1802SOL    HW2 6306   5.704   5.553   4.487
 1803SOL     OW 6307   6.251   4.832   0.503
 1803SOL    HW1 6308   6.323   4.768   0.533
 1803SOL    HW2 6309   6.250   4.836   0.403
 1804SOL     OW 6310   2.768   3.747   5.924
 1804SOL    HW1 6311   2.804   3.831   5.963
 1804SOL    HW2 6312   2.670   3.740   5.944
 1805SOL     OW 6313   0.065   2.766   6.886
 1805SOL    HW1 6314   0.121   2.684   6.897
 1805SOL    HW2 6315   6.989   2.742   6.899
 1806SOL     OW 6316   6.383   6.189   0.233
 1806SOL    HW1 6317   6.402   6.110   0.291
 1806SOL    HW2 6318   6.468   6.241   0.219
 1807SOL     OW 6319   6.995   2.066   5.670
 1807SOL    HW1 6320   0.027   2.008   5.608
 1807SOL    HW2 6321   6.943   2.133   5.618
 1808SOL     OW 6322   2.216   4.916   4.023
 1808SOL    HW1 6323   2.172   4.970   4.095
 1808SOL    HW2 6324   2.299   4.874   4.059
 1809SOL     OW 6325   3.640   0.569   6.134
 1809SOL    HW1 6326   3.734   0.553   6.105
 1809SOL    HW2 6327   3.636   0.565   6.234
 1810SOL     OW 6328   3.333   6.178   3.276
 1810SOL    HW1 6329   3.256   6.149   3.218
 1810SOL    HW2 6330   3.408   6.210   3.218
 1811SOL     OW 6331   5.410   5.505   3.140
 1811SOL    HW1 6332   5.316   5.473   3.151
 1811SOL    HW2 6333   5.410   5.600   3.111
 1812SOL     OW 6334   4.590   4.944   4.981
 1812SOL    HW1 6335   4.656   4.960   4.908
 1812SOL    HW2 6336   4.625   4.874   5.043
 1813SOL     OW 6337   0.273   6.501   5.219
 1813SOL    HW1 6338   0.221   6.493   5.134
 1813SOL    HW2 6339   0.364   6.538   5.198
 1814SOL     OW 6340   4.399   0.630   2.879
 1814SOL    HW1 6341   4.354   0.695   2.940
 1814SOL    HW2 6342   4.446   0.680   2.806
 1815SOL     OW 6343   0.205   1.261   3.182
 1815SOL    HW1 6344   0.171   1.308   3.100
 1815SOL    HW2 6345   0.173   1.166   3.181
 1816SOL     OW 6346   1.364   5.462   0.405
 1816SOL    HW1 6347   1.420   5.453   0.323
 1816SOL    HW2 6348   1.381   5.384   0.466
 1817SOL     OW 6349   1.327   4.133   1.792
 1817SOL    HW1 6350   1.245   4.133   1.848
 1817SOL    HW2 6351   1.386   4.210   1.819
 1818SOL     OW 6352   0.206   1.846   3.078
 1818SOL    HW1 6353   0.246   1.791   3.005
 1818SOL    HW2 6354   0.252   1.824   3.164
 1819SOL     OW 6355   1.282   3.913   2.363
 1819SOL    HW1 6356   1.347   3.931   2.290
 1819SOL    HW2 6357   1.192   3.893   2.324
 1820SOL     OW 6358   5.749   6.578   2.464
 1820SOL    HW1 6359   5.806   6.570   2.382
 1820SOL    HW2 6360   5.743   6.673   2.493
 1821SOL     OW 6361   1.476   1.948   2.994
 1821SOL    HW1 6362   1.431   2.037   2.986
 1821SOL    HW2 6363   1.547   1.940   2.924
 1822SOL     OW 6364   3.392   3.860   1.963
 1822SOL    HW1 6365   3.329   3.805   2.018
 1822SOL    HW2 6366   3.413   3.945   2.012
 1823SOL     OW 6367   4.340   6.873   2.412
 1823SOL    HW1 6368   4.288   6.955   2.389
 1823SOL    HW2 6369   4.318   6.845   2.505
 1824SOL     OW 6370   4.807   1.448   2.079
 1824SOL    HW1 6371   4.723   1.396   2.097
 1824SOL    HW2 6372   4.784   1.536   2.038
 1825SOL     OW 6373   0.153   0.339   1.360
 1825SOL    HW1 6374   0.193   0.420   1.403
 1825SOL    HW2 6375   0.177   0.338   1.263
 1826SOL     OW 6376   2.710   5.465   6.150
 1826SOL    HW1 6377   2.807   5.464   6.125
 1826SOL    HW2 6378   2.677   5.560   6.149
 1827SOL     OW 6379   5.751   0.440   1.044
 1827SOL    HW1 6380   5.728   0.351   1.005
 1827SOL    HW2 6381   5.685   0.508   1.014
 1828SOL     OW 6382   3.081   2.729   0.385
 1828SOL    HW1 6383   3.059   2.793   0.312
 1828SOL    HW2 6384   3.119   2.645   0.346
 1829SOL     OW 6385   5.382   5.290   2.434
 1829SOL    HW1 6386   5.384   5.348   2.516
 1829SOL    HW2 6387   5.290   5.293   2.394
 1830SOL     OW 6388   4.402   0.564   4.935
 1830SOL    HW1 6389   4.440   0.514   4.857
 1830SOL    HW2 6390   4.411   0.662   4.919
 1831SOL     OW 6391   5.260   1.373   3.068
 1831SOL    HW1 6392   5.279   1.394   2.972
 1831SOL    HW2 6393   5.346   1.369   3.118
 1832SOL     OW 6394   5.619   2.670   6.613
 1832SOL    HW1 6395   5.638   2.589   6.669
 1832SOL    HW2 6396   5.588   2.640   6.522
 1833SOL     OW 6397   5.745   1.731   6.097
 1833SOL    HW1 6398   5.696   1.695   6.017
 1833SOL    HW2 6399   5.840   1.700   6.094
 1834SOL     OW 6400   2.295   4.443   6.941
 1834SOL    HW1 6401   2.380   4.401   6.909
 1834SOL    HW2 6402   2.251   4.491   6.865
 1835SOL     OW 6403   1.842   5.227   6.837
 1835SOL    HW1 6404   1.899   5.309   6.829
 1835SOL    HW2 6405   1.875   5.171   6.912
 1836SOL     OW 6406   0.684   6.522   0.736
 1836SOL    HW1 6407   0.696   6.499   0.639
 1836SOL    HW2 6408   0.592   6.496   0.765
 1837SOL     OW 6409   0.008   2.697   4.392
 1837SOL    HW1 6410   6.952   2.719   4.453
 1837SOL    HW2 6411   0.085   2.661   4.445
 1838SOL     OW 6412   0.775   2.902   4.434
 1838SOL    HW1 6413   0.761   2.838   4.510
 1838SOL    HW2 6414   0.786   2.851   4.349
 1839SOL     OW 6415   1.470   1.220   0.280
 1839SOL    HW1 6416   1.418   1.141   0.246
 1839SOL    HW2 6417   1.567   1.197   0.283
 1840SOL     OW 6418   1.301   5.433   1.640
 1840SOL    HW1 6419   1.269   5.358   1.698
 1840SOL    HW2 6420   1.291   5.520   1.689
 1841SOL     OW 6421   1.505   2.878   4.377
 1841SOL    HW1 6422   1.586   2.935   4.390
 1841SOL    HW2 6423   1.470   2.850   4.466
 1842SOL     OW 6424   1.558   5.698   6.366
 1842SOL    HW1 6425   1.492   5.626   6.389
 1842SOL    HW2 6426   1.545   5.775   6.429
 1843SOL     OW 6427   4.368   1.986   5.652
 1843SOL    HW1 6428   4.410   2.070   5.688
 1843SOL    HW2 6429   4.380   1.983   5.553
 1844SOL     OW 6430   5.464   5.059   3.508
 1844SOL    HW1 6431   5.555   5.081   3.543
 1844SOL    HW2 6432   5.436   5.129   3.443
 1845SOL     OW 6433   5.207   6.516   0.940
 1845SOL    HW1 6434   5.221   6.573   1.021
 1845SOL    HW2 6435   5.122   6.464   0.951
 1846SOL     OW 6436   3.949   1.289   5.816
 1846SOL    HW1 6437   3.874   1.225   5.799
 1846SOL    HW2 6438   3.923   1.380   5.785
 1847SOL     OW 6439   1.561   5.869   6.149
 1847SOL    HW1 6440   1.655   5.881   6.117
 1847SOL    HW2 6441   1.562   5.824   6.238
 1848SOL     OW 6442   2.307   1.478   4.258
 1848SOL    HW1 6443   2.248   1.449   4.333
 1848SOL    HW2 6444   2.272   1.562   4.218
 1849SOL     OW 6445   2.792   0.693   5.789
 1849SOL    HW1 6446   2.719   0.715   5.724
 1849SOL    HW2 6447   2.851   0.773   5.801
 1850SOL     OW 6448   5.294   1.892   1.261
 1850SOL    HW1 6449   5.328   1.978   1.299
 1850SOL    HW2 6450   5.249   1.909   1.174
 1851SOL     OW 6451   6.447   4.407   2.913
 1851SOL    HW1 6452   6.397   4.321   2.906
 1851SOL    HW2 6453   6.504   4.406   2.995
 1852SOL     OW 6454   5.619   1.524   5.683
 1852SOL    HW1 6455   5.582   1.566   5.766
 1852SOL    HW2 6456   5.661   1.594   5.626
 1853SOL     OW 6457   1.370   4.904   0.434
 1853SOL    HW1 6458   1.357   4.987   0.488
 1853SOL    HW2 6459   1.282   4.859   0.419
 1854SOL     OW 6460   2.170   5.301   4.352
 1854SOL    HW1 6461   2.130   5.371   4.410
 1854SOL    HW2 6462   2.267   5.322   4.336
 1855SOL     OW 6463   6.628   4.851   1.485
 1855SOL    HW1 6464   6.713   4.797   1.487
 1855SOL    HW2 6465   6.600   4.872   1.578
 1856SOL     OW 6466   5.527   2.846   0.235
 1856SOL    HW1 6467   5.567   2.884   0.151
 1856SOL    HW2 6468   5.428   2.853   0.230
 1857SOL     OW 6469   5.553   1.080   3.634
 1857SOL    HW1 6470   5.603   1.039   3.711
 1857SOL    HW2 6471   5.581   1.175   3.622
 1858SOL     OW 6472   5.095   4.496   2.546
 1858SOL    HW1 6473   5.166   4.475   2.612
 1858SOL    HW2 6474   5.015   4.533   2.593
 1859SOL     OW 6475   5.781   2.297   3.811
 1859SOL    HW1 6476   5.688   2.323   3.786
 1859SOL    HW2 6477   5.827   2.374   3.855
 1860SOL     OW 6478   3.485   1.870   5.040
 1860SOL    HW1 6479   3.546   1.836   4.969
 1860SOL    HW2 6480   3.405   1.913   4.997
 1861SOL     OW 6481   5.007   6.680   2.413
 1861SOL    HW1 6482   4.937   6.746   2.386
 1861SOL    HW2 6483   5.083   6.684   2.347
 1862SOL     OW 6484   3.186   2.397   0.739
 1862SOL    HW1 6485   3.261   2.457   0.769
 1862SOL    HW2 6486   3.220   2.303   0.733
 1863SOL     OW 6487   2.332   1.703   1.502
 1863SOL    HW1 6488   2.351   1.717   1.599
 1863SOL    HW2 6489   2.379   1.620   1.471
 1864SOL     OW 6490   0.321   6.522   3.176
 1864SOL    HW1 6491   0.286   6.607   3.216
 1864SOL    HW2 6492   0.409   6.499   3.218
 1865SOL     OW 6493   5.487   3.339   6.726
 1865SOL    HW1 6494   5.533   3.299   6.647
 1865SOL    HW2 6495   5.534   3.311   6.810
 1866SOL     OW 6496   5.982   5.054   1.576
 1866SOL    HW1 6497   5.938   5.052   1.666
 1866SOL    HW2 6498   5.960   4.971   1.525
 1867SOL     OW 6499   1.542   4.219   6.574
 1867SOL    HW1 6500   1.595   4.172   6.504
 1867SOL    HW2 6501   1.568   4.186   6.665
 1868SOL     OW 6502   6.221   3.920   5.113
 1868SOL    HW1 6503   6.126   3.943   5.135
 1868SOL    HW2 6504   6.281   3.992   5.146
 1869SOL     OW 6505   5.775   0.966   4.979
 1869SOL    HW1 6506   5.811   1.059   4.994
 1869SOL    HW2 6507   5.685   0.972   4.935
 1870SOL     OW 6508   2.146   3.771   4.915
 1870SOL    HW1 6509   2.216   3.842   4.929
 1870SOL    HW2 6510   2.103   3.749   5.003
 1871SOL     OW 6511   1.818   1.152   0.920
 1871SOL    HW1 6512   1.771   1.134   0.833
 1871SOL    HW2 6513   1.765   1.219   0.973
 1872SOL     OW 6514   1.710   5.559   6.190
 1872SOL    HW1 6515   1.668   5.606   6.266
 1872SOL    HW2 6516   1.640   5.531   6.124
 1873SOL     OW 6517   5.651   6.559   6.931
 1873SOL    HW1 6518   5.582   6.577   7.001
 1873SOL    HW2 6519   5.611   6.503   6.859
 1874SOL     OW 6520   0.464   3.822   3.099
 1874SOL    HW1 6521   0.394   3.759   3.065
 1874SOL    HW2 6522   0.510   3.781   3.178
 1875SOL     OW 6523   0.248   6.997   2.050
 1875SOL    HW1 6524   0.201   6.985   2.138
 1875SOL    HW2 6525   0.295   0.064   2.050
 1876SOL     OW 6526   2.014   6.077   3.987
 1876SOL    HW1 6527   1.963   6.045   4.066
 1876SOL    HW2 6528   2.100   6.118   4.016
 1877SOL     OW 6529   0.070   0.114   4.304
 1877SOL    HW1 6530   0.114   0.078   4.386
 1877SOL    HW2 6531   0.051   0.039   4.240
 1878SOL     OW 6532   6.447   3.215   5.919
 1878SOL    HW1 6533   6.546   3.219   5.903
 1878SOL    HW2 6534   6.415   3.304   5.950
 1879SOL     OW 6535   1.843   5.970   5.702
 1879SOL    HW1 6536   1.916   5.914   5.663
 1879SOL    HW2 6537   1.772   5.984   5.634
 1880SOL     OW 6538   6.624   0.356   4.119
 1880SOL    HW1 6539   6.640   0.382   4.214
 1880SOL    HW2 6540   6.677   0.415   4.058
 1881SOL     OW 6541   0.843   2.146   6.981
 1881SOL    HW1 6542   0.866   2.242   7.001
 1881SOL    HW2 6543   0.927   2.092   6.981
 1882SOL     OW 6544   0.879   6.884   0.659
 1882SOL    HW1 6545   0.785   6.898   0.689
 1882SOL    HW2 6546   0.882   6.880   0.559
 1883SOL     OW 6547   0.010   1.934   4.187
 1883SOL    HW1 6548   0.052   1.858   4.137
 1883SOL    HW2 6549   0.015   2.017   4.132
 1884SOL     OW 6550   6.084   1.827   1.356
 1884SOL    HW1 6551   6.029   1.744   1.355
 1884SOL    HW2 6552   6.039   1.898   1.301
 1885SOL     OW 6553   3.332   1.121   4.422
 1885SOL    HW1 6554   3.378   1.069   4.351
 1885SOL    HW2 6555   3.260   1.065   4.464
 1886SOL     OW 6556   0.547   6.282   3.721
 1886SOL    HW1 6557   0.531   6.197   3.771
 1886SOL    HW2 6558   0.542   6.359   3.784
 1887SOL     OW 6559   2.518   5.663   6.045
 1887SOL    HW1 6560   2.424   5.694   6.030
 1887SOL    HW2 6561   2.578   5.742   6.054
 1888SOL     OW 6562   2.204   0.079   3.447
 1888SOL    HW1 6563   2.237   0.173   3.439
 1888SOL    HW2 6564   2.225   0.029   3.363
 1889SOL     OW 6565   0.238   3.553   2.187
 1889SOL    HW1 6566   0.330   3.563   2.149
 1889SOL    HW2 6567   0.242   3.498   2.270
 1890SOL     OW 6568   1.664   6.122   4.639
 1890SOL    HW1 6569   1.640   6.130   4.735
 1890SOL    HW2 6570   1.763   6.116   4.630
 1891SOL     OW 6571   3.917   3.674   3.618
 1891SOL    HW1 6572   3.992   3.664   3.684
 1891SOL    HW2 6573   3.837   3.712   3.663
 1892SOL     OW 6574   6.886   0.515   2.646
 1892SOL    HW1 6575   6.842   0.601   2.621
 1892SOL    HW2 6576   6.938   0.527   2.731
 1893SOL     OW 6577   3.638   2.911   4.009
 1893SOL    HW1 6578   3.583   2.880   4.087
 1893SOL    HW2 6579   3.633   3.010   4.002
 1894SOL     OW 6580   3.150   3.254   4.885
 1894SOL    HW1 6581   3.210   3.283   4.959
 1894SOL    HW2 6582   3.057   3.289   4.902
 1895SOL     OW 6583   0.858   6.185   1.332
 1895SOL    HW1 6584   0.865   6.193   1.233
 1895SOL    HW2 6585   0.942   6.143   1.367
 1896SOL     OW 6586   6.161   3.201   1.026
 1896SOL    HW1 6587   6.205   3.113   1.010
 1896SOL    HW2 6588   6.217   3.256   1.089
 1897SOL     OW 6589   2.173   4.754   3.146
 1897SOL    HW1 6590   2.171   4.844   3.188
 1897SOL    HW2 6591   2.091   4.741   3.090
 1898SOL     OW 6592   1.774   5.884   2.297
 1898SOL    HW1 6593   1.702   5.953   2.310
 1898SOL    HW2 6594   1.828   5.876   2.381
 1899SOL     OW 6595   6.813   0.926   2.283
 1899SOL    HW1 6596   6.854   1.016   2.266
 1899SOL    HW2 6597   6.713   0.934   2.278
 1900SOL     OW 6598   2.919   6.413   6.169
 1900SOL    HW1 6599   2.912   6.424   6.070
 1900SOL    HW2 6600   2.917   6.316   6.192
 1901SOL     OW 6601   4.087   3.214   2.839
 1901SOL    HW1 6602   4.045   3.148   2.776
 1901SOL    HW2 6603   4.179   3.236   2.809
 1902SOL     OW 6604   1.215   6.810   5.400
 1902SOL    HW1 6605   1.191   6.841   5.492
 1902SOL    HW2 6606   1.248   6.888   5.347
 1903SOL     OW 6607   1.017   2.361   4.265
 1903SOL    HW1 6608   1.011   2.315   4.353
 1903SOL    HW2 6609   1.106   2.341   4.222
 1904SOL     OW 6610   5.928   5.214   2.033
 1904SOL    HW1 6611   5.951   5.182   2.125
 1904SOL    HW2 6612   5.834   5.248   2.032
 1905SOL     OW 6613   0.422   3.046   4.016
 1905SOL    HW1 6614   0.363   3.127   4.018
 1905SOL    HW2 6615   0.375   2.969   4.060
 1906SOL     OW 6616   0.132   6.290   3.969
 1906SOL    HW1 6617   0.144   6.251   3.878
 1906SOL    HW2 6618   0.064   6.363   3.966
 1907SOL     OW 6619   6.696   2.833   0.616
 1907SOL    HW1 6620   6.739   2.752   0.578
 1907SOL    HW2 6621   6.688   2.904   0.546
 1908SOL     OW 6622   4.390   0.645   1.601
 1908SOL    HW1 6623   4.369   0.743   1.608
 1908SOL    HW2 6624   4.445   0.629   1.520
 1909SOL     OW 6625   6.680   5.268   5.195
 1909SOL    HW1 6626   6.687   5.232   5.288
 1909SOL    HW2 6627   6.771   5.272   5.154
 1910SOL     OW 6628   0.471   6.232   5.063
 1910SOL    HW1 6629   0.409   6.185   5.126
 1910SOL    HW2 6630   0.499   6.320   5.104
 1911SOL     OW 6631   5.600   6.598   4.190
 1911SOL    HW1 6632   5.628   6.622   4.097
 1911SOL    HW2 6633   5.624   6.503   4.209
 1912SOL     OW 6634   3.361   4.976   1.873
 1912SOL    HW1 6635   3.325   4.956   1.964
 1912SOL    HW2 6636   3.339   4.901   1.810
 1913SOL     OW 6637   2.813   3.997   6.079
 1913SOL    HW1 6638   2.747   4.056   6.126
 1913SOL    HW2 6639   2.836   3.919   6.137
 1914SOL     OW 6640   4.380   4.201   0.674
 1914SOL    HW1 6641   4.283   4.222   0.661
 1914SOL    HW2 6642   4.432   4.240   0.598
 1915SOL     OW 6643   4.245   2.226   0.100
 1915SOL    HW1 6644   4.168   2.189   0.048
 1915SOL    HW2 6645   4.211   2.291   0.168
 1916SOL     OW 6646   3.513   1.816   2.842
 1916SOL    HW1 6647   3.415   1.804   2.857
 1916SOL    HW2 6648   3.556   1.728   2.826
 1917SOL     OW 6649   2.659   3.868   1.348
 1917SOL    HW1 6650   2.759   3.871   1.352
 1917SOL    HW2 6651   2.624   3.817   1.427
 1918SOL     OW 6652   5.124   3.053   4.597
 1918SOL    HW1 6653   5.198   3.039   4.530
 1918SOL    HW2 6654   5.088   2.964   4.625
 1919SOL     OW 6655   6.753   1.051   6.324
 1919SOL    HW1 6656   6.718   1.031   6.232
 1919SOL    HW2 6657   6.790   1.144   6.325
 1920SOL     OW 6658   4.908   3.600   0.483
 1920SOL    HW1 6659   4.981   3.614   0.416
 1920SOL    HW2 6660   4.864   3.687   0.503
 1921SOL     OW 6661   3.401   2.402   6.750
 1921SOL    HW1 6662   3.358   2.356   6.827
 1921SOL    HW2 6663   3.438   2.490   6.780
 1922SOL     OW 6664   3.763   3.694   4.235
 1922SOL    HW1 6665   3.681   3.735   4.194
 1922SOL    HW2 6666   3.845   3.734   4.193
 1923SOL     OW 6667   2.796   0.426   4.140
 1923SOL    HW1 6668   2.815   0.329   4.159
 1923SOL    HW2 6669   2.704   0.448   4.171
 1924SOL     OW 6670   5.502   0.627   1.393
 1924SOL    HW1 6671   5.582   0.687   1.405
 1924SOL    HW2 6672   5.524   0.536   1.427
 1925SOL     OW 6673   1.369   4.651   1.082
 1925SOL    HW1 6674   1.373   4.697   0.994
 1925SOL    HW2 6675   1.387   4.554   1.070
 1926SOL     OW 6676   2.694   6.705   2.060
 1926SOL    HW1 6677   2.606   6.738   2.092
 1926SOL    HW2 6678   2.731   6.768   1.992
 1927SOL     OW 6679   1.876   5.235   0.867
 1927SOL    HW1 6680   1.944   5.250   0.939
 1927SOL    HW2 6681   1.848   5.139   0.868
 1928SOL     OW 6682   1.162   4.232   2.995
 1928SOL    HW1 6683   1.223   4.214   2.918
 1928SOL    HW2 6684   1.156   4.150   3.053
 1929SOL     OW 6685   3.322   0.723   3.295
 1929SOL    HW1 6686   3.288   0.795   3.234
 1929SOL    HW2 6687   3.267   0.721   3.378
 1930SOL     OW 6688   3.156   3.376   0.131
 1930SOL    HW1 6689   3.057   3.383   0.126
 1930SOL    HW2 6690   3.198   3.445   0.072
 1931SOL     OW 6691   5.661   3.454   3.881
 1931SOL    HW1 6692   5.571   3.477   3.919
 1931SOL    HW2 6693   5.661   3.474   3.783
 1932SOL     OW 6694   4.651   1.059   1.872
 1932SOL    HW1 6695   4.715   1.079   1.947
 1932SOL    HW2 6696   4.629   1.144   1.824
 1933SOL     OW 6697   1.385   1.280   0.969
 1933SOL    HW1 6698   1.387   1.365   1.023
 1933SOL    HW2 6699   1.435   1.294   0.884
 1934SOL     OW 6700   6.697   0.881   6.912
 1934SOL    HW1 6701   6.642   0.848   6.835
 1934SOL    HW2 6702   6.647   0.867   6.997
 1935SOL     OW 6703   5.784   5.249   3.826
 1935SOL    HW1 6704   5.838   5.294   3.897
 1935SOL    HW2 6705   5.720   5.315   3.786
 1936SOL     OW 6706   5.997   2.908   6.660
 1936SOL    HW1 6707   5.898   2.904   6.642
 1936SOL    HW2 6708   6.042   2.830   6.616
 1937SOL     OW 6709   0.912   5.077   6.767
 1937SOL    HW1 6710   0.865   5.119   6.689
 1937SOL    HW2 6711   0.844   5.034   6.827
 1938SOL     OW 6712   6.777   1.562   6.571
 1938SOL    HW1 6713   6.712   1.634   6.596
 1938SOL    HW2 6714   6.733   1.500   6.506
 1939SOL     OW 6715   0.530   0.799   3.894
 1939SOL    HW1 6716   0.456   0.775   3.957
 1939SOL    HW2 6717   0.507   0.769   3.802
 1940SOL     OW 6718   0.918   5.237   1.882
 1940SOL    HW1 6719   0.839   5.181   1.907
 1940SOL    HW2 6720   0.993   5.178   1.853
 1941SOL     OW 6721   6.127   0.203   4.188
 1941SOL    HW1 6722   6.097   0.265   4.260
 1941SOL    HW2 6723   6.225   0.217   4.171
 1942SOL     OW 6724   0.759   6.261   1.674
 1942SOL    HW1 6725   0.847   6.303   1.654
 1942SOL    HW2 6726   0.748   6.249   1.773
 1943SOL     OW 6727   0.801   4.206   4.065
 1943SOL    HW1 6728   0.706   4.218   4.036
 1943SOL    HW2 6729   0.861   4.203   3.985
 1944SOL     OW 6730   0.091   3.442   3.585
 1944SOL    HW1 6731   0.179   3.426   3.541
 1944SOL    HW2 6732   0.053   3.529   3.554
 1945SOL     OW 6733   4.461   1.785   2.142
 1945SOL    HW1 6734   4.444   1.791   2.043
 1945SOL    HW2 6735   4.542   1.838   2.165
 1946SOL     OW 6736   5.877   4.877   0.048
 1946SOL    HW1 6737   5.832   4.932   6.998
 1946SOL    HW2 6738   5.889   4.784   0.015
 1947SOL     OW 6739   5.722   6.256   2.663
 1947SOL    HW1 6740   5.672   6.195   2.725
 1947SOL    HW2 6741   5.657   6.306   2.606
 1948SOL     OW 6742   5.311   2.816   3.021
 1948SOL    HW1 6743   5.336   2.780   3.110
 1948SOL    HW2 6744   5.284   2.912   3.029
 1949SOL     OW 6745   3.340   3.953   6.519
 1949SOL    HW1 6746   3.391   4.030   6.559
 1949SOL    HW2 6747   3.376   3.935   6.427
 1950SOL     OW 6748   3.806   3.562   3.972
 1950SOL    HW1 6749   3.852   3.534   3.888
 1950SOL    HW2 6750   3.840   3.508   4.049
 1951SOL     OW 6751   0.710   5.271   6.058
 1951SOL    HW1 6752   0.755   5.188   6.090
 1951SOL    HW2 6753   0.706   5.338   6.133
 1952SOL     OW 6754   5.612   4.061   0.088
 1952SOL    HW1 6755   5.666   4.084   0.007
 1952SOL    HW2 6756   5.551   3.985   0.067
 1953SOL     OW 6757   0.482   1.153   6.364
 1953SOL    HW1 6758   0.414   1.080   6.369
 1953SOL    HW2 6759   0.528   1.162   6.452
 1954SOL     OW 6760   3.821   6.546   3.135
 1954SOL    HW1 6761   3.782   6.522   3.046
 1954SOL    HW2 6762   3.835   6.462   3.189
 1955SOL     OW 6763   6.698   3.395   4.206
 1955SOL    HW1 6764   6.791   3.361   4.221
 1955SOL    HW2 6765   6.677   3.464   4.276
 1956SOL     OW 6766   4.870   1.493   1.438
 1956SOL    HW1 6767   4.932   1.417   1.454
 1956SOL    HW2 6768   4.828   1.520   1.524
 1957SOL     OW 6769   6.916   3.112   5.106
 1957SOL    HW1 6770   6.967   3.169   5.041
 1957SOL    HW2 6771   6.833   3.161   5.135
 1958SOL     OW 6772   5.314   2.190   0.514
 1958SOL    HW1 6773   5.247   2.244   0.463
 1958SOL    HW2 6774   5.302   2.093   0.492
 1959SOL     OW 6775   1.930   1.626   6.031
 1959SOL    HW1 6776   1.837   1.649   6.059
 1959SOL    HW2 6777   1.945   1.528   6.040
 1960SOL     OW 6778   4.576   4.516   1.954
 1960SOL    HW1 6779   4.569   4.418   1.971
 1960SOL    HW2 6780   4.669   4.547   1.975
 1961SOL     OW 6781   6.400   3.720   4.489
 1961SOL    HW1 6782   6.349   3.637   4.510
 1961SOL    HW2 6783   6.459   3.703   4.410
 1962SOL     OW 6784   0.252   6.831   2.377
 1962SOL    HW1 6785   0.162   6.809   2.417
 1962SOL    HW2 6786   0.251   6.925   2.344
 1963SOL     OW 6787   0.580   1.187   6.809
 1963SOL    HW1 6788   0.502   1.248   6.818
 1963SOL    HW2 6789   0.594   1.138   6.895
 1964SOL     OW 6790   5.462   3.414   0.698
 1964SOL    HW1 6791   5.409   3.470   0.634
 1964SOL    HW2 6792   5.539   3.469   0.732
 1965SOL     OW 6793   5.163   4.991   4.863
 1965SOL    HW1 6794   5.110   5.075   4.870
 1965SOL    HW2 6795   5.244   5.007   4.806
 1966SOL     OW 6796   1.719   5.228   6.560
 1966SOL    HW1 6797   1.626   5.191   6.564
 1966SOL    HW2 6798   1.756   5.237   6.652
 1967SOL     OW 6799   6.520   2.503   4.163
 1967SOL    HW1 6800   6.570   2.488   4.248
 1967SOL    HW2 6801   6.528   2.599   4.136
 1968SOL     OW 6802   2.373   1.577   5.813
 1968SOL    HW1 6803   2.456   1.521   5.815
 1968SOL    HW2 6804   2.336   1.578   5.721
 1969SOL     OW 6805   0.286   6.575   1.967
 1969SOL    HW1 6806   0.258   6.636   1.893
 1969SOL    HW2 6807   0.348   6.505   1.930
 1970SOL     OW 6808   5.007   4.197   2.764
 1970SOL    HW1 6809   4.985   4.294   2.768
 1970SOL    HW2 6810   5.092   4.180   2.815
 1971SOL     OW 6811   1.358   5.571   4.214
 1971SOL    HW1 6812   1.267   5.612   4.203
 1971SOL    HW2 6813   1.374   5.551   4.311
 1972SOL     OW 6814   5.669   2.061   3.299
 1972SOL    HW1 6815   5.729   1.992   3.338
 1972SOL    HW2 6816   5.679   2.147   3.349
 1973SOL     OW 6817   4.218   2.608   6.914
 1973SOL    HW1 6818   4.263   2.688   6.953
 1973SOL    HW2 6819   4.282   2.532   6.910
 1974SOL     OW 6820   2.087   6.337   4.301
 1974SOL    HW1 6821   2.123   6.354   4.392
 1974SOL    HW2 6822   2.163   6.333   4.235
 1975SOL     OW 6823   2.215   2.124   2.949
 1975SOL    HW1 6824   2.257   2.161   3.031
 1975SOL    HW2 6825   2.279   2.130   2.872
 1976SOL     OW 6826   2.711   0.532   4.542
 1976SOL    HW1 6827   2.745   0.602   4.479
 1976SOL    HW2 6828   2.614   0.516   4.524
 1977SOL     OW 6829   1.093   4.466   0.149
 1977SOL    HW1 6830   1.150   4.531   0.097
 1977SOL    HW2 6831   1.036   4.517   0.214
 1978SOL     OW 6832   2.508   0.522   2.361
 1978SOL    HW1 6833   2.592   0.570   2.385
 1978SOL    HW2 6834   2.452   0.580   2.302
 1979SOL     OW 6835   5.356   3.500   0.047
 1979SOL    HW1 6836   5.326   3.552   0.127
 1979SOL    HW2 6837   5.342   3.555   6.985
 1980SOL     OW 6838   4.178   6.926   1.681
 1980SOL    HW1 6839   4.110   6.958   1.747
 1980SOL    HW2 6840   4.142   6.846   1.633
 1981SOL     OW 6841   4.485   2.753   1.690
 1981SOL    HW1 6842   4.556   2.822   1.674
 1981SOL    HW2 6843   4.517   2.687   1.757
 1982SOL     OW 6844   2.298   2.276   6.390
 1982SOL    HW1 6845   2.255   2.250   6.304
 1982SOL    HW2 6846   2.397   2.272   6.381
 1983SOL     OW 6847   6.874   2.503   1.285
 1983SOL    HW1 6848   6.907   2.458   1.202
 1983SOL    HW2 6849   6.889   2.602   1.277
 1984SOL     OW 6850   4.929   3.009   6.210
 1984SOL    HW1 6851   4.899   2.918   6.238
 1984SOL    HW2 6852   4.867   3.078   6.247
 1985SOL     OW 6853   5.202   5.592   5.307
 1985SOL    HW1 6854   5.162   5.646   5.233
 1985SOL    HW2 6855   5.300   5.612   5.314
 1986SOL     OW 6856   3.404   3.311   3.332
 1986SOL    HW1 6857   3.350   3.370   3.391
 1986SOL    HW2 6858   3.352   3.227   3.312
 1987SOL     OW 6859   1.763   2.166   2.144
 1987SOL    HW1 6860   1.854   2.183   2.182
 1987SOL    HW2 6861   1.705   2.125   2.213
 1988SOL     OW 6862   1.168   1.762   2.461
 1988SOL    HW1 6863   1.216   1.737   2.377
 1988SOL    HW2 6864   1.155   1.861   2.464
 1989SOL     OW 6865   3.192   5.243   3.346
 1989SOL    HW1 6866   3.148   5.153   3.344
 1989SOL    HW2 6867   3.137   5.306   3.400
 1990SOL     OW 6868   4.596   6.799   0.864
 1990SOL    HW1 6869   4.579   6.895   0.888
 1990SOL    HW2 6870   4.693   6.779   0.876
 1991SOL     OW 6871   3.070   5.068   2.663
 1991SOL    HW1 6872   3.124   5.004   2.609
 1991SOL    HW2 6873   3.059   5.153   2.612
 1992SOL     OW 6874   0.635   6.986   3.025
 1992SOL    HW1 6875   0.709   6.921   3.039
 1992SOL    HW2 6876   0.656   0.024   2.947
 1993SOL     OW 6877   1.214   1.067   1.525
 1993SOL    HW1 6878   1.231   1.124   1.606
 1993SOL    HW2 6879   1.146   1.111   1.467
 1994SOL     OW 6880   3.035   3.437   1.631
 1994SOL    HW1 6881   3.093   3.439   1.550
 1994SOL    HW2 6882   2.943   3.467   1.607
 1995SOL     OW 6883   6.174   0.771   4.003
 1995SOL    HW1 6884   6.096   0.809   4.053
 1995SOL    HW2 6885   6.179   0.673   4.020
 1996SOL     OW 6886   4.905   0.184   1.094
 1996SOL    HW1 6887   4.805   0.191   1.092
 1996SOL    HW2 6888   4.943   0.264   1.140
 1997SOL     OW 6889   2.516   1.992   3.116
 1997SOL    HW1 6890   2.467   2.076   3.140
 1997SOL    HW2 6891   2.452   1.915   3.115
 1998SOL     OW 6892   2.262   3.631   1.278
 1998SOL    HW1 6893   2.305   3.666   1.195
 1998SOL    HW2 6894   2.308   3.548   1.308
 1999SOL     OW 6895   0.494   0.383   5.661
 1999SOL    HW1 6896   0.561   0.323   5.704
 1999SOL    HW2 6897   0.474   0.349   5.569
 2000SOL     OW 6898   4.651   3.813   6.559
 2000SOL    HW1 6899   4.708   3.894   6.571
 2000SOL    HW2 6900   4.665   3.776   6.467
 2001SOL     OW 6901   1.591   1.610   6.994
 2001SOL    HW1 6902   1.677   1.638   0.017
 2001SOL    HW2 6903   1.569   1.674   6.920
 2002SOL     OW 6904   5.683   4.741   6.435
 2002SOL    HW1 6905   5.754   4.700   6.377
 2002SOL    HW2 6906   5.659   4.676   6.508
 2003SOL     OW 6907   6.947   5.453   1.295
 2003SOL    HW1 6908   7.018   5.383   1.302
 2003SOL    HW2 6909   6.988   5.544   1.306
 2004SOL     OW 6910   3.420   0.994   2.727
 2004SOL    HW1 6911   3.392   0.915   2.782
 2004SOL    HW2 6912   3.482   1.051   2.780
 2005SOL     OW 6913   1.783   6.362   0.049
 2005SOL    HW1 6914   1.703   6.361   0.109
 2005SOL    HW2 6915   1.866   6.358   0.104
 2006SOL     OW 6916   5.892   0.440   2.221
 2006SOL    HW1 6917   5.912   0.439   2.319
 2006SOL    HW2 6918   5.943   0.367   2.175
 2007SOL     OW 6919   5.552   4.969   5.711
 2007SOL    HW1 6920   5.493   5.050   5.719
 2007SOL    HW2 6921   5.496   4.886   5.717
 2008SOL     OW 6922   2.222   3.113   2.705
 2008SOL    HW1 6923   2.270   3.029   2.679
 2008SOL    HW2 6924   2.198   3.110   2.802
 2009SOL     OW 6925   5.944   0.176   3.977
 2009SOL    HW1 6926   6.007   0.200   4.051
 2009SOL    HW2 6927   5.995   0.130   3.904
 2010SOL     OW 6928   6.703   1.385   1.601
 2010SOL    HW1 6929   6.633   1.448   1.634
 2010SOL    HW2 6930   6.714   1.310   1.666
 2011SOL     OW 6931   0.713   0.460   5.376
 2011SOL    HW1 6932   0.753   0.550   5.357
 2011SOL    HW2 6933   0.777   0.405   5.430
 2012SOL     OW 6934   0.292   2.188   0.467
 2012SOL    HW1 6935   0.261   2.096   0.492
 2012SOL    HW2 6936   0.373   2.181   0.409
 2013SOL     OW 6937   0.424   2.264   2.281
 2013SOL    HW1 6938   0.347   2.215   2.322
 2013SOL    HW2 6939   0.393   2.314   2.200
 2014SOL     OW 6940   4.197   2.271   3.458
 2014SOL    HW1 6941   4.280   2.288   3.510
 2014SOL    HW2 6942   4.219   2.264   3.361
 2015SOL     OW 6943   3.381   6.490   1.418
 2015SOL    HW1 6944   3.354   6.440   1.501
 2015SOL    HW2 6945   3.467   6.452   1.383
 2016SOL     OW 6946   2.221   0.384   4.470
 2016SOL    HW1 6947   2.197   0.404   4.375
 2016SOL    HW2 6948   2.170   0.445   4.531
 2017SOL     OW 6949   1.173   6.866   4.290
 2017SOL    HW1 6950   1.192   6.891   4.195
 2017SOL    HW2 6951   1.094   6.917   4.323
 2018SOL     OW 6952   0.625   1.107   4.667
 2018SOL    HW1 6953   0.562   1.154   4.729
 2018SOL    HW2 6954   0.611   1.008   4.675
 2019SOL     OW 6955   0.697   5.025   6.945
 2019SOL    HW1 6956   0.631   5.099   6.932
 2019SOL    HW2 6957   0.649   4.937   6.946
 2020SOL     OW 6958   1.857   6.922   1.473
 2020SOL    HW1 6959   1.939   6.865   1.466
 2020SOL    HW2 6960   1.826   6.947   1.381
 2021SOL     OW 6961   0.228   5.384   3.739
 2021SOL    HW1 6962   0.273   5.440   3.670
 2021SOL    HW2 6963   0.293   5.318   3.776
 2022SOL     OW 6964   2.161   3.256   4.379
 2022SOL    HW1 6965   2.192   3.351   4.384
 2022SOL    HW2 6966   2.177   3.221   4.286
 2023SOL     OW 6967   0.726   5.898   6.492
 2023SOL    HW1 6968   0.699   5.841   6.414
 2023SOL    HW2 6969   0.771   5.981   6.458
 2024SOL     OW 6970   6.434   5.653   3.564
 2024SOL    HW1 6971   6.343   5.614   3.550
 2024SOL    HW2 6972   6.434   5.707   3.648
 2025SOL     OW 6973   1.978   0.679   4.364
 2025SOL    HW1 6974   1.927   0.735   4.298
 2025SOL    HW2 6975   2.039   0.618   4.314
 2026SOL     OW 6976   1.546   6.578   5.807
 2026SOL    HW1 6977   1.578   6.647   5.743
 2026SOL    HW2 6978   1.600   6.583   5.891
 2027SOL     OW 6979   6.340   6.539   3.299
 2027SOL    HW1 6980   6.394   6.581   3.372
 2027SOL    HW2 6981   6.370   6.445   3.286
 2028SOL     OW 6982   1.935   6.118   4.844
 2028SOL    HW1 6983   1.954   6.208   4.806
 2028SOL    HW2 6984   2.017   6.061   4.838
 2029SOL     OW 6985   0.273   2.371   0.072
 2029SOL    HW1 6986   0.279   2.450   0.011
 2029SOL    HW2 6987   0.360   2.359   0.119
 2030SOL     OW 6988   1.561   6.068   2.586
 2030SOL    HW1 6989   1.467   6.046   2.611
 2030SOL    HW2 6990   1.569   6.166   2.567
 2031SOL     OW 6991   6.715   0.369   4.399
 2031SOL    HW1 6992   6.689   0.376   4.496
 2031SOL    HW2 6993   6.802   0.414   4.385
 2032SOL     OW 6994   2.818   2.939   6.205
 2032SOL    HW1 6995   2.861   2.856   6.170
 2032SOL    HW2 6996   2.761   2.980   6.134
 2033SOL     OW 6997   2.917   6.831   1.460
 2033SOL    HW1 6998   2.871   6.900   1.516
 2033SOL    HW2 6999   2.911   6.742   1.505
 2034SOL     OW 7000   0.876   3.606   4.771
 2034SOL    HW1 7001   0.934   3.592   4.851
 2034SOL    HW2 7002   0.873   3.522   4.717
 2035SOL     OW 7003   4.968   6.261   3.608
 2035SOL    HW1 7004   5.008   6.222   3.691
 2035SOL    HW2 7005   5.042   6.288   3.546
 2036SOL     OW 7006   6.903   3.337   5.587
 2036SOL    HW1 7007   6.912   3.344   5.687
 2036SOL    HW2 7008   6.814   3.376   5.560
 2037SOL     OW 7009   1.030   2.404   6.502
 2037SOL    HW1 7010   1.092   2.448   6.567
 2037SOL    HW2 7011   1.080   2.333   6.451
 2038SOL     OW 7012   2.055   0.925   6.078
 2038SOL    HW1 7013   2.102   0.836   6.077
 2038SOL    HW2 7014   2.094   0.983   6.007
 2039SOL     OW 7015   5.352   5.960   4.542
 2039SOL    HW1 7016   5.261   5.980   4.577
 2039SOL    HW2 7017   5.344   5.910   4.455
 2040SOL     OW 7018   2.796   1.316   0.712
 2040SOL    HW1 7019   2.725   1.380   0.684
 2040SOL    HW2 7020   2.788   1.232   0.659
 2041SOL     OW 7021   2.909   0.255   6.817
 2041SOL    HW1 7022   2.901   0.354   6.802
 2041SOL    HW2 7023   2.829   0.223   6.867
 2042SOL     OW 7024   0.375   0.257   5.270
 2042SOL    HW1 7025   0.372   0.174   5.214
 2042SOL    HW2 7026   0.371   0.337   5.210
 2043SOL     OW 7027   1.546   3.614   0.183
 2043SOL    HW1 7028   1.557   3.566   0.096
 2043SOL    HW2 7029   1.477   3.568   0.238
 2044SOL     OW 7030   2.744   1.141   2.415
 2044SOL    HW1 7031   2.774   1.236   2.412
 2044SOL    HW2 7032   2.674   1.126   2.345
 2045SOL     OW 7033   1.931   5.906   3.235
 2045SOL    HW1 7034   1.951   5.864   3.323
 2045SOL    HW2 7035   2.015   5.915   3.182
 2046SOL     OW 7036   0.570   2.616   5.665
 2046SOL    HW1 7037   0.616   2.703   5.680
 2046SOL    HW2 7038   0.498   2.627   5.597
 2047SOL     OW 7039   6.916   0.316   2.020
 2047SOL    HW1 7040   6.843   0.384   2.010
 2047SOL    HW2 7041   6.910   0.249   1.947
 2048SOL     OW 7042   2.438   1.433   3.421
 2048SOL    HW1 7043   2.440   1.372   3.342
 2048SOL    HW2 7044   2.358   1.412   3.477
 2049SOL     OW 7045   4.383   2.160   5.227
 2049SOL    HW1 7046   4.285   2.173   5.213
 2049SOL    HW2 7047   4.432   2.241   5.194
 2050SOL     OW 7048   0.077   0.910   2.585
 2050SOL    HW1 7049   0.079   1.009   2.597
 2050SOL    HW2 7050   7.003   0.878   2.578
 2051SOL     OW 7051   3.361   6.840   6.369
 2051SOL    HW1 7052   3.314   6.763   6.412
 2051SOL    HW2 7053   3.302   6.921   6.372
 2052SOL     OW 7054   0.705   4.586   0.523
 2052SOL    HW1 7055   0.668   4.676   0.497
 2052SOL    HW2 7056   0.805   4.592   0.529
 2053SOL     OW 7057   4.668   5.397   1.627
 2053SOL    HW1 7058   4.718   5.412   1.712
 2053SOL    HW2 7059   4.725   5.345   1.563
 2054SOL     OW 7060   2.965   3.681   4.075
 2054SOL    HW1 7061   2.934   3.604   4.130
 2054SOL    HW2 7062   2.989   3.758   4.135
 2055SOL     OW 7063   2.886   2.855   5.710
 2055SOL    HW1 7064   2.975   2.895   5.689
 2055SOL    HW2 7065   2.814   2.922   5.690
 2056SOL     OW 7066   2.632   5.438   1.796
 2056SOL    HW1 7067   2.711   5.451   1.855
 2056SOL    HW2 7068   2.562   5.386   1.845
 2057SOL     OW 7069   6.111   2.919   4.322
 2057SOL    HW1 7070   6.044   2.993   4.330
 2057SOL    HW2 7071   6.168   2.934   4.241
 2058SOL     OW 7072   5.527   0.471   3.908
 2058SOL    HW1 7073   5.615   0.462   3.861
 2058SOL    HW2 7074   5.453   0.477   3.842
 2059SOL     OW 7075   2.858   1.169   5.832
 2059SOL    HW1 7076   2.857   1.176   5.932
 2059SOL    HW2 7077   2.788   1.228   5.793
 2060SOL     OW 7078   1.421   2.166   6.300
 2060SOL    HW1 7079   1.342   2.182   6.241
 2060SOL    HW2 7080   1.420   2.232   6.375
 2061SOL     OW 7081   2.265   2.901   3.992
 2061SOL    HW1 7082   2.191   2.835   3.996
 2061SOL    HW2 7083   2.268   2.955   4.077
 2062SOL     OW 7084   4.573   5.303   4.069
 2062SOL    HW1 7085   4.520   5.226   4.104
 2062SOL    HW2 7086   4.670   5.278   4.067
 2063SOL     OW 7087   1.501   1.458   4.012
 2063SOL    HW1 7088   1.527   1.474   4.107
 2063SOL    HW2 7089   1.445   1.535   3.980
 2064SOL     OW 7090   0.354   3.865   4.342
 2064SOL    HW1 7091   0.366   3.867   4.441
 2064SOL    HW2 7092   0.434   3.822   4.300
 2065SOL     OW 7093   3.329   3.478   5.433
 2065SOL    HW1 7094   3.257   3.528   5.385
 2065SOL    HW2 7095   3.330   3.383   5.403
 2066SOL     OW 7096   2.150   2.421   4.417
 2066SOL    HW1 7097   2.098   2.496   4.457
 2066SOL    HW2 7098   2.168   2.440   4.320
 2067SOL     OW 7099   6.040   4.273   3.036
 2067SOL    HW1 7100   5.949   4.243   3.007
 2067SOL    HW2 7101   6.109   4.228   2.980
 2068SOL     OW 7102   3.164   6.392   4.267
 2068SOL    HW1 7103   3.069   6.417   4.283
 2068SOL    HW2 7104   3.211   6.468   4.221
 2069SOL     OW 7105   5.353   1.731   2.781
 2069SOL    HW1 7106   5.311   1.642   2.767
 2069SOL    HW2 7107   5.299   1.802   2.734
 2070SOL     OW 7108   0.213   5.913   1.901
 2070SOL    HW1 7109   0.267   5.904   1.817
 2070SOL    HW2 7110   0.175   6.005   1.906
 2071SOL     OW 7111   0.089   2.517   4.190
 2071SOL    HW1 7112   0.013   2.491   4.130
 2071SOL    HW2 7113   0.054   2.570   4.267
 2072SOL     OW 7114   5.384   3.089   6.038
 2072SOL    HW1 7115   5.285   3.085   6.022
 2072SOL    HW2 7116   5.413   3.012   6.094
 2073SOL     OW 7117   3.149   5.703   0.114
 2073SOL    HW1 7118   3.246   5.693   0.136
 2073SOL    HW2 7119   3.126   5.643   0.038
 2074SOL     OW 7120   3.634   4.448   5.293
 2074SOL    HW1 7121   3.665   4.458   5.387
 2074SOL    HW2 7122   3.547   4.496   5.281
 2075SOL     OW 7123   5.069   0.918   1.093
 2075SOL    HW1 7124   5.070   0.824   1.126
 2075SOL    HW2 7125   5.096   0.920   0.997
 2076SOL     OW 7126   6.860   0.025   3.875
 2076SOL    HW1 7127   6.867   0.125   3.872
 2076SOL    HW2 7128   6.824   7.012   3.788
 2077SOL     OW 7129   0.877   4.357   0.922
 2077SOL    HW1 7130   0.902   4.448   0.891
 2077SOL    HW2 7131   0.902   4.290   0.852
 2078SOL     OW 7132   0.925   2.477   0.331
 2078SOL    HW1 7133   0.986   2.434   0.398
 2078SOL    HW2 7134   0.857   2.532   0.378
 2079SOL     OW 7135   5.543   1.976   3.599
 2079SOL    HW1 7136   5.643   1.979   3.602
 2079SOL    HW2 7137   5.513   1.888   3.564
 2080SOL     OW 7138   2.005   2.974   4.718
 2080SOL    HW1 7139   1.954   3.024   4.789
 2080SOL    HW2 7140   2.004   3.027   4.633
 2081SOL     OW 7141   0.401   5.726   2.862
 2081SOL    HW1 7142   0.478   5.780   2.827
 2081SOL    HW2 7143   0.318   5.781   2.858
 2082SOL     OW 7144   6.779   6.332   4.341
 2082SOL    HW1 7145   6.733   6.380   4.267
 2082SOL    HW2 7146   6.725   6.340   4.425
 2083SOL     OW 7147   1.077   5.888   3.029
 2083SOL    HW1 7148   1.125   5.803   3.048
 2083SOL    HW2 7149   1.105   5.958   3.095
 2084SOL     OW 7150   5.794   2.723   1.168
 2084SOL    HW1 7151   5.732   2.661   1.216
 2084SOL    HW2 7152   5.761   2.737   1.075
 2085SOL     OW 7153   6.020   4.995   6.341
 2085SOL    HW1 7154   6.058   4.962   6.427
 2085SOL    HW2 7155   6.022   4.921   6.273
 2086SOL     OW 7156   5.434   1.436   5.512
 2086SOL    HW1 7157   5.467   1.400   5.425
 2086SOL    HW2 7158   5.512   1.469   5.566
 2087SOL     OW 7159   4.754   1.223   6.170
 2087SOL    HW1 7160   4.705   1.153   6.117
 2087SOL    HW2 7161   4.689   1.293   6.200
 2088SOL     OW 7162   0.612   3.414   5.816
 2088SOL    HW1 7163   0.523   3.411   5.862
 2088SOL    HW2 7164   0.634   3.323   5.780
 2089SOL     OW 7165   3.151   5.139   4.517
 2089SOL    HW1 7166   3.168   5.068   4.449
 2089SOL    HW2 7167   3.080   5.108   4.581
 2090SOL     OW 7168   5.463   2.266   6.211
 2090SOL    HW1 7169   5.524   2.220   6.276
 2090SOL    HW2 7170   5.454   2.211   6.129
 2091SOL     OW 7171   5.432   0.307   1.146
 2091SOL    HW1 7172   5.528   0.306   1.176
 2091SOL    HW2 7173   5.411   0.220   1.102
 2092SOL     OW 7174   3.811   2.997   2.377
 2092SOL    HW1 7175   3.782   3.086   2.343
 2092SOL    HW2 7176   3.875   2.956   2.312
 2093SOL     OW 7177   4.847   0.328   6.935
 2093SOL    HW1 7178   4.940   0.324   6.900
 2093SOL    HW2 7179   4.810   0.236   6.944
 2094SOL     OW 7180   4.685   2.919   1.341
 2094SOL    HW1 7181   4.764   2.976   1.362
 2094SOL    HW2 7182   4.609   2.944   1.402
 2095SOL     OW 7183   4.241   5.894   3.963
 2095SOL    HW1 7184   4.241   5.970   3.898
 2095SOL    HW2 7185   4.285   5.923   4.048
 2096SOL     OW 7186   4.136   0.469   2.980
 2096SOL    HW1 7187   4.203   0.411   2.936
 2096SOL    HW2 7188   4.101   0.536   2.914
 2097SOL     OW 7189   2.886   5.577   5.074
 2097SOL    HW1 7190   2.966   5.558   5.130
 2097SOL    HW2 7191   2.816   5.622   5.129
 2098SOL     OW 7192   1.528   6.694   4.126
 2098SOL    HW1 7193   1.448   6.675   4.070
 2098SOL    HW2 7194   1.523   6.787   4.162
 2099SOL     OW 7195   4.476   1.988   7.007
 2099SOL    HW1 7196   4.484   1.891   6.983
 2099SOL    HW2 7197   4.434   2.038   6.932
 2100SOL     OW 7198   4.610   0.198   0.646
 2100SOL    HW1 7199   4.597   0.294   0.622
 2100SOL    HW2 7200   4.656   0.150   0.570
 2101SOL     OW 7201   0.971   0.087   2.777
 2101SOL    HW1 7202   0.970   0.095   2.877
 2101SOL    HW2 7203   1.050   0.033   2.749
 2102SOL     OW 7204   3.990   3.099   2.598
 2102SOL    HW1 7205   3.945   3.063   2.680
 2102SOL    HW2 7206   3.956   3.052   2.517
 2103SOL     OW 7207   1.569   0.252   1.701
 2103SOL    HW1 7208   1.612   0.163   1.687
 2103SOL    HW2 7209   1.583   0.308   1.619
 2104SOL     OW 7210   0.732   4.776   2.415
 2104SOL    HW1 7211   0.748   4.839   2.339
 2104SOL    HW2 7212   0.743   4.825   2.501
 2105SOL     OW 7213   5.138   6.193   5.315
 2105SOL    HW1 7214   5.237   6.181   5.325
 2105SOL    HW2 7215   5.091   6.111   5.345
 2106SOL     OW 7216   3.444   3.631   0.591
 2106SOL    HW1 7217   3.480   3.672   0.507
 2106SOL    HW2 7218   3.468   3.689   0.669
 2107SOL     OW 7219   6.068   4.710   4.596
 2107SOL    HW1 7220   6.034   4.616   4.594
 2107SOL    HW2 7221   6.010   4.765   4.656
 2108SOL     OW 7222   4.398   6.332   5.800
 2108SOL    HW1 7223   4.336   6.305   5.725
 2108SOL    HW2 7224   4.350   6.393   5.863
 2109SOL     OW 7225   2.690   6.183   2.393
 2109SOL    HW1 7226   2.778   6.137   2.381
 2109SOL    HW2 7227   2.649   6.155   2.480
 2110SOL     OW 7228   3.790   5.937   0.649
 2110SOL    HW1 7229   3.822   5.873   0.579
 2110SOL    HW2 7230   3.712   5.898   0.697
 2111SOL     OW 7231   0.684   2.754   0.246
 2111SOL    HW1 7232   0.632   2.757   0.332
 2111SOL    HW2 7233   0.660   2.672   0.196
 2112SOL     OW 7234   0.709   0.604   6.447
 2112SOL    HW1 7235   0.744   0.513   6.468
 2112SOL    HW2 7236   0.782   0.671   6.462
 2113SOL     OW 7237   6.664   1.602   4.515
 2113SOL    HW1 7238   6.689   1.667   4.443
 2113SOL    HW2 7239   6.602   1.533   4.477
 2114SOL     OW 7240   2.938   0.452   5.824
 2114SOL    HW1 7241   2.898   0.543   5.808
 2114SOL    HW2 7242   2.925   0.427   5.920
 2115SOL     OW 7243   0.284   6.985   4.130
 2115SOL    HW1 7244   0.195   6.975   4.084
 2115SOL    HW2 7245   0.305   6.901   4.181
 2116SOL     OW 7246   2.605   6.731   6.615
 2116SOL    HW1 7247   2.535   6.699   6.551
 2116SOL    HW2 7248   2.607   6.831   6.615
 2117SOL     OW 7249   6.113   2.800   0.982
 2117SOL    HW1 7250   6.069   2.732   0.923
 2117SOL    HW2 7251   6.061   2.809   1.067
 2118SOL     OW 7252   6.934   2.922   2.361
 2118SOL    HW1 7253   7.020   2.871   2.357
 2118SOL    HW2 7254   6.896   2.918   2.453
 2119SOL     OW 7255   2.072   2.825   6.739
 2119SOL    HW1 7256   2.135   2.851   6.812
 2119SOL    HW2 7257   2.071   2.725   6.730
 2120SOL     OW 7258   6.338   1.629   0.874
 2120SOL    HW1 7259   6.422   1.677   0.898
 2120SOL    HW2 7260   6.259   1.680   0.906
 2121SOL     OW 7261   2.864   5.840   1.891
 2121SOL    HW1 7262   2.844   5.753   1.848
 2121SOL    HW2 7263   2.945   5.881   1.848
 2122SOL     OW 7264   0.596   1.338   5.555
 2122SOL    HW1 7265   0.646   1.401   5.614
 2122SOL    HW2 7266   0.650   1.255   5.541
 2123SOL     OW 7267   0.519   4.437   3.090
 2123SOL    HW1 7268   0.451   4.462   3.159
 2123SOL    HW2 7269   0.526   4.337   3.084
 2124SOL     OW 7270   5.660   3.601   6.464
 2124SOL    HW1 7271   5.562   3.588   6.483
 2124SOL    HW2 7272   5.709   3.610   6.551
 2125SOL     OW 7273   2.232   5.226   5.893
 2125SOL    HW1 7274   2.261   5.292   5.823
 2125SOL    HW2 7275   2.290   5.145   5.888
 2126SOL     OW 7276   2.425   5.917   2.412
 2126SOL    HW1 7277   2.522   5.902   2.429
 2126SOL    HW2 7278   2.405   6.015   2.417
 2127SOL     OW 7279   1.835   3.946   4.048
 2127SOL    HW1 7280   1.901   3.986   3.984
 2127SOL    HW2 7281   1.879   3.932   4.137
 2128SOL     OW 7282   5.342   3.148   0.737
 2128SOL    HW1 7283   5.367   3.244   0.731
 2128SOL    HW2 7284   5.246   3.140   0.763
 2129SOL     OW 7285   5.241   4.768   3.901
 2129SOL    HW1 7286   5.319   4.789   3.960
 2129SOL    HW2 7287   5.211   4.674   3.918
 2130SOL     OW 7288   2.274   6.997   3.202
 2130SOL    HW1 7289   2.241   0.025   3.121
 2130SOL    HW2 7290   2.307   6.906   3.176
 2131SOL     OW 7291   5.746   0.056   6.620
 2131SOL    HW1 7292   5.672   7.017   6.652
 2131SOL    HW2 7293   5.732   0.079   6.524
 2132SOL     OW 7294   3.028   1.547   0.535
 2132SOL    HW1 7295   3.077   1.599   0.605
 2132SOL    HW2 7296   3.089   1.478   0.495
 2133SOL     OW 7297   3.413   3.474   2.136
 2133SOL    HW1 7298   3.508   3.486   2.107
 2133SOL    HW2 7299   3.411   3.435   2.228
 2134SOL     OW 7300   2.292   6.913   4.889
 2134SOL    HW1 7301   2.243   6.916   4.976
 2134SOL    HW2 7302   2.229   6.890   4.815
 2135SOL     OW 7303   0.182   5.835   4.040
 2135SOL    HW1 7304   0.204   5.933   4.043
 2135SOL    HW2 7305   0.255   5.786   3.992
 2136SOL     OW 7306   0.334   4.913   3.535
 2136SOL    HW1 7307   0.359   4.856   3.456
 2136SOL    HW2 7308   0.418   4.946   3.579
 2137SOL     OW 7309   0.465   0.233   4.644
 2137SOL    HW1 7310   0.439   0.147   4.601
 2137SOL    HW2 7311   0.433   0.235   4.739
 2138SOL     OW 7312   1.329   1.989   0.099
 2138SOL    HW1 7313   1.330   1.963   0.195
 2138SOL    HW2 7314   1.420   2.023   0.073
 2139SOL     OW 7315   3.920   6.323   4.393
 2139SOL    HW1 7316   3.926   6.245   4.332
 2139SOL    HW2 7317   3.830   6.324   4.436
 2140SOL     OW 7318   1.070   5.754   3.317
 2140SOL    HW1 7319   1.157   5.790   3.282
 2140SOL    HW2 7320   1.088   5.697   3.398
 2141SOL     OW 7321   6.870   0.656   6.933
 2141SOL    HW1 7322   6.815   0.739   6.939
 2141SOL    HW2 7323   6.965   0.680   6.915
 2142SOL     OW 7324   3.876   1.496   3.386
 2142SOL    HW1 7325   3.881   1.582   3.438
 2142SOL    HW2 7326   3.844   1.515   3.293
 2143SOL     OW 7327   3.439   5.459   0.324
 2143SOL    HW1 7328   3.437   5.420   0.232
 2143SOL    HW2 7329   3.380   5.406   0.384
 2144SOL     OW 7330   1.040   1.154   2.131
 2144SOL    HW1 7331   1.084   1.123   2.216
 2144SOL    HW2 7332   1.043   1.254   2.126
 2145SOL     OW 7333   2.618   6.219   3.274
 2145SOL    HW1 7334   2.612   6.138   3.333
 2145SOL    HW2 7335   2.589   6.194   3.181
 2146SOL     OW 7336   3.183   1.978   1.284
 2146SOL    HW1 7337   3.247   1.960   1.359
 2146SOL    HW2 7338   3.089   1.969   1.318
 2147SOL     OW 7339   0.071   0.456   4.070
 2147SOL    HW1 7340   0.060   0.419   4.163
 2147SOL    HW2 7341   0.079   0.556   4.075
 2148SOL     OW 7342   6.469   4.134   3.798
 2148SOL    HW1 7343   6.519   4.186   3.867
 2148SOL    HW2 7344   6.431   4.051   3.840
 2149SOL     OW 7345   2.071   1.152   2.063
 2149SOL    HW1 7346   2.082   1.223   2.132
 2149SOL    HW2 7347   1.988   1.100   2.081
 2150SOL     OW 7348   5.705   0.546   3.152
 2150SOL    HW1 7349   5.743   0.593   3.072
 2150SOL    HW2 7350   5.613   0.513   3.131
 2151SOL     OW 7351   4.814   4.566   5.402
 2151SOL    HW1 7352   4.834   4.542   5.497
 2151SOL    HW2 7353   4.855   4.655   5.380
 2152SOL     OW 7354   6.887   6.400   2.741
 2152SOL    HW1 7355   6.827   6.326   2.708
 2152SOL    HW2 7356   6.980   6.382   2.711
 2153SOL     OW 7357   4.454   2.011   3.628
 2153SOL    HW1 7358   4.489   1.943   3.693
 2153SOL    HW2 7359   4.383   1.969   3.571
 2154SOL     OW 7360   4.531   0.346   4.074
 2154SOL    HW1 7361   4.433   0.340   4.054
 2154SOL    HW2 7362   4.544   0.362   4.172
 2155SOL     OW 7363   5.702   3.866   0.811
 2155SOL    HW1 7364   5.701   3.857   0.712
 2155SOL    HW2 7365   5.669   3.781   0.853
 2156SOL     OW 7366   5.879   5.689   2.589
 2156SOL    HW1 7367   5.940   5.669   2.666
 2156SOL    HW2 7368   5.926   5.668   2.503
 2157SOL     OW 7369   5.116   1.690   4.284
 2157SOL    HW1 7370   5.109   1.651   4.192
 2157SOL    HW2 7371   5.146   1.786   4.277
 2158SOL     OW 7372   4.406   1.114   3.750
 2158SOL    HW1 7373   4.446   1.197   3.787
 2158SOL    HW2 7374   4.314   1.133   3.718
 2159SOL     OW 7375   2.168   1.673   4.624
 2159SOL    HW1 7376   2.200   1.604   4.559
 2159SOL    HW2 7377   2.118   1.628   4.698
 2160SOL     OW 7378   2.384   3.987   0.812
 2160SOL    HW1 7379   2.367   3.931   0.731
 2160SOL    HW2 7380   2.478   4.022   0.809
 2161SOL     OW 7381   4.462   2.468   2.250
 2161SOL    HW1 7382   4.411   2.480   2.165
 2161SOL    HW2 7383   4.400   2.437   2.322
 2162SOL     OW 7384   1.984   1.868   2.791
 2162SOL    HW1 7385   2.014   1.895   2.700
 2162SOL    HW2 7386   2.063   1.838   2.844
 2163SOL     OW 7387   4.368   1.919   1.010
 2163SOL    HW1 7388   4.463   1.938   0.986
 2163SOL    HW2 7389   4.323   2.005   1.036
 2164SOL     OW 7390   6.255   0.239   1.674
 2164SOL    HW1 7391   6.277   0.321   1.726
 2164SOL    HW2 7392   6.339   0.196   1.641
 2165SOL     OW 7393   1.959   6.870   2.078
 2165SOL    HW1 7394   1.896   6.863   2.155
 2165SOL    HW2 7395   1.911   6.853   1.993
 2166SOL     OW 7396   5.645   2.710   4.840
 2166SOL    HW1 7397   5.564   2.738   4.890
 2166SOL    HW2 7398   5.638   2.613   4.816
 2167SOL     OW 7399   3.492   1.538   1.278
 2167SOL    HW1 7400   3.408   1.491   1.248
 2167SOL    HW2 7401   3.478   1.637   1.273
 2168SOL     OW 7402   5.556   6.805   4.625
 2168SOL    HW1 7403   5.620   6.823   4.551
 2168SOL    HW2 7404   5.509   6.719   4.609
 2169SOL     OW 7405   5.034   2.156   5.386
 2169SOL    HW1 7406   5.002   2.251   5.375
 2169SOL    HW2 7407   4.994   2.118   5.469
 2170SOL     OW 7408   4.837   6.011   4.696
 2170SOL    HW1 7409   4.838   6.053   4.787
 2170SOL    HW2 7410   4.751   6.033   4.651
 2171SOL     OW 7411   0.178   2.794   0.440
 2171SOL    HW1 7412   0.100   2.773   0.381
 2171SOL    HW2 7413   0.262   2.757   0.399
 2172SOL     OW 7414   2.751   0.363   3.229
 2172SOL    HW1 7415   2.814   0.440   3.243
 2172SOL    HW2 7416   2.801   0.277   3.236
 2173SOL     OW 7417   4.453   1.909   4.301
 2173SOL    HW1 7418   4.410   1.996   4.326
 2173SOL    HW2 7419   4.552   1.922   4.290
 2174SOL     OW 7420   1.050   6.150   5.506
 2174SOL    HW1 7421   0.998   6.107   5.432
 2174SOL    HW2 7422   1.134   6.188   5.469
 2175SOL     OW 7423   0.947   0.395   6.804
 2175SOL    HW1 7424   1.027   0.404   6.745
 2175SOL    HW2 7425   0.915   0.486   6.831
 2176SOL     OW 7426   2.362   2.724   2.149
 2176SOL    HW1 7427   2.269   2.748   2.120
 2176SOL    HW2 7428   2.362   2.705   2.247
 2177SOL     OW 7429   0.873   1.837   1.956
 2177SOL    HW1 7430   0.798   1.771   1.969
 2177SOL    HW2 7431   0.925   1.812   1.874
 2178SOL     OW 7432   6.618   5.739   0.204
 2178SOL    HW1 7433   6.653   5.655   0.246
 2178SOL    HW2 7434   6.587   5.719   0.111
 2179SOL     OW 7435   1.955   3.682   4.080
 2179SOL    HW1 7436   1.886   3.735   4.031
 2179SOL    HW2 7437   1.983   3.604   4.024
 2180SOL     OW 7438   3.465   2.871   2.925
 2180SOL    HW1 7439   3.368   2.890   2.906
 2180SOL    HW2 7440   3.513   2.856   2.839
 2181SOL     OW 7441   3.725   0.012   1.043
 2181SOL    HW1 7442   3.724   0.071   0.963
 2181SOL    HW2 7443   3.810   0.024   1.094
 2182SOL     OW 7444   4.883   4.160   0.376
 2182SOL    HW1 7445   4.836   4.171   0.288
 2182SOL    HW2 7446   4.825   4.197   0.449
 2183SOL     OW 7447   4.713   2.729   1.951
 2183SOL    HW1 7448   4.704   2.709   2.049
 2183SOL    HW2 7449   4.732   2.826   1.939
 2184SOL     OW 7450   4.643   2.412   6.023
 2184SOL    HW1 7451   4.545   2.424   6.042
 2184SOL    HW2 7452   4.659   2.420   5.925
 2185SOL     OW 7453   6.936   6.602   2.082
 2185SOL    HW1 7454   6.938   6.607   1.982
 2185SOL    HW2 7455   0.007   6.581   2.116
 2186SOL     OW 7456   6.911   4.307   3.302
 2186SOL    HW1 7457   6.909   4.394   3.252
 2186SOL    HW2 7458   6.907   4.231   3.237
 2187SOL     OW 7459   6.606   0.027   6.864
 2187SOL    HW1 7460   6.519   6.997   6.869
 2187SOL    HW2 7461   6.618   0.065   6.772
 2188SOL     OW 7462   4.824   2.966   3.846
 2188SOL    HW1 7463   4.739   2.921   3.873
 2188SOL    HW2 7464   4.837   2.957   3.747
 2189SOL     OW 7465   3.166   0.019   6.351
 2189SOL    HW1 7466   3.160   0.104   6.300
 2189SOL    HW2 7467   3.149   0.037   6.448
 2190SOL     OW 7468   5.940   3.836   1.247
 2190SOL    HW1 7469   5.859   3.892   1.260
 2190SOL    HW2 7470   6.008   3.886   1.194
 2191SOL     OW 7471   3.775   0.111   0.554
 2191SOL    HW1 7472   3.769   0.191   0.495
 2191SOL    HW2 7473   3.865   0.069   0.544
 2192SOL     OW 7474   4.468   6.613   1.983
 2192SOL    HW1 7475   4.494   6.588   2.076
 2192SOL    HW2 7476   4.390   6.558   1.954
 2193SOL     OW 7477   0.417   6.117   4.653
 2193SOL    HW1 7478   0.331   6.132   4.605
 2193SOL    HW2 7479   0.452   6.026   4.631
 2194SOL     OW 7480   2.588   6.906   3.014
 2194SOL    HW1 7481   2.516   6.858   3.064
 2194SOL    HW2 7482   2.552   6.937   2.926
 2195SOL     OW 7483   0.028   4.802   2.588
 2195SOL    HW1 7484   6.949   4.798   2.599
 2195SOL    HW2 7485   0.056   4.740   2.514
 2196SOL     OW 7486   4.495   3.803   6.776
 2196SOL    HW1 7487   4.552   3.779   6.698
 2196SOL    HW2 7488   4.552   3.819   6.856
 2197SOL     OW 7489   4.746   3.824   0.231
 2197SOL    HW1 7490   4.702   3.734   0.233
 2197SOL    HW2 7491   4.802   3.836   0.314
 2198SOL     OW 7492   0.967   4.661   6.508
 2198SOL    HW1 7493   0.983   4.723   6.585
 2198SOL    HW2 7494   0.885   4.607   6.525
 2199SOL     OW 7495   3.652   1.826   3.675
 2199SOL    HW1 7496   3.571   1.783   3.713
 2199SOL    HW2 7497   3.644   1.829   3.575
 2200SOL     OW 7498   3.760   0.334   3.701
 2200SOL    HW1 7499   3.826   0.370   3.635
 2200SOL    HW2 7500   3.698   0.270   3.655
 2201SOL     OW 7501   5.192   4.532   4.038
 2201SOL    HW1 7502   5.261   4.460   4.027
 2201SOL    HW2 7503   5.187   4.558   4.134
 2202SOL     OW 7504   4.579   6.040   4.593
 2202SOL    HW1 7505   4.504   6.099   4.562
 2202SOL    HW2 7506   4.541   5.961   4.641
 2203SOL     OW 7507   2.108   1.601   3.110
 2203SOL    HW1 7508   2.141   1.521   3.060
 2203SOL    HW2 7509   2.150   1.683   3.073
 2204SOL     OW 7510   3.922   2.330   0.897
 2204SOL    HW1 7511   3.967   2.241   0.898
 2204SOL    HW2 7512   3.900   2.355   0.803
 2205SOL     OW 7513   3.269   0.386   2.307
 2205SOL    HW1 7514   3.266   0.482   2.280
 2205SOL    HW2 7515   3.192   0.337   2.267
 2206SOL     OW 7516   1.719   4.898   0.113
 2206SOL    HW1 7517   1.782   4.896   0.191
 2206SOL    HW2 7518   1.686   4.806   0.094
 2207SOL     OW 7519   6.652   4.339   5.353
 2207SOL    HW1 7520   6.585   4.410   5.332
 2207SOL    HW2 7521   6.605   4.259   5.390
 2208SOL     OW 7522   6.532   4.736   2.524
 2208SOL    HW1 7523   6.486   4.801   2.463
 2208SOL    HW2 7524   6.579   4.667   2.468
 2209SOL     OW 7525   6.732   6.920   2.325
 2209SOL    HW1 7526   6.795   6.997   2.330
 2209SOL    HW2 7527   6.708   6.903   2.229
 2210SOL     OW 7528   2.478   4.491   3.679
 2210SOL    HW1 7529   2.419   4.483   3.759
 2210SOL    HW2 7530   2.476   4.584   3.644
 2211SOL     OW 7531   5.326   0.959   5.421
 2211SOL    HW1 7532   5.269   0.914   5.489
 2211SOL    HW2 7533   5.316   0.913   5.333
 2212SOL     OW 7534   2.523   6.031   6.026
 2212SOL    HW1 7535   2.590   5.967   5.989
 2212SOL    HW2 7536   2.431   6.004   5.995
 2213SOL     OW 7537   4.655   1.223   3.564
 2213SOL    HW1 7538   4.740   1.176   3.542
 2213SOL    HW2 7539   4.611   1.177   3.641
 2214SOL     OW 7540   4.307   0.386   4.437
 2214SOL    HW1 7541   4.272   0.295   4.416
 2214SOL    HW2 7542   4.388   0.378   4.495
 2215SOL     OW 7543   6.128   2.014   6.606
 2215SOL    HW1 7544   6.208   2.011   6.547
 2215SOL    HW2 7545   6.045   2.003   6.551
 2216SOL     OW 7546   3.152   1.290   2.402
 2216SOL    HW1 7547   3.145   1.233   2.484
 2216SOL    HW2 7548   3.248   1.314   2.387
 2217SOL     OW 7549   3.062   6.867   0.881
 2217SOL    HW1 7550   3.092   6.798   0.815
 2217SOL    HW2 7551   2.967   6.891   0.864
 2218SOL     OW 7552   6.557   1.011   2.244
 2218SOL    HW1 7553   6.547   0.920   2.204
 2218SOL    HW2 7554   6.475   1.033   2.297
 2219SOL     OW 7555   2.361   2.248   3.161
 2219SOL    HW1 7556   2.444   2.302   3.146
 2219SOL    HW2 7557   2.321   2.272   3.249
 2220SOL     OW 7558   1.730   6.087   3.060
 2220SOL    HW1 7559   1.752   6.004   3.111
 2220SOL    HW2 7560   1.654   6.069   2.997
 2221SOL     OW 7561   0.080   6.940   5.048
 2221SOL    HW1 7562   0.025   6.926   5.130
 2221SOL    HW2 7563   0.175   6.913   5.066
 2222SOL     OW 7564   5.604   5.628   3.396
 2222SOL    HW1 7565   5.504   5.632   3.389
 2222SOL    HW2 7566   5.634   5.533   3.392
 2223SOL     OW 7567   6.359   6.764   2.388
 2223SOL    HW1 7568   6.446   6.760   2.435
 2223SOL    HW2 7569   6.285   6.741   2.451
 2224SOL     OW 7570   0.862   5.588   1.475
 2224SOL    HW1 7571   0.951   5.606   1.516
 2224SOL    HW2 7572   0.867   5.604   1.376
 2225SOL     OW 7573   0.227   4.522   0.659
 2225SOL    HW1 7574   0.224   4.475   0.571
 2225SOL    HW2 7575   0.203   4.619   0.646
 2226SOL     OW 7576   3.318   4.087   2.927
 2226SOL    HW1 7577   3.264   4.003   2.934
 2226SOL    HW2 7578   3.343   4.119   3.018
 2227SOL     OW 7579   2.002   1.938   4.926
 2227SOL    HW1 7580   2.100   1.921   4.924
 2227SOL    HW2 7581   1.985   2.036   4.915
 2228SOL     OW 7582   1.194   4.771   4.265
 2228SOL    HW1 7583   1.224   4.737   4.355
 2228SOL    HW2 7584   1.206   4.870   4.261
 2229SOL     OW 7585   5.405   5.459   2.699
 2229SOL    HW1 7586   5.330   5.519   2.673
 2229SOL    HW2 7587   5.388   5.421   2.790
 2230SOL     OW 7588   1.529   5.321   2.934
 2230SOL    HW1 7589   1.600   5.351   2.998
 2230SOL    HW2 7590   1.557   5.342   2.841
 2231SOL     OW 7591   2.049   5.637   0.474
 2231SOL    HW1 7592   2.075   5.728   0.440
 2231SOL    HW2 7593   2.019   5.645   0.569
 2232SOL     OW 7594   6.103   2.438   3.571
 2232SOL    HW1 7595   6.094   2.535   3.592
 2232SOL    HW2 7596   6.198   2.409   3.585
 2233SOL     OW 7597   3.752   1.440   0.595
 2233SOL    HW1 7598   3.672   1.497   0.577
 2233SOL    HW2 7599   3.802   1.476   0.673
 2234SOL     OW 7600   4.456   2.462   1.194
 2234SOL    HW1 7601   4.438   2.514   1.277
 2234SOL    HW2 7602   4.552   2.470   1.169
 2235SOL     OW 7603   2.014   2.984   1.859
 2235SOL    HW1 7604   2.065   3.042   1.796
 2235SOL    HW2 7605   1.982   2.902   1.811
 2236SOL     OW 7606   1.019   3.714   5.378
 2236SOL    HW1 7607   1.100   3.661   5.400
 2236SOL    HW2 7608   1.047   3.801   5.337
 2237SOL     OW 7609   5.912   2.475   3.107
 2237SOL    HW1 7610   5.814   2.460   3.121
 2237SOL    HW2 7611   5.927   2.517   3.017
 2238SOL     OW 7612   4.867   6.464   0.109
 2238SOL    HW1 7613   4.953   6.464   0.059
 2238SOL    HW2 7614   4.792   6.444   0.046
 2239SOL     OW 7615   6.586   5.892   1.709
 2239SOL    HW1 7616   6.616   5.854   1.797
 2239SOL    HW2 7617   6.637   5.976   1.690
 2240SOL     OW 7618   0.370   4.072   1.592
 2240SOL    HW1 7619   0.373   4.150   1.529
 2240SOL    HW2 7620   0.356   3.988   1.539
 2241SOL     OW 7621   0.727   0.122   3.661
 2241SOL    HW1 7622   0.695   0.043   3.714
 2241SOL    HW2 7623   0.713   0.206   3.714
 2242SOL     OW 7624   2.092   1.634   3.468
 2242SOL    HW1 7625   2.007   1.629   3.415
 2242SOL    HW2 7626   2.090   1.714   3.527
 2243SOL     OW 7627   1.055   0.596   4.510
 2243SOL    HW1 7628   1.052   0.693   4.537
 2243SOL    HW2 7629   1.138   0.579   4.457
 2244SOL     OW 7630   3.330   6.969   4.517
 2244SOL    HW1 7631   3.338   0.011   4.595
 2244SOL    HW2 7632   3.380   7.007   4.439
 2245SOL     OW 7633   0.723   2.489   1.728
 2245SOL    HW1 7634   0.731   2.441   1.641
 2245SOL    HW2 7635   0.684   2.429   1.797
 2246SOL     OW 7636   0.506   4.524   4.598
 2246SOL    HW1 7637   0.553   4.459   4.538
 2246SOL    HW2 7638   0.499   4.485   4.690
 2247SOL     OW 7639   2.386   2.356   3.960
 2247SOL    HW1 7640   2.365   2.382   3.865
 2247SOL    HW2 7641   2.318   2.395   4.021
 2248SOL     OW 7642   5.195   3.870   5.917
 2248SOL    HW1 7643   5.232   3.956   5.881
 2248SOL    HW2 7644   5.155   3.887   6.007
 2249SOL     OW 7645   5.524   6.020   4.771
 2249SOL    HW1 7646   5.446   6.022   4.708
 2249SOL    HW2 7647   5.583   6.099   4.755
 2250SOL     OW 7648   4.231   4.727   2.242
 2250SOL    HW1 7649   4.209   4.630   2.245
 2250SOL    HW2 7650   4.309   4.742   2.181
 2251SOL     OW 7651   0.581   1.650   5.819
 2251SOL    HW1 7652   0.678   1.667   5.834
 2251SOL    HW2 7653   0.560   1.555   5.841
 2252SOL     OW 7654   4.044   1.421   6.498
 2252SOL    HW1 7655   3.958   1.390   6.538
 2252SOL    HW2 7656   4.077   1.353   6.434
 2253SOL     OW 7657   0.731   3.952   1.082
 2253SOL    HW1 7658   0.681   3.957   1.169
 2253SOL    HW2 7659   0.817   4.004   1.091
 2254SOL     OW 7660   1.461   5.315   5.948
 2254SOL    HW1 7661   1.555   5.281   5.958
 2254SOL    HW2 7662   1.463   5.414   5.933
 2255SOL     OW 7663   6.993   3.875   6.517
 2255SOL    HW1 7664   0.065   3.907   6.496
 2255SOL    HW2 7665   6.983   3.780   6.488
 2256SOL     OW 7666   2.719   5.548   2.531
 2256SOL    HW1 7667   2.756   5.479   2.469
 2256SOL    HW2 7668   2.784   5.567   2.604
 2257SOL     OW 7669   1.073   4.848   6.199
 2257SOL    HW1 7670   1.093   4.750   6.208
 2257SOL    HW2 7671   1.157   4.897   6.176
 2258SOL     OW 7672   2.351   6.644   5.897
 2258SOL    HW1 7673   2.413   6.644   5.976
 2258SOL    HW2 7674   2.264   6.602   5.922
 2259SOL     OW 7675   5.978   1.672   6.402
 2259SOL    HW1 7676   5.892   1.635   6.436
 2259SOL    HW2 7677   6.020   1.606   6.340
 2260SOL     OW 7678   4.770   3.356   1.432
 2260SOL    HW1 7679   4.781   3.257   1.429
 2260SOL    HW2 7680   4.676   3.378   1.459
 2261SOL     OW 7681   1.962   6.721   5.270
 2261SOL    HW1 7682   1.948   6.638   5.217
 2261SOL    HW2 7683   1.880   6.777   5.268
 2262SOL     OW 7684   2.480   1.679   4.029
 2262SOL    HW1 7685   2.559   1.725   4.070
 2262SOL    HW2 7686   2.501   1.583   4.013
 2263SOL     OW 7687   0.283   4.423   5.701
 2263SOL    HW1 7688   0.271   4.455   5.608
 2263SOL    HW2 7689   0.251   4.328   5.708
 2264SOL     OW 7690   3.210   2.945   4.387
 2264SOL    HW1 7691   3.195   2.861   4.439
 2264SOL    HW2 7692   3.301   2.981   4.409
 2265SOL     OW 7693   0.336   6.276   4.160
 2265SOL    HW1 7694   0.325   6.182   4.191
 2265SOL    HW2 7695   0.270   6.296   4.088
 2266SOL     OW 7696   6.844   0.766   5.466
 2266SOL    HW1 7697   6.902   0.688   5.489
 2266SOL    HW2 7698   6.892   0.825   5.401
 2267SOL     OW 7699   6.140   1.655   4.805
 2267SOL    HW1 7700   6.166   1.694   4.716
 2267SOL    HW2 7701   6.202   1.579   4.827
 2268SOL     OW 7702   0.330   6.822   0.264
 2268SOL    HW1 7703   0.248   6.864   0.301
 2268SOL    HW2 7704   0.393   6.799   0.338
 2269SOL     OW 7705   6.760   5.799   2.800
 2269SOL    HW1 7706   6.799   5.707   2.807
 2269SOL    HW2 7707   6.825   5.859   2.753
 2270SOL     OW 7708   3.456   2.853   3.221
 2270SOL    HW1 7709   3.414   2.869   3.132
 2270SOL    HW2 7710   3.515   2.773   3.217
 2271SOL     OW 7711   1.426   3.840   2.599
 2271SOL    HW1 7712   1.356   3.845   2.528
 2271SOL    HW2 7713   1.503   3.898   2.574
 2272SOL     OW 7714   4.584   0.744   6.270
 2272SOL    HW1 7715   4.531   0.753   6.186
 2272SOL    HW2 7716   4.568   0.653   6.310
 2273SOL     OW 7717   6.981   0.912   1.720
 2273SOL    HW1 7718   6.938   0.896   1.632
 2273SOL    HW2 7719   6.959   0.836   1.782
 2274SOL     OW 7720   6.604   5.040   3.420
 2274SOL    HW1 7721   6.580   4.988   3.502
 2274SOL    HW2 7722   6.521   5.070   3.374
 2275SOL     OW 7723   4.669   6.180   3.861
 2275SOL    HW1 7724   4.690   6.088   3.828
 2275SOL    HW2 7725   4.613   6.228   3.793
 2276SOL     OW 7726   3.442   5.914   2.948
 2276SOL    HW1 7727   3.458   5.860   3.031
 2276SOL    HW2 7728   3.394   5.857   2.881
 2277SOL     OW 7729   3.641   2.894   2.662
 2277SOL    HW1 7730   3.664   2.838   2.582
 2277SOL    HW2 7731   3.585   2.972   2.633
 2278SOL     OW 7732   4.395   4.907   1.639
 2278SOL    HW1 7733   4.388   4.971   1.563
 2278SOL    HW2 7734   4.483   4.860   1.635
 2279SOL     OW 7735   5.789   4.255   5.501
 2279SOL    HW1 7736   5.858   4.326   5.517
 2279SOL    HW2 7737   5.780   4.239   5.403
 2280SOL     OW 7738   5.482   1.143   5.553
 2280SOL    HW1 7739   5.442   1.233   5.540
 2280SOL    HW2 7740   5.415   1.072   5.530
 2281SOL     OW 7741   2.446   0.520   0.529
 2281SOL    HW1 7742   2.529   0.558   0.489
 2281SOL    HW2 7743   2.379   0.502   0.456
 2282SOL     OW 7744   3.634   0.314   2.654
 2282SOL    HW1 7745   3.655   0.394   2.711
 2282SOL    HW2 7746   3.595   0.344   2.568
 2283SOL     OW 7747   0.969   3.041   0.913
 2283SOL    HW1 7748   0.934   3.130   0.883
 2283SOL    HW2 7749   1.036   3.055   0.986
 2284SOL     OW 7750   1.711   2.544   0.463
 2284SOL    HW1 7751   1.743   2.623   0.514
 2284SOL    HW2 7752   1.673   2.574   0.375
 2285SOL     OW 7753   2.798   2.956   0.364
 2285SOL    HW1 7754   2.750   2.982   0.281
 2285SOL    HW2 7755   2.800   3.033   0.428
 2286SOL     OW 7756   6.632   5.426   4.180
 2286SOL    HW1 7757   6.549   5.465   4.140
 2286SOL    HW2 7758   6.664   5.485   4.255
 2287SOL     OW 7759   2.402   1.698   0.918
 2287SOL    HW1 7760   2.466   1.625   0.941
 2287SOL    HW2 7761   2.378   1.749   1.001
 2288SOL     OW 7762   3.185   5.890   4.432
 2288SOL    HW1 7763   3.228   5.880   4.522
 2288SOL    HW2 7764   3.171   5.987   4.413
 2289SOL     OW 7765   3.953   0.243   5.768
 2289SOL    HW1 7766   4.004   0.169   5.723
 2289SOL    HW2 7767   3.933   0.216   5.862
 2290SOL     OW 7768   2.052   3.560   6.050
 2290SOL    HW1 7769   2.093   3.508   5.975
 2290SOL    HW2 7770   2.102   3.647   6.061
 2291SOL     OW 7771   3.363   2.421   0.422
 2291SOL    HW1 7772   3.424   2.494   0.392
 2291SOL    HW2 7773   3.385   2.395   0.516
 2292SOL     OW 7774   5.304   2.113   2.818
 2292SOL    HW1 7775   5.289   2.124   2.916
 2292SOL    HW2 7776   5.237   2.168   2.767
 2293SOL     OW 7777   0.433   0.834   0.056
 2293SOL    HW1 7778   0.359   0.881   0.104
 2293SOL    HW2 7779   0.400   0.801   6.988
 2294SOL     OW 7780   6.848   2.286   5.558
 2294SOL    HW1 7781   6.872   2.232   5.478
 2294SOL    HW2 7782   6.855   2.383   5.536
 2295SOL     OW 7783   5.792   5.509   0.127
 2295SOL    HW1 7784   5.752   5.503   0.035
 2295SOL    HW2 7785   5.723   5.484   0.195
 2296SOL     OW 7786   3.912   6.158   4.840
 2296SOL    HW1 7787   3.862   6.088   4.790
 2296SOL    HW2 7788   3.953   6.223   4.776
 2297SOL     OW 7789   6.546   2.809   0.198
 2297SOL    HW1 7790   6.475   2.858   0.148
 2297SOL    HW2 7791   6.550   2.714   0.167
 2298SOL     OW 7792   1.886   3.992   5.158
 2298SOL    HW1 7793   1.806   4.015   5.103
 2298SOL    HW2 7794   1.859   3.975   5.253
 2299SOL     OW 7795   5.862   3.297   4.557
 2299SOL    HW1 7796   5.949   3.297   4.509
 2299SOL    HW2 7797   5.878   3.300   4.656
 2300SOL     OW 7798   4.053   1.034   2.921
 2300SOL    HW1 7799   4.101   1.010   3.006
 2300SOL    HW2 7800   3.961   1.066   2.943
 2301SOL     OW 7801   4.573   3.181   5.958
 2301SOL    HW1 7802   4.496   3.120   5.973
 2301SOL    HW2 7803   4.640   3.169   6.031
 2302SOL     OW 7804   0.181   3.463   4.853
 2302SOL    HW1 7805   0.239   3.394   4.897
 2302SOL    HW2 7806   0.086   3.431   4.853
 2303SOL     OW 7807   2.499   2.287   6.743
 2303SOL    HW1 7808   2.542   2.343   6.672
 2303SOL    HW2 7809   2.403   2.272   6.721
 2304SOL     OW 7810   3.658   0.134   3.553
 2304SOL    HW1 7811   3.713   0.081   3.618
 2304SOL    HW2 7812   3.661   0.090   3.463
 2305SOL     OW 7813   2.354   6.210   4.703
 2305SOL    HW1 7814   2.369   6.113   4.683
 2305SOL    HW2 7815   2.376   6.228   4.799
 2306SOL     OW 7816   0.829   4.585   5.622
 2306SOL    HW1 7817   0.782   4.609   5.537
 2306SOL    HW2 7818   0.774   4.616   5.700
 2307SOL     OW 7819   6.066   4.049   5.458
 2307SOL    HW1 7820   6.042   4.005   5.545
 2307SOL    HW2 7821   6.014   4.007   5.384
 2308SOL     OW 7822   1.240   6.331   3.267
 2308SOL    HW1 7823   1.206   6.238   3.254
 2308SOL    HW2 7824   1.172   6.396   3.235
 2309SOL     OW 7825   1.842   1.172   4.517
 2309SOL    HW1 7826   1.749   1.164   4.482
 2309SOL    HW2 7827   1.842   1.225   4.601
 2310SOL     OW 7828   5.269   6.184   0.124
 2310SOL    HW1 7829   5.171   6.194   0.104
 2310SOL    HW2 7830   5.301   6.095   0.090
 2311SOL     OW 7831   2.800   5.691   0.537
 2311SOL    HW1 7832   2.739   5.771   0.532
 2311SOL    HW2 7833   2.874   5.702   0.471
 2312SOL     OW 7834   2.527   5.051   2.101
 2312SOL    HW1 7835   2.488   5.017   2.015
 2312SOL    HW2 7836   2.523   4.978   2.170
 2313SOL     OW 7837   5.293   5.110   1.250
 2313SOL    HW1 7838   5.262   5.015   1.260
 2313SOL    HW2 7839   5.223   5.164   1.204
 2314SOL     OW 7840   1.930   4.494   2.630
 2314SOL    HW1 7841   2.001   4.525   2.694
 2314SOL    HW2 7842   1.863   4.567   2.617
 2315SOL     OW 7843   3.489   1.980   6.464
 2315SOL    HW1 7844   3.527   2.045   6.530
 2315SOL    HW2 7845   3.496   2.019   6.372
 2316SOL     OW 7846   6.031   4.155   1.330
 2316SOL    HW1 7847   6.097   4.148   1.256
 2316SOL    HW2 7848   6.070   4.208   1.405
 2317SOL     OW 7849   0.237   6.213   3.603
 2317SOL    HW1 7850   0.228   6.194   3.505
 2317SOL    HW2 7851   0.332   6.203   3.631
 2318SOL     OW 7852   6.681   1.595   3.490
 2318SOL    HW1 7853   6.677   1.503   3.529
 2318SOL    HW2 7854   6.768   1.638   3.515
 2319SOL     OW 7855   0.696   5.666   3.132
 2319SOL    HW1 7856   0.705   5.738   3.063
 2319SOL    HW2 7857   0.661   5.706   3.217
 2320SOL     OW 7858   6.693   4.527   3.534
 2320SOL    HW1 7859   6.614   4.530   3.473
 2320SOL    HW2 7860   6.761   4.595   3.506
 2321SOL     OW 7861   2.954   4.794   3.660
 2321SOL    HW1 7862   2.895   4.744   3.597
 2321SOL    HW2 7863   3.050   4.780   3.635
 2322SOL     OW 7864   1.855   1.909   4.551
 2322SOL    HW1 7865   1.906   1.918   4.636
 2322SOL    HW2 7866   1.853   1.813   4.524
 2323SOL     OW 7867   5.392   3.774   1.448
 2323SOL    HW1 7868   5.353   3.858   1.411
 2323SOL    HW2 7869   5.334   3.740   1.522
 2324SOL     OW 7870   0.387   5.236   4.142
 2324SOL    HW1 7871   0.341   5.318   4.106
 2324SOL    HW2 7872   0.334   5.201   4.219
 2325SOL     OW 7873   6.336   1.960   0.914
 2325SOL    HW1 7874   6.264   1.919   0.970
 2325SOL    HW2 7875   6.423   1.957   0.963
 2326SOL     OW 7876   0.446   5.612   0.176
 2326SOL    HW1 7877   0.407   5.530   0.135
 2326SOL    HW2 7878   0.417   5.692   0.123
 2327SOL     OW 7879   4.658   1.636   3.224
 2327SOL    HW1 7880   4.660   1.722   3.173
 2327SOL    HW2 7881   4.622   1.563   3.165
 2328SOL     OW 7882   5.980   5.385   3.945
 2328SOL    HW1 7883   6.075   5.360   3.927
 2328SOL    HW2 7884   5.966   5.481   3.921
 2329SOL     OW 7885   1.438   6.544   3.282
 2329SOL    HW1 7886   1.535   6.526   3.266
 2329SOL    HW2 7887   1.384   6.463   3.258
 2330SOL     OW 7888   1.940   4.397   7.014
 2330SOL    HW1 7889   1.862   4.410   0.055
 2330SOL    HW2 7890   2.024   4.401   0.047
 2331SOL     OW 7891   1.407   4.562   5.194
 2331SOL    HW1 7892   1.447   4.633   5.136
 2331SOL    HW2 7893   1.338   4.511   5.143
 2332SOL     OW 7894   0.072   3.351   6.641
 2332SOL    HW1 7895   6.993   3.337   6.641
 2332SOL    HW2 7896   0.093   3.445   6.616
 2333SOL     OW 7897   2.293   4.503   3.873
 2333SOL    HW1 7898   2.243   4.586   3.847
 2333SOL    HW2 7899   2.236   4.446   3.932
 2334SOL     OW 7900   2.079   0.045   6.196
 2334SOL    HW1 7901   1.999   0.104   6.211
 2334SOL    HW2 7902   2.051   6.983   6.147
 2335SOL     OW 7903   4.679   4.247   4.558
 2335SOL    HW1 7904   4.742   4.274   4.631
 2335SOL    HW2 7905   4.705   4.158   4.522
 2336SOL     OW 7906   4.287   1.352   5.427
 2336SOL    HW1 7907   4.240   1.285   5.484
 2336SOL    HW2 7908   4.351   1.304   5.367
 2337SOL     OW 7909   6.198   0.794   5.053
 2337SOL    HW1 7910   6.108   0.830   5.079
 2337SOL    HW2 7911   6.196   0.694   5.052
 2338SOL     OW 7912   1.698   6.736   0.045
 2338SOL    HW1 7913   1.704   6.672   0.121
 2338SOL    HW2 7914   1.646   6.694   6.991
 2339SOL     OW 7915   3.218   4.283   5.985
 2339SOL    HW1 7916   3.249   4.361   5.930
 2339SOL    HW2 7917   3.133   4.308   6.031
 2340SOL     OW 7918   4.077   5.042   3.987
 2340SOL    HW1 7919   4.156   5.036   3.925
 2340SOL    HW2 7920   4.003   4.985   3.953
 2341SOL     OW 7921   0.698   4.031   6.036
 2341SOL    HW1 7922   0.785   4.058   6.077
 2341SOL    HW2 7923   0.627   4.030   6.107
 2342SOL     OW 7924   4.777   1.222   5.447
 2342SOL    HW1 7925   4.786   1.300   5.508
 2342SOL    HW2 7926   4.789   1.252   5.352
 2343SOL     OW 7927   0.827   5.780   2.038
 2343SOL    HW1 7928   0.850   5.842   1.962
 2343SOL    HW2 7929   0.910   5.744   2.078
 2344SOL     OW 7930   1.950   0.456   3.021
 2344SOL    HW1 7931   1.921   0.365   3.051
 2344SOL    HW2 7932   2.013   0.495   3.088
 2345SOL     OW 7933   1.473   2.805   1.838
 2345SOL    HW1 7934   1.460   2.794   1.739
 2345SOL    HW2 7935   1.553   2.753   1.867
 2346SOL     OW 7936   5.588   3.021   5.268
 2346SOL    HW1 7937   5.549   2.978   5.187
 2346SOL    HW2 7938   5.520   3.082   5.310
 2347SOL     OW 7939   1.986   4.227   1.244
 2347SOL    HW1 7940   1.895   4.266   1.260
 2347SOL    HW2 7941   2.014   4.174   1.324
 2348SOL     OW 7942   3.316   0.206   1.926
 2348SOL    HW1 7943   3.408   0.232   1.896
 2348SOL    HW2 7944   3.262   0.176   1.848
 2349SOL     OW 7945   5.645   2.476   6.820
 2349SOL    HW1 7946   5.717   2.457   6.887
 2349SOL    HW2 7947   5.606   2.390   6.789
 2350SOL     OW 7948   2.412   5.746   5.156
 2350SOL    HW1 7949   2.331   5.793   5.191
 2350SOL    HW2 7950   2.442   5.792   5.073
 2351SOL     OW 7951   1.705   5.241   3.406
 2351SOL    HW1 7952   1.786   5.224   3.463
 2351SOL    HW2 7953   1.666   5.155   3.375
 2352SOL     OW 7954   6.189   5.946   6.448
 2352SOL    HW1 7955   6.156   5.912   6.361
 2352SOL    HW2 7956   6.241   6.031   6.433
 2353SOL     OW 7957   3.112   2.829   6.339
 2353SOL    HW1 7958   3.124   2.758   6.408
 2353SOL    HW2 7959   3.019   2.867   6.346
 2354SOL     OW 7960   3.472   1.649   2.129
 2354SOL    HW1 7961   3.378   1.675   2.107
 2354SOL    HW2 7962   3.506   1.705   2.205
 2355SOL     OW 7963   0.164   1.541   2.189
 2355SOL    HW1 7964   0.098   1.535   2.114
 2355SOL    HW2 7965   0.242   1.481   2.169
 2356SOL     OW 7966   3.490   4.971   3.819
 2356SOL    HW1 7967   3.559   5.032   3.780
 2356SOL    HW2 7968   3.509   4.956   3.916
 2357SOL     OW 7969   0.879   5.542   1.198
 2357SOL    HW1 7970   0.902   5.618   1.138
 2357SOL    HW2 7971   0.790   5.505   1.173
 2358SOL     OW 7972   2.414   0.816   5.185
 2358SOL    HW1 7973   2.324   0.792   5.150
 2358SOL    HW2 7974   2.480   0.816   5.109
 2359SOL     OW 7975   3.725   2.679   5.505
 2359SOL    HW1 7976   3.752   2.616   5.577
 2359SOL    HW2 7977   3.642   2.645   5.460
 2360SOL     OW 7978   3.537   5.251   1.728
 2360SOL    HW1 7979   3.549   5.288   1.820
 2360SOL    HW2 7980   3.446   5.213   1.718
 2361SOL     OW 7981   3.584   5.015   1.107
 2361SOL    HW1 7982   3.629   4.981   1.190
 2361SOL    HW2 7983   3.651   5.060   1.048
 2362SOL     OW 7984   2.908   4.856   4.247
 2362SOL    HW1 7985   2.855   4.823   4.169
 2362SOL    HW2 7986   2.884   4.804   4.329
 2363SOL     OW 7987   2.538   3.721   1.548
 2363SOL    HW1 7988   2.614   3.761   1.599
 2363SOL    HW2 7989   2.511   3.635   1.592
 2364SOL     OW 7990   4.487   0.896   2.678
 2364SOL    HW1 7991   4.541   0.971   2.718
 2364SOL    HW2 7992   4.391   0.909   2.700
 2365SOL     OW 7993   5.951   3.541   2.600
 2365SOL    HW1 7994   5.876   3.526   2.535
 2365SOL    HW2 7995   5.914   3.579   2.685
 2366SOL     OW 7996   4.241   5.378   4.984
 2366SOL    HW1 7997   4.306   5.367   4.909
 2366SOL    HW2 7998   4.151   5.347   4.955
 2367SOL     OW 7999   5.727   4.637   5.558
 2367SOL    HW1 8000   5.694   4.640   5.652
 2367SOL    HW2 8001   5.691   4.716   5.508
 2368SOL     OW 8002   5.004   1.727   5.473
 2368SOL    HW1 8003   5.029   1.699   5.565
 2368SOL    HW2 8004   5.082   1.713   5.411
 2369SOL     OW 8005   3.845   2.131   3.895
 2369SOL    HW1 8006   3.912   2.200   3.921
 2369SOL    HW2 8007   3.831   2.135   3.796
 2370SOL     OW 8008   4.057   2.378   0.519
 2370SOL    HW1 8009   4.101   2.295   0.487
 2370SOL    HW2 8010   4.089   2.399   0.611
 2371SOL     OW 8011   2.364   6.461   2.978
 2371SOL    HW1 8012   2.400   6.444   3.069
 2371SOL    HW2 8013   2.439   6.474   2.913
 2372SOL     OW 8014   5.856   6.873   6.263
 2372SOL    HW1 8015   5.815   6.858   6.173
 2372SOL    HW2 8016   5.872   6.970   6.277
 2373SOL     OW 8017   6.501   4.163   5.742
 2373SOL    HW1 8018   6.451   4.110   5.673
 2373SOL    HW2 8019   6.595   4.178   5.710
 2374SOL     OW 8020   0.439   5.393   2.330
 2374SOL    HW1 8021   0.339   5.396   2.337
 2374SOL    HW2 8022   0.471   5.300   2.345
 2375SOL     OW 8023   2.124   0.552   4.674
 2375SOL    HW1 8024   2.152   0.579   4.767
 2375SOL    HW2 8025   2.024   0.554   4.669
 2376SOL     OW 8026   5.685   2.895   4.015
 2376SOL    HW1 8027   5.631   2.812   4.006
 2376SOL    HW2 8028   5.627   2.975   3.999
 2377SOL     OW 8029   3.773   4.634   6.009
 2377SOL    HW1 8030   3.783   4.537   5.990
 2377SOL    HW2 8031   3.730   4.680   5.931
 2378SOL     OW 8032   0.546   0.347   0.595
 2378SOL    HW1 8033   0.575   0.441   0.616
 2378SOL    HW2 8034   0.627   0.290   0.579
 2379SOL     OW 8035   0.486   4.482   2.716
 2379SOL    HW1 8036   0.485   4.548   2.641
 2379SOL    HW2 8037   0.578   4.477   2.755
 2380SOL     OW 8038   4.889   5.803   6.610
 2380SOL    HW1 8039   4.962   5.852   6.657
 2380SOL    HW2 8040   4.912   5.705   6.606
 2381SOL     OW 8041   2.315   4.175   3.854
 2381SOL    HW1 8042   2.223   4.147   3.880
 2381SOL    HW2 8043   2.325   4.172   3.754
 2382SOL     OW 8044   6.391   5.823   2.500
 2382SOL    HW1 8045   6.323   5.771   2.553
 2382SOL    HW2 8046   6.353   5.847   2.411
 2383SOL     OW 8047   4.711   3.896   5.908
 2383SOL    HW1 8048   4.798   3.946   5.901
 2383SOL    HW2 8049   4.727   3.800   5.887
 2384SOL     OW 8050   0.816   1.963   3.257
 2384SOL    HW1 8051   0.898   1.908   3.269
 2384SOL    HW2 8052   0.817   2.006   3.167
 2385SOL     OW 8053   0.782   0.976   1.225
 2385SOL    HW1 8054   0.779   0.957   1.126
 2385SOL    HW2 8055   0.769   0.890   1.275
 2386SOL     OW 8056   6.920   4.588   5.979
 2386SOL    HW1 8057   6.907   4.530   5.899
 2386SOL    HW2 8058   6.980   4.542   6.044
 2387SOL     OW 8059   6.798   6.893   3.235
 2387SOL    HW1 8060   6.726   6.830   3.208
 2387SOL    HW2 8061   6.758   6.970   3.284
 2388SOL     OW 8062   2.146   4.384   3.618
 2388SOL    HW1 8063   2.229   4.330   3.605
 2388SOL    HW2 8064   2.113   4.417   3.530
 2389SOL     OW 8065   3.389   0.385   2.955
 2389SOL    HW1 8066   3.340   0.415   3.037
 2389SOL    HW2 8067   3.339   0.310   2.912
 2390SOL     OW 8068   5.334   3.262   5.150
 2390SOL    HW1 8069   5.424   3.301   5.133
 2390SOL    HW2 8070   5.319   3.186   5.087
 2391SOL     OW 8071   2.373   4.132   6.494
 2391SOL    HW1 8072   2.325   4.137   6.581
 2391SOL    HW2 8073   2.412   4.040   6.482
 2392SOL     OW 8074   4.015   5.294   5.560
 2392SOL    HW1 8075   4.053   5.206   5.534
 2392SOL    HW2 8076   3.917   5.297   5.537
 2393SOL     OW 8077   4.864   5.154   0.056
 2393SOL    HW1 8078   4.938   5.086   0.050
 2393SOL    HW2 8079   4.805   5.132   0.134
 2394SOL     OW 8080   6.949   2.481   2.926
 2394SOL    HW1 8081   7.011   2.406   2.949
 2394SOL    HW2 8082   6.937   2.541   3.005
 2395SOL     OW 8083   0.710   2.823   3.393
 2395SOL    HW1 8084   0.742   2.738   3.352
 2395SOL    HW2 8085   0.756   2.901   3.349
 2396SOL     OW 8086   0.495   0.814   5.757
 2396SOL    HW1 8087   0.437   0.740   5.723
 2396SOL    HW2 8088   0.525   0.793   5.850
 2397SOL     OW 8089   2.461   4.696   5.842
 2397SOL    HW1 8090   2.456   4.616   5.902
 2397SOL    HW2 8091   2.478   4.778   5.897
 2398SOL     OW 8092   3.931   6.365   5.221
 2398SOL    HW1 8093   3.858   6.414   5.268
 2398SOL    HW2 8094   3.899   6.273   5.197
 2399SOL     OW 8095   3.191   1.777   2.209
 2399SOL    HW1 8096   3.118   1.794   2.275
 2399SOL    HW2 8097   3.153   1.773   2.117
 2400SOL     OW 8098   1.044   1.356   6.488
 2400SOL    HW1 8099   1.079   1.433   6.435
 2400SOL    HW2 8100   1.080   1.271   6.451
 2401SOL     OW 8101   1.404   6.869   0.743
 2401SOL    HW1 8102   1.500   6.863   0.715
 2401SOL    HW2 8103   1.365   6.954   0.711
 2402SOL     OW 8104   0.462   3.275   1.434
 2402SOL    HW1 8105   0.532   3.345   1.438
 2402SOL    HW2 8106   0.498   3.189   1.470
 2403SOL     OW 8107   3.047   4.208   5.277
 2403SOL    HW1 8108   2.952   4.180   5.291
 2403SOL    HW2 8109   3.060   4.301   5.311
 2404SOL     OW 8110   6.409   1.860   2.080
 2404SOL    HW1 8111   6.401   1.815   1.991
 2404SOL    HW2 8112   6.372   1.952   2.075
 2405SOL     OW 8113   2.668   3.481   0.343
 2405SOL    HW1 8114   2.607   3.529   0.405
 2405SOL    HW2 8115   2.745   3.540   0.319
 2406SOL     OW 8116   4.662   6.261   5.310
 2406SOL    HW1 8117   4.728   6.254   5.385
 2406SOL    HW2 8118   4.634   6.170   5.281
 2407SOL     OW 8119   2.170   1.940   3.733
 2407SOL    HW1 8120   2.139   1.968   3.643
 2407SOL    HW2 8121   2.258   1.893   3.726
 2408SOL     OW 8122   4.694   6.602   5.361
 2408SOL    HW1 8123   4.599   6.604   5.331
 2408SOL    HW2 8124   4.749   6.548   5.297
 2409SOL     OW 8125   1.596   2.869   0.016
 2409SOL    HW1 8126   1.674   2.843   6.980
 2409SOL    HW2 8127   1.623   2.867   0.112
 2410SOL     OW 8128   6.410   3.443   4.584
 2410SOL    HW1 8129   6.334   3.409   4.641
 2410SOL    HW2 8130   6.463   3.510   4.636
 2411SOL     OW 8131   3.215   0.985   0.995
 2411SOL    HW1 8132   3.172   0.912   1.048
 2411SOL    HW2 8133   3.190   1.074   1.033
 2412SOL     OW 8134   3.788   2.669   6.797
 2412SOL    HW1 8135   3.745   2.578   6.797
 2412SOL    HW2 8136   3.877   2.663   6.752
 2413SOL     OW 8137   0.090   3.686   6.062
 2413SOL    HW1 8138   0.043   3.632   6.132
 2413SOL    HW2 8139   0.053   3.662   5.972
 2414SOL     OW 8140   6.205   1.788   5.100
 2414SOL    HW1 8141   6.274   1.735   5.051
 2414SOL    HW2 8142   6.117   1.782   5.052
 2415SOL     OW 8143   3.204   3.776   5.306
 2415SOL    HW1 8144   3.261   3.856   5.286
 2415SOL    HW2 8145   3.198   3.764   5.405
 2416SOL     OW 8146   6.584   3.170   3.165
 2416SOL    HW1 8147   6.640   3.113   3.104
 2416SOL    HW2 8148   6.609   3.266   3.152
 2417SOL     OW 8149   3.517   2.678   1.659
 2417SOL    HW1 8150   3.529   2.777   1.665
 2417SOL    HW2 8151   3.460   2.655   1.580
 2418SOL     OW 8152   6.119   3.604   6.698
 2418SOL    HW1 8153   6.109   3.507   6.673
 2418SOL    HW2 8154   6.065   3.661   6.636
 2419SOL     OW 8155   3.168   1.406   2.816
 2419SOL    HW1 8156   3.114   1.483   2.780
 2419SOL    HW2 8157   3.145   1.393   2.913
 2420SOL     OW 8158   0.403   3.021   1.535
 2420SOL    HW1 8159   0.336   2.973   1.591
 2420SOL    HW2 8160   0.389   2.998   1.439
 2421SOL     OW 8161   2.791   0.315   3.655
 2421SOL    HW1 8162   2.826   0.225   3.681
 2421SOL    HW2 8163   2.810   0.381   3.728
 2422SOL     OW 8164   3.915   6.800   0.420
 2422SOL    HW1 8165   3.832   6.844   0.387
 2422SOL    HW2 8166   3.967   6.864   0.476
 2423SOL     OW 8167   3.813   4.953   4.790
 2423SOL    HW1 8168   3.831   4.907   4.877
 2423SOL    HW2 8169   3.894   4.950   4.732
 2424SOL     OW 8170   4.679   0.409   6.611
 2424SOL    HW1 8171   4.621   0.390   6.691
 2424SOL    HW2 8172   4.632   0.473   6.550
 2425SOL     OW 8173   4.641   5.148   4.427
 2425SOL    HW1 8174   4.734   5.182   4.420
 2425SOL    HW2 8175   4.640   5.064   4.482
 2426SOL     OW 8176   3.024   2.253   5.321
 2426SOL    HW1 8177   3.085   2.319   5.277
 2426SOL    HW2 8178   3.052   2.240   5.416
 2427SOL     OW 8179   4.710   2.257   6.651
 2427SOL    HW1 8180   4.791   2.315   6.658
 2427SOL    HW2 8181   4.676   2.235   6.742
 2428SOL     OW 8182   1.687   1.960   2.336
 2428SOL    HW1 8183   1.654   1.875   2.379
 2428SOL    HW2 8184   1.714   1.941   2.242
 2429SOL     OW 8185   5.215   5.109   1.714
 2429SOL    HW1 8186   5.160   5.123   1.797
 2429SOL    HW2 8187   5.188   5.023   1.671
 2430SOL     OW 8188   6.953   6.219   6.748
 2430SOL    HW1 8189   6.991   6.244   6.837
 2430SOL    HW2 8190   6.859   6.252   6.742
 2431SOL     OW 8191   2.146   2.617   1.181
 2431SOL    HW1 8192   2.167   2.523   1.156
 2431SOL    HW2 8193   2.146   2.675   1.099
 2432SOL     OW 8194   2.743   5.925   2.689
 2432SOL    HW1 8195   2.703   6.016   2.707
 2432SOL    HW2 8196   2.833   5.920   2.732
 2433SOL     OW 8197   0.334   4.141   4.041
 2433SOL    HW1 8198   0.272   4.217   4.018
 2433SOL    HW2 8199   0.428   4.166   4.017
 2434SOL     OW 8200   3.911   2.140   3.159
 2434SOL    HW1 8201   3.888   2.191   3.242
 2434SOL    HW2 8202   4.005   2.106   3.165
 2435SOL     OW 8203   5.579   6.579   5.939
 2435SOL    HW1 8204   5.494   6.590   5.887
 2435SOL    HW2 8205   5.640   6.516   5.891
 2436SOL     OW 8206   0.240   3.016   0.034
 2436SOL    HW1 8207   0.197   3.065   6.978
 2436SOL    HW2 8208   0.201   3.049   0.121
 2437SOL     OW 8209   0.819   5.013   1.244
 2437SOL    HW1 8210   0.723   5.010   1.216
 2437SOL    HW2 8211   0.835   5.097   1.297
 2438SOL     OW 8212   4.058   1.855   4.339
 2438SOL    HW1 8213   4.107   1.778   4.298
 2438SOL    HW2 8214   4.114   1.895   4.412
 2439SOL     OW 8215   0.526   6.013   6.682
 2439SOL    HW1 8216   0.586   5.946   6.639
 2439SOL    HW2 8217   0.579   6.072   6.743
 2440SOL     OW 8218   0.129   2.700   5.154
 2440SOL    HW1 8219   0.112   2.609   5.193
 2440SOL    HW2 8220   0.228   2.717   5.152
 2441SOL     OW 8221   6.652   0.131   0.112
 2441SOL    HW1 8222   6.738   0.178   0.134
 2441SOL    HW2 8223   6.645   0.119   0.013
 2442SOL     OW 8224   5.554   3.052   3.173
 2442SOL    HW1 8225   5.476   3.044   3.236
 2442SOL    HW2 8226   5.541   3.131   3.114
 2443SOL     OW 8227   0.628   3.086   1.223
 2443SOL    HW1 8228   0.625   2.990   1.249
 2443SOL    HW2 8229   0.719   3.123   1.245
 2444SOL     OW 8230   3.370   5.156   2.680
 2444SOL    HW1 8231   3.397   5.069   2.638
 2444SOL    HW2 8232   3.330   5.216   2.611
 2445SOL     OW 8233   0.758   1.952   1.281
 2445SOL    HW1 8234   0.667   1.981   1.249
 2445SOL    HW2 8235   0.757   1.943   1.381
 2446SOL     OW 8236   6.602   5.579   0.897
 2446SOL    HW1 8237   6.639   5.588   0.990
 2446SOL    HW2 8238   6.546   5.497   0.891
 2447SOL     OW 8239   2.055   0.203   6.655
 2447SOL    HW1 8240   2.120   0.127   6.656
 2447SOL    HW2 8241   2.068   0.257   6.573
 2448SOL     OW 8242   5.275   0.727   4.530
 2448SOL    HW1 8243   5.306   0.773   4.446
 2448SOL    HW2 8244   5.176   0.710   4.524
 2449SOL     OW 8245   1.987   3.730   1.367
 2449SOL    HW1 8246   2.016   3.729   1.463
 2449SOL    HW2 8247   2.060   3.695   1.310
 2450SOL     OW 8248   6.622   6.646   5.566
 2450SOL    HW1 8249   6.607   6.547   5.561
 2450SOL    HW2 8250   6.616   6.676   5.662
 2451SOL     OW 8251   1.655   6.994   0.078
 2451SOL    HW1 8252   1.674   6.895   0.080
 2451SOL    HW2 8253   1.607   0.001   0.161
 2452SOL     OW 8254   1.780   2.215   3.757
 2452SOL    HW1 8255   1.736   2.295   3.798
 2452SOL    HW2 8256   1.755   2.209   3.660
 2453SOL     OW 8257   0.987   1.836   6.547
 2453SOL    HW1 8258   0.957   1.926   6.516
 2453SOL    HW2 8259   0.994   1.835   6.647
 2454SOL     OW 8260   2.585   6.513   0.344
 2454SOL    HW1 8261   2.609   6.464   0.260
 2454SOL    HW2 8262   2.579   6.611   0.325
 2455SOL     OW 8263   5.151   1.832   6.851
 2455SOL    HW1 8264   5.188   1.784   6.931
 2455SOL    HW2 8265   5.075   1.780   6.813
 2456SOL     OW 8266   0.883   3.366   5.900
 2456SOL    HW1 8267   0.825   3.437   5.939
 2456SOL    HW2 8268   0.957   3.345   5.964
 2457SOL     OW 8269   5.539   1.666   5.918
 2457SOL    HW1 8270   5.516   1.602   5.991
 2457SOL    HW2 8271   5.455   1.707   5.882
 2458SOL     OW 8272   0.863   6.940   2.045
 2458SOL    HW1 8273   0.924   6.919   1.968
 2458SOL    HW2 8274   0.871   0.016   2.069
 2459SOL     OW 8275   1.671   6.483   1.294
 2459SOL    HW1 8276   1.606   6.452   1.224
 2459SOL    HW2 8277   1.648   6.440   1.382
 2460SOL     OW 8278   0.648   0.894   4.152
 2460SOL    HW1 8279   0.554   0.901   4.120
 2460SOL    HW2 8280   0.649   0.852   4.243
 2461SOL     OW 8281   2.374   1.978   3.397
 2461SOL    HW1 8282   2.386   1.879   3.399
 2461SOL    HW2 8283   2.458   2.023   3.428
 2462SOL     OW 8284   0.456   5.879   0.506
 2462SOL    HW1 8285   0.487   5.785   0.494
 2462SOL    HW2 8286   0.374   5.894   0.451
 2463SOL     OW 8287   6.980   6.253   0.465
 2463SOL    HW1 8288   6.891   6.275   0.504
 2463SOL    HW2 8289   0.030   6.255   0.537
 2464SOL     OW 8290   0.687   2.788   4.684
 2464SOL    HW1 8291   0.772   2.838   4.705
 2464SOL    HW2 8292   0.626   2.793   4.763
 2465SOL     OW 8293   6.927   1.727   0.192
 2465SOL    HW1 8294   6.977   1.667   0.256
 2465SOL    HW2 8295   6.860   1.672   0.142
 2466SOL     OW 8296   1.210   1.776   1.195
 2466SOL    HW1 8297   1.183   1.707   1.127
 2466SOL    HW2 8298   1.131   1.798   1.252
 2467SOL     OW 8299   5.203   2.490   4.918
 2467SOL    HW1 8300   5.118   2.476   4.867
 2467SOL    HW2 8301   5.195   2.447   5.008
 2468SOL     OW 8302   3.069   6.969   4.578
 2468SOL    HW1 8303   3.165   6.959   4.552
 2468SOL    HW2 8304   3.044   6.898   4.643
 2469SOL     OW 8305   2.810   1.730   6.228
 2469SOL    HW1 8306   2.825   1.829   6.231
 2469SOL    HW2 8307   2.712   1.711   6.236
 2470SOL     OW 8308   2.011   5.147   6.293
 2470SOL    HW1 8309   1.947   5.219   6.322
 2470SOL    HW2 8310   2.003   5.132   6.195
 2471SOL     OW 8311   2.545   5.648   2.749
 2471SOL    HW1 8312   2.599   5.623   2.668
 2471SOL    HW2 8313   2.480   5.720   2.724
 2472SOL     OW 8314   5.038   0.607   3.094
 2472SOL    HW1 8315   5.112   0.665   3.127
 2472SOL    HW2 8316   4.957   0.663   3.078
 2473SOL     OW 8317   0.784   4.280   4.670
 2473SOL    HW1 8318   0.747   4.189   4.691
 2473SOL    HW2 8319   0.751   4.311   4.581
 2474SOL     OW 8320   1.928   0.456   1.162
 2474SOL    HW1 8321   1.927   0.555   1.178
 2474SOL    HW2 8322   1.847   0.430   1.109
 2475SOL     OW 8323   5.776   1.877   0.466
 2475SOL    HW1 8324   5.832   1.905   0.544
 2475SOL    HW2 8325   5.683   1.911   0.477
 2476SOL     OW 8326   4.693   6.780   6.913
 2476SOL    HW1 8327   4.595   6.798   6.908
 2476SOL    HW2 8328   4.708   6.683   6.935
 2477SOL     OW 8329   3.509   1.366   3.911
 2477SOL    HW1 8330   3.497   1.441   3.975
 2477SOL    HW2 8331   3.446   1.377   3.834
 2478SOL     OW 8332   3.202   0.124   4.215
 2478SOL    HW1 8333   3.290   0.076   4.222
 2478SOL    HW2 8334   3.151   0.087   4.137
 2479SOL     OW 8335   6.660   4.382   1.748
 2479SOL    HW1 8336   6.658   4.350   1.842
 2479SOL    HW2 8337   6.650   4.305   1.685
 2480SOL     OW 8338   2.946   2.005   1.687
 2480SOL    HW1 8339   3.044   2.003   1.706
 2480SOL    HW2 8340   2.904   2.078   1.740
 2481SOL     OW 8341   2.968   0.062   2.517
 2481SOL    HW1 8342   2.872   0.068   2.544
 2481SOL    HW2 8343   3.003   6.992   2.542
 2482SOL     OW 8344   0.325   3.334   0.003
 2482SOL    HW1 8345   0.378   3.408   6.983
 2482SOL    HW2 8346   0.262   3.297   6.955
 2483SOL     OW 8347   2.608   2.026   1.400
 2483SOL    HW1 8348   2.606   2.072   1.311
 2483SOL    HW2 8349   2.519   1.986   1.418
 2484SOL     OW 8350   4.550   0.950   6.476
 2484SOL    HW1 8351   4.539   0.880   6.406
 2484SOL    HW2 8352   4.463   0.997   6.490
 2485SOL     OW 8353   0.593   1.415   0.008
 2485SOL    HW1 8354   0.570   1.452   0.098
 2485SOL    HW2 8355   0.509   1.389   6.981
 2486SOL     OW 8356   6.321   5.993   3.100
 2486SOL    HW1 8357   6.410   6.037   3.107
 2486SOL    HW2 8358   6.304   5.940   3.183
 2487SOL     OW 8359   4.308   6.277   6.793
 2487SOL    HW1 8360   4.349   6.360   6.753
 2487SOL    HW2 8361   4.263   6.224   6.721
 2488SOL     OW 8362   0.710   3.775   0.397
 2488SOL    HW1 8363   0.671   3.864   0.422
 2488SOL    HW2 8364   0.644   3.703   0.417
 2489SOL     OW 8365   6.538   5.572   4.764
 2489SOL    HW1 8366   6.449   5.543   4.728
 2489SOL    HW2 8367   6.523   5.630   4.844
 2490SOL     OW 8368   2.977   6.046   2.377
 2490SOL    HW1 8369   3.068   6.030   2.414
 2490SOL    HW2 8370   2.920   5.966   2.392
 2491SOL     OW 8371   4.083   4.672   1.870
 2491SOL    HW1 8372   4.144   4.596   1.845
 2491SOL    HW2 8373   4.120   4.757   1.831
 2492SOL     OW 8374   6.744   4.962   1.980
 2492SOL    HW1 8375   6.795   4.967   2.066
 2492SOL    HW2 8376   6.735   5.053   1.941
 2493SOL     OW 8377   6.198   6.085   0.795
 2493SOL    HW1 8378   6.205   6.167   0.852
 2493SOL    HW2 8379   6.102   6.057   0.788
 2494SOL     OW 8380   6.549   3.914   1.154
 2494SOL    HW1 8381   6.534   3.929   1.057
 2494SOL    HW2 8382   6.567   4.002   1.199
 2495SOL     OW 8383   6.729   2.958   2.156
 2495SOL    HW1 8384   6.807   2.951   2.217
 2495SOL    HW2 8385   6.653   3.001   2.205
 2496SOL     OW 8386   5.219   3.741   5.670
 2496SOL    HW1 8387   5.313   3.756   5.638
 2496SOL    HW2 8388   5.210   3.773   5.764
 2497SOL     OW 8389   0.619   6.975   4.064
 2497SOL    HW1 8390   0.540   0.011   4.040
 2497SOL    HW2 8391   0.588   6.881   4.081
 2498SOL     OW 8392   2.034   3.431   4.646
 2498SOL    HW1 8393   1.945   3.407   4.686
 2498SOL    HW2 8394   2.101   3.360   4.667
 2499SOL     OW 8395   5.547   3.471   1.367
 2499SOL    HW1 8396   5.588   3.533   1.434
 2499SOL    HW2 8397   5.598   3.385   1.366
 2500SOL     OW 8398   3.471   3.869   2.290
 2500SOL    HW1 8399   3.402   3.797   2.282
 2500SOL    HW2 8400   3.561   3.831   2.271
 2501SOL     OW 8401   6.399   5.126   4.683
 2501SOL    HW1 8402   6.328   5.156   4.619
 2501SOL    HW2 8403   6.362   5.127   4.776
 2502SOL     OW 8404   2.645   6.069   3.835
 2502SOL    HW1 8405   2.697   6.020   3.904
 2502SOL    HW2 8406   2.695   6.069   3.749
 2503SOL     OW 8407   2.252   0.289   5.195
 2503SOL    HW1 8408   2.251   0.189   5.204
 2503SOL    HW2 8409   2.344   0.323   5.211
 2504SOL     OW 8410   4.004   0.876   3.379
 2504SOL    HW1 8411   4.099   0.869   3.410
 2504SOL    HW2 8412   3.988   0.968   3.343
 2505SOL     OW 8413   5.550   4.782   4.366
 2505SOL    HW1 8414   5.520   4.765   4.273
 2505SOL    HW2 8415   5.584   4.696   4.406
 2506SOL     OW 8416   6.309   4.768   6.103
 2506SOL    HW1 8417   6.300   4.670   6.084
 2506SOL    HW2 8418   6.337   4.781   6.198
 2507SOL     OW 8419   5.913   3.516   3.940
 2507SOL    HW1 8420   5.981   3.455   3.899
 2507SOL    HW2 8421   5.829   3.465   3.959
 2508SOL     OW 8422   5.631   1.075   3.926
 2508SOL    HW1 8423   5.613   1.171   3.906
 2508SOL    HW2 8424   5.725   1.053   3.902
 2509SOL     OW 8425   0.171   3.170   5.984
 2509SOL    HW1 8426   0.267   3.193   5.973
 2509SOL    HW2 8427   0.152   3.082   5.942
 2510SOL     OW 8428   2.938   3.647   2.537
 2510SOL    HW1 8429   2.894   3.565   2.574
 2510SOL    HW2 8430   2.919   3.654   2.439
 2511SOL     OW 8431   2.344   0.950   4.333
 2511SOL    HW1 8432   2.377   1.038   4.298
 2511SOL    HW2 8433   2.414   0.907   4.390
 2512SOL     OW 8434   3.215   4.882   3.556
 2512SOL    HW1 8435   3.195   4.960   3.616
 2512SOL    HW2 8436   3.311   4.882   3.531
 2513SOL     OW 8437   1.949   5.866   6.466
 2513SOL    HW1 8438   1.913   5.830   6.552
 2513SOL    HW2 8439   1.954   5.966   6.472
 2514SOL     OW 8440   0.860   2.228   2.600
 2514SOL    HW1 8441   0.936   2.293   2.599
 2514SOL    HW2 8442   0.799   2.245   2.523
 2515SOL     OW 8443   6.929   1.867   1.299
 2515SOL    HW1 8444   6.840   1.831   1.327
 2515SOL    HW2 8445   6.998   1.794   1.303
 2516SOL     OW 8446   6.833   2.623   4.923
 2516SOL    HW1 8447   6.877   2.702   4.966
 2516SOL    HW2 8448   6.784   2.570   4.992
 2517SOL     OW 8449   0.250   1.353   4.767
 2517SOL    HW1 8450   0.273   1.449   4.784
 2517SOL    HW2 8451   0.150   1.343   4.763
 2518SOL     OW 8452   3.305   3.656   1.309
 2518SOL    HW1 8453   3.348   3.640   1.398
 2518SOL    HW2 8454   3.360   3.722   1.257
 2519SOL     OW 8455   1.364   0.980   0.243
 2519SOL    HW1 8456   1.307   0.961   0.163
 2519SOL    HW2 8457   1.326   0.932   0.322
 2520SOL     OW 8458   2.814   2.819   1.280
 2520SOL    HW1 8459   2.763   2.835   1.364
 2520SOL    HW2 8460   2.875   2.896   1.262
 2521SOL     OW 8461   5.296   1.084   5.023
 2521SOL    HW1 8462   5.353   1.159   5.056
 2521SOL    HW2 8463   5.216   1.122   4.976
 2522SOL     OW 8464   2.014   1.947   0.136
 2522SOL    HW1 8465   1.936   1.931   0.075
 2522SOL    HW2 8466   2.096   1.965   0.080
 2523SOL     OW 8467   1.002   5.958   5.676
 2523SOL    HW1 8468   0.990   5.877   5.617
 2523SOL    HW2 8469   1.010   6.039   5.619
 2524SOL     OW 8470   0.429   2.309   4.826
 2524SOL    HW1 8471   0.371   2.234   4.857
 2524SOL    HW2 8472   0.414   2.325   4.728
 2525SOL     OW 8473   6.532   2.696   6.433
 2525SOL    HW1 8474   6.516   2.699   6.334
 2525SOL    HW2 8475   6.462   2.639   6.476
 2526SOL     OW 8476   2.098   1.122   0.949
 2526SOL    HW1 8477   2.116   1.211   0.990
 2526SOL    HW2 8478   2.003   1.118   0.916
 2527SOL     OW 8479   3.847   5.392   0.304
 2527SOL    HW1 8480   3.914   5.408   0.231
 2527SOL    HW2 8481   3.759   5.432   0.279
 2528SOL     OW 8482   4.352   5.628   6.169
 2528SOL    HW1 8483   4.278   5.572   6.133
 2528SOL    HW2 8484   4.315   5.714   6.203
 2529SOL     OW 8485   0.146   5.939   5.349
 2529SOL    HW1 8486   0.196   6.000   5.288
 2529SOL    HW2 8487   0.143   5.847   5.309
 2530SOL     OW 8488   2.140   5.938   6.910
 2530SOL    HW1 8489   2.059   5.983   6.949
 2530SOL    HW2 8490   2.116   5.845   6.882
 2531SOL     OW 8491   0.213   4.079   6.148
 2531SOL    HW1 8492   0.249   4.004   6.093
 2531SOL    HW2 8493   0.275   4.158   6.142
 2532SOL     OW 8494   5.561   6.098   2.833
 2532SOL    HW1 8495   5.568   6.018   2.892
 2532SOL    HW2 8496   5.474   6.096   2.783
 2533SOL     OW 8497   4.419   0.636   3.725
 2533SOL    HW1 8498   4.362   0.677   3.796
 2533SOL    HW2 8499   4.484   0.572   3.766
 2534SOL     OW 8500   4.769   1.614   2.507
 2534SOL    HW1 8501   4.827   1.548   2.460
 2534SOL    HW2 8502   4.769   1.701   2.457
 2535SOL     OW 8503   3.281   2.830   6.126
 2535SOL    HW1 8504   3.208   2.825   6.057
 2535SOL    HW2 8505   3.243   2.811   6.217
 2536SOL     OW 8506   1.163   0.394   0.749
 2536SOL    HW1 8507   1.180   0.489   0.777
 2536SOL    HW2 8508   1.168   0.334   0.829
 2537SOL     OW 8509   4.410   6.784   4.818
 2537SOL    HW1 8510   4.425   6.853   4.889
 2537SOL    HW2 8511   4.318   6.796   4.780
 2538SOL     OW 8512   5.789   4.034   3.403
 2538SOL    HW1 8513   5.703   4.017   3.451
 2538SOL    HW2 8514   5.854   3.961   3.424
 2539SOL     OW 8515   5.018   2.041   4.849
 2539SOL    HW1 8516   5.013   1.968   4.917
 2539SOL    HW2 8517   4.972   2.123   4.884
 2540SOL     OW 8518   2.544   2.167   1.660
 2540SOL    HW1 8519   2.555   2.121   1.572
 2540SOL    HW2 8520   2.447   2.187   1.675
 2541SOL     OW 8521   2.906   0.213   4.295
 2541SOL    HW1 8522   3.002   0.193   4.278
 2541SOL    HW2 8523   2.898   0.293   4.354
 2542SOL     OW 8524   1.935   5.574   5.990
 2542SOL    HW1 8525   1.876   5.513   5.936
 2542SOL    HW2 8526   1.951   5.533   6.080
 2543SOL     OW 8527   1.088   0.531   3.778
 2543SOL    HW1 8528   1.060   0.591   3.702
 2543SOL    HW2 8529   1.008   0.511   3.834
 2544SOL     OW 8530   0.799   6.039   5.814
 2544SOL    HW1 8531   0.895   6.023   5.791
 2544SOL    HW2 8532   0.787   6.041   5.913
 2545SOL     OW 8533   2.528   6.098   3.043
 2545SOL    HW1 8534   2.544   6.011   3.089
 2545SOL    HW2 8535   2.483   6.081   2.955
 2546SOL     OW 8536   6.457   0.949   1.758
 2546SOL    HW1 8537   6.492   0.873   1.703
 2546SOL    HW2 8538   6.510   0.957   1.842
 2547SOL     OW 8539   0.337   3.637   5.062
 2547SOL    HW1 8540   0.258   3.598   5.015
 2547SOL    HW2 8541   0.408   3.659   4.995
 2548SOL     OW 8542   0.195   0.716   6.203
 2548SOL    HW1 8543   0.187   0.627   6.159
 2548SOL    HW2 8544   0.207   0.704   6.302
 2549SOL     OW 8545   5.579   2.122   2.809
 2549SOL    HW1 8546   5.481   2.123   2.830
 2549SOL    HW2 8547   5.616   2.031   2.829
 2550SOL     OW 8548   5.312   5.322   0.104
 2550SOL    HW1 8549   5.311   5.223   0.090
 2550SOL    HW2 8550   5.221   5.353   0.130
 2551SOL     OW 8551   1.259   4.576   6.054
 2551SOL    HW1 8552   1.194   4.585   6.129
 2551SOL    HW2 8553   1.292   4.482   6.049
 2552SOL     OW 8554   1.555   5.780   3.375
 2552SOL    HW1 8555   1.642   5.828   3.390
 2552SOL    HW2 8556   1.531   5.727   3.456
 2553SOL     OW 8557   4.748   3.372   0.436
 2553SOL    HW1 8558   4.660   3.373   0.482
 2553SOL    HW2 8559   4.802   3.452   0.463
 2554SOL     OW 8560   1.069   1.787   0.784
 2554SOL    HW1 8561   1.122   1.843   0.848
 2554SOL    HW2 8562   0.974   1.781   0.815
 2555SOL     OW 8563   0.017   0.113   6.232
 2555SOL    HW1 8564   0.100   0.159   6.200
 2555SOL    HW2 8565   0.002   0.031   6.177
 2556SOL     OW 8566   4.163   4.897   0.296
 2556SOL    HW1 8567   4.173   4.861   0.388
 2556SOL    HW2 8568   4.253   4.922   0.259
 2557SOL     OW 8569   2.265   5.083   6.700
 2557SOL    HW1 8570   2.242   5.165   6.648
 2557SOL    HW2 8571   2.362   5.061   6.687
 2558SOL     OW 8572   4.041   0.722   5.356
 2558SOL    HW1 8573   4.125   0.718   5.301
 2558SOL    HW2 8574   4.035   0.641   5.414
 2559SOL     OW 8575   0.587   5.056   4.999
 2559SOL    HW1 8576   0.546   5.039   4.909
 2559SOL    HW2 8577   0.590   5.154   5.017
 2560SOL     OW 8578   6.220   0.383   0.392
 2560SOL    HW1 8579   6.279   0.462   0.374
 2560SOL    HW2 8580   6.234   0.352   0.486
 2561SOL     OW 8581   3.308   5.952   4.118
 2561SOL    HW1 8582   3.307   5.860   4.080
 2561SOL    HW2 8583   3.400   5.975   4.148
 2562SOL     OW 8584   2.296   3.847   0.584
 2562SOL    HW1 8585   2.314   3.826   0.488
 2562SOL    HW2 8586   2.210   3.805   0.612
 2563SOL     OW 8587   1.755   0.592   1.977
 2563SOL    HW1 8588   1.783   0.520   1.914
 2563SOL    HW2 8589   1.734   0.675   1.926
 2564SOL     OW 8590   1.540   6.310   2.459
 2564SOL    HW1 8591   1.621   6.361   2.487
 2564SOL    HW2 8592   1.468   6.374   2.433
 2565SOL     OW 8593   0.829   0.436   1.191
 2565SOL    HW1 8594   0.902   0.427   1.258
 2565SOL    HW2 8595   0.740   0.433   1.238
 2566SOL     OW 8596   2.397   6.580   4.987
 2566SOL    HW1 8597   2.354   6.648   4.927
 2566SOL    HW2 8598   2.466   6.625   5.043
 2567SOL     OW 8599   1.035   0.625   0.486
 2567SOL    HW1 8600   1.000   0.535   0.512
 2567SOL    HW2 8601   0.958   0.685   0.466
 2568SOL     OW 8602   5.718   3.827   0.527
 2568SOL    HW1 8603   5.708   3.893   0.452
 2568SOL    HW2 8604   5.706   3.734   0.492
 2569SOL     OW 8605   2.272   1.090   2.333
 2569SOL    HW1 8606   2.334   1.013   2.316
 2569SOL    HW2 8607   2.182   1.070   2.294
 2570SOL     OW 8608   6.093   2.130   6.147
 2570SOL    HW1 8609   6.190   2.146   6.163
 2570SOL    HW2 8610   6.077   2.034   6.127
 2571SOL     OW 8611   1.203   4.352   4.055
 2571SOL    HW1 8612   1.240   4.294   3.983
 2571SOL    HW2 8613   1.274   4.416   4.086
 2572SOL     OW 8614   1.298   5.076   3.337
 2572SOL    HW1 8615   1.300   5.025   3.423
 2572SOL    HW2 8616   1.343   5.164   3.349
 2573SOL     OW 8617   1.215   0.169   0.183
 2573SOL    HW1 8618   1.245   0.084   0.141
 2573SOL    HW2 8619   1.126   0.155   0.227
 2574SOL     OW 8620   6.786   3.580   1.013
 2574SOL    HW1 8621   6.878   3.575   1.052
 2574SOL    HW2 8622   6.720   3.542   1.078
 2575SOL     OW 8623   0.791   6.872   5.673
 2575SOL    HW1 8624   0.863   6.861   5.605
 2575SOL    HW2 8625   0.814   6.950   5.733
 2576SOL     OW 8626   4.261   6.386   6.039
 2576SOL    HW1 8627   4.228   6.455   6.103
 2576SOL    HW2 8628   4.194   6.312   6.031
 2577SOL     OW 8629   1.689   3.454   2.519
 2577SOL    HW1 8630   1.642   3.415   2.598
 2577SOL    HW2 8631   1.637   3.533   2.485
 2578SOL     OW 8632   4.092   1.902   2.015
 2578SOL    HW1 8633   4.025   1.830   2.001
 2578SOL    HW2 8634   4.131   1.894   2.107
 2579SOL     OW 8635   0.415   6.151   2.857
 2579SOL    HW1 8636   0.365   6.237   2.849
 2579SOL    HW2 8637   0.420   6.124   2.953
 2580SOL     OW 8638   3.060   2.243   5.623
 2580SOL    HW1 8639   3.099   2.205   5.706
 2580SOL    HW2 8640   3.031   2.338   5.640
 2581SOL     OW 8641   3.062   0.111   5.837
 2581SOL    HW1 8642   3.070   0.167   5.919
 2581SOL    HW2 8643   2.965   0.094   5.818
 2582SOL     OW 8644   0.267   3.872   0.616
 2582SOL    HW1 8645   0.210   3.856   0.696
 2582SOL    HW2 8646   0.363   3.855   0.640
 2583SOL     OW 8647   5.583   0.977   0.880
 2583SOL    HW1 8648   5.572   0.887   0.923
 2583SOL    HW2 8649   5.591   0.964   0.781
 2584SOL     OW 8650   3.283   4.528   6.580
 2584SOL    HW1 8651   3.354   4.463   6.552
 2584SOL    HW2 8652   3.324   4.606   6.626
 2585SOL     OW 8653   2.297   5.410   6.990
 2585SOL    HW1 8654   2.355   5.446   6.917
 2585SOL    HW2 8655   2.294   5.475   0.045
 2586SOL     OW 8656   1.846   1.372   2.878
 2586SOL    HW1 8657   1.881   1.283   2.908
 2586SOL    HW2 8658   1.793   1.414   2.952
 2587SOL     OW 8659   5.959   1.008   4.161
 2587SOL    HW1 8660   6.004   1.042   4.244
 2587SOL    HW2 8661   5.861   1.022   4.168
 2588SOL     OW 8662   4.810   1.493   6.607
 2588SOL    HW1 8663   4.891   1.512   6.551
 2588SOL    HW2 8664   4.824   1.407   6.656
 2589SOL     OW 8665   1.518   6.127   0.334
 2589SOL    HW1 8666   1.472   6.039   0.320
 2589SOL    HW2 8667   1.616   6.116   0.322
 2590SOL     OW 8668   2.483   5.082   0.686
 2590SOL    HW1 8669   2.403   5.074   0.625
 2590SOL    HW2 8670   2.455   5.121   0.773
 2591SOL     OW 8671   5.177   6.531   3.382
 2591SOL    HW1 8672   5.191   6.466   3.457
 2591SOL    HW2 8673   5.216   6.494   3.298
 2592SOL     OW 8674   3.558   3.438   0.757
 2592SOL    HW1 8675   3.481   3.458   0.695
 2592SOL    HW2 8676   3.554   3.499   0.836
 2593SOL     OW 8677   2.593   4.666   6.589
 2593SOL    HW1 8678   2.545   4.727   6.526
 2593SOL    HW2 8679   2.630   4.588   6.539
 2594SOL     OW 8680   2.248   3.038   3.439
 2594SOL    HW1 8681   2.244   2.998   3.347
 2594SOL    HW2 8682   2.301   2.978   3.499
 2595SOL     OW 8683   1.587   1.098   2.740
 2595SOL    HW1 8684   1.593   1.164   2.666
 2595SOL    HW2 8685   1.593   1.146   2.828
 2596SOL     OW 8686   0.094   1.074   0.976
 2596SOL    HW1 8687   0.078   0.977   0.996
 2596SOL    HW2 8688   0.088   1.127   1.060
 2597SOL     OW 8689   6.400   6.175   0.630
 2597SOL    HW1 8690   6.350   6.234   0.567
 2597SOL    HW2 8691   6.338   6.141   0.701
 2598SOL     OW 8692   4.760   2.822   2.256
 2598SOL    HW1 8693   4.775   2.875   2.339
 2598SOL    HW2 8694   4.741   2.885   2.180
 2599SOL     OW 8695   2.215   5.585   1.963
 2599SOL    HW1 8696   2.265   5.508   2.002
 2599SOL    HW2 8697   2.232   5.667   2.018
 2600SOL     OW 8698   5.380   5.388   4.249
 2600SOL    HW1 8699   5.330   5.354   4.169
 2600SOL    HW2 8700   5.462   5.436   4.218
 2601SOL     OW 8701   0.106   0.726   4.083
 2601SOL    HW1 8702   0.060   0.804   4.124
 2601SOL    HW2 8703   0.113   0.739   3.984
 2602SOL     OW 8704   1.311   4.494   3.082
 2602SOL    HW1 8705   1.350   4.411   3.122
 2602SOL    HW2 8706   1.251   4.469   3.006
 2603SOL     OW 8707   1.360   5.788   1.727
 2603SOL    HW1 8708   1.445   5.829   1.694
 2603SOL    HW2 8709   1.381   5.708   1.784
 2604SOL     OW 8710   4.929   3.420   2.805
 2604SOL    HW1 8711   4.935   3.320   2.800
 2604SOL    HW2 8712   4.901   3.457   2.717
 2605SOL     OW 8713   1.839   2.513   1.031
 2605SOL    HW1 8714   1.894   2.481   1.108
 2605SOL    HW2 8715   1.851   2.612   1.020
 2606SOL     OW 8716   5.237   4.164   0.722
 2606SOL    HW1 8717   5.256   4.226   0.798
 2606SOL    HW2 8718   5.154   4.112   0.741
 2607SOL     OW 8719   2.563   2.824   1.766
 2607SOL    HW1 8720   2.551   2.873   1.852
 2607SOL    HW2 8721   2.517   2.735   1.771
 2608SOL     OW 8722   3.598   4.936   4.603
 2608SOL    HW1 8723   3.504   4.933   4.638
 2608SOL    HW2 8724   3.661   4.935   4.680
 2609SOL     OW 8725   0.364   1.754   1.410
 2609SOL    HW1 8726   0.278   1.704   1.412
 2609SOL    HW2 8727   0.358   1.833   1.471
 2610SOL     OW 8728   1.557   4.594   4.804
 2610SOL    HW1 8729   1.464   4.618   4.834
 2610SOL    HW2 8730   1.610   4.561   4.882
 2611SOL     OW 8731   5.439   1.847   5.516
 2611SOL    HW1 8732   5.528   1.801   5.524
 2611SOL    HW2 8733   5.441   1.932   5.568
 2612SOL     OW 8734   6.795   6.379   0.033
 2612SOL    HW1 8735   6.862   6.305   0.028
 2612SOL    HW2 8736   6.759   6.397   6.962
 2613SOL     OW 8737   2.041   0.014   0.859
 2613SOL    HW1 8738   2.130   0.036   0.901
 2613SOL    HW2 8739   2.005   0.096   0.814
 2614SOL     OW 8740   6.106   1.985   0.725
 2614SOL    HW1 8741   6.134   1.964   0.631
 2614SOL    HW2 8742   6.186   1.987   0.784
 2615SOL     OW 8743   0.984   3.270   6.981
 2615SOL    HW1 8744   1.063   3.214   6.956
 2615SOL    HW2 8745   0.949   3.317   6.901
 2616SOL     OW 8746   1.125   1.399   5.095
 2616SOL    HW1 8747   1.049   1.463   5.093
 2616SOL    HW2 8748   1.184   1.414   5.015
 2617SOL     OW 8749   5.647   0.174   0.050
 2617SOL    HW1 8750   5.644   0.210   0.143
 2617SOL    HW2 8751   5.579   0.220   7.014
 2618SOL     OW 8752   1.765   0.353   0.080
 2618SOL    HW1 8753   1.804   0.301   0.004
 2618SOL    HW2 8754   1.741   0.444   0.049
 2619SOL     OW 8755   4.651   1.102   2.797
 2619SOL    HW1 8756   4.724   1.077   2.860
 2619SOL    HW2 8757   4.605   1.185   2.830
 2620SOL     OW 8758   5.618   2.500   1.607
 2620SOL    HW1 8759   5.703   2.452   1.585
 2620SOL    HW2 8760   5.628   2.545   1.696
 2621SOL     OW 8761   2.745   6.296   1.187
 2621SOL    HW1 8762   2.835   6.310   1.229
 2621SOL    HW2 8763   2.756   6.266   1.093
 2622SOL     OW 8764   2.274   3.384   6.705
 2622SOL    HW1 8765   2.285   3.483   6.699
 2622SOL    HW2 8766   2.177   3.361   6.694
 2623SOL     OW 8767   0.462   1.628   3.737
 2623SOL    HW1 8768   0.470   1.690   3.816
 2623SOL    HW2 8769   0.513   1.544   3.755
 2624SOL     OW 8770   1.725   1.492   5.432
 2624SOL    HW1 8771   1.694   1.480   5.527
 2624SOL    HW2 8772   1.655   1.459   5.370
 2625SOL     OW 8773   2.876   5.173   5.991
 2625SOL    HW1 8774   2.816   5.225   5.930
 2625SOL    HW2 8775   2.971   5.187   5.964
 2626SOL     OW 8776   6.806   6.616   0.410
 2626SOL    HW1 8777   6.888   6.643   0.361
 2626SOL    HW2 8778   6.829   6.547   0.479
 2627SOL     OW 8779   2.342   0.132   6.067
 2627SOL    HW1 8780   2.284   0.070   6.120
 2627SOL    HW2 8781   2.427   0.149   6.115
 2628SOL     OW 8782   6.716   5.468   1.466
 2628SOL    HW1 8783   6.669   5.554   1.442
 2628SOL    HW2 8784   6.792   5.453   1.403
 2629SOL     OW 8785   3.405   3.429   2.937
 2629SOL    HW1 8786   3.339   3.375   2.989
 2629SOL    HW2 8787   3.472   3.369   2.895
 2630SOL     OW 8788   2.837   1.025   4.870
 2630SOL    HW1 8789   2.827   1.080   4.953
 2630SOL    HW2 8790   2.933   1.002   4.856
 2631SOL     OW 8791   5.075   5.987   0.538
 2631SOL    HW1 8792   4.988   6.029   0.562
 2631SOL    HW2 8793   5.141   6.002   0.612
 2632SOL     OW 8794   4.738   5.077   1.806
 2632SOL    HW1 8795   4.703   5.024   1.729
 2632SOL    HW2 8796   4.691   5.050   1.890
 2633SOL     OW 8797   6.684   3.012   5.957
 2633SOL    HW1 8798   6.625   2.953   5.902
 2633SOL    HW2 8799   6.733   2.956   6.025
 2634SOL     OW 8800   1.818   2.142   6.258
 2634SOL    HW1 8801   1.760   2.061   6.252
 2634SOL    HW2 8802   1.812   2.180   6.351
 2635SOL     OW 8803   4.063   5.590   2.884
 2635SOL    HW1 8804   4.007   5.523   2.835
 2635SOL    HW2 8805   4.122   5.638   2.819
 2636SOL     OW 8806   3.113   6.761   6.000
 2636SOL    HW1 8807   3.123   6.675   5.950
 2636SOL    HW2 8808   3.175   6.829   5.961
 2637SOL     OW 8809   6.939   1.011   2.911
 2637SOL    HW1 8810   6.889   1.068   2.846
 2637SOL    HW2 8811   6.919   0.914   2.892
 2638SOL     OW 8812   0.921   6.347   4.981
 2638SOL    HW1 8813   0.908   6.428   5.039
 2638SOL    HW2 8814   1.018   6.327   4.972
 2639SOL     OW 8815   4.915   5.366   4.701
 2639SOL    HW1 8816   4.910   5.465   4.697
 2639SOL    HW2 8817   4.924   5.328   4.609
 2640SOL     OW 8818   2.166   0.873   3.077
 2640SOL    HW1 8819   2.068   0.886   3.097
 2640SOL    HW2 8820   2.185   0.776   3.065
 2641SOL     OW 8821   5.689   2.486   0.596
 2641SOL    HW1 8822   5.643   2.399   0.580
 2641SOL    HW2 8823   5.661   2.522   0.684
 2642SOL     OW 8824   0.267   0.533   2.958
 2642SOL    HW1 8825   0.286   0.628   2.934
 2642SOL    HW2 8826   0.295   0.516   3.052
 2643SOL     OW 8827   2.047   4.477   4.308
 2643SOL    HW1 8828   2.051   4.398   4.370
 2643SOL    HW2 8829   1.958   4.521   4.316
 2644SOL     OW 8830   5.628   5.344   3.441
 2644SOL    HW1 8831   5.682   5.292   3.508
 2644SOL    HW2 8832   5.584   5.280   3.378
 2645SOL     OW 8833   4.703   5.167   2.464
 2645SOL    HW1 8834   4.615   5.213   2.465
 2645SOL    HW2 8835   4.744   5.170   2.555
 2646SOL     OW 8836   0.955   1.484   6.709
 2646SOL    HW1 8837   0.991   1.439   6.627
 2646SOL    HW2 8838   0.953   1.418   6.784
 2647SOL     OW 8839   4.415   0.222   3.415
 2647SOL    HW1 8840   4.462   0.300   3.455
 2647SOL    HW2 8841   4.344   0.190   3.477
 2648SOL     OW 8842   2.053   0.533   5.713
 2648SOL    HW1 8843   1.974   0.587   5.743
 2648SOL    HW2 8844   2.081   0.471   5.787
 2649SOL     OW 8845   5.911   1.797   3.815
 2649SOL    HW1 8846   5.870   1.878   3.858
 2649SOL    HW2 8847   5.965   1.825   3.736
 2650SOL     OW 8848   1.664   6.717   4.377
 2650SOL    HW1 8849   1.763   6.731   4.375
 2650SOL    HW2 8850   1.631   6.701   4.284
 2651SOL     OW 8851   3.355   2.157   2.785
 2651SOL    HW1 8852   3.376   2.124   2.693
 2651SOL    HW2 8853   3.437   2.150   2.843
 2652SOL     OW 8854   4.674   3.208   6.222
 2652SOL    HW1 8855   4.744   3.278   6.239
 2652SOL    HW2 8856   4.583   3.250   6.227
 2653SOL     OW 8857   2.394   6.896   0.228
 2653SOL    HW1 8858   2.463   6.853   0.287
 2653SOL    HW2 8859   2.334   6.954   0.284
 2654SOL     OW 8860   6.621   0.196   1.159
 2654SOL    HW1 8861   6.646   0.284   1.200
 2654SOL    HW2 8862   6.704   0.147   1.132
 2655SOL     OW 8863   4.908   6.903   3.778
 2655SOL    HW1 8864   4.989   6.961   3.768
 2655SOL    HW2 8865   4.885   6.863   3.689
 2656SOL     OW 8866   4.548   0.007   5.017
 2656SOL    HW1 8867   4.581   0.052   5.101
 2656SOL    HW2 8868   4.579   0.059   4.937
 2657SOL     OW 8869   1.661   3.301   5.580
 2657SOL    HW1 8870   1.675   3.334   5.486
 2657SOL    HW2 8871   1.668   3.201   5.581
 2658SOL     OW 8872   3.767   4.321   0.867
 2658SOL    HW1 8873   3.684   4.355   0.912
 2658SOL    HW2 8874   3.830   4.284   0.935
 2659SOL     OW 8875   0.555   2.025   5.681
 2659SOL    HW1 8876   0.643   1.980   5.662
 2659SOL    HW2 8877   0.551   2.112   5.633
 2660SOL     OW 8878   1.204   1.612   0.607
 2660SOL    HW1 8879   1.179   1.693   0.660
 2660SOL    HW2 8880   1.173   1.624   0.512
 2661SOL     OW 8881   2.069   1.196   1.450
 2661SOL    HW1 8882   2.023   1.135   1.515
 2661SOL    HW2 8883   2.000   1.235   1.388
 2662SOL     OW 8884   2.564   1.511   1.702
 2662SOL    HW1 8885   2.630   1.443   1.733
 2662SOL    HW2 8886   2.520   1.479   1.618
 2663SOL     OW 8887   3.833   0.234   0.877
 2663SOL    HW1 8888   3.918   0.193   0.843
 2663SOL    HW2 8889   3.760   0.217   0.811
 2664SOL     OW 8890   4.998   3.250   5.772
 2664SOL    HW1 8891   4.899   3.252   5.764
 2664SOL    HW2 8892   5.038   3.321   5.714
 2665SOL     OW 8893   0.883   3.655   4.337
 2665SOL    HW1 8894   0.861   3.577   4.278
 2665SOL    HW2 8895   0.947   3.626   4.408
 2666SOL     OW 8896   1.889   3.749   1.662
 2666SOL    HW1 8897   1.803   3.799   1.657
 2666SOL    HW2 8898   1.964   3.813   1.682
 2667SOL     OW 8899   6.302   2.478   4.759
 2667SOL    HW1 8900   6.302   2.525   4.671
 2667SOL    HW2 8901   6.214   2.491   4.805
 2668SOL     OW 8902   5.973   0.630   4.251
 2668SOL    HW1 8903   5.890   0.683   4.265
 2668SOL    HW2 8904   5.974   0.593   4.158
 2669SOL     OW 8905   2.648   1.638   1.934
 2669SOL    HW1 8906   2.610   1.565   1.877
 2669SOL    HW2 8907   2.653   1.723   1.881
 2670SOL     OW 8908   0.316   6.945   1.212
 2670SOL    HW1 8909   0.307   6.872   1.281
 2670SOL    HW2 8910   0.413   6.969   1.202
 2671SOL     OW 8911   5.090   4.068   6.380
 2671SOL    HW1 8912   5.032   4.059   6.461
 2671SOL    HW2 8913   5.186   4.071   6.407
 2672SOL     OW 8914   1.755   1.275   2.111
 2672SOL    HW1 8915   1.698   1.214   2.165
 2672SOL    HW2 8916   1.847   1.280   2.151
 2673SOL     OW 8917   3.222   0.923   3.096
 2673SOL    HW1 8918   3.280   0.932   3.015
 2673SOL    HW2 8919   3.182   1.011   3.119
 2674SOL     OW 8920   5.706   5.844   3.230
 2674SOL    HW1 8921   5.647   5.764   3.239
 2674SOL    HW2 8922   5.738   5.872   3.321
 2675SOL     OW 8923   4.830   1.159   4.311
 2675SOL    HW1 8924   4.775   1.204   4.382
 2675SOL    HW2 8925   4.771   1.099   4.257
 2676SOL     OW 8926   4.014   3.754   5.483
 2676SOL    HW1 8927   3.915   3.745   5.468
 2676SOL    HW2 8928   4.062   3.748   5.395
 2677SOL     OW 8929   1.596   5.778   1.329
 2677SOL    HW1 8930   1.526   5.723   1.285
 2677SOL    HW2 8931   1.651   5.824   1.258
 2678SOL     OW 8932   3.531   1.938   1.973
 2678SOL    HW1 8933   3.581   2.015   2.014
 2678SOL    HW2 8934   3.509   1.871   2.044
 2679SOL     OW 8935   2.221   4.115   2.721
 2679SOL    HW1 8936   2.161   4.049   2.676
 2679SOL    HW2 8937   2.220   4.202   2.671
 2680SOL     OW 8938   6.223   1.818   6.408
 2680SOL    HW1 8939   6.192   1.850   6.319
 2680SOL    HW2 8940   6.174   1.734   6.432
 2681SOL     OW 8941   2.367   2.662   3.339
 2681SOL    HW1 8942   2.444   2.602   3.363
 2681SOL    HW2 8943   2.375   2.690   3.243
 2682SOL     OW 8944   3.019   3.896   2.439
 2682SOL    HW1 8945   3.098   3.927   2.493
 2682SOL    HW2 8946   2.986   3.809   2.477
 2683SOL     OW 8947   1.642   2.929   0.834
 2683SOL    HW1 8948   1.582   2.911   0.912
 2683SOL    HW2 8949   1.668   3.026   0.835
 2684SOL     OW 8950   5.701   0.141   4.098
 2684SOL    HW1 8951   5.787   0.139   4.046
 2684SOL    HW2 8952   5.717   0.185   4.186
 2685SOL     OW 8953   1.702   6.634   6.040
 2685SOL    HW1 8954   1.715   6.732   6.026
 2685SOL    HW2 8955   1.750   6.607   6.124
 2686SOL     OW 8956   2.457   2.494   5.983
 2686SOL    HW1 8957   2.534   2.466   5.927
 2686SOL    HW2 8958   2.489   2.526   6.072
 2687SOL     OW 8959   3.713   2.498   1.700
 2687SOL    HW1 8960   3.620   2.531   1.684
 2687SOL    HW2 8961   3.713   2.434   1.777
 2688SOL     OW 8962   4.621   2.280   0.422
 2688SOL    HW1 8963   4.706   2.333   0.412
 2688SOL    HW2 8964   4.550   2.321   0.365
 2689SOL     OW 8965   0.149   4.326   2.204
 2689SOL    HW1 8966   0.112   4.254   2.144
 2689SOL    HW2 8967   0.171   4.287   2.293
 2690SOL     OW 8968   5.319   1.275   4.270
 2690SOL    HW1 8969   5.320   1.188   4.318
 2690SOL    HW2 8970   5.225   1.310   4.267
 2691SOL     OW 8971   5.209   3.561   3.917
 2691SOL    HW1 8972   5.299   3.592   3.949
 2691SOL    HW2 8973   5.157   3.525   3.995
 2692SOL     OW 8974   1.518   5.523   0.937
 2692SOL    HW1 8975   1.504   5.618   0.909
 2692SOL    HW2 8976   1.564   5.473   0.864
 2693SOL     OW 8977   0.847   6.208   2.638
 2693SOL    HW1 8978   0.770   6.146   2.623
 2693SOL    HW2 8979   0.913   6.197   2.564
 2694SOL     OW 8980   2.207   0.606   3.033
 2694SOL    HW1 8981   2.249   0.518   3.058
 2694SOL    HW2 8982   2.222   0.623   2.936
 2695SOL     OW 8983   6.778   6.087   3.278
 2695SOL    HW1 8984   6.734   6.028   3.346
 2695SOL    HW2 8985   6.815   6.168   3.322
 2696SOL     OW 8986   3.363   4.566   6.151
 2696SOL    HW1 8987   3.380   4.664   6.161
 2696SOL    HW2 8988   3.370   4.541   6.054
 2697SOL     OW 8989   4.792   2.733   0.490
 2697SOL    HW1 8990   4.890   2.749   0.502
 2697SOL    HW2 8991   4.753   2.804   0.432
 2698SOL     OW 8992   2.006   5.607   0.094
 2698SOL    HW1 8993   2.054   5.656   0.166
 2698SOL    HW2 8994   2.003   5.664   0.011
 2699SOL     OW 8995   3.110   6.925   2.909
 2699SOL    HW1 8996   3.179   6.865   2.950
 2699SOL    HW2 8997   3.021   6.881   2.912
 2700SOL     OW 8998   4.910   2.256   1.073
 2700SOL    HW1 8999   4.823   2.305   1.081
 2700SOL    HW2 9000   4.898   2.174   1.017
 2701SOL     OW 9001   5.241   3.905   5.380
 2701SOL    HW1 9002   5.221   3.859   5.467
 2701SOL    HW2 9003   5.211   4.000   5.386
 2702SOL     OW 9004   1.399   1.907   5.103
 2702SOL    HW1 9005   1.384   2.005   5.091
 2702SOL    HW2 9006   1.386   1.861   5.015
 2703SOL     OW 9007   2.369   6.217   1.807
 2703SOL    HW1 9008   2.431   6.145   1.779
 2703SOL    HW2 9009   2.382   6.236   1.905
 2704SOL     OW 9010   4.528   0.866   3.632
 2704SOL    HW1 9011   4.525   0.930   3.709
 2704SOL    HW2 9012   4.492   0.778   3.660
 2705SOL     OW 9013   1.358   0.297   5.685
 2705SOL    HW1 9014   1.289   0.368   5.700
 2705SOL    HW2 9015   1.449   0.337   5.698
 2706SOL     OW 9016   0.511   4.694   4.366
 2706SOL    HW1 9017   0.595   4.672   4.316
 2706SOL    HW2 9018   0.504   4.634   4.446
 2707SOL     OW 9019   4.227   1.062   3.180
 2707SOL    HW1 9020   4.157   1.096   3.244
 2707SOL    HW2 9021   4.314   1.051   3.227
 2708SOL     OW 9022   5.365   3.129   5.440
 2708SOL    HW1 9023   5.357   3.226   5.417
 2708SOL    HW2 9024   5.312   3.110   5.523
 2709SOL     OW 9025   4.845   1.484   5.523
 2709SOL    HW1 9026   4.835   1.488   5.622
 2709SOL    HW2 9027   4.868   1.575   5.488
 2710SOL     OW 9028   1.082   3.119   3.943
 2710SOL    HW1 9029   1.101   3.080   4.033
 2710SOL    HW2 9030   1.157   3.096   3.880
 2711SOL     OW 9031   4.957   0.974   1.457
 2711SOL    HW1 9032   4.973   0.946   1.362
 2711SOL    HW2 9033   4.880   0.922   1.494
 2712SOL     OW 9034   5.162   6.264   1.731
 2712SOL    HW1 9035   5.074   6.247   1.686
 2712SOL    HW2 9036   5.174   6.363   1.741
 2713SOL     OW 9037   3.934   4.819   5.458
 2713SOL    HW1 9038   3.984   4.842   5.374
 2713SOL    HW2 9039   3.995   4.826   5.537
 2714SOL     OW 9040   2.999   4.129   5.908
 2714SOL    HW1 9041   2.939   4.089   5.978
 2714SOL    HW2 9042   3.090   4.143   5.947
 2715SOL     OW 9043   4.509   6.608   0.281
 2715SOL    HW1 9044   4.602   6.644   0.279
 2715SOL    HW2 9045   4.445   6.682   0.304
 2716SOL     OW 9046   4.645   1.105   2.262
 2716SOL    HW1 9047   4.721   1.127   2.324
 2716SOL    HW2 9048   4.583   1.040   2.307
 2717SOL     OW 9049   0.456   1.431   2.087
 2717SOL    HW1 9050   0.421   1.354   2.034
 2717SOL    HW2 9051   0.547   1.410   2.123
 2718SOL     OW 9052   6.240   1.230   6.137
 2718SOL    HW1 9053   6.180   1.153   6.113
 2718SOL    HW2 9054   6.334   1.198   6.143
 2719SOL     OW 9055   1.104   4.538   3.841
 2719SOL    HW1 9056   1.189   4.592   3.842
 2719SOL    HW2 9057   1.112   4.462   3.904
 2720SOL     OW 9058   2.272   5.355   6.200
 2720SOL    HW1 9059   2.293   5.371   6.103
 2720SOL    HW2 9060   2.273   5.257   6.219
 2721SOL     OW 9061   2.509   6.071   3.551
 2721SOL    HW1 9062   2.448   5.992   3.554
 2721SOL    HW2 9063   2.474   6.142   3.612
 2722SOL     OW 9064   3.366   4.235   6.919
 2722SOL    HW1 9065   3.346   4.149   6.966
 2722SOL    HW2 9066   3.320   4.310   6.966
 2723SOL     OW 9067   4.561   5.210   0.353
 2723SOL    HW1 9068   4.654   5.237   0.376
 2723SOL    HW2 9069   4.543   5.230   0.257
 2724SOL     OW 9070   0.019   5.943   1.098
 2724SOL    HW1 9071   0.015   6.041   1.081
 2724SOL    HW2 9072   0.012   5.893   1.012
 2725SOL     OW 9073   5.862   3.950   2.755
 2725SOL    HW1 9074   5.807   3.934   2.674
 2725SOL    HW2 9075   5.820   4.022   2.810
 2726SOL     OW 9076   6.337   2.674   2.146
 2726SOL    HW1 9077   6.297   2.754   2.191
 2726SOL    HW2 9078   6.357   2.604   2.215
 2727SOL     OW 9079   1.381   4.595   3.863
 2727SOL    HW1 9080   1.463   4.552   3.824
 2727SOL    HW2 9081   1.388   4.694   3.856
 2728SOL     OW 9082   4.664   4.849   6.296
 2728SOL    HW1 9083   4.628   4.900   6.374
 2728SOL    HW2 9084   4.588   4.803   6.249
 2729SOL     OW 9085   0.499   0.059   0.946
 2729SOL    HW1 9086   0.468   0.105   0.863
 2729SOL    HW2 9087   0.422   0.050   1.009
 2730SOL     OW 9088   1.371   5.009   2.821
 2730SOL    HW1 9089   1.348   4.975   2.912
 2730SOL    HW2 9090   1.406   5.103   2.828
 2731SOL     OW 9091   4.124   3.452   5.579
 2731SOL    HW1 9092   4.097   3.547   5.567
 2731SOL    HW2 9093   4.159   3.416   5.492
 2732SOL     OW 9094   4.255   1.117   2.510
 2732SOL    HW1 9095   4.174   1.159   2.469
 2732SOL    HW2 9096   4.330   1.182   2.511
 2733SOL     OW 9097   0.770   0.180   0.595
 2733SOL    HW1 9098   0.802   0.159   0.687
 2733SOL    HW2 9099   0.745   0.095   0.548
 2734SOL     OW 9100   3.571   0.302   1.844
 2734SOL    HW1 9101   3.642   0.232   1.852
 2734SOL    HW2 9102   3.609   0.391   1.870
 2735SOL     OW 9103   0.673   2.714   2.653
 2735SOL    HW1 9104   0.678   2.641   2.586
 2735SOL    HW2 9105   0.582   2.755   2.653
 2736SOL     OW 9106   5.271   4.458   2.729
 2736SOL    HW1 9107   5.243   4.388   2.794
 2736SOL    HW2 9108   5.338   4.519   2.773
 2737SOL     OW 9109   2.724   0.396   6.370
 2737SOL    HW1 9110   2.720   0.418   6.467
 2737SOL    HW2 9111   2.724   0.480   6.316
 2738SOL     OW 9112   5.447   6.085   1.511
 2738SOL    HW1 9113   5.543   6.104   1.528
 2738SOL    HW2 9114   5.396   6.172   1.504
 2739SOL     OW 9115   0.462   5.107   1.679
 2739SOL    HW1 9116   0.514   5.186   1.712
 2739SOL    HW2 9117   0.523   5.028   1.670
 2740SOL     OW 9118   6.611   5.945   5.231
 2740SOL    HW1 9119   6.564   6.026   5.196
 2740SOL    HW2 9120   6.597   5.868   5.169
 2741SOL     OW 9121   0.038   6.933   6.996
 2741SOL    HW1 9122   6.977   6.913   0.031
 2741SOL    HW2 9123   0.112   6.872   0.002
 2742SOL     OW 9124   2.946   4.944   2.036
 2742SOL    HW1 9125   2.890   4.897   2.105
 2742SOL    HW2 9126   3.014   4.880   1.999
 2743SOL     OW 9127   5.823   1.693   2.954
 2743SOL    HW1 9128   5.898   1.687   3.020
 2743SOL    HW2 9129   5.858   1.682   2.861
 2744SOL     OW 9130   3.218   3.322   3.077
 2744SOL    HW1 9131   3.124   3.355   3.088
 2744SOL    HW2 9132   3.242   3.266   3.156
 2745SOL     OW 9133   0.694   6.160   6.828
 2745SOL    HW1 9134   0.681   6.259   6.827
 2745SOL    HW2 9135   0.789   6.139   6.849
 2746SOL     OW 9136   1.643   0.942   4.358
 2746SOL    HW1 9137   1.680   0.860   4.314
 2746SOL    HW2 9138   1.672   1.023   4.308
 2747SOL     OW 9139   5.111   5.048   0.319
 2747SOL    HW1 9140   5.116   5.077   0.224
 2747SOL    HW2 9141   5.018   5.018   0.340
 2748SOL     OW 9142   4.338   0.069   0.368
 2748SOL    HW1 9143   4.343   0.163   0.334
 2748SOL    HW2 9144   4.339   0.069   0.468
 2749SOL     OW 9145   4.307   0.600   0.330
 2749SOL    HW1 9146   4.269   0.563   0.415
 2749SOL    HW2 9147   4.315   0.699   0.337
 2750SOL     OW 9148   1.836   6.153   1.869
 2750SOL    HW1 9149   1.793   6.146   1.959
 2750SOL    HW2 9150   1.933   6.128   1.877
 2751SOL     OW 9151   6.215   5.378   2.033
 2751SOL    HW1 9152   6.251   5.393   1.941
 2751SOL    HW2 9153   6.201   5.280   2.048
 2752SOL     OW 9154   4.253   5.273   6.613
 2752SOL    HW1 9155   4.333   5.323   6.580
 2752SOL    HW2 9156   4.279   5.181   6.640
 2753SOL     OW 9157   4.369   5.025   5.872
 2753SOL    HW1 9158   4.438   5.014   5.802
 2753SOL    HW2 9159   4.292   4.964   5.853
 2754SOL     OW 9160   1.007   0.864   4.567
 2754SOL    HW1 9161   1.049   0.900   4.484
 2754SOL    HW2 9162   0.934   0.925   4.597
 2755SOL     OW 9163   3.911   0.142   2.475
 2755SOL    HW1 9164   3.868   0.194   2.549
 2755SOL    HW2 9165   3.846   0.073   2.442
 2756SOL     OW 9166   4.555   5.645   6.339
 2756SOL    HW1 9167   4.602   5.568   6.297
 2756SOL    HW2 9168   4.476   5.670   6.283
 2757SOL     OW 9169   1.153   4.770   0.346
 2757SOL    HW1 9170   1.136   4.781   0.248
 2757SOL    HW2 9171   1.072   4.798   0.397
 2758SOL     OW 9172   5.107   0.409   5.871
 2758SOL    HW1 9173   5.075   0.385   5.779
 2758SOL    HW2 9174   5.036   0.459   5.920
 2759SOL     OW 9175   4.645   4.968   3.109
 2759SOL    HW1 9176   4.628   5.059   3.148
 2759SOL    HW2 9177   4.639   4.973   3.010
 2760SOL     OW 9178   0.659   6.385   3.465
 2760SOL    HW1 9179   0.598   6.368   3.542
 2760SOL    HW2 9180   0.749   6.413   3.500
 2761SOL     OW 9181   2.733   4.860   5.067
 2761SOL    HW1 9182   2.762   4.778   5.018
 2761SOL    HW2 9183   2.727   4.839   5.165
 2762SOL     OW 9184   1.821   2.136   5.529
 2762SOL    HW1 9185   1.749   2.199   5.558
 2762SOL    HW2 9186   1.866   2.099   5.609
 2763SOL     OW 9187   5.544   0.151   2.200
 2763SOL    HW1 9188   5.539   0.113   2.292
 2763SOL    HW2 9189   5.578   0.245   2.204
 2764SOL     OW 9190   6.358   0.503   1.790
 2764SOL    HW1 9191   6.278   0.557   1.766
 2764SOL    HW2 9192   6.393   0.532   1.879
 2765SOL     OW 9193   5.484   1.725   3.517
 2765SOL    HW1 9194   5.507   1.694   3.425
 2765SOL    HW2 9195   5.407   1.671   3.551
 2766SOL     OW 9196   5.358   6.288   2.381
 2766SOL    HW1 9197   5.395   6.245   2.299
 2766SOL    HW2 9198   5.432   6.323   2.438
 2767SOL     OW 9199   6.660   3.895   5.589
 2767SOL    HW1 9200   6.701   3.974   5.544
 2767SOL    HW2 9201   6.561   3.896   5.573
 2768SOL     OW 9202   5.306   0.625   6.184
 2768SOL    HW1 9203   5.277   0.601   6.091
 2768SOL    HW2 9204   5.227   0.657   6.236
 2769SOL     OW 9205   1.293   3.873   1.221
 2769SOL    HW1 9206   1.330   3.842   1.134
 2769SOL    HW2 9207   1.194   3.859   1.223
 2770SOL     OW 9208   4.725   6.056   2.150
 2770SOL    HW1 9209   4.729   6.121   2.074
 2770SOL    HW2 9210   4.761   6.099   2.233
 2771SOL     OW 9211   4.683   0.823   1.417
 2771SOL    HW1 9212   4.669   0.724   1.404
 2771SOL    HW2 9213   4.654   0.871   1.334
 2772SOL     OW 9214   3.562   1.103   0.359
 2772SOL    HW1 9215   3.554   1.174   0.289
 2772SOL    HW2 9216   3.482   1.044   0.355
 2773SOL     OW 9217   3.398   5.113   1.476
 2773SOL    HW1 9218   3.415   5.170   1.395
 2773SOL    HW2 9219   3.417   5.017   1.454
 2774SOL     OW 9220   5.003   2.914   1.959
 2774SOL    HW1 9221   4.915   2.947   1.993
 2774SOL    HW2 9222   5.019   2.821   1.991
 2775SOL     OW 9223   0.557   0.079   2.376
 2775SOL    HW1 9224   0.537   0.007   2.441
 2775SOL    HW2 9225   0.577   0.039   2.286
 2776SOL     OW 9226   3.104   5.988   7.019
 2776SOL    HW1 9227   3.200   6.013   0.010
 2776SOL    HW2 9228   3.097   5.889   7.004
 2777SOL     OW 9229   1.299   2.623   4.119
 2777SOL    HW1 9230   1.252   2.576   4.045
 2777SOL    HW2 9231   1.307   2.720   4.097
 2778SOL     OW 9232   3.334   2.268   5.397
 2778SOL    HW1 9233   3.278   2.325   5.337
 2778SOL    HW2 9234   3.342   2.313   5.487
 2779SOL     OW 9235   6.317   0.638   0.316
 2779SOL    HW1 9236   6.340   0.691   0.398
 2779SOL    HW2 9237   6.246   0.685   0.264
 2780SOL     OW 9238   3.360   6.200   6.296
 2780SOL    HW1 9239   3.439   6.204   6.358
 2780SOL    HW2 9240   3.351   6.106   6.260
 2781SOL     OW 9241   5.358   4.042   6.759
 2781SOL    HW1 9242   5.449   4.037   6.717
 2781SOL    HW2 9243   5.310   3.955   6.746
 2782SOL     OW 9244   3.210   0.533   5.773
 2782SOL    HW1 9245   3.131   0.474   5.789
 2782SOL    HW2 9246   3.282   0.481   5.728
 2783SOL     OW 9247   0.413   3.895   5.038
 2783SOL    HW1 9248   0.395   3.806   5.081
 2783SOL    HW2 9249   0.510   3.916   5.046
 2784SOL     OW 9250   2.926   1.976   1.400
 2784SOL    HW1 9251   2.935   1.982   1.499
 2784SOL    HW2 9252   2.830   1.989   1.374
 2785SOL     OW 9253   5.598   2.488   2.110
 2785SOL    HW1 9254   5.567   2.535   2.193
 2785SOL    HW2 9255   5.697   2.478   2.112
 2786SOL     OW 9256   3.658   0.602   1.382
 2786SOL    HW1 9257   3.706   0.555   1.456
 2786SOL    HW2 9258   3.724   0.646   1.322
 2787SOL     OW 9259   1.708   4.234   5.972
 2787SOL    HW1 9260   1.705   4.333   5.977
 2787SOL    HW2 9261   1.779   4.206   5.906
 2788SOL     OW 9262   1.483   2.427   0.544
 2788SOL    HW1 9263   1.475   2.460   0.639
 2788SOL    HW2 9264   1.566   2.465   0.503
 2789SOL     OW 9265   6.882   3.130   3.384
 2789SOL    HW1 9266   6.918   3.082   3.304
 2789SOL    HW2 9267   6.783   3.120   3.386
 2790SOL     OW 9268   2.955   6.227   4.538
 2790SOL    HW1 9269   2.862   6.191   4.549
 2790SOL    HW2 9270   2.979   6.283   4.618
 2791SOL     OW 9271   2.119   3.487   2.396
 2791SOL    HW1 9272   2.103   3.530   2.308
 2791SOL    HW2 9273   2.123   3.556   2.468
 2792SOL     OW 9274   0.187   1.791   6.008
 2792SOL    HW1 9275   0.277   1.775   5.967
 2792SOL    HW2 9276   0.199   1.821   6.102
 2793SOL     OW 9277   5.034   0.641   4.829
 2793SOL    HW1 9278   4.980   0.694   4.763
 2793SOL    HW2 9279   5.077   0.563   4.783
 2794SOL     OW 9280   1.122   1.441   2.213
 2794SOL    HW1 9281   1.071   1.441   2.300
 2794SOL    HW2 9282   1.201   1.501   2.221
 2795SOL     OW 9283   0.956   3.607   0.810
 2795SOL    HW1 9284   0.943   3.596   0.712
 2795SOL    HW2 9285   0.881   3.561   0.859
 2796SOL     OW 9286   4.075   5.143   1.993
 2796SOL    HW1 9287   4.049   5.109   2.084
 2796SOL    HW2 9288   4.006   5.117   1.926
 2797SOL     OW 9289   5.047   4.446   5.112
 2797SOL    HW1 9290   4.995   4.404   5.186
 2797SOL    HW2 9291   5.137   4.402   5.105
 2798SOL     OW 9292   1.986   3.673   3.186
 2798SOL    HW1 9293   2.028   3.736   3.120
 2798SOL    HW2 9294   1.960   3.589   3.140
 2799SOL     OW 9295   6.649   5.306   6.218
 2799SOL    HW1 9296   6.715   5.370   6.257
 2799SOL    HW2 9297   6.558   5.348   6.217
 2800SOL     OW 9298   2.575   0.697   6.656
 2800SOL    HW1 9299   2.570   0.749   6.741
 2800SOL    HW2 9300   2.608   0.757   6.583
 2801SOL     OW 9301   3.804   5.369   1.860
 2801SOL    HW1 9302   3.883   5.385   1.919
 2801SOL    HW2 9303   3.787   5.449   1.803
 2802SOL     OW 9304   6.418   0.315   6.577
 2802SOL    HW1 9305   6.489   0.244   6.583
 2802SOL    HW2 9306   6.328   0.273   6.582
 2803SOL     OW 9307   2.446   5.917   4.648
 2803SOL    HW1 9308   2.416   5.864   4.728
 2803SOL    HW2 9309   2.507   5.861   4.592
 2804SOL     OW 9310   0.407   4.920   2.683
 2804SOL    HW1 9311   0.405   4.993   2.615
 2804SOL    HW2 9312   0.496   4.918   2.728
 2805SOL     OW 9313   6.758   4.028   6.490
 2805SOL    HW1 9314   6.770   4.123   6.518
 2805SOL    HW2 9315   6.833   3.973   6.526
 2806SOL     OW 9316   5.908   4.660   2.733
 2806SOL    HW1 9317   5.957   4.574   2.719
 2806SOL    HW2 9318   5.810   4.644   2.720
 2807SOL     OW 9319   3.768   4.886   3.458
 2807SOL    HW1 9320   3.773   4.865   3.361
 2807SOL    HW2 9321   3.859   4.879   3.499
 2808SOL     OW 9322   4.574   0.063   4.332
 2808SOL    HW1 9323   4.572   0.026   4.425
 2808SOL    HW2 9324   4.661   0.110   4.317
 2809SOL     OW 9325   5.262   1.905   0.433
 2809SOL    HW1 9326   5.235   1.930   0.340
 2809SOL    HW2 9327   5.246   1.807   0.447
 2810SOL     OW 9328   2.455   1.088   6.143
 2810SOL    HW1 9329   2.510   1.144   6.204
 2810SOL    HW2 9330   2.389   1.035   6.196
 2811SOL     OW 9331   0.320   0.248   4.214
 2811SOL    HW1 9332   0.340   0.313   4.141
 2811SOL    HW2 9333   0.299   0.158   4.175
 2812SOL     OW 9334   4.601   4.495   2.945
 2812SOL    HW1 9335   4.577   4.407   2.986
 2812SOL    HW2 9336   4.683   4.532   2.989
 2813SOL     OW 9337   6.204   1.731   5.738
 2813SOL    HW1 9338   6.259   1.685   5.808
 2813SOL    HW2 9339   6.163   1.814   5.776
 2814SOL     OW 9340   5.372   4.761   5.712
 2814SOL    HW1 9341   5.293   4.816   5.685
 2814SOL    HW2 9342   5.342   4.684   5.769
 2815SOL     OW 9343   1.649   0.910   3.946
 2815SOL    HW1 9344   1.611   0.849   4.016
 2815SOL    HW2 9345   1.721   0.862   3.896
 2816SOL     OW 9346   4.239   6.208   3.438
 2816SOL    HW1 9347   4.212   6.227   3.344
 2816SOL    HW2 9348   4.248   6.110   3.451
 2817SOL     OW 9349   1.180   1.124   1.074
 2817SOL    HW1 9350   1.187   1.106   1.172
 2817SOL    HW2 9351   1.271   1.121   1.033
 2818SOL     OW 9352   1.584   2.082   6.511
 2818SOL    HW1 9353   1.646   2.159   6.505
 2818SOL    HW2 9354   1.530   2.074   6.427
 2819SOL     OW 9355   6.494   3.642   2.106
 2819SOL    HW1 9356   6.510   3.545   2.091
 2819SOL    HW2 9357   6.464   3.658   2.200
 2820SOL     OW 9358   5.194   3.213   4.023
 2820SOL    HW1 9359   5.203   3.241   3.927
 2820SOL    HW2 9360   5.285   3.206   4.064
 2821SOL     OW 9361   1.560   3.327   2.715
 2821SOL    HW1 9362   1.606   3.328   2.804
 2821SOL    HW2 9363   1.466   3.295   2.727
 2822SOL     OW 9364   3.544   2.689   0.631
 2822SOL    HW1 9365   3.641   2.712   0.623
 2822SOL    HW2 9366   3.490   2.773   0.627
 2823SOL     OW 9367   1.340   0.483   4.476
 2823SOL    HW1 9368   1.294   0.399   4.505
 2823SOL    HW2 9369   1.334   0.492   4.377
 2824SOL     OW 9370   3.555   2.376   6.105
 2824SOL    HW1 9371   3.526   2.299   6.162
 2824SOL    HW2 9372   3.475   2.433   6.083
 2825SOL     OW 9373   5.826   5.858   1.176
 2825SOL    HW1 9374   5.818   5.811   1.263
 2825SOL    HW2 9375   5.904   5.821   1.125
 2826SOL     OW 9376   5.168   3.887   4.759
 2826SOL    HW1 9377   5.262   3.921   4.763
 2826SOL    HW2 9378   5.106   3.960   4.787
 2827SOL     OW 9379   0.067   6.869   6.079
 2827SOL    HW1 9380   7.019   6.817   6.131
 2827SOL    HW2 9381   0.155   6.822   6.082
 2828SOL     OW 9382   3.475   2.441   6.427
 2828SOL    HW1 9383   3.514   2.522   6.382
 2828SOL    HW2 9384   3.436   2.467   6.515
 2829SOL     OW 9385   2.878   1.404   6.852
 2829SOL    HW1 9386   2.920   1.381   6.764
 2829SOL    HW2 9387   2.872   1.322   6.909
 2830SOL     OW 9388   3.260   3.834   6.770
 2830SOL    HW1 9389   3.301   3.865   6.684
 2830SOL    HW2 9390   3.168   3.872   6.779
 2831SOL     OW 9391   6.325   6.442   4.219
 2831SOL    HW1 9392   6.366   6.443   4.310
 2831SOL    HW2 9393   6.359   6.520   4.167
 2832SOL     OW 9394   0.277   0.729   2.366
 2832SOL    HW1 9395   0.210   0.799   2.392
 2832SOL    HW2 9396   0.316   0.689   2.449
 2833SOL     OW 9397   5.661   3.348   2.758
 2833SOL    HW1 9398   5.728   3.279   2.730
 2833SOL    HW2 9399   5.646   3.413   2.683
 2834SOL     OW 9400   4.375   0.894   5.222
 2834SOL    HW1 9401   4.471   0.884   5.196
 2834SOL    HW2 9402   4.333   0.803   5.233
 2835SOL     OW 9403   6.045   6.459   3.227
 2835SOL    HW1 9404   6.122   6.522   3.224
 2835SOL    HW2 9405   6.077   6.365   3.210
 2836SOL     OW 9406   6.346   6.902   1.523
 2836SOL    HW1 9407   6.327   6.926   1.618
 2836SOL    HW2 9408   6.339   6.802   1.511
 2837SOL     OW 9409   6.203   2.452   3.906
 2837SOL    HW1 9410   6.169   2.545   3.917
 2837SOL    HW2 9411   6.146   2.389   3.959
 2838SOL     OW 9412   1.836   4.772   4.354
 2838SOL    HW1 9413   1.802   4.678   4.353
 2838SOL    HW2 9414   1.927   4.775   4.395
 2839SOL     OW 9415   5.438   2.928   0.941
 2839SOL    HW1 9416   5.374   2.853   0.959
 2839SOL    HW2 9417   5.410   2.977   0.859
 2840SOL     OW 9418   0.481   2.789   4.913
 2840SOL    HW1 9419   0.448   2.695   4.906
 2840SOL    HW2 9420   0.418   2.842   4.970
 2841SOL     OW 9421   0.119   5.971   0.082
 2841SOL    HW1 9422   0.132   5.987   7.004
 2841SOL    HW2 9423   0.065   6.045   0.121
 2842SOL     OW 9424   5.515   3.269   2.958
 2842SOL    HW1 9425   5.559   3.271   2.868
 2842SOL    HW2 9426   5.417   3.253   2.947
 2843SOL     OW 9427   3.806   0.510   3.485
 2843SOL    HW1 9428   3.730   0.454   3.452
 2843SOL    HW2 9429   3.893   0.464   3.464
 2844SOL     OW 9430   1.268   4.138   5.136
 2844SOL    HW1 9431   1.346   4.092   5.094
 2844SOL    HW2 9432   1.295   4.230   5.164
 2845SOL     OW 9433   0.682   4.060   6.447
 2845SOL    HW1 9434   0.664   4.085   6.542
 2845SOL    HW2 9435   0.595   4.054   6.398
 2846SOL     OW 9436   5.314   1.223   6.075
 2846SOL    HW1 9437   5.345   1.148   6.016
 2846SOL    HW2 9438   5.323   1.196   6.171
 2847SOL     OW 9439   4.201   4.694   4.120
 2847SOL    HW1 9440   4.191   4.793   4.121
 2847SOL    HW2 9441   4.222   4.662   4.213
 2848SOL     OW 9442   2.087   6.876   6.008
 2848SOL    HW1 9443   2.080   6.777   6.002
 2848SOL    HW2 9444   2.063   6.917   5.920
 2849SOL     OW 9445   2.420   2.843   1.352
 2849SOL    HW1 9446   2.407   2.870   1.256
 2849SOL    HW2 9447   2.391   2.748   1.364
 2850SOL     OW 9448   4.275   1.908   0.737
 2850SOL    HW1 9449   4.352   1.915   0.675
 2850SOL    HW2 9450   4.308   1.908   0.832
 2851SOL     OW 9451   3.291   5.717   4.928
 2851SOL    HW1 9452   3.389   5.704   4.941
 2851SOL    HW2 9453   3.275   5.781   4.853
 2852SOL     OW 9454   0.139   2.208   6.550
 2852SOL    HW1 9455   0.120   2.180   6.644
 2852SOL    HW2 9456   0.076   2.161   6.488
 2853SOL     OW 9457   4.058   2.851   1.496
 2853SOL    HW1 9458   4.106   2.793   1.430
 2853SOL    HW2 9459   3.983   2.799   1.537
 2854SOL     OW 9460   0.644   0.860   3.474
 2854SOL    HW1 9461   0.629   0.781   3.533
 2854SOL    HW2 9462   0.606   0.842   3.384
 2855SOL     OW 9463   3.003   1.730   3.956
 2855SOL    HW1 9464   2.933   1.799   3.974
 2855SOL    HW2 9465   3.081   1.746   4.016
 2856SOL     OW 9466   3.245   1.382   5.591
 2856SOL    HW1 9467   3.202   1.414   5.507
 2856SOL    HW2 9468   3.222   1.443   5.666
 2857SOL     OW 9469   3.220   2.968   4.752
 2857SOL    HW1 9470   3.137   2.920   4.723
 2857SOL    HW2 9471   3.195   3.052   4.800
 2858SOL     OW 9472   5.450   2.765   2.799
 2858SOL    HW1 9473   5.399   2.809   2.725
 2858SOL    HW2 9474   5.409   2.789   2.887
 2859SOL     OW 9475   5.929   5.411   6.778
 2859SOL    HW1 9476   6.025   5.415   6.807
 2859SOL    HW2 9477   5.924   5.380   6.683
 2860SOL     OW 9478   4.390   2.809   0.974
 2860SOL    HW1 9479   4.385   2.713   0.947
 2860SOL    HW2 9480   4.480   2.846   0.949
 2861SOL     OW 9481   4.618   4.570   5.965
 2861SOL    HW1 9482   4.608   4.482   6.013
 2861SOL    HW2 9483   4.573   4.565   5.876
 2862SOL     OW 9484   6.797   6.302   3.780
 2862SOL    HW1 9485   6.874   6.269   3.725
 2862SOL    HW2 9486   6.799   6.402   3.785
 2863SOL     OW 9487   6.171   6.879   6.956
 2863SOL    HW1 9488   6.085   6.851   7.000
 2863SOL    HW2 9489   6.171   6.978   6.942
 2864SOL     OW 9490   4.394   2.391   0.329
 2864SOL    HW1 9491   4.405   2.452   0.250
 2864SOL    HW2 9492   4.363   2.444   0.408
 2865SOL     OW 9493   4.776   4.747   5.054
 2865SOL    HW1 9494   4.817   4.766   5.143
 2865SOL    HW2 9495   4.844   4.705   4.994
 2866SOL     OW 9496   0.499   0.070   6.588
 2866SOL    HW1 9497   0.410   0.066   6.634
 2866SOL    HW2 9498   0.556   7.015   6.621
 2867SOL     OW 9499   6.008   4.250   4.820
 2867SOL    HW1 9500   5.999   4.300   4.906
 2867SOL    HW2 9501   6.084   4.184   4.828
 2868SOL     OW 9502   1.884   5.295   5.149
 2868SOL    HW1 9503   1.914   5.219   5.208
 2868SOL    HW2 9504   1.956   5.316   5.083
 2869SOL     OW 9505   6.111   1.337   2.271
 2869SOL    HW1 9506   6.068   1.426   2.285
 2869SOL    HW2 9507   6.061   1.286   2.201
 2870SOL     OW 9508   4.640   2.086   1.584
 2870SOL    HW1 9509   4.546   2.055   1.601
 2870SOL    HW2 9510   4.671   2.052   1.496
 2871SOL     OW 9511   1.068   1.307   5.842
 2871SOL    HW1 9512   0.969   1.291   5.833
 2871SOL    HW2 9513   1.086   1.405   5.834
 2872SOL     OW 9514   1.473   0.250   4.087
 2872SOL    HW1 9515   1.400   0.226   4.023
 2872SOL    HW2 9516   1.549   0.292   4.036
 2873SOL     OW 9517   6.170   5.052   2.625
 2873SOL    HW1 9518   6.134   5.145   2.634
 2873SOL    HW2 9519   6.215   5.026   2.710
 2874SOL     OW 9520   5.268   2.059   1.818
 2874SOL    HW1 9521   5.182   2.073   1.867
 2874SOL    HW2 9522   5.252   1.999   1.739
 2875SOL     OW 9523   2.906   5.065   0.206
 2875SOL    HW1 9524   2.867   4.998   0.269
 2875SOL    HW2 9525   2.879   5.043   0.112
 2876SOL     OW 9526   5.916   2.110   1.888
 2876SOL    HW1 9527   5.895   2.053   1.809
 2876SOL    HW2 9528   5.839   2.172   1.906
 2877SOL     OW 9529   1.286   3.640   5.505
 2877SOL    HW1 9530   1.262   3.592   5.589
 2877SOL    HW2 9531   1.307   3.736   5.526
 2878SOL     OW 9532   4.857   5.020   0.404
 2878SOL    HW1 9533   4.875   4.969   0.488
 2878SOL    HW2 9534   4.826   5.112   0.426
 2879SOL     OW 9535   4.950   4.530   6.958
 2879SOL    HW1 9536   5.021   4.477   7.005
 2879SOL    HW2 9537   4.906   4.472   6.889
 2880SOL     OW 9538   1.716   6.505   3.223
 2880SOL    HW1 9539   1.739   6.420   3.270
 2880SOL    HW2 9540   1.778   6.577   3.254
 2881SOL     OW 9541   6.535   0.149   0.482
 2881SOL    HW1 9542   6.518   0.160   0.384
 2881SOL    HW2 9543   6.628   0.115   0.495
 2882SOL     OW 9544   6.488   4.122   3.296
 2882SOL    HW1 9545   6.569   4.114   3.354
 2882SOL    HW2 9546   6.408   4.087   3.345
 2883SOL     OW 9547   3.582   6.737   2.486
 2883SOL    HW1 9548   3.486   6.709   2.496
 2883SOL    HW2 9549   3.629   6.730   2.574
 2884SOL     OW 9550   2.012   4.793   2.940
 2884SOL    HW1 9551   2.055   4.844   2.866
 2884SOL    HW2 9552   1.912   4.795   2.928
 2885SOL     OW 9553   0.991   2.204   4.544
 2885SOL    HW1 9554   1.088   2.229   4.542
 2885SOL    HW2 9555   0.940   2.269   4.600
 2886SOL     OW 9556   2.499   2.636   6.230
 2886SOL    HW1 9557   2.508   2.722   6.281
 2886SOL    HW2 9558   2.405   2.625   6.200
 2887SOL     OW 9559   2.730   0.722   5.201
 2887SOL    HW1 9560   2.790   0.643   5.213
 2887SOL    HW2 9561   2.731   0.778   5.284
 2888SOL     OW 9562   0.223   6.022   6.857
 2888SOL    HW1 9563   0.305   6.002   6.804
 2888SOL    HW2 9564   0.142   6.004   6.802
 2889SOL     OW 9565   1.474   1.065   0.525
 2889SOL    HW1 9566   1.418   0.984   0.505
 2889SOL    HW2 9567   1.420   1.148   0.513
 2890SOL     OW 9568   2.568   0.476   0.767
 2890SOL    HW1 9569   2.506   0.488   0.689
 2890SOL    HW2 9570   2.570   0.560   0.821
 2891SOL     OW 9571   3.101   4.810   5.087
 2891SOL    HW1 9572   3.045   4.728   5.096
 2891SOL    HW2 9573   3.089   4.868   5.168
 2892SOL     OW 9574   4.334   3.917   5.330
 2892SOL    HW1 9575   4.327   4.016   5.335
 2892SOL    HW2 9576   4.260   3.881   5.273
 2893SOL     OW 9577   2.957   0.655   4.851
 2893SOL    HW1 9578   2.963   0.579   4.916
 2893SOL    HW2 9579   2.861   0.671   4.827
 2894SOL     OW 9580   4.108   3.457   2.212
 2894SOL    HW1 9581   4.131   3.544   2.255
 2894SOL    HW2 9582   4.171   3.439   2.137
 2895SOL     OW 9583   3.843   2.943   0.129
 2895SOL    HW1 9584   3.811   2.854   0.159
 2895SOL    HW2 9585   3.766   2.995   0.090
 2896SOL     OW 9586   1.246   4.650   0.026
 2896SOL    HW1 9587   1.341   4.681   0.033
 2896SOL    HW2 9588   1.186   4.729   0.014
 2897SOL     OW 9589   0.419   0.009   3.354
 2897SOL    HW1 9590   0.451   0.076   3.288
 2897SOL    HW2 9591   0.488   6.958   3.367
 2898SOL     OW 9592   1.963   5.296   2.757
 2898SOL    HW1 9593   1.868   5.312   2.730
 2898SOL    HW2 9594   1.966   5.240   2.840
 2899SOL     OW 9595   5.829   1.016   0.943
 2899SOL    HW1 9596   5.738   1.013   0.901
 2899SOL    HW2 9597   5.824   1.064   1.030
 2900SOL     OW 9598   2.497   5.661   6.581
 2900SOL    HW1 9599   2.450   5.622   6.502
 2900SOL    HW2 9600   2.535   5.751   6.556
 2901SOL     OW 9601   2.715   6.625   1.736
 2901SOL    HW1 9602   2.804   6.606   1.696
 2901SOL    HW2 9603   2.718   6.713   1.783
 2902SOL     OW 9604   4.475   5.323   1.196
 2902SOL    HW1 9605   4.549   5.282   1.249
 2902SOL    HW2 9606   4.401   5.257   1.184
 2903SOL     OW 9607   3.098   2.336   1.616
 2903SOL    HW1 9608   3.051   2.363   1.700
 2903SOL    HW2 9609   3.107   2.237   1.613
 2904SOL     OW 9610   2.756   1.848   4.664
 2904SOL    HW1 9611   2.669   1.851   4.615
 2904SOL    HW2 9612   2.746   1.892   4.753
 2905SOL     OW 9613   1.140   2.546   2.079
 2905SOL    HW1 9614   1.214   2.481   2.059
 2905SOL    HW2 9615   1.167   2.637   2.047
 2906SOL     OW 9616   5.084   5.250   2.667
 2906SOL    HW1 9617   5.094   5.153   2.645
 2906SOL    HW2 9618   4.988   5.271   2.687
 2907SOL     OW 9619   5.780   0.449   5.009
 2907SOL    HW1 9620   5.710   0.385   4.977
 2907SOL    HW2 9621   5.860   0.399   5.039
 2908SOL     OW 9622   4.254   6.462   4.698
 2908SOL    HW1 9623   4.162   6.429   4.715
 2908SOL    HW2 9624   4.257   6.510   4.610
 2909SOL     OW 9625   2.144   6.216   5.944
 2909SOL    HW1 9626   2.145   6.256   6.036
 2909SOL    HW2 9627   2.121   6.119   5.951
 2910SOL     OW 9628   3.963   5.310   5.006
 2910SOL    HW1 9629   3.954   5.259   5.091
 2910SOL    HW2 9630   3.940   5.406   5.021
 2911SOL     OW 9631   2.397   4.617   3.063
 2911SOL    HW1 9632   2.320   4.669   3.102
 2911SOL    HW2 9633   2.428   4.549   3.129
 2912SOL     OW 9634   2.674   5.157   1.327
 2912SOL    HW1 9635   2.593   5.119   1.372
 2912SOL    HW2 9636   2.646   5.217   1.252
 2913SOL     OW 9637   0.363   2.839   1.264
 2913SOL    HW1 9638   0.268   2.865   1.244
 2913SOL    HW2 9639   0.366   2.742   1.289
 2914SOL     OW 9640   5.124   4.680   6.470
 2914SOL    HW1 9641   5.037   4.711   6.430
 2914SOL    HW2 9642   5.195   4.747   6.453
 2915SOL     OW 9643   4.884   1.086   3.234
 2915SOL    HW1 9644   4.786   1.100   3.218
 2915SOL    HW2 9645   4.922   1.165   3.282
 2916SOL     OW 9646   5.126   0.377   4.411
 2916SOL    HW1 9647   5.206   0.330   4.375
 2916SOL    HW2 9648   5.124   0.471   4.376
 2917SOL     OW 9649   4.176   0.398   2.576
 2917SOL    HW1 9650   4.142   0.355   2.492
 2917SOL    HW2 9651   4.114   0.378   2.651
 2918SOL     OW 9652   1.112   3.199   4.738
 2918SOL    HW1 9653   1.185   3.263   4.712
 2918SOL    HW2 9654   1.153   3.113   4.767
 2919SOL     OW 9655   5.630   5.376   0.304
 2919SOL    HW1 9656   5.626   5.280   0.275
 2919SOL    HW2 9657   5.538   5.408   0.327
 2920SOL     OW 9658   4.467   1.314   2.835
 2920SOL    HW1 9659   4.393   1.299   2.901
 2920SOL    HW2 9660   4.428   1.350   2.750
 2921SOL     OW 9661   6.884   1.167   0.419
 2921SOL    HW1 9662   6.853   1.183   0.326
 2921SOL    HW2 9663   6.883   1.253   0.471
 2922SOL     OW 9664   4.902   0.304   4.853
 2922SOL    HW1 9665   4.935   0.366   4.782
 2922SOL    HW2 9666   4.958   0.221   4.855
 2923SOL     OW 9667   0.283   4.477   6.944
 2923SOL    HW1 9668   0.218   4.517   6.879
 2923SOL    HW2 9669   0.254   4.385   6.969
 2924SOL     OW 9670   6.156   6.771   6.508
 2924SOL    HW1 9671   6.125   6.699   6.445
 2924SOL    HW2 9672   6.106   6.856   6.487
 2925SOL     OW 9673   6.511   4.631   0.504
 2925SOL    HW1 9674   6.538   4.581   0.421
 2925SOL    HW2 9675   6.487   4.565   0.576
 2926SOL     OW 9676   0.124   1.318   2.920
 2926SOL    HW1 9677   0.076   1.406   2.916
 2926SOL    HW2 9678   0.085   1.256   2.852
 2927SOL     OW 9679   6.274   2.895   2.705
 2927SOL    HW1 9680   6.199   2.897   2.640
 2927SOL    HW2 9681   6.263   2.969   2.772
 2928SOL     OW 9682   5.472   6.075   0.895
 2928SOL    HW1 9683   5.559   6.081   0.943
 2928SOL    HW2 9684   5.488   6.058   0.798
 2929SOL     OW 9685   0.244   0.818   5.582
 2929SOL    HW1 9686   0.172   0.772   5.635
 2929SOL    HW2 9687   0.284   0.891   5.637
 2930SOL     OW 9688   2.280   0.122   4.134
 2930SOL    HW1 9689   2.212   0.052   4.111
 2930SOL    HW2 9690   2.300   0.177   4.053
 2931SOL     OW 9691   4.329   4.670   6.285
 2931SOL    HW1 9692   4.348   4.726   6.205
 2931SOL    HW2 9693   4.271   4.721   6.349
 2932SOL     OW 9694   0.774   4.568   1.440
 2932SOL    HW1 9695   0.780   4.508   1.361
 2932SOL    HW2 9696   0.682   4.605   1.448
 2933SOL     OW 9697   4.810   2.380   2.993
 2933SOL    HW1 9698   4.739   2.447   2.971
 2933SOL    HW2 9699   4.899   2.417   2.967
 2934SOL     OW 9700   1.842   1.261   1.331
 2934SOL    HW1 9701   1.833   1.361   1.325
 2934SOL    HW2 9702   1.758   1.218   1.298
 2935SOL     OW 9703   0.241   1.309   1.436
 2935SOL    HW1 9704   0.175   1.238   1.461
 2935SOL    HW2 9705   0.297   1.331   1.516
 2936SOL     OW 9706   4.125   4.786   1.341
 2936SOL    HW1 9707   4.123   4.738   1.254
 2936SOL    HW2 9708   4.200   4.752   1.397
 2937SOL     OW 9709   2.356   4.629   0.339
 2937SOL    HW1 9710   2.290   4.661   0.271
 2937SOL    HW2 9711   2.378   4.533   0.321
 2938SOL     OW 9712   4.186   5.561   6.909
 2938SOL    HW1 9713   4.199   5.632   6.979
 2938SOL    HW2 9714   4.184   5.604   6.819
 2939SOL     OW 9715   6.960   6.313   6.046
 2939SOL    HW1 9716   6.864   6.286   6.048
 2939SOL    HW2 9717   6.994   6.306   5.952
 2940SOL     OW 9718   3.593   0.272   5.774
 2940SOL    HW1 9719   3.511   0.312   5.732
 2940SOL    HW2 9720   3.639   0.214   5.707
 2941SOL     OW 9721   3.774   1.304   5.403
 2941SOL    HW1 9722   3.842   1.349   5.460
 2941SOL    HW2 9723   3.683   1.323   5.439
 2942SOL     OW 9724   3.269   6.560   3.926
 2942SOL    HW1 9725   3.358   6.519   3.910
 2942SOL    HW2 9726   3.197   6.498   3.894
 2943SOL     OW 9727   5.436   4.662   2.869
 2943SOL    HW1 9728   5.529   4.640   2.898
 2943SOL    HW2 9729   5.388   4.710   2.944
 2944SOL     OW 9730   5.018   5.718   0.534
 2944SOL    HW1 9731   4.924   5.707   0.500
 2944SOL    HW2 9732   5.049   5.811   0.517
 2945SOL     OW 9733   3.263   3.627   4.512
 2945SOL    HW1 9734   3.268   3.548   4.573
 2945SOL    HW2 9735   3.288   3.709   4.562
 2946SOL     OW 9736   1.319   6.341   5.186
 2946SOL    HW1 9737   1.300   6.438   5.204
 2946SOL    HW2 9738   1.254   6.307   5.118
 2947SOL     OW 9739   6.803   5.248   6.603
 2947SOL    HW1 9740   6.826   5.264   6.700
 2947SOL    HW2 9741   6.875   5.194   6.560
 2948SOL     OW 9742   6.211   3.296   5.327
 2948SOL    HW1 9743   6.287   3.318   5.265
 2948SOL    HW2 9744   6.212   3.198   5.347
 2949SOL     OW 9745   0.740   6.758   0.988
 2949SOL    HW1 9746   0.736   6.815   0.906
 2949SOL    HW2 9747   0.835   6.739   1.011
 2950SOL     OW 9748   5.206   3.477   5.004
 2950SOL    HW1 9749   5.268   3.526   4.942
 2950SOL    HW2 9750   5.254   3.401   5.046
 2951SOL     OW 9751   6.226   0.359   6.941
 2951SOL    HW1 9752   6.242   0.455   6.961
 2951SOL    HW2 9753   6.189   0.314   0.002
 2952SOL     OW 9754   0.452   3.676   1.663
 2952SOL    HW1 9755   0.480   3.643   1.753
 2952SOL    HW2 9756   0.355   3.657   1.648
 2953SOL     OW 9757   5.725   1.796   1.882
 2953SOL    HW1 9758   5.652   1.864   1.871
 2953SOL    HW2 9759   5.684   1.705   1.889
 2954SOL     OW 9760   5.028   6.223   2.072
 2954SOL    HW1 9761   5.094   6.151   2.091
 2954SOL    HW2 9762   5.022   6.239   1.974
 2955SOL     OW 9763   5.910   1.612   1.304
 2955SOL    HW1 9764   5.851   1.547   1.352
 2955SOL    HW2 9765   5.955   1.566   1.227
 2956SOL     OW 9766   5.665   6.131   3.629
 2956SOL    HW1 9767   5.694   6.141   3.534
 2956SOL    HW2 9768   5.704   6.205   3.684
 2957SOL     OW 9769   1.279   4.710   1.814
 2957SOL    HW1 9770   1.211   4.718   1.741
 2957SOL    HW2 9771   1.263   4.626   1.865
 2958SOL     OW 9772   2.490   4.652   6.264
 2958SOL    HW1 9773   2.536   4.596   6.333
 2958SOL    HW2 9774   2.391   4.651   6.282
 2959SOL     OW 9775   3.765   5.327   0.010
 2959SOL    HW1 9776   3.711   5.367   6.955
 2959SOL    HW2 9777   3.795   5.400   0.071
 2960SOL     OW 9778   3.060   1.859   0.475
 2960SOL    HW1 9779   3.034   1.766   0.503
 2960SOL    HW2 9780   2.996   1.892   0.406
 2961SOL     OW 9781   5.379   1.451   4.015
 2961SOL    HW1 9782   5.427   1.537   4.034
 2961SOL    HW2 9783   5.370   1.399   4.100
 2962SOL     OW 9784   4.530   0.244   2.575
 2962SOL    HW1 9785   4.498   0.306   2.647
 2962SOL    HW2 9786   4.558   0.157   2.615
 2963SOL     OW 9787   2.162   3.095   4.983
 2963SOL    HW1 9788   2.116   3.133   5.064
 2963SOL    HW2 9789   2.242   3.043   5.011
 2964SOL     OW 9790   2.714   6.084   0.276
 2964SOL    HW1 9791   2.758   6.021   0.341
 2964SOL    HW2 9792   2.695   6.171   0.322
 2965SOL     OW 9793   0.817   2.841   6.387
 2965SOL    HW1 9794   0.901   2.786   6.389
 2965SOL    HW2 9795   0.827   2.919   6.450
 2966SOL     OW 9796   4.521   5.236   3.227
 2966SOL    HW1 9797   4.455   5.209   3.157
 2966SOL    HW2 9798   4.483   5.216   3.317
 2967SOL     OW 9799   5.590   2.591   4.231
 2967SOL    HW1 9800   5.683   2.556   4.243
 2967SOL    HW2 9801   5.533   2.562   4.308
 2968SOL     OW 9802   6.551   4.605   4.181
 2968SOL    HW1 9803   6.512   4.515   4.165
 2968SOL    HW2 9804   6.506   4.673   4.123
 2969SOL     OW 9805   3.497   1.401   4.893
 2969SOL    HW1 9806   3.484   1.462   4.815
 2969SOL    HW2 9807   3.572   1.435   4.950
 2970SOL     OW 9808   1.363   4.323   6.058
 2970SOL    HW1 9809   1.326   4.230   6.063
 2970SOL    HW2 9810   1.458   4.319   6.027
 2971SOL     OW 9811   5.643   2.640   1.835
 2971SOL    HW1 9812   5.576   2.657   1.907
 2971SOL    HW2 9813   5.734   2.667   1.867
 2972SOL     OW 9814   0.510   4.099   4.357
 2972SOL    HW1 9815   0.584   4.033   4.341
 2972SOL    HW2 9816   0.422   4.051   4.356
 2973SOL     OW 9817   6.157   6.953   4.152
 2973SOL    HW1 9818   6.128   6.892   4.226
 2973SOL    HW2 9819   6.145   0.028   4.179
 2974SOL     OW 9820   6.735   4.133   0.966
 2974SOL    HW1 9821   6.770   4.157   1.056
 2974SOL    HW2 9822   6.635   4.139   0.967
 2975SOL     OW 9823   6.006   1.492   4.185
 2975SOL    HW1 9824   5.931   1.555   4.206
 2975SOL    HW2 9825   6.069   1.536   4.122
 2976SOL     OW 9826   2.538   5.733   0.848
 2976SOL    HW1 9827   2.607   5.711   0.918
 2976SOL    HW2 9828   2.547   5.669   0.772
 2977SOL     OW 9829   2.771   6.959   3.549
 2977SOL    HW1 9830   2.832   6.891   3.509
 2977SOL    HW2 9831   2.683   6.957   3.503
 2978SOL     OW 9832   2.419   0.431   6.663
 2978SOL    HW1 9833   2.371   0.396   6.744
 2978SOL    HW2 9834   2.452   0.523   6.682
 2979SOL     OW 9835   2.494   1.264   3.231
 2979SOL    HW1 9836   2.509   1.285   3.134
 2979SOL    HW2 9837   2.509   1.166   3.246
 2980SOL     OW 9838   5.897   0.081   3.358
 2980SOL    HW1 9839   5.919   0.062   3.262
 2980SOL    HW2 9840   5.865   7.017   3.401
 2981SOL     OW 9841   1.474   1.266   5.537
 2981SOL    HW1 9842   1.484   1.309   5.626
 2981SOL    HW2 9843   1.384   1.223   5.529
 2982SOL     OW 9844   5.116   5.853   2.393
 2982SOL    HW1 9845   5.119   5.950   2.420
 2982SOL    HW2 9846   5.209   5.816   2.390
 2983SOL     OW 9847   0.816   0.984   2.621
 2983SOL    HW1 9848   0.838   1.075   2.585
 2983SOL    HW2 9849   0.899   0.928   2.622
 2984SOL     OW 9850   6.411   4.417   1.536
 2984SOL    HW1 9851   6.436   4.401   1.440
 2984SOL    HW2 9852   6.491   4.405   1.594
 2985SOL     OW 9853   6.301   2.205   2.904
 2985SOL    HW1 9854   6.358   2.259   2.966
 2985SOL    HW2 9855   6.208   2.240   2.905
 2986SOL     OW 9856   1.438   3.429   4.529
 2986SOL    HW1 9857   1.409   3.387   4.443
 2986SOL    HW2 9858   1.377   3.400   4.603
 2987SOL     OW 9859   5.010   1.905   4.632
 2987SOL    HW1 9860   5.023   1.963   4.712
 2987SOL    HW2 9861   4.948   1.830   4.655
 2988SOL     OW 9862   0.595   0.879   2.528
 2988SOL    HW1 9863   0.670   0.919   2.582
 2988SOL    HW2 9864   0.631   0.806   2.471
 2989SOL     OW 9865   0.046   5.299   0.547
 2989SOL    HW1 9866   7.005   5.221   0.555
 2989SOL    HW2 9867   0.065   5.316   0.450
 2990SOL     OW 9868   2.813   1.348   1.473
 2990SOL    HW1 9869   2.827   1.249   1.482
 2990SOL    HW2 9870   2.828   1.392   1.561
 2991SOL     OW 9871   6.112   4.805   6.850
 2991SOL    HW1 9872   6.195   4.760   6.818
 2991SOL    HW2 9873   6.110   4.805   6.950
 2992SOL     OW 9874   4.334   4.582   6.769
 2992SOL    HW1 9875   4.287   4.544   6.849
 2992SOL    HW2 9876   4.426   4.613   6.796
 2993SOL     OW 9877   1.256   4.250   7.000
 2993SOL    HW1 9878   1.283   4.165   0.024
 2993SOL    HW2 9879   1.192   4.300   0.039
 2994SOL     OW 9880   4.237   6.722   6.507
 2994SOL    HW1 9881   4.327   6.733   6.551
 2994SOL    HW2 9882   4.183   6.804   6.520
 2995SOL     OW 9883   2.586   0.549   5.488
 2995SOL    HW1 9884   2.583   0.635   5.539
 2995SOL    HW2 9885   2.509   0.491   5.516
 2996SOL     OW 9886   4.631   6.744   5.998
 2996SOL    HW1 9887   4.718   6.759   5.952
 2996SOL    HW2 9888   4.577   6.829   5.997
 2997SOL     OW 9889   3.867   5.702   0.507
 2997SOL    HW1 9890   3.909   5.692   0.417
 2997SOL    HW2 9891   3.788   5.641   0.514
 2998SOL     OW 9892   6.396   3.947   6.237
 2998SOL    HW1 9893   6.424   3.857   6.205
 2998SOL    HW2 9894   6.478   4.001   6.258
 2999SOL     OW 9895   2.402   1.364   1.932
 2999SOL    HW1 9896   2.370   1.436   1.870
 2999SOL    HW2 9897   2.420   1.403   2.022
 3000SOL     OW 9898   1.340   2.156   5.040
 3000SOL    HW1 9899   1.245   2.174   5.064
 3000SOL    HW2 9900   1.350   2.159   4.940
 3001SOL     OW 9901   4.772   5.932   5.868
 3001SOL    HW1 9902   4.792   5.958   5.773
 3001SOL    HW2 9903   4.742   5.837   5.871
 3002SOL     OW 9904   3.507   0.167   5.208
 3002SOL    HW1 9905   3.575   0.235   5.183
 3002SOL    HW2 9906   3.433   0.167   5.140
 3003SOL     OW 9907   1.664   0.256   6.019
 3003SOL    HW1 9908   1.599   0.319   6.062
 3003SOL    HW2 9909   1.614   0.178   5.981
 3004SOL     OW 9910   0.062   2.930   5.908
 3004SOL    HW1 9911   0.064   2.839   5.949
 3004SOL    HW2 9912   7.002   2.938   5.849
 3005SOL     OW 9913   4.964   2.059   0.469
 3005SOL    HW1 9914   4.973   2.123   0.393
 3005SOL    HW2 9915   5.008   1.972   0.445
 3006SOL     OW 9916   4.624   6.307   1.985
 3006SOL    HW1 9917   4.621   6.316   2.085
 3006SOL    HW2 9918   4.540   6.345   1.946
 3007SOL     OW 9919   5.828   5.132   1.791
 3007SOL    HW1 9920   5.795   5.217   1.751
 3007SOL    HW2 9921   5.875   5.152   1.877
 3008SOL     OW 9922   4.592   5.006   5.722
 3008SOL    HW1 9923   4.650   4.976   5.798
 3008SOL    HW2 9924   4.600   5.105   5.711
 3009SOL     OW 9925   1.654   0.437   2.470
 3009SOL    HW1 9926   1.621   0.346   2.442
 3009SOL    HW2 9927   1.753   0.435   2.478
 3010SOL     OW 9928   3.295   0.393   3.645
 3010SOL    HW1 9929   3.246   0.401   3.559
 3010SOL    HW2 9930   3.342   0.305   3.649
 3011SOL     OW 9931   4.995   0.214   0.582
 3011SOL    HW1 9932   5.088   0.237   0.554
 3011SOL    HW2 9933   4.997   0.139   0.648
 3012SOL     OW 9934   0.068   5.228   1.318
 3012SOL    HW1 9935   7.005   5.174   1.303
 3012SOL    HW2 9936   0.143   5.168   1.345
 3013SOL     OW 9937   5.823   4.705   1.663
 3013SOL    HW1 9938   5.891   4.689   1.735
 3013SOL    HW2 9939   5.869   4.732   1.579
 3014SOL     OW 9940   5.808   5.737   5.308
 3014SOL    HW1 9941   5.725   5.792   5.296
 3014SOL    HW2 9942   5.887   5.797   5.317
 3015SOL     OW 9943   3.192   1.348   0.459
 3015SOL    HW1 9944   3.148   1.284   0.397
 3015SOL    HW2 9945   3.265   1.302   0.509
 3016SOL     OW 9946   4.223   6.165   4.388
 3016SOL    HW1 9947   4.302   6.197   4.440
 3016SOL    HW2 9948   4.211   6.223   4.307
 3017SOL     OW 9949   0.711   6.777   1.803
 3017SOL    HW1 9950   0.795   6.760   1.855
 3017SOL    HW2 9951   0.709   6.872   1.773
 3018SOL     OW 9952   4.401   0.087   5.800
 3018SOL    HW1 9953   4.409   0.150   5.722
 3018SOL    HW2 9954   4.431   7.016   5.772
 3019SOL     OW 9955   4.686   0.849   1.708
 3019SOL    HW1 9956   4.686   0.932   1.764
 3019SOL    HW2 9957   4.664   0.873   1.614
 3020SOL     OW 9958   1.781   0.357   1.826
 3020SOL    HW1 9959   1.855   0.340   1.761
 3020SOL    HW2 9960   1.696   0.319   1.790
 3021SOL     OW 9961   4.185   0.678   6.377
 3021SOL    HW1 9962   4.206   0.664   6.474
 3021SOL    HW2 9963   4.149   0.771   6.364
 3022SOL     OW 9964   6.945   0.629   3.202
 3022SOL    HW1 9965   7.006   0.553   3.225
 3022SOL    HW2 9966   6.850   0.602   3.222
 3023SOL     OW 9967   5.809   0.067   1.746
 3023SOL    HW1 9968   5.742   0.038   1.677
 3023SOL    HW2 9969   5.789   0.020   1.832
 3024SOL     OW 9970   1.867   0.199   6.923
 3024SOL    HW1 9971   1.826   0.204   6.832
 3024SOL    HW2 9972   1.863   0.105   6.956
 3025SOL     OW 9973   1.880   2.745   1.785
 3025SOL    HW1 9974   1.843   2.746   1.878
 3025SOL    HW2 9975   1.805   2.739   1.719
 3026SOL     OW 9976   3.208   6.016   0.592
 3026SOL    HW1 9977   3.120   6.048   0.628
 3026SOL    HW2 9978   3.212   6.034   0.494
 3027SOL     OW 9979   1.386   2.059   3.926
 3027SOL    HW1 9980   1.417   2.151   3.950
 3027SOL    HW2 9981   1.307   2.034   3.983
 3028SOL     OW 9982   1.393   0.720   4.611
 3028SOL    HW1 9983   1.355   0.730   4.702
 3028SOL    HW2 9984   1.392   0.624   4.584
 3029SOL     OW 9985   6.409   4.993   5.611
 3029SOL    HW1 9986   6.379   4.937   5.534
 3029SOL    HW2 9987   6.369   4.957   5.696
 3030SOL     OW 9988   0.976   0.962   5.583
 3030SOL    HW1 9989   1.041   1.031   5.551
 3030SOL    HW2 9990   0.964   0.892   5.512
 3031SOL     OW 9991   0.133   5.670   6.082
 3031SOL    HW1 9992   0.078   5.728   6.021
 3031SOL    HW2 9993   0.130   5.575   6.050
 3032SOL     OW 9994   3.848   6.743   5.917
 3032SOL    HW1 9995   3.868   6.779   6.008
 3032SOL    HW2 9996   3.749   6.733   5.906
 3033SOL     OW 9997   4.988   4.392   6.122
 3033SOL    HW1 9998   5.036   4.310   6.090
 3033SOL    HW2 9999   4.957   4.377   6.216
 3034SOL     OW10000   2.558   6.760   5.110
 3034SOL    HW110001   2.654   6.776   5.130
 3034SOL    HW210002   2.506   6.754   5.195
 3035SOL     OW10003   5.973   6.774   0.061
 3035SOL    HW110004   5.877   6.747   0.052
 3035SOL    HW210005   6.027   6.697   0.094
 3036SOL     OW10006   0.703   5.088   5.733
 3036SOL    HW110007   0.648   5.043   5.663
 3036SOL    HW210008   0.673   5.059   5.824
 3037SOL     OW10009   5.284   6.118   6.191
 3037SOL    HW110010   5.203   6.174   6.211
 3037SOL    HW210011   5.355   6.138   6.257
 3038SOL     OW10012   5.876   6.001   5.674
 3038SOL    HW110013   5.879   5.904   5.699
 3038SOL    HW210014   5.962   6.045   5.698
 3039SOL     OW10015   0.556   4.996   0.282
 3039SOL    HW110016   0.641   5.022   0.235
 3039SOL    HW210017   0.503   4.934   0.224
 3040SOL     OW10018   2.680   1.176   0.423
 3040SOL    HW110019   2.622   1.231   0.363
 3040SOL    HW210020   2.623   1.119   0.482
 3041SOL     OW10021   1.649   2.001   5.843
 3041SOL    HW110022   1.745   2.023   5.826
 3041SOL    HW210023   1.628   2.013   5.940
 3042SOL     OW10024   5.771   0.202   1.489
 3042SOL    HW110025   5.726   0.124   1.531
 3042SOL    HW210026   5.858   0.220   1.535
 3043SOL     OW10027   0.524   5.215   6.521
 3043SOL    HW110028   0.569   5.285   6.577
 3043SOL    HW210029   0.429   5.206   6.550
 3044SOL     OW10030   2.589   3.126   6.416
 3044SOL    HW110031   2.591   3.038   6.368
 3044SOL    HW210032   2.570   3.199   6.352
 3045SOL     OW10033   4.764   2.651   4.598
 3045SOL    HW110034   4.731   2.706   4.522
 3045SOL    HW210035   4.688   2.630   4.660
 3046SOL     OW10036   2.741   2.388   5.905
 3046SOL    HW110037   2.815   2.355   5.963
 3046SOL    HW210038   2.766   2.477   5.867
 3047SOL     OW10039   6.790   5.229   1.899
 3047SOL    HW110040   6.843   5.238   1.983
 3047SOL    HW210041   6.803   5.310   1.842
 3048SOL     OW10042   3.385   2.982   2.244
 3048SOL    HW110043   3.308   2.985   2.180
 3048SOL    HW210044   3.450   2.913   2.214
 3049SOL     OW10045   0.973   0.362   0.551
 3049SOL    HW110046   1.018   0.377   0.639
 3049SOL    HW210047   0.889   0.309   0.565
 3050SOL     OW10048   1.391   0.541   4.158
 3050SOL    HW110049   1.358   0.616   4.215
 3050SOL    HW210050   1.487   0.522   4.180
 3051SOL     OW10051   2.925   4.894   5.709
 3051SOL    HW110052   2.850   4.835   5.678
 3051SOL    HW210053   2.983   4.842   5.772
 3052SOL     OW10054   4.843   6.288   2.670
 3052SOL    HW110055   4.869   6.365   2.612
 3052SOL    HW210056   4.863   6.309   2.765
 3053SOL     OW10057   3.818   6.292   1.958
 3053SOL    HW110058   3.822   6.349   2.041
 3053SOL    HW210059   3.780   6.345   1.883
 3054SOL     OW10060   1.727   4.501   4.988
 3054SOL    HW110061   1.745   4.414   4.943
 3054SOL    HW210062   1.803   4.523   5.049
 3055SOL     OW10063   6.390   6.560   2.749
 3055SOL    HW110064   6.421   6.594   2.838
 3055SOL    HW210065   6.386   6.460   2.751
 3056SOL     OW10066   4.969   0.835   2.633
 3056SOL    HW110067   5.030   0.823   2.712
 3056SOL    HW210068   4.886   0.780   2.647
 3057SOL     OW10069   6.779   4.777   2.682
 3057SOL    HW110070   6.756   4.874   2.674
 3057SOL    HW210071   6.707   4.722   2.639
 3058SOL     OW10072   5.877   6.463   1.391
 3058SOL    HW110073   5.820   6.537   1.355
 3058SOL    HW210074   5.877   6.466   1.491
 3059SOL     OW10075   2.675   2.653   6.630
 3059SOL    HW110076   2.658   2.752   6.639
 3059SOL    HW210077   2.595   2.610   6.587
 3060SOL     OW10078   0.541   6.181   6.176
 3060SOL    HW110079   0.597   6.099   6.166
 3060SOL    HW210080   0.460   6.174   6.118
 3061SOL     OW10081   6.874   0.978   5.827
 3061SOL    HW110082   6.870   0.992   5.926
 3061SOL    HW210083   6.803   0.913   5.800
 3062SOL     OW10084   3.178   5.008   6.225
 3062SOL    HW110085   3.080   5.002   6.209
 3062SOL    HW210086   3.195   5.025   6.322
 3063SOL     OW10087   2.975   6.069   0.717
 3063SOL    HW110088   2.977   6.000   0.789
 3063SOL    HW210089   2.935   6.153   0.753
 3064SOL     OW10090   0.155   4.320   3.089
 3064SOL    HW110091   0.120   4.286   3.002
 3064SOL    HW210092   0.212   4.249   3.131
 3065SOL     OW10093   3.509   1.828   1.292
 3065SOL    HW110094   3.452   1.904   1.260
 3065SOL    HW210095   3.588   1.865   1.342
 3066SOL     OW10096   5.585   5.132   0.897
 3066SOL    HW110097   5.674   5.174   0.877
 3066SOL    HW210098   5.592   5.033   0.885
 3067SOL     OW10099   4.098   6.840   3.080
 3067SOL    HW110100   3.998   6.840   3.068
 3067SOL    HW210101   4.128   6.931   3.109
 3068SOL     OW10102   6.296   4.242   6.820
 3068SOL    HW110103   6.215   4.298   6.803
 3068SOL    HW210104   6.299   4.217   6.917
 3069SOL     OW10105   0.982   4.955   3.146
 3069SOL    HW110106   1.044   4.877   3.141
 3069SOL    HW210107   1.033   5.039   3.126
 3070SOL     OW10108   4.715   1.727   3.609
 3070SOL    HW110109   4.805   1.683   3.617
 3070SOL    HW210110   4.727   1.825   3.599
 3071SOL     OW10111   5.786   0.336   3.824
 3071SOL    HW110112   5.712   0.278   3.788
 3071SOL    HW210113   5.857   0.278   3.864
 3072SOL     OW10114   6.735   0.584   1.486
 3072SOL    HW110115   6.651   0.613   1.533
 3072SOL    HW210116   6.746   0.635   1.401
 3073SOL     OW10117   1.674   1.710   5.156
 3073SOL    HW110118   1.575   1.696   5.147
 3073SOL    HW210119   1.692   1.797   5.201
 3074SOL     OW10120   4.766   3.633   5.915
 3074SOL    HW110121   4.703   3.638   5.992
 3074SOL    HW210122   4.771   3.539   5.882
 3075SOL     OW10123   0.126   5.376   1.061
 3075SOL    HW110124   0.068   5.448   1.022
 3075SOL    HW210125   0.073   5.321   1.125
 3076SOL     OW10126   0.793   0.748   5.409
 3076SOL    HW110127   0.799   0.765   5.311
 3076SOL    HW210128   0.766   0.833   5.456
 3077SOL     OW10129   4.198   4.677   3.372
 3077SOL    HW110130   4.275   4.615   3.354
 3077SOL    HW210131   4.153   4.698   3.286
 3078SOL     OW10132   1.973   2.936   0.565
 3078SOL    HW110133   1.975   3.036   0.565
 3078SOL    HW210134   2.065   2.901   0.586
 3079SOL     OW10135   5.374   3.279   5.832
 3079SOL    HW110136   5.397   3.194   5.880
 3079SOL    HW210137   5.325   3.257   5.748
 3080SOL     OW10138   6.049   0.088   2.383
 3080SOL    HW110139   6.132   0.123   2.341
 3080SOL    HW210140   5.985   0.061   2.311
 3081SOL     OW10141   1.051   4.536   5.832
 3081SOL    HW110142   1.129   4.591   5.861
 3081SOL    HW210143   1.042   4.541   5.732
 3082SOL     OW10144   3.932   6.531   2.669
 3082SOL    HW110145   4.022   6.488   2.678
 3082SOL    HW210146   3.867   6.484   2.729
 3083SOL     OW10147   3.808   6.632   2.347
 3083SOL    HW110148   3.733   6.673   2.398
 3083SOL    HW210149   3.811   6.533   2.365
 3084SOL     OW10150   4.644   6.652   3.972
 3084SOL    HW110151   4.638   6.712   3.892
 3084SOL    HW210152   4.634   6.706   4.055
 3085SOL     OW10153   0.990   5.045   2.376
 3085SOL    HW110154   1.060   4.978   2.351
 3085SOL    HW210155   0.910   5.033   2.317
 3086SOL     OW10156   6.338   1.318   4.576
 3086SOL    HW110157   6.261   1.282   4.629
 3086SOL    HW210158   6.310   1.332   4.481
 3087SOL     OW10159   5.633   3.654   1.547
 3087SOL    HW110160   5.728   3.682   1.560
 3087SOL    HW210161   5.585   3.722   1.492
 3088SOL     OW10162   3.069   3.833   6.453
 3088SOL    HW110163   3.163   3.866   6.445
 3088SOL    HW210164   3.069   3.746   6.502
 3089SOL     OW10165   3.269   2.100   1.626
 3089SOL    HW110166   3.280   2.059   1.716
 3089SOL    HW210167   3.289   2.032   1.555
 3090SOL     OW10168   6.118   1.764   1.003
 3090SOL    HW110169   6.110   1.703   1.082
 3090SOL    HW210170   6.054   1.840   1.013
 3091SOL     OW10171   2.197   6.131   6.740
 3091SOL    HW110172   2.212   6.084   6.652
 3091SOL    HW210173   2.172   6.064   6.809
 3092SOL     OW10174   4.458   5.138   0.590
 3092SOL    HW110175   4.444   5.221   0.644
 3092SOL    HW210176   4.506   5.161   0.505
 3093SOL     OW10177   4.743   6.660   3.127
 3093SOL    HW110178   4.677   6.601   3.174
 3093SOL    HW210179   4.769   6.735   3.187
 3094SOL     OW10180   3.858   5.427   4.335
 3094SOL    HW110181   3.808   5.340   4.339
 3094SOL    HW210182   3.881   5.457   4.427
 3095SOL     OW10183   1.645   5.288   5.008
 3095SOL    HW110184   1.726   5.293   5.067
 3095SOL    HW210185   1.638   5.197   4.969
 3096SOL     OW10186   0.807   1.822   5.900
 3096SOL    HW110187   0.828   1.766   5.980
 3096SOL    HW210188   0.774   1.912   5.929
 3097SOL     OW10189   1.623   0.773   6.779
 3097SOL    HW110190   1.697   0.708   6.795
 3097SOL    HW210191   1.655   0.865   6.802
 3098SOL     OW10192   3.764   2.850   0.468
 3098SOL    HW110193   3.686   2.887   0.419
 3098SOL    HW210194   3.821   2.796   0.406
 3099SOL     OW10195   1.338   5.979   5.708
 3099SOL    HW110196   1.290   6.022   5.632
 3099SOL    HW210197   1.424   5.939   5.676
 3100SOL     OW10198   6.282   0.200   6.328
 3100SOL    HW110199   6.288   0.209   6.428
 3100SOL    HW210200   6.262   0.105   6.305
 3101SOL     OW10201   3.059   0.387   1.158
 3101SOL    HW110202   3.076   0.289   1.169
 3101SOL    HW210203   3.113   0.438   1.224
 3102SOL     OW10204   1.292   6.087   0.646
 3102SOL    HW110205   1.279   6.165   0.585
 3102SOL    HW210206   1.205   6.037   0.656
 3103SOL     OW10207   4.313   4.514   1.814
 3103SOL    HW110208   4.312   4.414   1.815
 3103SOL    HW210209   4.397   4.548   1.856
 3104SOL     OW10210   5.658   5.975   3.942
 3104SOL    HW110211   5.584   6.042   3.936
 3104SOL    HW210212   5.684   5.945   3.850
 3105SOL     OW10213   5.774   6.190   4.077
 3105SOL    HW110214   5.763   6.116   4.011
 3105SOL    HW210215   5.853   6.171   4.135
 3106SOL     OW10216   6.732   3.571   4.436
 3106SOL    HW110217   6.686   3.570   4.525
 3106SOL    HW210218   6.828   3.597   4.448
 3107SOL     OW10219   2.545   6.826   4.176
 3107SOL    HW110220   2.521   6.894   4.245
 3107SOL    HW210221   2.538   6.868   4.085
 3108SOL     OW10222   1.961   6.877   2.868
 3108SOL    HW110223   2.028   6.804   2.857
 3108SOL    HW210224   1.941   6.917   2.778
 3109SOL     OW10225   4.559   5.650   3.452
 3109SOL    HW110226   4.532   5.653   3.548
 3109SOL    HW210227   4.646   5.601   3.444
 3110SOL     OW10228   0.496   2.613   1.629
 3110SOL    HW110229   0.583   2.576   1.662
 3110SOL    HW210230   0.474   2.573   1.541
 3111SOL     OW10231   0.507   4.937   2.160
 3111SOL    HW110232   0.506   5.004   2.086
 3111SOL    HW210233   0.419   4.938   2.207
 3112SOL     OW10234   3.181   3.458   5.893
 3112SOL    HW110235   3.255   3.438   5.829
 3112SOL    HW210236   3.205   3.424   5.983
 3113SOL     OW10237   4.121   6.966   4.215
 3113SOL    HW110238   4.063   0.027   4.206
 3113SOL    HW210239   4.170   6.951   4.129
 3114SOL     OW10240   5.104   5.713   0.783
 3114SOL    HW110241   5.080   5.631   0.834
 3114SOL    HW210242   5.044   5.723   0.704
 3115SOL     OW10243   3.469   3.115   2.649
 3115SOL    HW110244   3.461   3.142   2.553
 3115SOL    HW210245   3.379   3.118   2.693
 3116SOL     OW10246   0.217   1.539   6.743
 3116SOL    HW110247   0.306   1.566   6.708
 3116SOL    HW210248   0.147   1.553   6.673
 3117SOL     OW10249   3.015   4.338   6.175
 3117SOL    HW110250   3.051   4.399   6.246
 3117SOL    HW210251   2.971   4.259   6.218
 3118SOL     OW10252   6.252   5.155   6.991
 3118SOL    HW110253   6.315   5.081   6.967
 3118SOL    HW210254   6.171   5.117   0.014
 3119SOL     OW10255   2.226   4.098   6.752
 3119SOL    HW110256   2.141   4.149   6.740
 3119SOL    HW210257   2.249   4.095   6.849
 3120SOL     OW10258   2.528   5.414   6.705
 3120SOL    HW110259   2.527   5.505   6.664
 3120SOL    HW210260   2.617   5.398   6.748
 3121SOL     OW10261   6.943   5.772   4.015
 3121SOL    HW110262   6.922   5.680   4.049
 3121SOL    HW210263   0.021   5.788   4.024
 3122SOL     OW10264   3.481   6.120   1.390
 3122SOL    HW110265   3.395   6.098   1.436
 3122SOL    HW210266   3.495   6.055   1.314
 3123SOL     OW10267   3.164   0.309   3.907
 3123SOL    HW110268   3.190   0.314   3.810
 3123SOL    HW210269   3.245   0.322   3.964
 3124SOL     OW10270   3.956   6.927   5.741
 3124SOL    HW110271   4.018   6.965   5.810
 3124SOL    HW210272   3.893   6.864   5.785
 3125SOL     OW10273   6.993   1.928   5.908
 3125SOL    HW110274   7.011   1.984   5.827
 3125SOL    HW210275   0.055   1.877   5.932
 3126SOL     OW10276   3.581   6.306   6.451
 3126SOL    HW110277   3.663   6.277   6.500
 3126SOL    HW210278   3.520   6.354   6.514
 3127SOL     OW10279   1.081   0.981   4.304
 3127SOL    HW110280   1.144   0.994   4.228
 3127SOL    HW210281   0.990   1.014   4.279
 3128SOL     OW10282   1.697   0.911   0.985
 3128SOL    HW110283   1.747   0.996   0.997
 3128SOL    HW210284   1.642   0.915   0.901
 3129SOL     OW10285   1.321   3.291   2.845
 3129SOL    HW110286   1.286   3.214   2.791
 3129SOL    HW210287   1.280   3.289   2.936
 3130SOL     OW10288   2.361   5.602   3.154
 3130SOL    HW110289   2.402   5.548   3.080
 3130SOL    HW210290   2.287   5.658   3.117
 3131SOL     OW10291   0.847   3.171   3.845
 3131SOL    HW110292   0.940   3.160   3.882
 3131SOL    HW210293   0.782   3.178   3.920
 3132SOL     OW10294   5.034   3.454   6.026
 3132SOL    HW110295   5.020   3.377   5.963
 3132SOL    HW210296   5.130   3.460   6.052
 3133SOL     OW10297   2.276   1.616   3.801
 3133SOL    HW110298   2.354   1.624   3.864
 3133SOL    HW210299   2.218   1.540   3.830
 3134SOL     OW10300   5.692   2.270   1.877
 3134SOL    HW110301   5.702   2.367   1.853
 3134SOL    HW210302   5.604   2.236   1.842
 3135SOL     OW10303   1.037   2.620   3.010
 3135SOL    HW110304   0.946   2.641   2.974
 3135SOL    HW210305   1.103   2.619   2.935
 3136SOL     OW10306   6.552   0.942   4.829
 3136SOL    HW110307   6.587   1.007   4.896
 3136SOL    HW210308   6.514   0.992   4.751
 3137SOL     OW10309   0.499   1.692   4.265
 3137SOL    HW110310   0.462   1.732   4.348
 3137SOL    HW210311   0.503   1.592   4.275
 3138SOL     OW10312   6.445   2.327   4.421
 3138SOL    HW110313   6.466   2.423   4.443
 3138SOL    HW210314   6.372   2.324   4.353
 3139SOL     OW10315   4.989   5.437   5.307
 3139SOL    HW110316   4.931   5.478   5.236
 3139SOL    HW210317   5.056   5.503   5.338
 3140SOL     OW10318   6.280   5.978   5.412
 3140SOL    HW110319   6.309   6.034   5.489
 3140SOL    HW210320   6.297   5.881   5.433
 3141SOL     OW10321   0.877   0.404   1.928
 3141SOL    HW110322   0.802   0.359   1.880
 3141SOL    HW210323   0.850   0.497   1.952
 3142SOL     OW10324   3.506   6.942   0.822
 3142SOL    HW110325   3.509   6.950   0.922
 3142SOL    HW210326   3.474   6.851   0.797
 3143SOL     OW10327   0.160   1.648   0.445
 3143SOL    HW110328   0.242   1.649   0.389
 3143SOL    HW210329   0.177   1.597   0.530
 3144SOL     OW10330   3.002   2.948   0.167
 3144SOL    HW110331   2.941   2.944   0.246
 3144SOL    HW210332   3.094   2.973   0.197
 3145SOL     OW10333   2.136   5.217   2.554
 3145SOL    HW110334   2.093   5.256   2.636
 3145SOL    HW210335   2.235   5.232   2.557
 3146SOL     OW10336   2.111   6.962   4.027
 3146SOL    HW110337   2.028   6.914   4.056
 3146SOL    HW210338   2.086   0.012   3.960
 3147SOL     OW10339   4.016   4.259   1.008
 3147SOL    HW110340   4.025   4.222   0.915
 3147SOL    HW210341   4.107   4.281   1.043
 3148SOL     OW10342   2.577   5.765   4.472
 3148SOL    HW110343   2.509   5.699   4.441
 3148SOL    HW210344   2.660   5.718   4.500
 3149SOL     OW10345   2.165   6.453   5.696
 3149SOL    HW110346   2.241   6.389   5.703
 3149SOL    HW210347   2.094   6.427   5.761
 3150SOL     OW10348   6.462   0.431   4.547
 3150SOL    HW110349   6.410   0.483   4.479
 3150SOL    HW210350   6.411   0.350   4.573
 3151SOL     OW10351   3.889   6.589   1.649
 3151SOL    HW110352   3.985   6.572   1.628
 3151SOL    HW210353   3.839   6.611   1.566
 3152SOL     OW10354   1.481   5.062   6.565
 3152SOL    HW110355   1.474   4.971   6.524
 3152SOL    HW210356   1.391   5.091   6.598
 3153SOL     OW10357   6.981   3.688   3.558
 3153SOL    HW110358   6.936   3.758   3.502
 3153SOL    HW210359   7.005   3.728   3.647
 3154SOL     OW10360   5.957   2.756   6.290
 3154SOL    HW110361   5.891   2.812   6.342
 3154SOL    HW210362   6.050   2.784   6.314
 3155SOL     OW10363   4.485   5.691   0.171
 3155SOL    HW110364   4.576   5.727   0.193
 3155SOL    HW210365   4.469   5.607   0.224
 3156SOL     OW10366   3.267   3.831   3.525
 3156SOL    HW110367   3.266   3.822   3.426
 3156SOL    HW210368   3.178   3.806   3.562
 3157SOL     OW10369   2.142   2.205   4.868
 3157SOL    HW110370   2.086   2.225   4.788
 3157SOL    HW210371   2.237   2.195   4.841
 3158SOL     OW10372   4.756   6.974   2.085
 3158SOL    HW110373   4.771   6.900   2.150
 3158SOL    HW210374   4.710   6.939   2.004
 3159SOL     OW10375   5.847   4.417   0.550
 3159SOL    HW110376   5.851   4.421   0.649
 3159SOL    HW210377   5.930   4.456   0.511
 3160SOL     OW10378   6.024   4.540   0.373
 3160SOL    HW110379   6.050   4.630   0.336
 3160SOL    HW210380   6.031   4.472   0.300
 3161SOL     OW10381   0.841   1.748   3.856
 3161SOL    HW110382   0.870   1.794   3.940
 3161SOL    HW210383   0.748   1.714   3.867
 3162SOL     OW10384   0.262   0.445   6.326
 3162SOL    HW110385   0.263   0.381   6.249
 3162SOL    HW210386   0.202   0.409   6.398
 3163SOL     OW10387   1.604   4.574   5.374
 3163SOL    HW110388   1.664   4.499   5.343
 3163SOL    HW210389   1.519   4.572   5.321
 3164SOL     OW10390   6.419   5.269   5.666
 3164SOL    HW110391   6.360   5.313   5.598
 3164SOL    HW210392   6.440   5.176   5.635
 3165SOL     OW10393   6.868   2.617   1.695
 3165SOL    HW110394   6.900   2.651   1.607
 3165SOL    HW210395   6.943   2.573   1.744
 3166SOL     OW10396   3.533   3.142   6.269
 3166SOL    HW110397   3.564   3.231   6.236
 3166SOL    HW210398   3.444   3.152   6.313
 3167SOL     OW10399   0.248   4.943   2.283
 3167SOL    HW110400   0.216   4.887   2.359
 3167SOL    HW210401   0.191   4.926   2.203
 3168SOL     OW10402   6.617   3.291   0.700
 3168SOL    HW110403   6.558   3.295   0.781
 3168SOL    HW210404   6.616   3.198   0.663
 3169SOL     OW10405   3.232   2.450   5.846
 3169SOL    HW110406   3.298   2.519   5.816
 3169SOL    HW210407   3.159   2.442   5.779
 3170SOL     OW10408   3.243   0.370   4.744
 3170SOL    HW110409   3.166   0.383   4.806
 3170SOL    HW210410   3.209   0.349   4.653
 3171SOL     OW10411   6.376   5.710   3.095
 3171SOL    HW110412   6.430   5.684   3.175
 3171SOL    HW210413   6.434   5.759   3.030
 3172SOL     OW10414   5.277   6.523   5.256
 3172SOL    HW110415   5.299   6.610   5.300
 3172SOL    HW210416   5.361   6.483   5.219
 3173SOL     OW10417   1.417   0.863   1.640
 3173SOL    HW110418   1.366   0.924   1.580
 3173SOL    HW210419   1.501   0.834   1.594
 3174SOL     OW10420   2.423   3.111   6.983
 3174SOL    HW110421   2.449   3.202   6.951
 3174SOL    HW210422   2.411   3.050   6.904
 3175SOL     OW10423   6.945   6.098   0.220
 3175SOL    HW110424   6.954   6.158   0.299
 3175SOL    HW210425   6.907   6.010   0.248
 3176SOL     OW10426   0.828   5.450   6.903
 3176SOL    HW110427   0.792   5.539   6.934
 3176SOL    HW210428   0.909   5.427   6.957
 3177SOL     OW10429   0.883   0.203   3.466
 3177SOL    HW110430   0.873   0.300   3.490
 3177SOL    HW210431   0.835   0.147   3.533
 3178SOL     OW10432   3.919   3.279   0.169
 3178SOL    HW110433   3.853   3.205   0.180
 3178SOL    HW210434   3.904   3.347   0.241
 3179SOL     OW10435   1.280   2.607   4.679
 3179SOL    HW110436   1.276   2.532   4.745
 3179SOL    HW210437   1.188   2.631   4.650
 3180SOL     OW10438   6.695   1.216   6.904
 3180SOL    HW110439   6.600   1.227   6.931
 3180SOL    HW210440   6.729   1.302   6.866
 3181SOL     OW10441   0.414   1.208   1.924
 3181SOL    HW110442   0.410   1.108   1.922
 3181SOL    HW210443   0.507   1.239   1.908
 3182SOL     OW10444   1.783   6.043   5.953
 3182SOL    HW110445   1.813   6.017   5.862
 3182SOL    HW210446   1.821   5.980   6.020
 3183SOL     OW10447   4.861   3.890   1.220
 3183SOL    HW110448   4.830   3.795   1.228
 3183SOL    HW210449   4.928   3.897   1.147
 3184SOL     OW10450   0.036   2.141   2.731
 3184SOL    HW110451   0.075   2.050   2.739
 3184SOL    HW210452   0.072   2.186   2.650
 3185SOL     OW10453   0.582   6.381   6.991
 3185SOL    HW110454   0.524   6.311   0.014
 3185SOL    HW210455   0.524   6.450   6.948
 3186SOL     OW10456   3.663   0.336   1.577
 3186SOL    HW110457   3.598   0.337   1.653
 3186SOL    HW210458   3.756   0.343   1.612
 3187SOL     OW10459   3.718   4.330   0.574
 3187SOL    HW110460   3.729   4.310   0.671
 3187SOL    HW210461   3.676   4.421   0.564
 3188SOL     OW10462   3.819   0.025   3.742
 3188SOL    HW110463   3.912   7.014   3.760
 3188SOL    HW210464   3.757   7.005   3.809
 3189SOL     OW10465   6.232   6.178   2.227
 3189SOL    HW110466   6.210   6.266   2.270
 3189SOL    HW210467   6.147   6.133   2.199
 3190SOL     OW10468   1.292   0.483   2.287
 3190SOL    HW110469   1.380   0.526   2.267
 3190SOL    HW210470   1.226   0.507   2.216
 3191SOL     OW10471   3.271   1.231   1.175
 3191SOL    HW110472   3.355   1.179   1.164
 3191SOL    HW210473   3.285   1.326   1.146
 3192SOL     OW10474   5.417   3.114   4.526
 3192SOL    HW110475   5.456   3.202   4.554
 3192SOL    HW210476   5.434   3.046   4.597
 3193SOL     OW10477   5.393   4.326   1.904
 3193SOL    HW110478   5.456   4.320   1.826
 3193SOL    HW210479   5.394   4.240   1.955
 3194SOL     OW10480   3.029   5.592   4.461
 3194SOL    HW110481   3.040   5.618   4.557
 3194SOL    HW210482   3.054   5.668   4.402
 3195SOL     OW10483   6.204   4.357   4.071
 3195SOL    HW110484   6.291   4.309   4.081
 3195SOL    HW210485   6.181   4.404   4.156
 3196SOL     OW10486   6.897   6.015   6.095
 3196SOL    HW110487   6.980   6.018   6.150
 3196SOL    HW210488   6.854   6.105   6.095
 3197SOL     OW10489   0.554   4.380   5.662
 3197SOL    HW110490   0.455   4.387   5.672
 3197SOL    HW210491   0.599   4.441   5.727
 3198SOL     OW10492   5.960   0.237   1.259
 3198SOL    HW110493   5.982   0.145   1.290
 3198SOL    HW210494   5.910   0.286   1.331
 3199SOL     OW10495   2.948   1.821   3.198
 3199SOL    HW110496   3.041   1.837   3.167
 3199SOL    HW210497   2.884   1.872   3.140
 3200SOL     OW10498   6.668   1.880   0.205
 3200SOL    HW110499   6.738   1.809   0.197
 3200SOL    HW210500   6.660   1.928   0.117
 3201SOL     OW10501   3.818   4.860   2.858
 3201SOL    HW110502   3.897   4.804   2.835
 3201SOL    HW210503   3.793   4.917   2.780
 3202SOL     OW10504   1.303   4.961   1.959
 3202SOL    HW110505   1.380   4.952   2.023
 3202SOL    HW210506   1.316   4.897   1.883
 3203SOL     OW10507   4.592   0.075   0.883
 3203SOL    HW110508   4.588   0.133   0.801
 3203SOL    HW210509   4.609   0.132   0.963
 3204SOL     OW10510   6.486   6.154   2.263
 3204SOL    HW110511   6.386   6.159   2.254
 3204SOL    HW210512   6.527   6.158   2.172
 3205SOL     OW10513   1.545   4.189   4.298
 3205SOL    HW110514   1.492   4.269   4.327
 3205SOL    HW210515   1.642   4.205   4.318
 3206SOL     OW10516   2.193   6.180   0.255
 3206SOL    HW110517   2.128   6.249   0.225
 3206SOL    HW210518   2.260   6.222   0.317
 3207SOL     OW10519   1.694   0.928   3.074
 3207SOL    HW110520   1.652   0.864   3.009
 3207SOL    HW210521   1.622   0.985   3.115
 3208SOL     OW10522   5.769   6.353   5.908
 3208SOL    HW110523   5.772   6.343   5.808
 3208SOL    HW210524   5.861   6.377   5.941
 3209SOL     OW10525   0.963   6.698   3.190
 3209SOL    HW110526   0.972   6.602   3.161
 3209SOL    HW210527   1.045   6.725   3.241
 3210SOL     OW10528   0.417   6.074   2.070
 3210SOL    HW110529   0.494   6.094   2.010
 3210SOL    HW210530   0.411   5.975   2.085
 3211SOL     OW10531   0.421   4.557   3.822
 3211SOL    HW110532   0.364   4.639   3.823
 3211SOL    HW210533   0.364   4.476   3.839
 3212SOL     OW10534   4.407   2.454   4.875
 3212SOL    HW110535   4.331   2.457   4.940
 3212SOL    HW210536   4.479   2.393   4.910
 3213SOL     OW10537   5.084   0.224   2.171
 3213SOL    HW110538   4.985   0.233   2.159
 3213SOL    HW210539   5.103   0.148   2.234
 3214SOL     OW10540   4.896   3.900   0.446
 3214SOL    HW110541   4.883   3.997   0.428
 3214SOL    HW210542   4.990   3.884   0.478
 3215SOL     OW10543   6.780   1.257   0.156
 3215SOL    HW110544   6.710   1.303   0.212
 3215SOL    HW210545   6.735   1.202   0.086
 3216SOL     OW10546   5.104   6.600   5.897
 3216SOL    HW110547   5.077   6.694   5.874
 3216SOL    HW210548   5.045   6.566   5.971
 3217SOL     OW10549   0.435   4.407   6.538
 3217SOL    HW110550   0.524   4.412   6.492
 3217SOL    HW210551   0.398   4.499   6.550
 3218SOL     OW10552   4.283   2.953   1.640
 3218SOL    HW110553   4.201   2.945   1.582
 3218SOL    HW210554   4.315   2.861   1.663
 3219SOL     OW10555   0.575   1.915   3.376
 3219SOL    HW110556   0.560   1.930   3.474
 3219SOL    HW210557   0.664   1.954   3.350
 3220SOL     OW10558   6.829   2.674   6.846
 3220SOL    HW110559   6.818   2.596   6.785
 3220SOL    HW210560   6.788   2.755   6.805
 3221SOL     OW10561   4.238   0.180   1.520
 3221SOL    HW110562   4.229   0.278   1.540
 3221SOL    HW210563   4.236   0.128   1.605
 3222SOL     OW10564   6.040   3.590   1.893
 3222SOL    HW110565   6.112   3.640   1.845
 3222SOL    HW210566   6.054   3.491   1.879
 3223SOL     OW10567   0.849   4.226   5.330
 3223SOL    HW110568   0.911   4.162   5.285
 3223SOL    HW210569   0.890   4.258   5.415
 3224SOL     OW10570   2.722   5.885   1.281
 3224SOL    HW110571   2.818   5.877   1.255
 3224SOL    HW210572   2.667   5.904   1.200
 3225SOL     OW10573   1.406   1.572   0.809
 3225SOL    HW110574   1.372   1.561   0.716
 3225SOL    HW210575   1.491   1.520   0.820
 3226SOL     OW10576   6.781   1.339   3.916
 3226SOL    HW110577   6.841   1.395   3.973
 3226SOL    HW210578   6.685   1.359   3.940
 3227SOL     OW10579   2.529   1.564   4.805
 3227SOL    HW110580   2.508   1.576   4.708
 3227SOL    HW210581   2.495   1.474   4.835
 3228SOL     OW10582   5.049   3.129   5.047
 3228SOL    HW110583   5.041   3.167   5.139
 3228SOL    HW210584   4.989   3.180   4.985
 3229SOL     OW10585   4.703   1.606   4.389
 3229SOL    HW110586   4.604   1.621   4.389
 3229SOL    HW210587   4.725   1.533   4.324
 3230SOL     OW10588   1.406   6.987   3.926
 3230SOL    HW110589   1.333   0.000   3.985
 3230SOL    HW210590   1.492   0.010   3.952
 3231SOL     OW10591   4.257   4.484   0.328
 3231SOL    HW110592   4.289   4.501   0.421
 3231SOL    HW210593   4.242   4.386   0.315
 3232SOL     OW10594   1.224   3.976   3.602
 3232SOL    HW110595   1.177   3.890   3.622
 3232SOL    HW210596   1.321   3.967   3.624
 3233SOL     OW10597   2.202   4.283   0.384
 3233SOL    HW110598   2.297   4.314   0.380
 3233SOL    HW210599   2.152   4.338   0.451
 3234SOL     OW10600   0.016   1.454   4.043
 3234SOL    HW110601   6.952   1.505   4.060
 3234SOL    HW210602   0.093   1.517   4.042
 3235SOL     OW10603   6.297   1.110   2.242
 3235SOL    HW110604   6.258   1.201   2.251
 3235SOL    HW210605   6.304   1.086   2.145
 3236SOL     OW10606   6.702   1.761   1.404
 3236SOL    HW110607   6.629   1.795   1.463
 3236SOL    HW210608   6.770   1.712   1.459
 3237SOL     OW10609   2.841   5.833   4.793
 3237SOL    HW110610   2.922   5.774   4.785
 3237SOL    HW210611   2.869   5.927   4.810
 3238SOL     OW10612   0.136   6.039   6.231
 3238SOL    HW110613   0.137   6.107   6.304
 3238SOL    HW210614   0.198   5.964   6.254
 3239SOL     OW10615   2.254   6.478   6.341
 3239SOL    HW110616   2.342   6.504   6.301
 3239SOL    HW210617   2.262   6.474   6.441
 3240SOL     OW10618   1.198   2.379   4.791
 3240SOL    HW110619   1.106   2.418   4.794
 3240SOL    HW210620   1.192   2.280   4.802
 3241SOL     OW10621   4.208   6.310   5.272
 3241SOL    HW110622   4.117   6.320   5.232
 3241SOL    HW210623   4.273   6.364   5.219
 3242SOL     OW10624   2.808   1.018   1.156
 3242SOL    HW110625   2.832   0.956   1.082
 3242SOL    HW210626   2.887   1.074   1.180
 3243SOL     OW10627   3.557   5.881   2.165
 3243SOL    HW110628   3.577   5.819   2.089
 3243SOL    HW210629   3.614   5.858   2.244
 3244SOL     OW10630   1.442   0.055   5.101
 3244SOL    HW110631   1.360   0.066   5.157
 3244SOL    HW210632   1.517   0.108   5.140
 3245SOL     OW10633   3.121   2.182   5.865
 3245SOL    HW110634   3.112   2.260   5.927
 3245SOL    HW210635   3.215   2.177   5.831
 3246SOL     OW10636   5.992   6.621   2.345
 3246SOL    HW110637   6.081   6.579   2.326
 3246SOL    HW210638   5.985   6.708   2.297
 3247SOL     OW10639   6.187   2.811   4.976
 3247SOL    HW110640   6.275   2.844   5.012
 3247SOL    HW210641   6.183   2.829   4.878
 3248SOL     OW10642   5.514   4.271   3.127
 3248SOL    HW110643   5.426   4.313   3.149
 3248SOL    HW210644   5.519   4.180   3.168
 3249SOL     OW10645   3.507   4.897   5.966
 3249SOL    HW110646   3.553   4.860   5.885
 3249SOL    HW210647   3.520   4.996   5.969
 3250SOL     OW10648   4.855   4.882   0.641
 3250SOL    HW110649   4.788   4.910   0.710
 3250SOL    HW210650   4.828   4.794   0.602
 3251SOL     OW10651   2.629   1.785   3.435
 3251SOL    HW110652   2.637   1.709   3.371
 3251SOL    HW210653   2.550   1.771   3.494
 3252SOL     OW10654   3.201   2.167   3.007
 3252SOL    HW110655   3.263   2.183   2.931
 3252SOL    HW210656   3.123   2.229   3.000
 3253SOL     OW10657   5.009   4.347   2.080
 3253SOL    HW110658   4.954   4.427   2.106
 3253SOL    HW210659   5.052   4.308   2.161
 3254SOL     OW10660   6.009   3.783   3.233
 3254SOL    HW110661   6.043   3.807   3.324
 3254SOL    HW210662   5.969   3.692   3.236
 3255SOL     OW10663   3.207   4.650   0.551
 3255SOL    HW110664   3.121   4.701   0.545
 3255SOL    HW210665   3.284   4.713   0.555
 3256SOL     OW10666   6.651   0.210   5.457
 3256SOL    HW110667   6.584   0.136   5.464
 3256SOL    HW210668   6.664   0.233   5.360
 3257SOL     OW10669   2.739   0.771   1.855
 3257SOL    HW110670   2.826   0.724   1.865
 3257SOL    HW210671   2.694   0.742   1.771
 3258SOL     OW10672   4.538   6.997   2.723
 3258SOL    HW110673   4.501   6.918   2.673
 3258SOL    HW210674   4.487   7.008   2.809
 3259SOL     OW10675   5.917   5.685   3.096
 3259SOL    HW110676   5.866   5.643   3.021
 3259SOL    HW210677   5.858   5.751   3.143
 3260SOL     OW10678   2.049   1.508   1.398
 3260SOL    HW110679   2.091   1.435   1.344
 3260SOL    HW210680   2.120   1.561   1.444
 3261SOL     OW10681   4.648   6.825   4.171
 3261SOL    HW110682   4.626   6.890   4.244
 3261SOL    HW210683   4.734   6.780   4.193
 3262SOL     OW10684   4.958   2.170   3.167
 3262SOL    HW110685   4.899   2.154   3.245
 3262SOL    HW210686   4.907   2.215   3.094
 3263SOL     OW10687   2.956   4.852   3.113
 3263SOL    HW110688   3.020   4.905   3.170
 3263SOL    HW210689   2.953   4.891   3.022
 3264SOL     OW10690   5.205   3.804   6.581
 3264SOL    HW110691   5.128   3.755   6.540
 3264SOL    HW210692   5.266   3.835   6.508
 3265SOL     OW10693   5.082   6.883   5.864
 3265SOL    HW110694   4.989   6.902   5.832
 3265SOL    HW210695   5.140   6.963   5.848
 3266SOL     OW10696   1.243   2.250   6.094
 3266SOL    HW110697   1.182   2.329   6.095
 3266SOL    HW210698   1.321   2.269   6.034
 3267SOL     OW10699   5.804   4.089   0.917
 3267SOL    HW110700   5.755   4.006   0.891
 3267SOL    HW210701   5.878   4.065   0.980
 3268SOL     OW10702   2.267   5.423   0.485
 3268SOL    HW110703   2.352   5.418   0.433
 3268SOL    HW210704   2.211   5.497   0.450
 3269SOL     OW10705   4.294   3.068   1.197
 3269SOL    HW110706   4.285   3.053   1.098
 3269SOL    HW210707   4.217   3.123   1.230
 3270SOL     OW10708   6.684   5.502   2.941
 3270SOL    HW110709   6.687   5.597   2.971
 3270SOL    HW210710   6.633   5.448   3.008
 3271SOL     OW10711   4.781   6.832   0.598
 3271SOL    HW110712   4.694   6.783   0.594
 3271SOL    HW210713   4.773   6.919   0.550
 3272SOL     OW10714   4.291   5.897   5.890
 3272SOL    HW110715   4.206   5.881   5.939
 3272SOL    HW210716   4.283   5.862   5.797
 3273SOL     OW10717   0.025   6.834   3.351
 3273SOL    HW110718   6.957   6.863   3.314
 3273SOL    HW210719   0.097   6.852   3.284
 3274SOL     OW10720   3.234   0.492   1.737
 3274SOL    HW110721   3.288   0.497   1.821
 3274SOL    HW210722   3.193   0.401   1.728
 3275SOL     OW10723   4.438   0.722   6.028
 3275SOL    HW110724   4.450   0.637   5.977
 3275SOL    HW210725   4.355   0.767   5.998
 3276SOL     OW10726   1.979   5.272   1.496
 3276SOL    HW110727   1.910   5.317   1.440
 3276SOL    HW210728   1.941   5.186   1.532
 3277SOL     OW10729   0.301   5.977   6.530
 3277SOL    HW110730   0.368   5.989   6.603
 3277SOL    HW210731   0.265   6.066   6.503
 3278SOL     OW10732   1.261   6.934   0.332
 3278SOL    HW110733   1.308   6.846   0.328
 3278SOL    HW210734   1.181   6.933   0.272
 3279SOL     OW10735   2.151   6.465   1.657
 3279SOL    HW110736   2.216   6.390   1.648
 3279SOL    HW210737   2.200   6.549   1.679
 3280SOL     OW10738   2.709   5.809   3.466
 3280SOL    HW110739   2.628   5.868   3.456
 3280SOL    HW210740   2.781   5.841   3.405
 3281SOL     OW10741   1.674   6.913   0.932
 3281SOL    HW110742   1.710   6.864   0.852
 3281SOL    HW210743   1.596   6.862   0.969
 3282SOL     OW10744   1.531   4.649   1.919
 3282SOL    HW110745   1.451   4.656   1.859
 3282SOL    HW210746   1.503   4.607   2.006
 3283SOL     OW10747   1.442   0.749   3.129
 3283SOL    HW110748   1.403   0.659   3.110
 3283SOL    HW210749   1.473   0.791   3.044
 3284SOL     OW10750   2.162   6.126   5.546
 3284SOL    HW110751   2.257   6.123   5.578
 3284SOL    HW210752   2.127   6.033   5.536
 3285SOL     OW10753   0.541   3.467   4.114
 3285SOL    HW110754   0.535   3.567   4.103
 3285SOL    HW210755   0.517   3.423   4.028
 3286SOL     OW10756   5.014   4.803   6.801
 3286SOL    HW110757   5.080   4.739   6.842
 3286SOL    HW210758   4.943   4.751   6.754
 3287SOL     OW10759   0.536   2.299   1.242
 3287SOL    HW110760   0.496   2.207   1.248
 3287SOL    HW210761   0.521   2.336   1.151
 3288SOL     OW10762   0.679   0.008   0.387
 3288SOL    HW110763   0.657   0.039   0.294
 3288SOL    HW210764   0.607   6.969   0.421
 3289SOL     OW10765   1.647   0.317   3.887
 3289SOL    HW110766   1.700   0.393   3.926
 3289SOL    HW210767   1.634   0.333   3.789
 3290SOL     OW10768   6.793   4.813   4.420
 3290SOL    HW110769   6.812   4.726   4.374
 3290SOL    HW210770   6.694   4.823   4.431
 3291SOL     OW10771   1.258   1.782   1.667
 3291SOL    HW110772   1.305   1.698   1.693
 3291SOL    HW210773   1.322   1.859   1.672
 3292SOL     OW10774   1.178   0.041   4.085
 3292SOL    HW110775   1.215   0.126   4.122
 3292SOL    HW210776   1.086   0.027   4.122
 3293SOL     OW10777   5.815   0.630   2.864
 3293SOL    HW110778   5.912   0.650   2.880
 3293SOL    HW210779   5.777   0.698   2.802
 3294SOL     OW10780   6.910   6.607   1.524
 3294SOL    HW110781   6.835   6.582   1.463
 3294SOL    HW210782   6.933   6.704   1.511
 3295SOL     OW10783   2.788   3.284   6.213
 3295SOL    HW110784   2.841   3.253   6.292
 3295SOL    HW210785   2.696   3.308   6.241
 3296SOL     OW10786   0.894   6.857   1.509
 3296SOL    HW110787   0.854   6.818   1.426
 3296SOL    HW210788   0.882   6.793   1.585
 3297SOL     OW10789   3.453   0.486   5.396
 3297SOL    HW110790   3.500   0.447   5.316
 3297SOL    HW210791   3.375   0.540   5.364
 3298SOL     OW10792   0.134   5.519   3.401
 3298SOL    HW110793   0.120   5.557   3.310
 3298SOL    HW210794   0.066   5.557   3.463
 3299SOL     OW10795   2.092   1.385   4.392
 3299SOL    HW110796   2.074   1.300   4.343
 3299SOL    HW210797   2.066   1.463   4.335
 3300SOL     OW10798   0.638   0.040   4.939
 3300SOL    HW110799   0.634   0.002   4.846
 3300SOL    HW210800   0.720   0.097   4.948
 3301SOL     OW10801   6.429   4.079   2.263
 3301SOL    HW110802   6.515   4.129   2.255
 3301SOL    HW210803   6.432   4.019   2.343
 3302SOL     OW10804   1.761   5.395   5.563
 3302SOL    HW110805   1.726   5.302   5.572
 3302SOL    HW210806   1.763   5.420   5.466
 3303SOL     OW10807   3.582   3.512   5.168
 3303SOL    HW110808   3.674   3.548   5.153
 3303SOL    HW210809   3.554   3.528   5.263
 3304SOL     OW10810   1.741   0.707   4.187
 3304SOL    HW110811   1.747   0.648   4.267
 3304SOL    HW210812   1.743   0.650   4.104
 3305SOL     OW10813   1.077   2.198   0.395
 3305SOL    HW110814   1.111   2.115   0.438
 3305SOL    HW210815   1.068   2.270   0.463
 3306SOL     OW10816   1.123   1.288   0.859
 3306SOL    HW110817   1.213   1.295   0.902
 3306SOL    HW210818   1.081   1.201   0.884
 3307SOL     OW10819   0.197   6.664   0.083
 3307SOL    HW110820   0.264   6.611   0.032
 3307SOL    HW210821   0.241   6.704   0.163
 3308SOL     OW10822   5.852   5.776   0.232
 3308SOL    HW110823   5.883   5.831   0.155
 3308SOL    HW210824   5.834   5.682   0.201
 3309SOL     OW10825   0.448   4.640   2.029
 3309SOL    HW110826   0.534   4.593   2.011
 3309SOL    HW210827   0.466   4.727   2.074
 3310SOL     OW10828   2.456   6.814   2.187
 3310SOL    HW110829   2.401   6.776   2.113
 3310SOL    HW210830   2.427   6.908   2.206
 3311SOL     OW10831   4.444   5.372   0.697
 3311SOL    HW110832   4.376   5.358   0.769
 3311SOL    HW210833   4.533   5.393   0.739
 3312SOL     OW10834   1.876   2.696   5.846
 3312SOL    HW110835   1.882   2.757   5.925
 3312SOL    HW210836   1.967   2.664   5.820
 3313SOL     OW10837   5.544   6.432   5.115
 3313SOL    HW110838   5.561   6.530   5.099
 3313SOL    HW210839   5.628   6.390   5.150
 3314SOL     OW10840   0.971   3.836   6.516
 3314SOL    HW110841   0.964   3.829   6.416
 3314SOL    HW210842   0.879   3.836   6.555
 3315SOL     OW10843   6.438   3.327   3.554
 3315SOL    HW110844   6.508   3.324   3.625
 3315SOL    HW210845   6.471   3.384   3.478
 3316SOL     OW10846   3.608   0.567   6.416
 3316SOL    HW110847   3.650   0.601   6.501
 3316SOL    HW210848   3.605   0.467   6.418
 3317SOL     OW10849   6.261   2.998   1.290
 3317SOL    HW110850   6.301   2.920   1.339
 3317SOL    HW210851   6.176   2.970   1.246
 3318SOL     OW10852   2.460   4.907   6.448
 3318SOL    HW110853   2.388   4.841   6.474
 3318SOL    HW210854   2.479   4.967   6.525
 3319SOL     OW10855   1.053   6.016   6.144
 3319SOL    HW110856   1.149   5.989   6.151
 3319SOL    HW210857   0.995   5.939   6.169
 3320SOL     OW10858   1.170   0.640   0.896
 3320SOL    HW110859   1.123   0.648   0.984
 3320SOL    HW210860   1.269   0.646   0.910
 3321SOL     OW10861   3.686   4.035   4.166
 3321SOL    HW110862   3.784   4.038   4.151
 3321SOL    HW210863   3.654   3.940   4.163
 3322SOL     OW10864   5.062   3.922   2.803
 3322SOL    HW110865   5.001   3.843   2.794
 3322SOL    HW210866   5.008   4.006   2.796
 3323SOL     OW10867   1.551   4.296   0.684
 3323SOL    HW110868   1.537   4.375   0.743
 3323SOL    HW210869   1.647   4.290   0.657
 3324SOL     OW10870   6.312   3.253   1.914
 3324SOL    HW110871   6.294   3.158   1.889
 3324SOL    HW210872   6.243   3.312   1.872
 3325SOL     OW10873   1.179   4.828   5.789
 3325SOL    HW110874   1.081   4.845   5.798
 3325SOL    HW210875   1.216   4.883   5.714
 3326SOL     OW10876   4.600   6.961   2.382
 3326SOL    HW110877   4.515   6.915   2.408
 3326SOL    HW210878   4.582   0.003   2.305
 3327SOL     OW10879   5.057   5.829   1.888
 3327SOL    HW110880   5.078   5.914   1.840
 3327SOL    HW210881   5.098   5.832   1.979
 3328SOL     OW10882   6.388   6.001   3.400
 3328SOL    HW110883   6.451   5.924   3.415
 3328SOL    HW210884   6.294   5.969   3.411
 3329SOL     OW10885   5.574   0.279   5.981
 3329SOL    HW110886   5.484   0.246   6.010
 3329SOL    HW210887   5.563   0.333   5.897
 3330SOL     OW10888   5.845   0.505   3.630
 3330SOL    HW110889   5.833   0.433   3.698
 3330SOL    HW210890   5.858   0.464   3.540
 3331SOL     OW10891   6.983   3.207   2.279
 3331SOL    HW110892   6.955   3.112   2.296
 3331SOL    HW210893   0.046   3.226   2.331
 3332SOL     OW10894   4.701   5.118   1.306
 3332SOL    HW110895   4.761   5.177   1.360
 3332SOL    HW210896   4.733   5.116   1.212
 3333SOL     OW10897   2.248   3.999   1.042
 3333SOL    HW110898   2.296   4.014   1.129
 3333SOL    HW210899   2.315   3.983   0.969
 3334SOL     OW10900   2.090   2.792   2.064
 3334SOL    HW110901   2.073   2.854   1.987
 3334SOL    HW210902   2.004   2.752   2.094
 3335SOL     OW10903   4.516   4.143   6.793
 3335SOL    HW110904   4.607   4.109   6.769
 3335SOL    HW210905   4.455   4.065   6.809
 3336SOL     OW10906   3.548   5.635   6.107
 3336SOL    HW110907   3.475   5.701   6.123
 3336SOL    HW210908   3.563   5.580   6.189
 3337SOL     OW10909   3.230   3.987   4.294
 3337SOL    HW110910   3.180   4.004   4.378
 3337SOL    HW210911   3.272   4.073   4.262
 3338SOL     OW10912   3.633   2.958   1.614
 3338SOL    HW110913   3.611   2.970   1.517
 3338SOL    HW210914   3.554   2.984   1.670
 3339SOL     OW10915   0.814   0.400   5.788
 3339SOL    HW110916   0.761   0.315   5.792
 3339SOL    HW210917   0.777   0.460   5.718
 3340SOL     OW10918   5.115   1.887   6.507
 3340SOL    HW110919   5.066   1.906   6.592
 3340SOL    HW210920   5.106   1.965   6.445
 3341SOL     OW10921   1.211   3.526   1.536
 3341SOL    HW110922   1.123   3.566   1.560
 3341SOL    HW210923   1.282   3.596   1.539
 3342SOL     OW10924   5.840   0.400   3.363
 3342SOL    HW110925   5.909   0.334   3.334
 3342SOL    HW210926   5.804   0.449   3.284
 3343SOL     OW10927   3.533   4.956   0.378
 3343SOL    HW110928   3.597   5.033   0.379
 3343SOL    HW210929   3.583   4.870   0.365
 3344SOL     OW10930   1.769   3.652   0.994
 3344SOL    HW110931   1.801   3.642   0.900
 3344SOL    HW210932   1.797   3.740   1.030
 3345SOL     OW10933   4.535   5.031   0.926
 3345SOL    HW110934   4.561   4.955   0.985
 3345SOL    HW210935   4.518   4.998   0.833
 3346SOL     OW10936   0.718   0.576   0.438
 3346SOL    HW110937   0.761   0.522   0.366
 3346SOL    HW210938   0.704   0.670   0.406
 3347SOL     OW10939   0.794   3.117   5.836
 3347SOL    HW110940   0.833   3.209   5.838
 3347SOL    HW210941   0.861   3.052   5.801
 3348SOL     OW10942   2.937   4.325   5.742
 3348SOL    HW110943   2.840   4.346   5.747
 3348SOL    HW210944   2.958   4.246   5.799
 3349SOL     OW10945   2.441   5.164   1.643
 3349SOL    HW110946   2.497   5.145   1.562
 3349SOL    HW210947   2.404   5.256   1.637
 3350SOL     OW10948   3.072   5.191   4.198
 3350SOL    HW110949   3.172   5.192   4.206
 3350SOL    HW210950   3.032   5.196   4.289
 3351SOL     OW10951   4.523   0.133   2.158
 3351SOL    HW110952   4.599   0.087   2.112
 3351SOL    HW210953   4.470   0.184   2.091
 3352SOL     OW10954   6.173   1.148   0.584
 3352SOL    HW110955   6.088   1.100   0.563
 3352SOL    HW210956   6.246   1.113   0.524
 3353SOL     OW10957   4.474   0.543   5.682
 3353SOL    HW110958   4.433   0.486   5.610
 3353SOL    HW210959   4.455   0.639   5.662
 3354SOL     OW10960   3.529   1.570   0.597
 3354SOL    HW110961   3.558   1.650   0.649
 3354SOL    HW210962   3.493   1.599   0.508
 3355SOL     OW10963   0.968   2.152   5.897
 3355SOL    HW110964   1.026   2.232   5.884
 3355SOL    HW210965   1.009   2.092   5.965
 3356SOL     OW10966   2.788   0.135   5.263
 3356SOL    HW110967   2.771   0.199   5.338
 3356SOL    HW210968   2.738   0.165   5.181
 3357SOL     OW10969   3.131   3.442   4.318
 3357SOL    HW110970   3.118   3.343   4.306
 3357SOL    HW210971   3.206   3.457   4.383
 3358SOL     OW10972   6.868   1.967   1.585
 3358SOL    HW110973   6.798   2.024   1.541
 3358SOL    HW210974   6.893   1.892   1.523
 3359SOL     OW10975   0.546   6.760   3.363
 3359SOL    HW110976   0.640   6.784   3.387
 3359SOL    HW210977   0.545   6.674   3.312
 3360SOL     OW10978   1.407   5.741   5.091
 3360SOL    HW110979   1.308   5.747   5.102
 3360SOL    HW210980   1.432   5.648   5.061
 3361SOL     OW10981   0.727   6.964   4.704
 3361SOL    HW110982   0.821   6.929   4.705
 3361SOL    HW210983   0.710   7.012   4.618
 3362SOL     OW10984   3.261   0.696   5.312
 3362SOL    HW110985   3.251   0.688   5.213
 3362SOL    HW210986   3.190   0.642   5.358
 3363SOL     OW10987   5.059   3.127   0.680
 3363SOL    HW110988   5.053   3.226   0.663
 3363SOL    HW210989   4.998   3.103   0.756
 3364SOL     OW10990   2.341   2.938   1.118
 3364SOL    HW110991   2.343   3.019   1.059
 3364SOL    HW210992   2.247   2.921   1.147
 3365SOL     OW10993   0.530   2.965   2.702
 3365SOL    HW110994   0.600   3.015   2.649
 3365SOL    HW210995   0.552   2.971   2.799
 3366SOL     OW10996   5.822   3.148   3.355
 3366SOL    HW110997   5.868   3.064   3.386
 3366SOL    HW210998   5.879   3.194   3.287
 3367SOL     OW10999   3.205   3.430   3.480
 3367SOL    HW111000   3.192   3.484   3.564
 3367SOL    HW211001   3.162   3.340   3.492
 3368SOL     OW11002   1.609   1.086   3.655
 3368SOL    HW111003   1.707   1.102   3.652
 3368SOL    HW211004   1.564   1.162   3.701
 3369SOL     OW11005   6.218   2.700   0.716
 3369SOL    HW111006   6.298   2.671   0.664
 3369SOL    HW211007   6.239   2.699   0.813
 3370SOL     OW11008   6.928   5.944   3.776
 3370SOL    HW111009   6.993   5.883   3.731
 3370SOL    HW211010   6.922   5.921   3.873
 3371SOL     OW11011   3.107   2.680   1.771
 3371SOL    HW111012   3.120   2.656   1.675
 3371SOL    HW211013   3.055   2.608   1.817
 3372SOL     OW11014   5.486   2.932   3.462
 3372SOL    HW111015   5.411   2.878   3.501
 3372SOL    HW211016   5.564   2.873   3.442
 3373SOL     OW11017   1.099   4.819   0.732
 3373SOL    HW111018   1.045   4.839   0.649
 3373SOL    HW211019   1.161   4.743   0.713
 3374SOL     OW11020   0.996   5.512   3.779
 3374SOL    HW111021   0.957   5.585   3.835
 3374SOL    HW211022   0.923   5.468   3.726
 3375SOL     OW11023   6.721   0.034   5.832
 3375SOL    HW111024   6.811   7.010   5.824
 3375SOL    HW211025   6.733   0.133   5.827
 3376SOL     OW11026   3.426   3.964   5.177
 3376SOL    HW111027   3.481   3.888   5.143
 3376SOL    HW211028   3.487   4.041   5.199
 3377SOL     OW11029   6.319   5.460   4.639
 3377SOL    HW111030   6.337   5.416   4.551
 3377SOL    HW211031   6.230   5.505   4.636
 3378SOL     OW11032   1.152   6.222   0.121
 3378SOL    HW111033   1.187   6.175   0.041
 3378SOL    HW211034   1.165   6.164   0.202
 3379SOL     OW11035   5.572   4.989   4.060
 3379SOL    HW111036   5.546   5.041   3.979
 3379SOL    HW211037   5.572   5.049   4.140
 3380SOL     OW11038   1.221   4.516   1.983
 3380SOL    HW111039   1.121   4.521   1.984
 3380SOL    HW211040   1.250   4.422   1.997
 3381SOL     OW11041   3.271   4.439   0.060
 3381SOL    HW111042   3.356   4.491   0.053
 3381SOL    HW211043   3.227   4.459   0.148
 3382SOL     OW11044   0.453   3.722   6.636
 3382SOL    HW111045   0.478   3.679   6.549
 3382SOL    HW211046   0.403   3.657   6.692
 3383SOL     OW11047   3.794   5.848   0.199
 3383SOL    HW111048   3.772   5.937   0.238
 3383SOL    HW211049   3.886   5.821   0.227
 3384SOL     OW11050   3.082   2.547   6.461
 3384SOL    HW111051   3.134   2.508   6.538
 3384SOL    HW211052   3.097   2.491   6.379
 3385SOL     OW11053   6.024   2.042   4.758
 3385SOL    HW111054   6.062   2.131   4.732
 3385SOL    HW211055   5.942   2.023   4.704
 3386SOL     OW11056   6.729   4.645   5.116
 3386SOL    HW111057   6.718   4.675   5.211
 3386SOL    HW211058   6.641   4.615   5.080
 3387SOL     OW11059   6.118   0.563   3.014
 3387SOL    HW111060   6.098   0.504   2.936
 3387SOL    HW211061   6.088   0.656   2.993
 3388SOL     OW11062   1.155   4.085   0.909
 3388SOL    HW111063   1.087   4.016   0.886
 3388SOL    HW211064   1.246   4.051   0.885
 3389SOL     OW11065   6.481   5.070   6.074
 3389SOL    HW111066   6.504   4.975   6.096
 3389SOL    HW211067   6.528   5.131   6.138
 3390SOL     OW11068   3.093   4.384   0.991
 3390SOL    HW111069   3.125   4.352   0.902
 3390SOL    HW211070   3.000   4.420   0.982
 3391SOL     OW11071   5.315   4.203   5.432
 3391SOL    HW111072   5.385   4.250   5.487
 3391SOL    HW211073   5.231   4.195   5.484
 3392SOL     OW11074   4.856   5.433   5.721
 3392SOL    HW111075   4.939   5.406   5.769
 3392SOL    HW211076   4.871   5.522   5.677
 3393SOL     OW11077   3.326   0.956   0.295
 3393SOL    HW111078   3.258   1.024   0.265
 3393SOL    HW211079   3.281   0.867   0.305
 3394SOL     OW11080   3.025   5.962   1.657
 3394SOL    HW111081   2.967   5.892   1.614
 3394SOL    HW211082   2.969   6.041   1.681
 3395SOL     OW11083   1.611   5.926   2.859
 3395SOL    HW111084   1.581   5.831   2.864
 3395SOL    HW211085   1.587   5.964   2.769
 3396SOL     OW11086   3.718   0.038   4.224
 3396SOL    HW111087   3.766   6.971   4.234
 3396SOL    HW211088   3.784   0.113   4.231
 3397SOL     OW11089   3.463   6.135   2.088
 3397SOL    HW111090   3.489   6.190   2.167
 3397SOL    HW211091   3.470   6.038   2.110
 3398SOL     OW11092   6.339   0.246   1.112
 3398SOL    HW111093   6.307   0.227   1.205
 3398SOL    HW211094   6.438   0.230   1.107
 3399SOL     OW11095   6.238   6.460   2.538
 3399SOL    HW111096   6.300   6.514   2.594
 3399SOL    HW211097   6.146   6.463   2.577
 3400SOL     OW11098   3.505   3.085   5.704
 3400SOL    HW111099   3.451   3.083   5.788
 3400SOL    HW211100   3.445   3.107   5.627
 3401SOL     OW11101   6.370   3.749   3.802
 3401SOL    HW111102   6.349   3.803   3.883
 3401SOL    HW211103   6.329   3.658   3.810
 3402SOL     OW11104   6.711   4.130   7.015
 3402SOL    HW111105   6.619   4.096   6.992
 3402SOL    HW211106   6.766   4.055   0.030
 3403SOL     OW11107   5.160   0.006   3.816
 3403SOL    HW111108   5.204   6.945   3.856
 3403SOL    HW211109   5.227   0.080   3.813
 3404SOL     OW11110   5.007   4.728   2.882
 3404SOL    HW111111   4.996   4.810   2.938
 3404SOL    HW211112   5.085   4.739   2.821
 3405SOL     OW11113   4.764   0.047   0.469
 3405SOL    HW111114   4.754   0.032   0.370
 3405SOL    HW211115   4.836   0.114   0.485
 3406SOL     OW11116   4.752   4.540   1.279
 3406SOL    HW111117   4.767   4.518   1.376
 3406SOL    HW211118   4.839   4.539   1.231
 3407SOL     OW11119   2.473   1.738   0.633
 3407SOL    HW111120   2.565   1.699   0.643
 3407SOL    HW211121   2.417   1.712   0.711
 3408SOL     OW11122   2.724   6.755   4.518
 3408SOL    HW111123   2.752   6.826   4.453
 3408SOL    HW211124   2.802   6.697   4.541
 3409SOL     OW11125   4.699   2.085   0.090
 3409SOL    HW111126   4.606   2.054   0.071
 3409SOL    HW211127   4.728   2.149   0.020
 3410SOL     OW11128   6.256   1.863   2.306
 3410SOL    HW111129   6.315   1.874   2.226
 3410SOL    HW211130   6.167   1.903   2.287
 3411SOL     OW11131   5.460   3.822   6.520
 3411SOL    HW111132   5.520   3.852   6.594
 3411SOL    HW211133   5.467   3.722   6.510
 3412SOL     OW11134   4.849   3.772   2.817
 3412SOL    HW111135   4.856   3.690   2.874
 3412SOL    HW211136   4.754   3.801   2.811
 3413SOL     OW11137   1.434   2.551   0.775
 3413SOL    HW111138   1.377   2.611   0.830
 3413SOL    HW211139   1.492   2.495   0.836
 3414SOL     OW11140   3.258   3.362   1.935
 3414SOL    HW111141   3.163   3.386   1.953
 3414SOL    HW211142   3.314   3.387   2.013
 3415SOL     OW11143   2.802   1.164   6.995
 3415SOL    HW111144   2.814   1.125   0.066
 3415SOL    HW211145   2.827   1.096   6.926
 3416SOL     OW11146   5.266   6.056   6.562
 3416SOL    HW111147   5.317   5.972   6.543
 3416SOL    HW211148   5.290   6.126   6.495
 3417SOL     OW11149   5.905   0.239   2.809
 3417SOL    HW111150   5.924   0.299   2.886
 3417SOL    HW211151   5.858   0.157   2.841
 3418SOL     OW11152   4.389   5.752   1.130
 3418SOL    HW111153   4.453   5.715   1.198
 3418SOL    HW211154   4.436   5.817   1.072
 3419SOL     OW11155   2.719   4.579   5.280
 3419SOL    HW111156   2.808   4.588   5.235
 3419SOL    HW211157   2.726   4.511   5.353
 3420SOL     OW11158   5.165   0.306   2.638
 3420SOL    HW111159   5.199   0.373   2.573
 3420SOL    HW211160   5.065   0.307   2.637
 3421SOL     OW11161   0.554   1.418   4.349
 3421SOL    HW111162   0.623   1.369   4.402
 3421SOL    HW211163   0.544   1.376   4.259
 3422SOL     OW11164   3.291   5.183   1.697
 3422SOL    HW111165   3.298   5.108   1.762
 3422SOL    HW211166   3.308   5.149   1.604
 3423SOL     OW11167   1.542   5.855   5.576
 3423SOL    HW111168   1.548   5.856   5.476
 3423SOL    HW211169   1.535   5.761   5.608
 3424SOL     OW11170   6.014   5.574   2.808
 3424SOL    HW111171   5.977   5.483   2.827
 3424SOL    HW211172   6.089   5.592   2.871
 3425SOL     OW11173   5.724   3.117   6.271
 3425SOL    HW111174   5.759   3.209   6.256
 3425SOL    HW211175   5.746   3.060   6.192
 3426SOL     OW11176   6.643   5.297   5.829
 3426SOL    HW111177   6.707   5.365   5.793
 3426SOL    HW211178   6.562   5.295   5.772
 3427SOL     OW11179   1.545   1.197   6.590
 3427SOL    HW111180   1.599   1.177   6.509
 3427SOL    HW211181   1.495   1.115   6.618
 3428SOL     OW11182   4.019   1.040   3.803
 3428SOL    HW111183   4.046   0.944   3.810
 3428SOL    HW211184   4.063   1.081   3.723
 3429SOL     OW11185   5.393   5.478   0.380
 3429SOL    HW111186   5.331   5.402   0.398
 3429SOL    HW211187   5.377   5.513   0.288
 3430SOL     OW11188   2.823   4.467   6.852
 3430SOL    HW111189   2.826   4.527   6.932
 3430SOL    HW211190   2.914   4.430   6.835
 3431SOL     OW11191   1.670   3.750   1.963
 3431SOL    HW111192   1.769   3.754   1.980
 3431SOL    HW211193   1.621   3.756   2.050
 3432SOL     OW11194   6.686   5.664   6.536
 3432SOL    HW111195   6.746   5.611   6.476
 3432SOL    HW211196   6.670   5.613   6.621
 3433SOL     OW11197   0.587   1.106   0.255
 3433SOL    HW111198   0.616   1.105   0.159
 3433SOL    HW211199   0.523   1.182   0.270
 3434SOL     OW11200   4.454   3.009   1.432
 3434SOL    HW111201   4.387   3.033   1.362
 3434SOL    HW211202   4.410   3.012   1.522
 3435SOL     OW11203   2.995   2.616   1.237
 3435SOL    HW111204   2.985   2.536   1.296
 3435SOL    HW211205   2.922   2.681   1.257
 3436SOL     OW11206   4.677   5.260   5.125
 3436SOL    HW111207   4.706   5.254   5.030
 3436SOL    HW211208   4.603   5.195   5.142
 3437SOL     OW11209   2.810   5.505   0.734
 3437SOL    HW111210   2.793   5.416   0.693
 3437SOL    HW211211   2.784   5.577   0.670
 3438SOL     OW11212   2.733   4.392   0.566
 3438SOL    HW111213   2.795   4.314   0.556
 3438SOL    HW211214   2.642   4.359   0.590
 3439SOL     OW11215   3.021   5.859   0.909
 3439SOL    HW111216   2.987   5.827   0.997
 3439SOL    HW211217   3.029   5.782   0.846
 3440SOL     OW11218   4.113   5.067   5.461
 3440SOL    HW111219   4.197   5.072   5.407
 3440SOL    HW211220   4.128   5.006   5.539
 3441SOL     OW11221   0.351   5.563   5.853
 3441SOL    HW111222   0.280   5.587   5.786
 3441SOL    HW211223   0.371   5.643   5.909
 3442SOL     OW11224   1.965   1.893   0.630
 3442SOL    HW111225   1.912   1.965   0.675
 3442SOL    HW211226   2.048   1.933   0.590
 3443SOL     OW11227   6.817   5.597   2.187
 3443SOL    HW111228   6.727   5.555   2.201
 3443SOL    HW211229   6.870   5.540   2.124
 3444SOL     OW11230   1.373   3.874   5.655
 3444SOL    HW111231   1.383   3.850   5.751
 3444SOL    HW211232   1.459   3.853   5.607
 3445SOL     OW11233   6.016   4.838   4.114
 3445SOL    HW111234   5.983   4.866   4.023
 3445SOL    HW211235   6.093   4.775   4.103
 3446SOL     OW11236   5.387   1.402   6.975
 3446SOL    HW111237   5.483   1.377   6.984
 3446SOL    HW211238   5.353   1.374   6.885
 3447SOL     OW11239   5.532   1.681   6.269
 3447SOL    HW111240   5.509   1.590   6.234
 3447SOL    HW211241   5.609   1.717   6.218
 3448SOL     OW11242   1.007   5.521   4.892
 3448SOL    HW111243   0.919   5.567   4.898
 3448SOL    HW211244   1.063   5.564   4.822
 3449SOL     OW11245   1.054   4.395   4.524
 3449SOL    HW111246   1.053   4.455   4.444
 3449SOL    HW211247   0.983   4.326   4.515
 3450SOL     OW11248   1.931   6.514   2.966
 3450SOL    HW111249   1.895   6.515   3.060
 3450SOL    HW211250   1.869   6.461   2.908
 3451SOL     OW11251   2.587   1.788   1.233
 3451SOL    HW111252   2.509   1.834   1.192
 3451SOL    HW211253   2.635   1.851   1.294
 3452SOL     OW11254   4.414   1.183   5.228
 3452SOL    HW111255   4.370   1.093   5.234
 3452SOL    HW211256   4.511   1.175   5.252
 3453SOL     OW11257   4.434   6.846   5.725
 3453SOL    HW111258   4.358   6.795   5.765
 3453SOL    HW211259   4.485   6.787   5.662
 3454SOL     OW11260   1.274   3.548   4.044
 3454SOL    HW111261   1.348   3.483   4.027
 3454SOL    HW211262   1.311   3.641   4.047
 3455SOL     OW11263   1.503   3.592   6.021
 3455SOL    HW111264   1.475   3.520   6.085
 3455SOL    HW211265   1.518   3.553   5.931
 3456SOL     OW11266   4.624   4.968   2.808
 3456SOL    HW111267   4.609   4.899   2.738
 3456SOL    HW211268   4.703   5.024   2.784
 3457SOL     OW11269   4.024   4.088   0.332
 3457SOL    HW111270   3.981   4.158   0.389
 3457SOL    HW211271   3.977   4.000   0.346
 3458SOL     OW11272   3.943   1.780   1.009
 3458SOL    HW111273   3.992   1.852   0.959
 3458SOL    HW211274   3.851   1.811   1.031
 3459SOL     OW11275   6.444   0.848   3.024
 3459SOL    HW111276   6.408   0.927   3.072
 3459SOL    HW211277   6.494   0.877   2.943
 3460SOL     OW11278   5.038   1.799   4.995
 3460SOL    HW111279   5.048   1.839   5.086
 3460SOL    HW211280   5.019   1.701   5.003
 3461SOL     OW11281   4.963   4.272   4.703
 3461SOL    HW111282   4.982   4.250   4.608
 3461SOL    HW211283   4.951   4.188   4.756
 3462SOL     OW11284   1.501   3.929   0.047
 3462SOL    HW111285   1.490   3.864   0.123
 3462SOL    HW211286   1.465   3.889   6.984
 3463SOL     OW11287   6.566   3.342   6.710
 3463SOL    HW111288   6.533   3.258   6.667
 3463SOL    HW211289   6.523   3.352   6.800
 3464SOL     OW11290   0.469   4.965   4.777
 3464SOL    HW111291   0.488   4.937   4.683
 3464SOL    HW211292   0.410   5.045   4.777
 3465SOL     OW11293   0.917   2.746   0.975
 3465SOL    HW111294   0.908   2.845   0.964
 3465SOL    HW211295   0.835   2.701   0.941
 3466SOL     OW11296   4.777   4.123   3.400
 3466SOL    HW111297   4.799   4.115   3.303
 3466SOL    HW211298   4.843   4.073   3.454
 3467SOL     OW11299   1.906   1.368   6.119
 3467SOL    HW111300   1.910   1.371   6.219
 3467SOL    HW211301   1.899   1.272   6.090
 3468SOL     OW11302   5.653   4.937   1.772
 3468SOL    HW111303   5.685   4.862   1.830
 3468SOL    HW211304   5.720   5.011   1.773
 3469SOL     OW11305   5.864   3.506   0.609
 3469SOL    HW111306   5.831   3.514   0.703
 3469SOL    HW211307   5.962   3.490   0.609
 3470SOL     OW11308   6.257   5.757   6.632
 3470SOL    HW111309   6.212   5.837   6.591
 3470SOL    HW211310   6.214   5.738   6.720
 3471SOL     OW11311   3.704   6.740   4.386
 3471SOL    HW111312   3.711   6.641   4.399
 3471SOL    HW211313   3.608   6.768   4.393
 3472SOL     OW11314   3.378   0.833   3.914
 3472SOL    HW111315   3.356   0.765   3.843
 3472SOL    HW211316   3.425   0.787   3.990
 3473SOL     OW11317   5.109   6.778   3.483
 3473SOL    HW111318   5.138   6.683   3.471
 3473SOL    HW211319   5.014   6.781   3.514
 3474SOL     OW11320   5.838   5.225   0.749
 3474SOL    HW111321   5.902   5.170   0.696
 3474SOL    HW211322   5.888   5.284   0.812
 3475SOL     OW11323   1.795   5.914   4.967
 3475SOL    HW111324   1.812   6.000   4.919
 3475SOL    HW211325   1.767   5.844   4.901
 3476SOL     OW11326   2.796   2.030   3.123
 3476SOL    HW111327   2.847   2.066   3.200
 3476SOL    HW211328   2.699   2.027   3.146
 3477SOL     OW11329   4.926   5.567   2.190
 3477SOL    HW111330   4.992   5.565   2.116
 3477SOL    HW211331   4.885   5.658   2.195
 3478SOL     OW11332   3.757   5.139   0.352
 3478SOL    HW111333   3.812   5.219   0.328
 3478SOL    HW211334   3.793   5.098   0.436
 3479SOL     OW11335   1.981   0.909   0.567
 3479SOL    HW111336   1.918   0.885   0.641
 3479SOL    HW211337   1.929   0.946   0.490
 3480SOL     OW11338   1.843   6.409   4.495
 3480SOL    HW111339   1.828   6.313   4.470
 3480SOL    HW211340   1.912   6.448   4.435
 3481SOL     OW11341   1.773   4.596   0.600
 3481SOL    HW111342   1.791   4.497   0.596
 3481SOL    HW211343   1.836   4.638   0.666
 3482SOL     OW11344   0.090   2.157   1.434
 3482SOL    HW111345   0.005   2.104   1.433
 3482SOL    HW211346   0.072   2.247   1.473
 3483SOL     OW11347   4.408   1.688   1.344
 3483SOL    HW111348   4.382   1.595   1.318
 3483SOL    HW211349   4.380   1.751   1.271
 3484SOL     OW11350   3.495   4.051   3.537
 3484SOL    HW111351   3.419   3.995   3.505
 3484SOL    HW211352   3.491   4.060   3.636
 3485SOL     OW11353   6.286   2.730   3.828
 3485SOL    HW111354   6.359   2.722   3.897
 3485SOL    HW211355   6.199   2.700   3.868
 3486SOL     OW11356   6.176   1.775   2.660
 3486SOL    HW111357   6.220   1.859   2.690
 3486SOL    HW211358   6.202   1.756   2.565
 3487SOL     OW11359   1.369   6.531   1.305
 3487SOL    HW111360   1.376   6.459   1.373
 3487SOL    HW211361   1.391   6.494   1.215
 3488SOL     OW11362   6.354   3.037   5.250
 3488SOL    HW111363   6.400   2.959   5.207
 3488SOL    HW211364   6.374   3.120   5.198
 3489SOL     OW11365   2.382   5.692   6.987
 3489SOL    HW111366   2.399   5.789   7.001
 3489SOL    HW211367   2.436   5.638   0.031
 3490SOL     OW11368   5.469   3.685   0.305
 3490SOL    HW111369   5.478   3.752   0.231
 3490SOL    HW211370   5.552   3.685   0.360
 3491SOL     OW11371   6.053   2.582   5.221
 3491SOL    HW111372   5.957   2.608   5.210
 3491SOL    HW211373   6.105   2.660   5.254
 3492SOL     OW11374   0.895   4.184   6.374
 3492SOL    HW111375   0.937   4.215   6.458
 3492SOL    HW211376   0.811   4.134   6.395
 3493SOL     OW11377   0.207   4.953   0.825
 3493SOL    HW111378   0.127   4.918   0.776
 3493SOL    HW211379   0.210   5.052   0.820
 3494SOL     OW11380   3.118   6.920   1.315
 3494SOL    HW111381   3.030   6.878   1.340
 3494SOL    HW211382   3.172   6.935   1.397
 3495SOL     OW11383   5.354   4.242   6.007
 3495SOL    HW111384   5.346   4.256   5.908
 3495SOL    HW211385   5.390   4.325   6.049
 3496SOL     OW11386   0.867   6.514   1.364
 3496SOL    HW111387   0.935   6.503   1.291
 3496SOL    HW211388   0.878   6.441   1.431
 3497SOL     OW11389   2.976   0.156   4.995
 3497SOL    HW111390   2.959   0.128   4.901
 3497SOL    HW211391   3.039   0.092   5.038
 3498SOL     OW11392   1.623   1.966   0.583
 3498SOL    HW111393   1.686   2.013   0.521
 3498SOL    HW211394   1.611   1.872   0.553
 3499SOL     OW11395   6.871   3.877   3.330
 3499SOL    HW111396   6.895   3.953   3.390
 3499SOL    HW211397   6.931   3.877   3.250
 3500SOL     OW11398   6.942   2.426   0.521
 3500SOL    HW111399   6.994   2.408   0.438
 3500SOL    HW211400   6.944   2.346   0.580
 3501SOL     OW11401   0.034   5.292   3.021
 3501SOL    HW111402   7.012   5.234   2.951
 3501SOL    HW211403   0.062   5.235   3.099
 3502SOL     OW11404   1.133   6.663   1.358
 3502SOL    HW111405   1.080   6.589   1.399
 3502SOL    HW211406   1.223   6.629   1.331
 3503SOL     OW11407   2.881   1.258   3.570
 3503SOL    HW111408   2.957   1.310   3.532
 3503SOL    HW211409   2.880   1.268   3.670
 3504SOL     OW11410   2.159   2.569   2.639
 3504SOL    HW111411   2.105   2.532   2.715
 3504SOL    HW211412   2.112   2.549   2.553
 3505SOL     OW11413   4.327   0.048   4.719
 3505SOL    HW111414   4.407   0.064   4.661
 3505SOL    HW211415   4.270   6.997   4.678
 3506SOL     OW11416   6.638   3.058   2.907
 3506SOL    HW111417   6.560   2.996   2.913
 3506SOL    HW211418   6.646   3.093   2.814
 3507SOL     OW11419   0.017   6.888   5.336
 3507SOL    HW111420   0.035   6.971   5.388
 3507SOL    HW211421   7.015   6.814   5.399
 3508SOL     OW11422   0.523   4.508   0.064
 3508SOL    HW111423   0.427   4.502   0.034
 3508SOL    HW211424   0.529   4.479   0.160
 3509SOL     OW11425   3.720   6.651   6.869
 3509SOL    HW111426   3.629   6.631   6.908
 3509SOL    HW211427   3.787   6.653   6.943
 3510SOL     OW11428   2.416   1.692   3.097
 3510SOL    HW111429   2.361   1.620   3.055
 3510SOL    HW211430   2.404   1.688   3.197
 3511SOL     OW11431   1.104   1.155   3.871
 3511SOL    HW111432   1.203   1.142   3.878
 3511SOL    HW211433   1.058   1.075   3.909
 3512SOL     OW11434   3.206   2.879   2.053
 3512SOL    HW111435   3.133   2.822   2.091
 3512SOL    HW211436   3.264   2.823   1.993
 3513SOL     OW11437   6.680   4.953   0.249
 3513SOL    HW111438   6.683   4.869   0.195
 3513SOL    HW211439   6.634   4.934   0.336
 3514SOL     OW11440   3.278   5.465   3.199
 3514SOL    HW111441   3.267   5.537   3.267
 3514SOL    HW211442   3.253   5.377   3.239
 3515SOL     OW11443   3.743   5.662   4.233
 3515SOL    HW111444   3.805   5.594   4.273
 3515SOL    HW211445   3.659   5.666   4.286
 3516SOL     OW11446   1.639   1.400   0.778
 3516SOL    HW111447   1.689   1.385   0.863
 3516SOL    HW211448   1.700   1.390   0.700
 3517SOL     OW11449   0.298   0.988   6.493
 3517SOL    HW111450   0.211   1.004   6.446
 3517SOL    HW211451   0.298   1.034   6.582
 3518SOL     OW11452   4.301   3.885   6.188
 3518SOL    HW111453   4.363   3.939   6.131
 3518SOL    HW211454   4.298   3.791   6.153
 3519SOL     OW11455   4.490   0.504   6.407
 3519SOL    HW111456   4.489   0.404   6.396
 3519SOL    HW211457   4.400   0.541   6.386
 3520SOL     OW11458   4.285   5.112   1.244
 3520SOL    HW111459   4.261   5.107   1.147
 3520SOL    HW211460   4.203   5.107   1.299
 3521SOL     OW11461   0.209   1.881   5.638
 3521SOL    HW111462   0.274   1.805   5.629
 3521SOL    HW211463   0.243   1.946   5.705
 3522SOL     OW11464   2.407   0.293   0.907
 3522SOL    HW111465   2.486   0.353   0.903
 3522SOL    HW211466   2.323   0.347   0.900
 3523SOL     OW11467   2.410   4.381   4.278
 3523SOL    HW111468   2.498   4.429   4.273
 3523SOL    HW211469   2.383   4.371   4.374
 3524SOL     OW11470   2.923   1.563   3.267
 3524SOL    HW111471   2.918   1.661   3.251
 3524SOL    HW211472   2.833   1.528   3.291
 3525SOL     OW11473   2.139   3.435   4.066
 3525SOL    HW111474   2.165   3.471   4.156
 3525SOL    HW211475   2.166   3.339   4.060
 3526SOL     OW11476   3.560   5.521   3.533
 3526SOL    HW111477   3.582   5.538   3.437
 3526SOL    HW211478   3.525   5.427   3.542
 3527SOL     OW11479   6.944   3.620   6.516
 3527SOL    HW111480   6.961   3.571   6.430
 3527SOL    HW211481   6.846   3.616   6.537
 3528SOL     OW11482   0.884   6.113   3.707
 3528SOL    HW111483   0.953   6.168   3.659
 3528SOL    HW211484   0.824   6.174   3.760
 3529SOL     OW11485   3.704   6.929   0.270
 3529SOL    HW111486   3.651   6.902   0.351
 3529SOL    HW211487   3.656   6.898   0.188
 3530SOL     OW11488   1.677   5.246   2.353
 3530SOL    HW111489   1.733   5.325   2.380
 3530SOL    HW211490   1.703   5.218   2.260
 3531SOL     OW11491   5.406   4.227   6.945
 3531SOL    HW111492   5.362   4.151   6.897
 3531SOL    HW211493   5.454   4.193   0.006
 3532SOL     OW11494   2.497   0.240   6.266
 3532SOL    HW111495   2.450   0.217   6.351
 3532SOL    HW211496   2.577   0.297   6.287
 3533SOL     OW11497   1.410   1.397   2.742
 3533SOL    HW111498   1.340   1.457   2.782
 3533SOL    HW211499   1.373   1.354   2.659
 3534SOL     OW11500   4.588   6.979   4.597
 3534SOL    HW111501   4.686   6.971   4.579
 3534SOL    HW211502   4.548   6.888   4.608
 3535SOL     OW11503   3.938   4.409   0.060
 3535SOL    HW111504   3.855   4.386   0.008
 3535SOL    HW211505   3.912   4.451   0.146
 3536SOL     OW11506   2.184   3.119   2.379
 3536SOL    HW111507   2.118   3.194   2.366
 3536SOL    HW211508   2.247   3.142   2.453
 3537SOL     OW11509   2.940   5.092   1.332
 3537SOL    HW111510   2.951   4.994   1.311
 3537SOL    HW211511   2.842   5.113   1.339
 3538SOL     OW11512   2.574   0.211   3.956
 3538SOL    HW111513   2.605   0.221   3.861
 3538SOL    HW211514   2.614   0.128   3.995
 3539SOL     OW11515   5.285   5.517   6.016
 3539SOL    HW111516   5.231   5.550   5.939
 3539SOL    HW211517   5.347   5.589   6.047
 3540SOL     OW11518   5.164   4.111   0.223
 3540SOL    HW111519   5.070   4.116   0.255
 3540SOL    HW211520   5.188   4.015   0.205
 3541SOL     OW11521   0.156   2.817   2.354
 3541SOL    HW111522   0.179   2.888   2.288
 3541SOL    HW211523   0.186   2.728   2.318
 3542SOL     OW11524   6.247   0.889   6.951
 3542SOL    HW111525   6.206   0.968   6.905
 3542SOL    HW211526   6.334   0.866   6.907
 3543SOL     OW11527   0.093   3.108   4.907
 3543SOL    HW111528   0.180   3.155   4.924
 3543SOL    HW211529   0.111   3.023   4.857
 3544SOL     OW11530   4.083   4.881   5.674
 3544SOL    HW111531   4.004   4.926   5.715
 3544SOL    HW211532   4.143   4.845   5.746
 3545SOL     OW11533   2.734   6.385   1.874
 3545SOL    HW111534   2.714   6.369   1.970
 3545SOL    HW211535   2.745   6.483   1.858
 3546SOL     OW11536   0.086   4.496   0.959
 3546SOL    HW111537   0.021   4.570   0.976
 3546SOL    HW211538   0.130   4.510   0.870
 3547SOL     OW11539   1.893   3.906   4.319
 3547SOL    HW111540   1.988   3.897   4.290
 3547SOL    HW211541   1.889   3.938   4.414
 3548SOL     OW11542   6.307   6.641   5.371
 3548SOL    HW111543   6.369   6.566   5.395
 3548SOL    HW211544   6.224   6.635   5.425
 3549SOL     OW11545   1.612   0.351   6.728
 3549SOL    HW111546   1.536   0.286   6.736
 3549SOL    HW211547   1.594   0.431   6.785
 3550SOL     OW11548   6.759   2.599   4.662
 3550SOL    HW111549   6.688   2.528   4.664
 3550SOL    HW211550   6.793   2.614   4.755
 3551SOL     OW11551   6.736   1.677   5.346
 3551SOL    HW111552   6.654   1.639   5.302
 3551SOL    HW211553   6.801   1.603   5.365
 3552SOL     OW11554   6.351   0.805   3.811
 3552SOL    HW111555   6.306   0.828   3.724
 3552SOL    HW211556   6.282   0.803   3.884
 3553SOL     OW11557   5.890   6.062   6.544
 3553SOL    HW111558   5.988   6.047   6.547
 3553SOL    HW211559   5.870   6.134   6.477
 3554SOL     OW11560   5.882   3.313   6.901
 3554SOL    HW111561   5.785   3.293   6.890
 3554SOL    HW211562   5.921   3.339   6.812
 3555SOL     OW11563   2.776   1.175   5.089
 3555SOL    HW111564   2.739   1.264   5.117
 3555SOL    HW211565   2.729   1.103   5.141
 3556SOL     OW11566   5.389   1.260   0.353
 3556SOL    HW111567   5.349   1.220   0.435
 3556SOL    HW211568   5.436   1.345   0.377
 3557SOL     OW11569   4.864   0.433   0.923
 3557SOL    HW111570   4.858   0.487   1.006
 3557SOL    HW211571   4.815   0.347   0.935
 3558SOL     OW11572   4.622   5.930   3.378
 3558SOL    HW111573   4.568   6.008   3.410
 3558SOL    HW211574   4.571   5.845   3.394
 3559SOL     OW11575   4.861   6.183   6.604
 3559SOL    HW111576   4.843   6.139   6.691
 3559SOL    HW211577   4.876   6.114   6.533
 3560SOL     OW11578   1.718   5.742   4.728
 3560SOL    HW111579   1.628   5.705   4.750
 3560SOL    HW211580   1.737   5.728   4.631
 3561SOL     OW11581   4.330   3.039   6.044
 3561SOL    HW111582   4.248   2.984   6.032
 3561SOL    HW211583   4.374   3.017   6.131
 3562SOL     OW11584   2.768   0.989   0.741
 3562SOL    HW111585   2.793   0.947   0.828
 3562SOL    HW211586   2.851   1.013   0.690
 3563SOL     OW11587   6.076   1.940   5.850
 3563SOL    HW111588   6.074   2.032   5.810
 3563SOL    HW211589   6.000   1.931   5.915
 3564SOL     OW11590   5.731   2.738   2.907
 3564SOL    HW111591   5.641   2.698   2.925
 3564SOL    HW211592   5.799   2.665   2.896
 3565SOL     OW11593   4.940   6.328   5.454
 3565SOL    HW111594   4.920   6.352   5.549
 3565SOL    HW211595   5.024   6.274   5.450
 3566SOL     OW11596   0.592   0.854   4.787
 3566SOL    HW111597   0.616   0.891   4.877
 3566SOL    HW211598   0.670   0.804   4.750
 3567SOL     OW11599   1.261   4.474   6.833
 3567SOL    HW111600   1.245   4.385   6.876
 3567SOL    HW211601   1.288   4.540   6.903
 3568SOL     OW11602   1.795   3.977   5.400
 3568SOL    HW111603   1.697   3.977   5.414
 3568SOL    HW211604   1.842   3.954   5.485
 3569SOL     OW11605   0.402   0.233   3.536
 3569SOL    HW111606   0.398   0.162   3.466
 3569SOL    HW211607   0.407   0.191   3.626
 3570SOL     OW11608   0.510   1.627   4.743
 3570SOL    HW111609   0.564   1.702   4.705
 3570SOL    HW211610   0.413   1.653   4.743
 3571SOL     OW11611   6.890   5.553   5.127
 3571SOL    HW111612   6.823   5.490   5.088
 3571SOL    HW211613   6.978   5.505   5.138
 3572SOL     OW11614   5.196   7.013   5.408
 3572SOL    HW111615   5.199   0.081   5.456
 3572SOL    HW211616   5.152   6.945   5.465
 3573SOL     OW11617   6.797   2.737   1.998
 3573SOL    HW111618   6.784   2.820   2.053
 3573SOL    HW211619   6.724   2.672   2.017
 3574SOL     OW11620   0.915   3.635   0.555
 3574SOL    HW111621   0.819   3.658   0.573
 3574SOL    HW211622   0.939   3.664   0.462
 3575SOL     OW11623   6.704   0.326   2.643
 3575SOL    HW111624   6.771   0.400   2.642
 3575SOL    HW211625   6.628   0.351   2.703
 3576SOL     OW11626   0.764   0.874   0.962
 3576SOL    HW111627   0.861   0.896   0.954
 3576SOL    HW211628   0.717   0.899   0.878
 3577SOL     OW11629   2.045   4.451   0.568
 3577SOL    HW111630   2.078   4.483   0.657
 3577SOL    HW211631   2.019   4.530   0.512
 3578SOL     OW11632   3.590   4.880   1.693
 3578SOL    HW111633   3.603   4.797   1.748
 3578SOL    HW211634   3.597   4.858   1.596
 3579SOL     OW11635   2.589   2.919   6.610
 3579SOL    HW111636   2.627   2.977   6.538
 3579SOL    HW211637   2.602   2.963   6.699
 3580SOL     OW11638   5.481   1.114   2.217
 3580SOL    HW111639   5.401   1.071   2.259
 3580SOL    HW211640   5.561   1.056   2.229
 3581SOL     OW11641   0.207   1.828   2.526
 3581SOL    HW111642   0.155   1.888   2.585
 3581SOL    HW211643   0.261   1.765   2.582
 3582SOL     OW11644   0.730   0.630   5.992
 3582SOL    HW111645   0.753   0.623   5.895
 3582SOL    HW211646   0.634   0.605   6.005
 3583SOL     OW11647   1.136   6.700   2.418
 3583SOL    HW111648   1.198   6.730   2.345
 3583SOL    HW211649   1.042   6.725   2.394
 3584SOL     OW11650   5.030   0.655   5.095
 3584SOL    HW111651   5.086   0.734   5.120
 3584SOL    HW211652   5.023   0.649   4.996
 3585SOL     OW11653   2.334   4.980   2.822
 3585SOL    HW111654   2.254   4.985   2.762
 3585SOL    HW211655   2.319   5.037   2.903
 3586SOL     OW11656   1.103   1.192   6.795
 3586SOL    HW111657   1.120   1.287   6.821
 3586SOL    HW211658   1.125   1.131   6.872
 3587SOL     OW11659   3.913   6.187   6.010
 3587SOL    HW111660   3.928   6.280   6.045
 3587SOL    HW211661   3.972   6.173   5.930
 3588SOL     OW11662   2.761   2.553   5.266
 3588SOL    HW111663   2.729   2.459   5.276
 3588SOL    HW211664   2.686   2.609   5.229
 3589SOL     OW11665   2.691   6.187   4.619
 3589SOL    HW111666   2.638   6.104   4.639
 3589SOL    HW211667   2.669   6.257   4.687
 3590SOL     OW11668   1.132   5.960   6.903
 3590SOL    HW111669   1.230   5.980   6.905
 3590SOL    HW211670   1.117   5.872   6.859
 3591SOL     OW11671   4.616   2.176   4.284
 3591SOL    HW111672   4.532   2.217   4.320
 3591SOL    HW211673   4.692   2.199   4.344
 3592SOL     OW11674   5.527   1.054   2.548
 3592SOL    HW111675   5.523   1.131   2.611
 3592SOL    HW211676   5.440   1.004   2.551
 3593SOL     OW11677   0.896   4.778   4.794
 3593SOL    HW111678   0.854   4.799   4.706
 3593SOL    HW211679   0.826   4.749   4.859
 3594SOL     OW11680   4.452   1.664   4.391
 3594SOL    HW111681   4.377   1.621   4.440
 3594SOL    HW211682   4.421   1.750   4.351
 3595SOL     OW11683   2.218   6.692   6.818
 3595SOL    HW111684   2.281   6.723   6.888
 3595SOL    HW211685   2.124   6.708   6.848
 3596SOL     OW11686   6.215   3.393   2.888
 3596SOL    HW111687   6.157   3.470   2.912
 3596SOL    HW211688   6.274   3.418   2.811
 3597SOL     OW11689   4.381   0.296   3.783
 3597SOL    HW111690   4.457   0.356   3.809
 3597SOL    HW211691   4.332   0.267   3.865
 3598SOL     OW11692   2.117   6.877   0.039
 3598SOL    HW111693   2.150   6.959   0.086
 3598SOL    HW211694   2.169   6.797   0.071
 3599SOL     OW11695   0.489   2.131   4.179
 3599SOL    HW111696   0.405   2.184   4.169
 3599SOL    HW211697   0.489   2.086   4.268
 3600SOL     OW11698   6.468   6.546   1.101
 3600SOL    HW111699   6.495   6.634   1.063
 3600SOL    HW211700   6.369   6.538   1.100
 3601SOL     OW11701   6.650   3.872   5.854
 3601SOL    HW111702   6.646   3.773   5.870
 3601SOL    HW211703   6.651   3.891   5.756
 3602SOL     OW11704   3.664   2.406   0.992
 3602SOL    HW111705   3.753   2.367   0.968
 3602SOL    HW211706   3.677   2.486   1.051
 3603SOL     OW11707   3.533   5.326   4.943
 3603SOL    HW111708   3.548   5.376   5.029
 3603SOL    HW211709   3.621   5.293   4.909
 3604SOL     OW11710   5.884   4.313   3.344
 3604SOL    HW111711   5.962   4.334   3.402
 3604SOL    HW211712   5.845   4.225   3.372
 3605SOL     OW11713   5.769   1.161   6.633
 3605SOL    HW111714   5.688   1.119   6.675
 3605SOL    HW211715   5.741   1.209   6.550
 3606SOL     OW11716   1.854   3.758   2.640
 3606SOL    HW111717   1.942   3.734   2.597
 3606SOL    HW211718   1.832   3.690   2.710
 3607SOL     OW11719   4.445   6.641   5.134
 3607SOL    HW111720   4.516   6.690   5.084
 3607SOL    HW211721   4.443   6.545   5.106
 3608SOL     OW11722   6.667   3.541   2.494
 3608SOL    HW111723   6.673   3.458   2.438
 3608SOL    HW211724   6.675   3.622   2.435
 3609SOL     OW11725   0.952   0.925   3.947
 3609SOL    HW111726   0.959   0.837   3.993
 3609SOL    HW211727   0.892   0.916   3.867
 3610SOL     OW11728   1.417   4.684   5.538
 3610SOL    HW111729   1.499   4.652   5.492
 3610SOL    HW211730   1.436   4.770   5.585
 3611SOL     OW11731   4.288   4.990   6.638
 3611SOL    HW111732   4.235   4.917   6.595
 3611SOL    HW211733   4.379   4.994   6.596
 3612SOL     OW11734   2.523   5.590   1.451
 3612SOL    HW111735   2.478   5.634   1.374
 3612SOL    HW211736   2.584   5.518   1.418
 3613SOL     OW11737   5.465   4.449   6.396
 3613SOL    HW111738   5.491   4.521   6.461
 3613SOL    HW211739   5.498   4.361   6.430
 3614SOL     OW11740   3.921   3.086   4.921
 3614SOL    HW111741   3.988   3.117   4.853
 3614SOL    HW211742   3.863   3.016   4.880
 3615SOL     OW11743   6.003   7.017   6.628
 3615SOL    HW111744   6.017   6.942   6.693
 3615SOL    HW211745   5.907   0.024   6.629
 3616SOL     OW11746   0.126   1.279   4.210
 3616SOL    HW111747   0.121   1.348   4.138
 3616SOL    HW211748   0.170   1.317   4.291
 3617SOL     OW11749   0.025   0.758   1.468
 3617SOL    HW111750   6.998   0.701   1.535
 3617SOL    HW211751   0.057   0.701   1.392
 3618SOL     OW11752   3.704   5.223   6.261
 3618SOL    HW111753   3.773   5.212   6.189
 3618SOL    HW211754   3.724   5.159   6.335
 3619SOL     OW11755   4.909   3.308   3.817
 3619SOL    HW111756   5.001   3.290   3.853
 3619SOL    HW211757   4.893   3.252   3.737
 3620SOL     OW11758   5.723   1.995   5.217
 3620SOL    HW111759   5.720   1.897   5.198
 3620SOL    HW211760   5.630   2.031   5.223
 3621SOL     OW11761   2.238   2.613   6.486
 3621SOL    HW111762   2.305   2.673   6.530
 3621SOL    HW211763   2.212   2.650   6.397
 3622SOL     OW11764   1.460   4.053   0.804
 3622SOL    HW111765   1.491   4.137   0.761
 3622SOL    HW211766   1.532   4.016   0.863
 3623SOL     OW11767   6.680   5.336   4.649
 3623SOL    HW111768   6.648   5.254   4.698
 3623SOL    HW211769   6.609   5.407   4.653
 3624SOL     OW11770   1.720   0.052   1.923
 3624SOL    HW111771   1.728   7.003   1.995
 3624SOL    HW211772   1.644   0.114   1.945
 3625SOL     OW11773   1.575   2.258   5.177
 3625SOL    HW111774   1.512   2.215   5.112
 3625SOL    HW211775   1.626   2.188   5.226
 3626SOL     OW11776   1.655   3.417   5.342
 3626SOL    HW111777   1.692   3.456   5.258
 3626SOL    HW211778   1.556   3.405   5.334
 3627SOL     OW11779   4.146   3.578   4.295
 3627SOL    HW111780   4.139   3.651   4.363
 3627SOL    HW211781   4.054   3.546   4.271
 3628SOL     OW11782   2.871   5.331   3.815
 3628SOL    HW111783   2.954   5.379   3.785
 3628SOL    HW211784   2.809   5.396   3.860
 3629SOL     OW11785   6.145   4.013   4.846
 3629SOL    HW111786   6.188   3.984   4.932
 3629SOL    HW211787   6.206   3.990   4.770
 3630SOL     OW11788   6.371   1.776   4.576
 3630SOL    HW111789   6.457   1.788   4.526
 3630SOL    HW211790   6.354   1.855   4.634
 3631SOL     OW11791   2.194   0.771   4.133
 3631SOL    HW111792   2.243   0.833   4.195
 3631SOL    HW211793   2.232   0.778   4.041
 3632SOL     OW11794   4.865   6.737   6.280
 3632SOL    HW111795   4.959   6.755   6.310
 3632SOL    HW211796   4.814   6.823   6.276
 3633SOL     OW11797   1.036   2.699   5.511
 3633SOL    HW111798   1.025   2.780   5.452
 3633SOL    HW211799   0.955   2.640   5.502
 3634SOL     OW11800   2.184   4.610   6.296
 3634SOL    HW111801   2.187   4.511   6.307
 3634SOL    HW211802   2.159   4.633   6.202
 3635SOL     OW11803   1.478   2.041   4.576
 3635SOL    HW111804   1.568   2.066   4.540
 3635SOL    HW211805   1.486   2.017   4.673
 3636SOL     OW11806   0.753   6.749   1.278
 3636SOL    HW111807   0.798   6.665   1.307
 3636SOL    HW211808   0.732   6.744   1.180
 3637SOL     OW11809   5.477   1.406   2.457
 3637SOL    HW111810   5.532   1.488   2.472
 3637SOL    HW211811   5.469   1.355   2.542
 3638SOL     OW11812   6.792   5.142   3.250
 3638SOL    HW111813   6.720   5.101   3.307
 3638SOL    HW211814   6.800   5.090   3.165
 3639SOL     OW11815   2.809   5.736   6.719
 3639SOL    HW111816   2.848   5.828   6.714
 3639SOL    HW211817   2.716   5.738   6.681
 3640SOL     OW11818   2.528   6.995   3.354
 3640SOL    HW111819   2.469   0.016   3.284
 3640SOL    HW211820   2.528   6.896   3.342
 3641SOL     OW11821   2.195   0.607   4.968
 3641SOL    HW111822   2.177   0.571   5.059
 3641SOL    HW211823   2.179   0.705   4.967
 3642SOL     OW11824   6.327   0.180   3.023
 3642SOL    HW111825   6.264   0.233   3.080
 3642SOL    HW211826   6.421   0.197   3.051
 3643SOL     OW11827   4.101   6.985   3.745
 3643SOL    HW111828   4.145   6.963   3.831
 3643SOL    HW211829   4.114   6.911   3.680
 3644SOL     OW11830   6.139   0.636   1.730
 3644SOL    HW111831   6.049   0.616   1.769
 3644SOL    HW211832   6.128   0.667   1.635
 3645SOL     OW11833   4.399   5.563   3.946
 3645SOL    HW111834   4.308   5.593   3.973
 3645SOL    HW211835   4.437   5.504   4.017
 3646SOL     OW11836   0.617   5.358   5.078
 3646SOL    HW111837   0.653   5.440   5.123
 3646SOL    HW211838   0.548   5.316   5.137
 3647SOL     OW11839   4.223   3.009   0.919
 3647SOL    HW111840   4.275   2.929   0.952
 3647SOL    HW211841   4.227   3.011   0.819
 3648SOL     OW11842   2.303   6.375   3.645
 3648SOL    HW111843   2.233   6.440   3.673
 3648SOL    HW211844   2.302   6.366   3.545
 3649SOL     OW11845   4.069   3.157   3.134
 3649SOL    HW111846   4.149   3.159   3.074
 3649SOL    HW211847   4.000   3.095   3.096
 3650SOL     OW11848   5.858   6.038   1.824
 3650SOL    HW111849   5.885   5.942   1.831
 3650SOL    HW211850   5.767   6.050   1.864
 3651SOL     OW11851   1.859   5.399   1.753
 3651SOL    HW111852   1.896   5.355   1.834
 3651SOL    HW211853   1.893   5.353   1.671
 3652SOL     OW11854   4.452   6.470   3.948
 3652SOL    HW111855   4.527   6.520   3.991
 3652SOL    HW211856   4.478   6.445   3.855
 3653SOL     OW11857   0.262   3.439   3.331
 3653SOL    HW111858   0.168   3.407   3.324
 3653SOL    HW211859   0.263   3.538   3.345
 3654SOL     OW11860   2.243   6.841   1.987
 3654SOL    HW111861   2.236   6.782   1.906
 3654SOL    HW211862   2.169   6.818   2.050
 3655SOL     OW11863   6.277   1.144   3.802
 3655SOL    HW111864   6.274   1.052   3.764
 3655SOL    HW211865   6.334   1.203   3.744
 3656SOL     OW11866   1.802   1.637   2.720
 3656SOL    HW111867   1.782   1.605   2.812
 3656SOL    HW211868   1.891   1.683   2.719
 3657SOL     OW11869   5.870   5.003   1.024
 3657SOL    HW111870   5.916   5.091   1.035
 3657SOL    HW211871   5.781   5.006   1.071
 3658SOL     OW11872   2.748   4.426   5.505
 3658SOL    HW111873   2.683   4.349   5.504
 3658SOL    HW211874   2.841   4.391   5.512
 3659SOL     OW11875   1.818   3.467   6.909
 3659SOL    HW111876   1.750   3.540   6.903
 3659SOL    HW211877   1.774   3.383   6.940
 3660SOL     OW11878   4.978   4.047   0.808
 3660SOL    HW111879   4.967   3.991   0.890
 3660SOL    HW211880   4.889   4.086   0.782
 3661SOL     OW11881   5.289   0.946   2.268
 3661SOL    HW111882   5.191   0.960   2.253
 3661SOL    HW211883   5.314   0.853   2.240
 3662SOL     OW11884   1.682   6.479   4.016
 3662SOL    HW111885   1.643   6.565   4.049
 3662SOL    HW211886   1.608   6.412   4.005
 3663SOL     OW11887   2.471   2.918   5.592
 3663SOL    HW111888   2.373   2.936   5.590
 3663SOL    HW211889   2.491   2.835   5.540
 3664SOL     OW11890   4.094   0.122   1.903
 3664SOL    HW111891   4.081   0.040   1.960
 3664SOL    HW211892   4.109   0.201   1.962
 3665SOL     OW11893   2.467   1.758   5.185
 3665SOL    HW111894   2.562   1.787   5.171
 3665SOL    HW211895   2.410   1.793   5.112
 3666SOL     OW11896   0.876   4.778   2.949
 3666SOL    HW111897   0.786   4.752   2.983
 3666SOL    HW211898   0.912   4.853   3.005
 3667SOL     OW11899   0.164   0.680   0.156
 3667SOL    HW111900   0.205   0.677   0.247
 3667SOL    HW211901   0.152   0.775   0.128
 3668SOL     OW11902   2.053   0.184   1.254
 3668SOL    HW111903   2.015   0.266   1.211
 3668SOL    HW211904   1.996   0.105   1.234
 3669SOL     OW11905   5.077   1.531   4.545
 3669SOL    HW111906   5.141   1.480   4.489
 3669SOL    HW211907   5.053   1.617   4.500
 3670SOL     OW11908   3.131   5.105   5.722
 3670SOL    HW111909   3.068   5.032   5.695
 3670SOL    HW211910   3.127   5.116   5.822
 3671SOL     OW11911   1.879   1.620   3.270
 3671SOL    HW111912   1.825   1.540   3.243
 3671SOL    HW211913   1.955   1.631   3.206
 3672SOL     OW11914   6.026   6.079   6.908
 3672SOL    HW111915   6.060   6.135   6.983
 3672SOL    HW211916   6.095   6.011   6.883
 3673SOL     OW11917   3.730   6.913   6.132
 3673SOL    HW111918   3.693   6.985   6.073
 3673SOL    HW211919   3.660   6.843   6.147
 3674SOL     OW11920   1.369   6.468   0.848
 3674SOL    HW111921   1.326   6.557   0.836
 3674SOL    HW211922   1.437   6.453   0.776
 3675SOL     OW11923   2.117   2.019   4.114
 3675SOL    HW111924   2.083   2.093   4.172
 3675SOL    HW211925   2.071   2.023   4.026
 3676SOL     OW11926   0.623   4.896   2.947
 3676SOL    HW111927   0.594   4.981   2.991
 3676SOL    HW211928   0.676   4.917   2.865
 3677SOL     OW11929   6.374   1.161   3.392
 3677SOL    HW111930   6.464   1.131   3.359
 3677SOL    HW211931   6.384   1.209   3.479
 3678SOL     OW11932   0.690   2.724   4.238
 3678SOL    HW111933   0.594   2.699   4.221
 3678SOL    HW211934   0.727   2.770   4.157
 3679SOL     OW11935   6.262   1.312   1.729
 3679SOL    HW111936   6.332   1.328   1.798
 3679SOL    HW211937   6.244   1.214   1.721
 3680SOL     OW11938   6.353   4.349   5.219
 3680SOL    HW111939   6.428   4.404   5.181
 3680SOL    HW211940   6.391   4.273   5.272
 3681SOL     OW11941   5.435   0.467   4.759
 3681SOL    HW111942   5.463   0.403   4.830
 3681SOL    HW211943   5.501   0.543   4.755
 3682SOL     OW11944   0.593   2.046   0.007
 3682SOL    HW111945   0.597   1.979   6.953
 3682SOL    HW211946   0.685   2.077   0.028
 3683SOL     OW11947   4.496   6.250   3.681
 3683SOL    HW111948   4.525   6.345   3.664
 3683SOL    HW211949   4.479   6.205   3.594
 3684SOL     OW11950   2.238   4.122   1.975
 3684SOL    HW111951   2.332   4.149   1.992
 3684SOL    HW211952   2.236   4.031   1.932
 3685SOL     OW11953   5.722   5.583   5.929
 3685SOL    HW111954   5.655   5.596   6.003
 3685SOL    HW211955   5.714   5.490   5.893
 3686SOL     OW11956   0.577   4.009   0.438
 3686SOL    HW111957   0.541   3.968   0.522
 3686SOL    HW211958   0.521   4.089   0.414
 3687SOL     OW11959   3.951   1.076   0.928
 3687SOL    HW111960   4.013   1.112   0.998
 3687SOL    HW211961   3.880   1.021   0.972
 3688SOL     OW11962   6.970   2.562   6.506
 3688SOL    HW111963   0.045   2.550   6.534
 3688SOL    HW211964   6.912   2.495   6.553
 3689SOL     OW11965   1.164   6.109   3.808
 3689SOL    HW111966   1.243   6.169   3.810
 3689SOL    HW211967   1.173   6.043   3.734
 3690SOL     OW11968   4.893   4.492   5.649
 3690SOL    HW111969   4.910   4.542   5.733
 3690SOL    HW211970   4.835   4.412   5.668
 3691SOL     OW11971   3.163   3.267   6.350
 3691SOL    HW111972   3.145   3.350   6.298
 3691SOL    HW211973   3.078   3.237   6.396
 3692SOL     OW11974   6.661   0.321   5.196
 3692SOL    HW111975   6.674   0.413   5.233
 3692SOL    HW211976   6.736   0.299   5.134
 3693SOL     OW11977   1.724   1.401   3.545
 3693SOL    HW111978   1.732   1.471   3.616
 3693SOL    HW211979   1.811   1.353   3.536
 3694SOL     OW11980   1.686   4.740   3.569
 3694SOL    HW111981   1.746   4.763   3.492
 3694SOL    HW211982   1.693   4.811   3.639
 3695SOL     OW11983   2.377   2.725   0.781
 3695SOL    HW111984   2.427   2.759   0.860
 3695SOL    HW211985   2.440   2.709   0.705
 3696SOL     OW11986   2.740   5.658   5.792
 3696SOL    HW111987   2.721   5.735   5.854
 3696SOL    HW211988   2.681   5.666   5.711
 3697SOL     OW11989   5.471   0.988   3.399
 3697SOL    HW111990   5.506   0.895   3.387
 3697SOL    HW211991   5.514   1.029   3.479
 3698SOL     OW11992   3.502   6.957   5.892
 3698SOL    HW111993   3.433   6.945   5.821
 3698SOL    HW211994   3.536   0.031   5.889
 3699SOL     OW11995   0.911   5.348   2.131
 3699SOL    HW111996   1.003   5.370   2.164
 3699SOL    HW211997   0.917   5.308   2.040
 3700SOL     OW11998   6.233   0.498   3.956
 3700SOL    HW111999   6.316   0.553   3.967
 3700SOL    HW212000   6.252   0.420   3.897
 3701SOL     OW12001   4.151   1.444   3.644
 3701SOL    HW112002   4.135   1.492   3.558
 3701SOL    HW212003   4.215   1.496   3.700
 3702SOL     OW12004   4.427   1.533   6.703
 3702SOL    HW112005   4.492   1.496   6.769
 3702SOL    HW212006   4.421   1.471   6.624
 3703SOL     OW12007   3.569   4.807   0.955
 3703SOL    HW112008   3.550   4.885   1.015
 3703SOL    HW212009   3.637   4.834   0.887
 3704SOL     OW12010   3.595   6.453   0.909
 3704SOL    HW112011   3.549   6.382   0.962
 3704SOL    HW212012   3.635   6.521   0.971
 3705SOL     OW12013   0.312   1.091   3.791
 3705SOL    HW112014   0.344   1.080   3.696
 3705SOL    HW212015   0.228   1.145   3.791
 3706SOL     OW12016   2.636   2.360   3.104
 3706SOL    HW112017   2.682   2.294   3.045
 3706SOL    HW212018   2.691   2.376   3.186
 3707SOL     OW12019   4.214   2.289   5.487
 3707SOL    HW112020   4.307   2.326   5.491
 3707SOL    HW212021   4.214   2.196   5.523
 3708SOL     OW12022   6.134   6.681   0.725
 3708SOL    HW112023   6.161   6.723   0.638
 3708SOL    HW212024   6.216   6.668   0.782
 3709SOL     OW12025   0.571   6.406   6.309
 3709SOL    HW112026   0.550   6.318   6.268
 3709SOL    HW212027   0.660   6.438   6.277
 3710SOL     OW12028   0.863   5.088   6.462
 3710SOL    HW112029   0.874   5.162   6.396
 3710SOL    HW212030   0.796   5.023   6.428
 3711SOL     OW12031   6.410   4.989   2.394
 3711SOL    HW112032   6.353   4.971   2.314
 3711SOL    HW212033   6.353   4.987   2.476
 3712SOL     OW12034   1.526   0.042   5.854
 3712SOL    HW112035   1.459   0.072   5.787
 3712SOL    HW212036   1.492   6.983   5.904
 3713SOL     OW12037   3.378   4.836   6.182
 3713SOL    HW112038   3.306   4.905   6.185
 3713SOL    HW212039   3.439   4.854   6.105
 3714SOL     OW12040   4.826   2.201   4.508
 3714SOL    HW112041   4.807   2.148   4.590
 3714SOL    HW212042   4.864   2.141   4.438
 3715SOL     OW12043   4.716   4.442   3.728
 3715SOL    HW112044   4.726   4.524   3.784
 3715SOL    HW212045   4.680   4.367   3.783
 3716SOL     OW12046   1.509   1.239   4.594
 3716SOL    HW112047   1.510   1.255   4.495
 3716SOL    HW212048   1.474   1.147   4.612
 3717SOL     OW12049   5.942   0.487   6.821
 3717SOL    HW112050   5.900   0.396   6.817
 3717SOL    HW212051   6.023   0.483   6.880
 3718SOL     OW12052   1.007   6.671   6.321
 3718SOL    HW112053   0.951   6.751   6.302
 3718SOL    HW212054   1.064   6.689   6.401
 3719SOL     OW12055   3.784   4.064   0.626
 3719SOL    HW112056   3.796   3.986   0.565
 3719SOL    HW212057   3.768   4.147   0.573
 3720SOL     OW12058   6.897   1.283   6.362
 3720SOL    HW112059   6.983   1.333   6.350
 3720SOL    HW212060   6.821   1.347   6.367
 3721SOL     OW12061   5.671   2.914   0.433
 3721SOL    HW112062   5.723   2.829   0.447
 3721SOL    HW212063   5.626   2.911   0.344
 3722SOL     OW12064   4.317   5.911   0.588
 3722SOL    HW112065   4.288   5.850   0.662
 3722SOL    HW212066   4.373   5.985   0.625
 3723SOL     OW12067   4.112   1.402   0.348
 3723SOL    HW112068   4.139   1.470   0.281
 3723SOL    HW212069   4.177   1.403   0.425
 3724SOL     OW12070   1.217   3.917   6.511
 3724SOL    HW112071   1.122   3.886   6.510
 3724SOL    HW212072   1.236   3.960   6.599
 3725SOL     OW12073   5.030   5.965   1.641
 3725SOL    HW112074   4.950   5.995   1.588
 3725SOL    HW212075   5.113   5.991   1.593
 3726SOL     OW12076   6.079   3.348   1.774
 3726SOL    HW112077   6.123   3.400   1.701
 3726SOL    HW212078   6.001   3.297   1.737
 3727SOL     OW12079   2.737   2.666   5.806
 3727SOL    HW112080   2.655   2.671   5.750
 3727SOL    HW212081   2.807   2.727   5.769
 3728SOL     OW12082   0.727   3.763   6.655
 3728SOL    HW112083   0.658   3.743   6.585
 3728SOL    HW212084   0.692   3.740   6.745
 3729SOL     OW12085   1.356   3.634   3.518
 3729SOL    HW112086   1.449   3.663   3.494
 3729SOL    HW212087   1.329   3.677   3.604
 3730SOL     OW12088   1.839   7.001   1.179
 3730SOL    HW112089   1.758   0.004   1.124
 3730SOL    HW212090   1.895   6.935   1.129
 3731SOL     OW12091   2.648   6.359   0.121
 3731SOL    HW112092   2.598   6.425   0.065
 3731SOL    HW212093   2.708   6.305   0.063
 3732SOL     OW12094   1.832   3.579   4.304
 3732SOL    HW112095   1.742   3.572   4.262
 3732SOL    HW212096   1.890   3.639   4.248
 3733SOL     OW12097   3.463   2.946   1.819
 3733SOL    HW112098   3.449   2.873   1.885
 3733SOL    HW212099   3.402   3.023   1.841
 3734SOL     OW12100   4.209   1.370   3.303
 3734SOL    HW112101   4.302   1.387   3.337
 3734SOL    HW212102   4.157   1.456   3.306
 3735SOL     OW12103   3.961   2.269   1.792
 3735SOL    HW112104   3.972   2.179   1.750
 3735SOL    HW212105   3.872   2.273   1.838
 3736SOL     OW12106   4.868   0.806   6.185
 3736SOL    HW112107   4.780   0.783   6.144
 3736SOL    HW212108   4.876   0.905   6.193
 3737SOL     OW12109   2.718   6.961   3.926
 3737SOL    HW112110   2.794   6.897   3.942
 3737SOL    HW212111   2.716   6.984   3.828
 3738SOL     OW12112   0.620   0.436   4.290
 3738SOL    HW112113   0.521   0.436   4.276
 3738SOL    HW212114   0.647   0.519   4.338
 3739SOL     OW12115   0.007   3.615   0.625
 3739SOL    HW112116   0.035   3.682   0.694
 3739SOL    HW212117   6.956   3.556   0.664
 3740SOL     OW12118   5.628   6.852   0.289
 3740SOL    HW112119   5.625   6.880   0.193
 3740SOL    HW212120   5.622   6.933   0.347
 3741SOL     OW12121   3.783   0.772   6.973
 3741SOL    HW112122   3.851   0.744   0.021
 3741SOL    HW212123   3.795   0.869   6.952
 3742SOL     OW12124   3.581   3.423   6.194
 3742SOL    HW112125   3.514   3.498   6.195
 3742SOL    HW212126   3.672   3.460   6.213
 3743SOL     OW12127   1.280   6.242   5.817
 3743SOL    HW112128   1.186   6.216   5.839
 3743SOL    HW212129   1.329   6.163   5.781
 3744SOL     OW12130   6.218   4.754   3.540
 3744SOL    HW112131   6.237   4.685   3.609
 3744SOL    HW212132   6.164   4.712   3.466
 3745SOL     OW12133   5.360   4.564   1.421
 3745SOL    HW112134   5.422   4.542   1.346
 3745SOL    HW212135   5.411   4.606   1.496
 3746SOL     OW12136   4.241   1.426   0.907
 3746SOL    HW112137   4.323   1.478   0.929
 3746SOL    HW212138   4.165   1.458   0.963
 3747SOL     OW12139   2.944   6.573   1.596
 3747SOL    HW112140   2.967   6.515   1.518
 3747SOL    HW212141   3.027   6.601   1.643
 3748SOL     OW12142   5.249   0.604   1.840
 3748SOL    HW112143   5.167   0.553   1.865
 3748SOL    HW212144   5.247   0.623   1.742
 3749SOL     OW12145   1.146   0.729   4.056
 3749SOL    HW112146   1.166   0.718   3.958
 3749SOL    HW212147   1.213   0.793   4.096
 3750SOL     OW12148   0.659   3.677   6.912
 3750SOL    HW112149   0.673   3.760   6.966
 3750SOL    HW212150   0.704   3.600   6.958
 3751SOL     OW12151   1.850   5.047   1.597
 3751SOL    HW112152   1.807   5.061   1.686
 3751SOL    HW212153   1.785   5.002   1.535
 3752SOL     OW12154   5.693   5.204   6.555
 3752SOL    HW112155   5.734   5.120   6.590
 3752SOL    HW212156   5.689   5.200   6.455
 3753SOL     OW12157   0.246   1.441   3.635
 3753SOL    HW112158   0.316   1.469   3.700
 3753SOL    HW212159   0.175   1.390   3.684
 3754SOL     OW12160   3.913   1.459   1.589
 3754SOL    HW112161   3.961   1.506   1.515
 3754SOL    HW212162   3.815   1.458   1.570
 3755SOL     OW12163   2.560   6.184   4.315
 3755SOL    HW112164   2.516   6.268   4.285
 3755SOL    HW212165   2.570   6.185   4.415
 3756SOL     OW12166   1.534   6.352   0.605
 3756SOL    HW112167   1.626   6.338   0.642
 3756SOL    HW212168   1.495   6.263   0.579
 3757SOL     OW12169   1.027   5.213   6.998
 3757SOL    HW112170   0.999   5.166   6.915
 3757SOL    HW212171   1.111   5.266   6.980
 3758SOL     OW12172   0.650   6.177   4.057
 3758SOL    HW112173   0.695   6.117   4.123
 3758SOL    HW212174   0.628   6.264   4.101
 3759SOL     OW12175   4.846   0.799   3.605
 3759SOL    HW112176   4.769   0.765   3.659
 3759SOL    HW212177   4.817   0.810   3.510
 3760SOL     OW12178   0.508   1.201   3.271
 3760SOL    HW112179   0.561   1.128   3.228
 3760SOL    HW212180   0.430   1.225   3.213
 3761SOL     OW12181   4.135   1.338   4.652
 3761SOL    HW112182   4.099   1.245   4.664
 3761SOL    HW212183   4.076   1.403   4.699
 3762SOL     OW12184   6.956   2.193   3.212
 3762SOL    HW112185   6.987   2.208   3.118
 3762SOL    HW212186   6.886   2.122   3.214
 3763SOL     OW12187   0.821   6.876   6.284
 3763SOL    HW112188   0.737   6.862   6.337
 3763SOL    HW212189   0.862   6.963   6.310
 3764SOL     OW12190   4.408   1.910   2.494
 3764SOL    HW112191   4.454   1.927   2.407
 3764SOL    HW212192   4.352   1.827   2.487
 3765SOL     OW12193   5.700   3.768   2.440
 3765SOL    HW112194   5.655   3.842   2.491
 3765SOL    HW212195   5.775   3.806   2.386
 3766SOL     OW12196   2.261   2.859   2.385
 3766SOL    HW112197   2.226   2.952   2.371
 3766SOL    HW212198   2.276   2.844   2.483
 3767SOL     OW12199   1.435   6.393   5.659
 3767SOL    HW112200   1.485   6.458   5.716
 3767SOL    HW212201   1.377   6.335   5.716
 3768SOL     OW12202   1.350   6.707   3.910
 3768SOL    HW112203   1.296   6.667   3.836
 3768SOL    HW212204   1.405   6.783   3.874
 3769SOL     OW12205   4.985   5.090   5.998
 3769SOL    HW112206   5.050   5.014   5.991
 3769SOL    HW212207   5.004   5.142   6.081
 3770SOL     OW12208   2.690   0.113   0.682
 3770SOL    HW112209   2.598   0.122   0.645
 3770SOL    HW212210   2.732   0.204   0.689
 3771SOL     OW12211   6.554   6.179   5.507
 3771SOL    HW112212   6.601   6.090   5.508
 3771SOL    HW212213   6.607   6.246   5.558
 3772SOL     OW12214   3.441   5.655   1.630
 3772SOL    HW112215   3.355   5.604   1.630
 3772SOL    HW212216   3.437   5.728   1.698
 3773SOL     OW12217   5.021   4.000   6.842
 3773SOL    HW112218   5.020   4.013   6.941
 3773SOL    HW212219   5.087   3.928   6.819
 3774SOL     OW12220   0.127   4.241   0.609
 3774SOL    HW112221   0.197   4.295   0.656
 3774SOL    HW212222   0.135   4.145   0.636
 3775SOL     OW12223   5.537   6.681   5.063
 3775SOL    HW112224   5.506   6.736   4.986
 3775SOL    HW212225   5.617   6.723   5.105
 3776SOL     OW12226   4.130   2.704   6.479
 3776SOL    HW112227   4.152   2.790   6.525
 3776SOL    HW212228   4.122   2.719   6.381
 3777SOL     OW12229   2.874   5.191   3.329
 3777SOL    HW112230   2.916   5.101   3.312
 3777SOL    HW212231   2.847   5.198   3.425
 3778SOL     OW12232   2.756   5.561   6.428
 3778SOL    HW112233   2.783   5.646   6.382
 3778SOL    HW212234   2.657   5.552   6.426
 3779SOL     OW12235   6.634   4.802   6.203
 3779SOL    HW112236   6.554   4.815   6.261
 3779SOL    HW212237   6.715   4.836   6.250
 3780SOL     OW12238   6.007   2.119   1.531
 3780SOL    HW112239   5.959   2.041   1.570
 3780SOL    HW212240   6.043   2.094   1.441
 3781SOL     OW12241   1.247   0.418   6.679
 3781SOL    HW112242   1.262   0.513   6.706
 3781SOL    HW212243   1.285   0.357   6.749
 3782SOL     OW12244   3.414   5.340   6.830
 3782SOL    HW112245   3.428   5.298   6.740
 3782SOL    HW212246   3.458   5.430   6.832
 3783SOL     OW12247   4.707   5.241   5.594
 3783SOL    HW112248   4.679   5.286   5.509
 3783SOL    HW212249   4.746   5.309   5.656
 3784SOL     OW12250   5.392   3.802   5.129
 3784SOL    HW112251   5.322   3.814   5.058
 3784SOL    HW212252   5.357   3.839   5.216
 3785SOL     OW12253   0.669   3.321   2.402
 3785SOL    HW112254   0.745   3.384   2.419
 3785SOL    HW212255   0.690   3.232   2.442
 3786SOL     OW12256   2.934   3.281   5.954
 3786SOL    HW112257   2.882   3.297   5.870
 3786SOL    HW212258   2.880   3.310   6.033
 3787SOL     OW12259   5.478   6.025   5.458
 3787SOL    HW112260   5.429   6.091   5.514
 3787SOL    HW212261   5.462   5.932   5.493
 3788SOL     OW12262   5.755   2.965   6.047
 3788SOL    HW112263   5.797   3.003   5.964
 3788SOL    HW212264   5.662   2.934   6.025
 3789SOL     OW12265   2.038   4.794   1.618
 3789SOL    HW112266   2.047   4.850   1.701
 3789SOL    HW212267   1.942   4.783   1.595
 3790SOL     OW12268   2.800   0.029   1.561
 3790SOL    HW112269   2.700   0.027   1.570
 3790SOL    HW212270   2.827   0.107   1.504
 3791SOL     OW12271   4.960   0.825   4.057
 3791SOL    HW112272   5.027   0.879   4.006
 3791SOL    HW212273   4.878   0.811   4.001
 3792SOL     OW12274   6.334   0.433   3.384
 3792SOL    HW112275   6.358   0.520   3.341
 3792SOL    HW212276   6.390   0.420   3.466
 3793SOL     OW12277   5.203   3.004   6.991
 3793SOL    HW112278   5.123   2.965   6.947
 3793SOL    HW212279   5.251   3.064   6.927
 3794SOL     OW12280   1.679   5.457   5.291
 3794SOL    HW112281   1.705   5.490   5.200
 3794SOL    HW212282   1.582   5.475   5.305
 3795SOL     OW12283   3.629   6.122   0.562
 3795SOL    HW112284   3.583   6.122   0.651
 3795SOL    HW212285   3.705   6.056   0.565
 3796SOL     OW12286   5.345   0.950   0.447
 3796SOL    HW112287   5.319   0.860   0.483
 3796SOL    HW212288   5.314   0.959   0.352
 3797SOL     OW12289   6.919   2.014   1.041
 3797SOL    HW112290   6.926   1.981   1.135
 3797SOL    HW212291   6.883   1.941   0.983
 3798SOL     OW12292   6.619   3.772   4.291
 3798SOL    HW112293   6.652   3.746   4.382
 3798SOL    HW212294   6.671   3.721   4.222
 3799SOL     OW12295   6.588   1.813   2.279
 3799SOL    HW112296   6.542   1.847   2.197
 3799SOL    HW212297   6.641   1.887   2.321
 3800SOL     OW12298   5.588   3.742   1.801
 3800SOL    HW112299   5.604   3.705   1.710
 3800SOL    HW212300   5.517   3.689   1.847
 3801SOL     OW12301   5.534   1.570   0.505
 3801SOL    HW112302   5.492   1.519   0.580
 3801SOL    HW212303   5.630   1.544   0.497
 3802SOL     OW12304   6.165   3.319   3.734
 3802SOL    HW112305   6.237   3.324   3.665
 3802SOL    HW212306   6.084   3.275   3.696
 3803SOL     OW12307   4.026   4.245   6.387
 3803SOL    HW112308   4.015   4.213   6.293
 3803SOL    HW212309   4.012   4.344   6.390
 3804SOL     OW12310   3.221   6.096   3.029
 3804SOL    HW112311   3.243   6.152   2.949
 3804SOL    HW212312   3.279   6.015   3.030
 3805SOL     OW12313   2.714   2.034   0.083
 3805SOL    HW112314   2.639   2.096   0.060
 3805SOL    HW212315   2.678   1.943   0.103
 3806SOL     OW12316   1.938   3.779   1.998
 3806SOL    HW112317   2.029   3.753   2.031
 3806SOL    HW212318   1.938   3.781   1.898
 3807SOL     OW12319   6.868   3.991   4.201
 3807SOL    HW112320   6.850   3.924   4.130
 3807SOL    HW212321   6.866   4.083   4.161
 3808SOL     OW12322   2.456   6.427   5.725
 3808SOL    HW112323   2.467   6.449   5.628
 3808SOL    HW212324   2.428   6.509   5.775
 3809SOL     OW12325   6.001   2.303   1.144
 3809SOL    HW112326   5.903   2.310   1.164
 3809SOL    HW212327   6.015   2.304   1.045
 3810SOL     OW12328   4.688   2.180   3.696
 3810SOL    HW112329   4.690   2.136   3.606
 3810SOL    HW212330   4.642   2.119   3.761
 3811SOL     OW12331   0.325   6.131   5.553
 3811SOL    HW112332   0.380   6.087   5.624
 3811SOL    HW212333   0.274   6.061   5.503
 3812SOL     OW12334   4.254   5.796   0.043
 3812SOL    HW112335   4.329   5.753   0.093
 3812SOL    HW212336   4.196   5.846   0.108
 3813SOL     OW12337   0.211   3.169   6.485
 3813SOL    HW112338   0.160   3.119   6.415
 3813SOL    HW212339   0.149   3.231   6.533
 3814SOL     OW12340   0.062   0.547   4.901
 3814SOL    HW112341   7.019   0.620   4.926
 3814SOL    HW212342   0.030   0.461   4.940
 3815SOL     OW12343   4.647   2.083   5.406
 3815SOL    HW112344   4.573   2.016   5.409
 3815SOL    HW212345   4.667   2.107   5.310
 3816SOL     OW12346   6.232   6.684   1.720
 3816SOL    HW112347   6.252   6.604   1.778
 3816SOL    HW212348   6.281   6.763   1.755
 3817SOL     OW12349   3.558   3.952   2.886
 3817SOL    HW112350   3.560   3.924   2.982
 3817SOL    HW212351   3.480   4.012   2.869
 3818SOL     OW12352   4.735   5.746   2.003
 3818SOL    HW112353   4.725   5.721   2.100
 3818SOL    HW212354   4.805   5.817   1.994
 3819SOL     OW12355   5.922   2.713   2.599
 3819SOL    HW112356   6.001   2.657   2.578
 3819SOL    HW212357   5.943   2.809   2.583
 3820SOL     OW12358   2.957   6.386   5.872
 3820SOL    HW112359   3.040   6.436   5.898
 3820SOL    HW212360   2.934   6.406   5.777
 3821SOL     OW12361   1.466   6.751   1.466
 3821SOL    HW112362   1.544   6.703   1.506
 3821SOL    HW212363   1.425   6.695   1.394
 3822SOL     OW12364   5.874   6.359   1.648
 3822SOL    HW112365   5.847   6.262   1.647
 3822SOL    HW212366   5.893   6.387   1.742
 3823SOL     OW12367   5.849   5.903   4.380
 3823SOL    HW112368   5.888   5.988   4.344
 3823SOL    HW212369   5.753   5.917   4.402
 3824SOL     OW12370   1.973   2.579   0.725
 3824SOL    HW112371   2.006   2.515   0.655
 3824SOL    HW212372   1.887   2.619   0.694
 3825SOL     OW12373   0.314   4.407   5.403
 3825SOL    HW112374   0.250   4.424   5.327
 3825SOL    HW212375   0.400   4.455   5.385
 3826SOL     OW12376   4.871   4.024   3.711
 3826SOL    HW112377   4.946   4.057   3.767
 3826SOL    HW212378   4.787   4.073   3.735
 3827SOL     OW12379   0.438   1.305   0.327
 3827SOL    HW112380   0.405   1.292   0.420
 3827SOL    HW212381   0.365   1.341   0.269
 3828SOL     OW12382   3.350   3.210   5.503
 3828SOL    HW112383   3.252   3.228   5.518
 3828SOL    HW212384   3.361   3.149   5.425
 3829SOL     OW12385   6.592   2.560   1.735
 3829SOL    HW112386   6.580   2.570   1.834
 3829SOL    HW212387   6.681   2.595   1.708
 3830SOL     OW12388   5.393   6.110   3.603
 3830SOL    HW112389   5.391   6.199   3.556
 3830SOL    HW212390   5.484   6.069   3.593
 3831SOL     OW12391   5.554   2.264   4.064
 3831SOL    HW112392   5.539   2.191   3.997
 3831SOL    HW212393   5.466   2.295   4.099
 3832SOL     OW12394   6.525   1.412   3.957
 3832SOL    HW112395   6.538   1.488   4.020
 3832SOL    HW212396   6.457   1.437   3.887
 3833SOL     OW12397   2.135   3.038   5.998
 3833SOL    HW112398   2.101   3.072   6.085
 3833SOL    HW212399   2.125   3.109   5.928
 3834SOL     OW12400   4.925   4.636   1.103
 3834SOL    HW112401   4.989   4.686   1.045
 3834SOL    HW212402   4.833   4.673   1.090
 3835SOL     OW12403   4.566   5.421   4.364
 3835SOL    HW112404   4.586   5.436   4.267
 3835SOL    HW212405   4.560   5.323   4.382
 3836SOL     OW12406   0.384   0.050   5.053
 3836SOL    HW112407   0.330   0.081   4.975
 3836SOL    HW212408   0.478   0.034   5.024
 3837SOL     OW12409   5.035   4.128   5.497
 3837SOL    HW112410   4.980   4.050   5.527
 3837SOL    HW212411   4.977   4.192   5.446
 3838SOL     OW12412   0.685   1.690   3.597
 3838SOL    HW112413   0.607   1.635   3.628
 3838SOL    HW212414   0.764   1.671   3.654
 3839SOL     OW12415   4.583   1.871   3.818
 3839SOL    HW112416   4.568   1.816   3.900
 3839SOL    HW212417   4.625   1.815   3.747
 3840SOL     OW12418   3.743   1.330   6.236
 3840SOL    HW112419   3.836   1.314   6.204
 3840SOL    HW212420   3.736   1.422   6.274
 3841SOL     OW12421   5.401   4.019   2.866
 3841SOL    HW112422   5.365   3.989   2.954
 3841SOL    HW212423   5.352   3.973   2.792
 3842SOL     OW12424   1.862   4.287   4.872
 3842SOL    HW112425   1.957   4.279   4.903
 3842SOL    HW212426   1.860   4.333   4.784
 3843SOL     OW12427   5.903   1.855   6.793
 3843SOL    HW112428   5.897   1.863   6.693
 3843SOL    HW212429   5.884   1.944   6.835
 3844SOL     OW12430   6.001   6.452   0.782
 3844SOL    HW112431   5.922   6.500   0.820
 3844SOL    HW212432   6.059   6.517   0.733
 3845SOL     OW12433   2.530   5.421   0.366
 3845SOL    HW112434   2.537   5.470   0.279
 3845SOL    HW212435   2.609   5.361   0.377
 3846SOL     OW12436   6.670   3.129   2.642
 3846SOL    HW112437   6.652   3.163   2.550
 3846SOL    HW212438   6.742   3.059   2.638
 3847SOL     OW12439   0.655   0.992   6.988
 3847SOL    HW112440   0.585   0.951   0.026
 3847SOL    HW212441   0.672   0.933   6.909
 3848SOL     OW12442   5.617   4.647   2.633
 3848SOL    HW112443   5.643   4.556   2.600
 3848SOL    HW212444   5.541   4.639   2.697
 3849SOL     OW12445   0.288   2.906   5.736
 3849SOL    HW112446   0.282   2.894   5.637
 3849SOL    HW212447   0.196   2.901   5.776
 3850SOL     OW12448   3.587   3.015   1.345
 3850SOL    HW112449   3.555   2.940   1.288
 3850SOL    HW212450   3.591   3.099   1.291
 3851SOL     OW12451   0.147   5.561   2.321
 3851SOL    HW112452   0.178   5.651   2.352
 3851SOL    HW212453   0.155   5.555   2.221
 3852SOL     OW12454   2.872   0.505   5.306
 3852SOL    HW112455   2.809   0.453   5.363
 3852SOL    HW212456   2.954   0.527   5.358
 3853SOL     OW12457   1.902   1.078   2.961
 3853SOL    HW112458   1.905   1.042   2.868
 3853SOL    HW212459   1.832   1.028   3.013
 3854SOL     OW12460   0.329   1.368   1.709
 3854SOL    HW112461   0.338   1.307   1.789
 3854SOL    HW212462   0.419   1.390   1.673
 3855SOL     OW12463   3.172   5.878   6.689
 3855SOL    HW112464   3.088   5.850   6.736
 3855SOL    HW212465   3.188   5.975   6.704
 3856SOL     OW12466   0.095   2.715   6.282
 3856SOL    HW112467   0.035   2.648   6.327
 3856SOL    HW212468   0.064   2.807   6.304
 3857SOL     OW12469   1.076   0.387   5.728
 3857SOL    HW112470   1.125   0.410   5.812
 3857SOL    HW212471   0.979   0.376   5.748
 3858SOL     OW12472   3.394   0.861   5.020
 3858SOL    HW112473   3.491   0.841   5.031
 3858SOL    HW212474   3.353   0.875   5.110
 3859SOL     OW12475   5.239   0.341   2.926
 3859SOL    HW112476   5.232   0.315   2.830
 3859SOL    HW212477   5.193   0.272   2.983
 3860SOL     OW12478   1.463   6.417   4.857
 3860SOL    HW112479   1.467   6.483   4.932
 3860SOL    HW212480   1.493   6.461   4.773
 3861SOL     OW12481   2.697   5.881   2.433
 3861SOL    HW112482   2.726   5.796   2.388
 3861SOL    HW212483   2.709   5.872   2.532
 3862SOL     OW12484   1.796   0.538   3.954
 3862SOL    HW112485   1.841   0.561   3.868
 3862SOL    HW212486   1.854   0.475   4.006
 3863SOL     OW12487   4.147   0.336   1.088
 3863SOL    HW112488   4.151   0.317   0.990
 3863SOL    HW212489   4.090   0.416   1.105
 3864SOL     OW12490   1.052   0.727   5.032
 3864SOL    HW112491   1.123   0.696   4.968
 3864SOL    HW212492   1.079   0.705   5.126
 3865SOL     OW12493   5.359   1.142   0.884
 3865SOL    HW112494   5.447   1.096   0.894
 3865SOL    HW212495   5.311   1.142   0.972
 3866SOL     OW12496   3.489   1.219   6.717
 3866SOL    HW112497   3.511   1.316   6.711
 3866SOL    HW212498   3.499   1.188   6.811
 3867SOL     OW12499   6.473   3.374   2.085
 3867SOL    HW112500   6.546   3.313   2.115
 3867SOL    HW212501   6.412   3.325   2.022
 3868SOL     OW12502   4.257   0.897   0.285
 3868SOL    HW112503   4.265   0.884   0.186
 3868SOL    HW212504   4.186   0.965   0.304
 3869SOL     OW12505   3.598   1.026   3.612
 3869SOL    HW112506   3.637   0.963   3.545
 3869SOL    HW212507   3.501   1.039   3.593
 3870SOL     OW12508   6.923   1.733   5.688
 3870SOL    HW112509   7.004   1.697   5.642
 3870SOL    HW212510   6.950   1.807   5.749
 3871SOL     OW12511   2.456   4.820   4.120
 3871SOL    HW112512   2.460   4.914   4.153
 3871SOL    HW212513   2.548   4.789   4.097
 3872SOL     OW12514   2.792   4.105   5.295
 3872SOL    HW112515   2.824   4.039   5.363
 3872SOL    HW212516   2.724   4.061   5.236
 3873SOL     OW12517   5.301   2.477   6.329
 3873SOL    HW112518   5.359   2.411   6.282
 3873SOL    HW212519   5.218   2.492   6.275
 3874SOL     OW12520   1.994   0.942   1.844
 3874SOL    HW112521   2.011   1.020   1.904
 3874SOL    HW212522   2.072   0.880   1.846
 3875SOL     OW12523   0.667   0.905   6.710
 3875SOL    HW112524   0.644   0.808   6.701
 3875SOL    HW212525   0.653   0.951   6.622
 3876SOL     OW12526   2.835   5.507   2.130
 3876SOL    HW112527   2.795   5.421   2.160
 3876SOL    HW212528   2.783   5.583   2.170
 3877SOL     OW12529   0.790   1.366   6.086
 3877SOL    HW112530   0.790   1.310   6.003
 3877SOL    HW212531   0.857   1.328   6.151
 3878SOL     OW12532   4.289   1.786   4.893
 3878SOL    HW112533   4.347   1.805   4.813
 3878SOL    HW212534   4.201   1.751   4.862
 3879SOL     OW12535   5.419   5.785   6.635
 3879SOL    HW112536   5.363   5.783   6.718
 3879SOL    HW212537   5.512   5.810   6.659
 3880SOL     OW12538   4.930   4.798   4.094
 3880SOL    HW112539   4.928   4.805   3.994
 3880SOL    HW212540   4.999   4.731   4.121
 3881SOL     OW12541   1.624   2.543   0.172
 3881SOL    HW112542   1.584   2.452   0.169
 3881SOL    HW212543   1.717   2.541   0.133
 3882SOL     OW12544   0.650   2.183   6.203
 3882SOL    HW112545   0.685   2.220   6.288
 3882SOL    HW212546   0.727   2.162   6.142
 3883SOL     OW12547   3.954   6.026   4.356
 3883SOL    HW112548   3.963   5.973   4.272
 3883SOL    HW212549   4.040   6.072   4.375
 3884SOL     OW12550   6.692   3.185   2.007
 3884SOL    HW112551   6.698   3.111   2.073
 3884SOL    HW212552   6.783   3.206   1.972
 3885SOL     OW12553   4.115   5.430   1.926
 3885SOL    HW112554   4.132   5.337   1.957
 3885SOL    HW212555   4.112   5.432   1.826
 3886SOL     OW12556   2.905   5.048   6.223
 3886SOL    HW112557   2.875   5.103   6.146
 3886SOL    HW212558   2.826   5.007   6.268
 3887SOL     OW12559   1.875   5.862   1.876
 3887SOL    HW112560   1.887   5.921   1.796
 3887SOL    HW212561   1.895   5.767   1.850
 3888SOL     OW12562   5.374   4.612   3.299
 3888SOL    HW112563   5.320   4.639   3.379
 3888SOL    HW212564   5.468   4.643   3.310
 3889SOL     OW12565   5.691   3.577   0.417
 3889SOL    HW112566   5.750   3.534   0.484
 3889SOL    HW212567   5.663   3.509   0.348
 3890SOL     OW12568   5.157   3.883   3.916
 3890SOL    HW112569   5.146   3.842   3.826
 3890SOL    HW212570   5.140   3.982   3.910
 3891SOL     OW12571   4.661   5.071   3.716
 3891SOL    HW112572   4.589   5.138   3.734
 3891SOL    HW212573   4.749   5.108   3.744
 3892SOL     OW12574   7.016   2.400   1.522
 3892SOL    HW112575   6.955   2.468   1.481
 3892SOL    HW212576   0.012   2.424   1.618
 3893SOL     OW12577   3.786   2.995   3.406
 3893SOL    HW112578   3.843   2.997   3.489
 3893SOL    HW212579   3.692   3.017   3.431
 3894SOL     OW12580   4.172   0.860   6.027
 3894SOL    HW112581   4.154   0.872   5.930
 3894SOL    HW212582   4.087   0.867   6.079
 3895SOL     OW12583   0.564   0.161   4.328
 3895SOL    HW112584   0.522   0.185   4.241
 3895SOL    HW212585   0.564   0.240   4.389
 3896SOL     OW12586   2.042   1.553   6.722
 3896SOL    HW112587   2.099   1.547   6.804
 3896SOL    HW212588   2.097   1.531   6.641
 3897SOL     OW12589   3.371   6.182   0.727
 3897SOL    HW112590   3.312   6.112   0.688
 3897SOL    HW212591   3.416   6.145   0.808
 3898SOL     OW12592   4.057   3.211   1.186
 3898SOL    HW112593   4.023   3.183   1.096
 3898SOL    HW212594   4.053   3.311   1.193
 3899SOL     OW12595   3.215   6.756   5.300
 3899SOL    HW112596   3.283   6.690   5.270
 3899SOL    HW212597   3.124   6.714   5.296
 3900SOL     OW12598   4.258   4.676   2.972
 3900SOL    HW112599   4.279   4.768   2.938
 3900SOL    HW212600   4.325   4.651   3.042
 3901SOL     OW12601   3.047   1.753   6.964
 3901SOL    HW112602   3.096   1.832   6.999
 3901SOL    HW212603   2.953   1.780   6.941
 3902SOL     OW12604   5.325   2.894   2.590
 3902SOL    HW112605   5.295   2.865   2.499
 3902SOL    HW212606   5.356   2.989   2.585
 3903SOL     OW12607   3.491   4.605   6.986
 3903SOL    HW112608   3.511   4.542   6.911
 3903SOL    HW212609   3.565   4.672   6.994
 3904SOL     OW12610   2.000   6.591   0.912
 3904SOL    HW112611   2.005   6.571   0.814
 3904SOL    HW212612   2.016   6.507   0.964
 3905SOL     OW12613   0.087   6.524   5.440
 3905SOL    HW112614   0.138   6.508   5.356
 3905SOL    HW212615   0.003   6.574   5.420
 3906SOL     OW12616   0.554   6.258   5.371
 3906SOL    HW112617   0.455   6.261   5.380
 3906SOL    HW212618   0.582   6.313   5.292
 3907SOL     OW12619   5.490   2.060   3.896
 3907SOL    HW112620   5.421   2.005   3.944
 3907SOL    HW212621   5.461   2.074   3.801
 3908SOL     OW12622   2.492   3.729   5.980
 3908SOL    HW112623   2.441   3.682   5.908
 3908SOL    HW212624   2.502   3.825   5.955
 3909SOL     OW12625   4.498   5.738   3.737
 3909SOL    HW112626   4.542   5.824   3.764
 3909SOL    HW212627   4.484   5.682   3.818
 3910SOL     OW12628   3.796   4.072   2.298
 3910SOL    HW112629   3.809   4.170   2.281
 3910SOL    HW212630   3.750   4.030   2.220
 3911SOL     OW12631   5.755   2.177   5.460
 3911SOL    HW112632   5.736   2.110   5.388
 3911SOL    HW212633   5.829   2.238   5.431
 3912SOL     OW12634   5.771   2.875   6.432
 3912SOL    HW112635   5.780   2.968   6.398
 3912SOL    HW212636   5.678   2.860   6.466
 3913SOL     OW12637   1.429   6.977   1.779
 3913SOL    HW112638   1.364   0.032   1.766
 3913SOL    HW212639   1.497   6.978   1.706
 3914SOL     OW12640   3.215   5.743   5.198
 3914SOL    HW112641   3.232   5.739   5.099
 3914SOL    HW212642   3.258   5.665   5.242
 3915SOL     OW12643   5.486   5.701   1.714
 3915SOL    HW112644   5.508   5.752   1.630
 3915SOL    HW212645   5.422   5.628   1.693
 3916SOL     OW12646   0.065   0.282   3.538
 3916SOL    HW112647   0.105   0.191   3.535
 3916SOL    HW212648   0.124   0.346   3.489
 3917SOL     OW12649   3.051   7.014   6.969
 3917SOL    HW112650   3.025   6.972   6.882
 3917SOL    HW212651   3.045   0.093   6.962
 3918SOL     OW12652   6.039   3.621   6.965
 3918SOL    HW112653   6.069   3.587   6.876
 3918SOL    HW212654   5.994   3.710   6.953
 3919SOL     OW12655   3.491   6.605   0.487
 3919SOL    HW112656   3.437   6.687   0.470
 3919SOL    HW212657   3.546   6.617   0.569
 3920SOL     OW12658   2.265   0.915   0.111
 3920SOL    HW112659   2.174   0.878   0.133
 3920SOL    HW212660   2.267   0.943   0.015
 3921SOL     OW12661   0.883   3.346   0.931
 3921SOL    HW112662   0.784   3.342   0.926
 3921SOL    HW212663   0.922   3.330   0.841
 3922SOL     OW12664   0.611   5.562   1.082
 3922SOL    HW112665   0.649   5.589   0.994
 3922SOL    HW212666   0.530   5.505   1.067
 3923SOL     OW12667   0.201   5.940   0.392
 3923SOL    HW112668   0.162   5.909   0.305
 3923SOL    HW212669   0.146   5.905   0.468
 3924SOL     OW12670   6.139   5.198   4.201
 3924SOL    HW112671   6.220   5.146   4.229
 3924SOL    HW212672   6.057   5.144   4.217
 3925SOL     OW12673   0.836   4.907   0.802
 3925SOL    HW112674   0.919   4.878   0.753
 3925SOL    HW212675   0.835   4.863   0.892
 3926SOL     OW12676   3.170   5.544   2.949
 3926SOL    HW112677   3.113   5.601   3.008
 3926SOL    HW212678   3.223   5.481   3.005
 3927SOL     OW12679   2.347   3.452   6.424
 3927SOL    HW112680   2.339   3.401   6.510
 3927SOL    HW212681   2.255   3.466   6.386
 3928SOL     OW12682   0.052   6.308   6.285
 3928SOL    HW112683   0.084   6.401   6.298
 3928SOL    HW212684   0.012   6.299   6.193
 3929SOL     OW12685   1.271   1.818   4.863
 3929SOL    HW112686   1.315   1.728   4.856
 3929SOL    HW212687   1.196   1.823   4.797
 3930SOL     OW12688   3.159   1.719   4.189
 3930SOL    HW112689   3.238   1.760   4.143
 3930SOL    HW212690   3.176   1.717   4.288
 3931SOL     OW12691   4.020   6.786   2.323
 3931SOL    HW112692   4.097   6.722   2.322
 3931SOL    HW212693   3.934   6.736   2.331
 3932SOL     OW12694   1.861   3.441   3.526
 3932SOL    HW112695   1.937   3.500   3.500
 3932SOL    HW212696   1.871   3.413   3.622
 3933SOL     OW12697   2.274   1.337   6.218
 3933SOL    HW112698   2.356   1.288   6.246
 3933SOL    HW212699   2.253   1.316   6.123
 3934SOL     OW12700   5.528   6.044   6.830
 3934SOL    HW112701   5.620   6.017   6.801
 3934SOL    HW212702   5.506   6.134   6.792
 3935SOL     OW12703   4.777   6.786   2.290
 3935SOL    HW112704   4.743   6.694   2.271
 3935SOL    HW212705   4.704   6.840   2.333
 3936SOL     OW12706   0.917   4.144   2.278
 3936SOL    HW112707   0.889   4.134   2.373
 3936SOL    HW212708   0.839   4.126   2.218
 3937SOL     OW12709   0.331   2.163   2.572
 3937SOL    HW112710   0.357   2.091   2.508
 3937SOL    HW212711   0.407   2.179   2.636
 3938SOL     OW12712   6.042   3.042   3.088
 3938SOL    HW112713   6.098   2.969   3.126
 3938SOL    HW212714   5.947   3.012   3.083
 3939SOL     OW12715   1.991   2.216   1.578
 3939SOL    HW112716   2.082   2.206   1.617
 3939SOL    HW212717   1.998   2.243   1.482
 3940SOL     OW12718   4.262   4.405   0.840
 3940SOL    HW112719   4.201   4.360   0.775
 3940SOL    HW212720   4.349   4.356   0.844
 3941SOL     OW12721   5.436   3.213   0.263
 3941SOL    HW112722   5.390   3.143   0.317
 3941SOL    HW212723   5.370   3.281   0.232
 3942SOL     OW12724   6.416   6.848   1.064
 3942SOL    HW112725   6.425   6.904   0.982
 3942SOL    HW212726   6.323   6.812   1.069
 3943SOL     OW12727   6.729   2.892   4.850
 3943SOL    HW112728   6.670   2.812   4.842
 3943SOL    HW212729   6.817   2.865   4.890
 3944SOL     OW12730   5.719   1.768   4.983
 3944SOL    HW112731   5.673   1.841   4.932
 3944SOL    HW212732   5.818   1.776   4.971
 3945SOL     OW12733   0.134   6.784   0.633
 3945SOL    HW112734   0.120   6.691   0.667
 3945SOL    HW212735   0.094   6.849   0.697
 3946SOL     OW12736   3.485   4.917   3.528
 3946SOL    HW112737   3.477   4.910   3.627
 3946SOL    HW212738   3.578   4.893   3.500
 3947SOL     OW12739   7.007   4.319   5.850
 3947SOL    HW112740   6.974   4.369   5.771
 3947SOL    HW212741   0.067   4.265   5.825
 3948SOL     OW12742   6.465   3.684   1.329
 3948SOL    HW112743   6.486   3.770   1.284
 3948SOL    HW212744   6.467   3.610   1.262
 3949SOL     OW12745   5.675   6.528   2.840
 3949SOL    HW112746   5.721   6.527   2.929
 3949SOL    HW212747   5.674   6.436   2.801
 3950SOL     OW12748   1.501   6.370   0.203
 3950SOL    HW112749   1.437   6.372   0.126
 3950SOL    HW212750   1.489   6.285   0.255
 3951SOL     OW12751   5.685   5.297   1.990
 3951SOL    HW112752   5.624   5.273   1.914
 3951SOL    HW212753   5.638   5.361   2.051
 3952SOL     OW12754   6.004   1.023   6.360
 3952SOL    HW112755   6.099   0.995   6.374
 3952SOL    HW212756   5.971   1.068   6.443
 3953SOL     OW12757   2.845   3.370   2.586
 3953SOL    HW112758   2.751   3.356   2.616
 3953SOL    HW212759   2.853   3.347   2.489
 3954SOL     OW12760   4.100   4.030   6.026
 3954SOL    HW112761   4.091   3.967   5.948
 3954SOL    HW212762   4.174   3.999   6.086
 3955SOL     OW12763   3.610   1.151   4.958
 3955SOL    HW112764   3.571   1.243   4.962
 3955SOL    HW212765   3.551   1.092   4.903
 3956SOL     OW12766   1.960   1.660   0.806
 3956SOL    HW112767   2.022   1.588   0.773
 3956SOL    HW212768   1.983   1.746   0.761
 3957SOL     OW12769   4.260   1.667   3.766
 3957SOL    HW112770   4.224   1.705   3.852
 3957SOL    HW212771   4.237   1.729   3.691
 3958SOL     OW12772   5.123   6.522   6.237
 3958SOL    HW112773   5.107   6.537   6.335
 3958SOL    HW212774   5.035   6.509   6.191
 3959SOL     OW12775   6.029   5.535   6.267
 3959SOL    HW112776   6.055   5.441   6.246
 3959SOL    HW212777   6.057   5.557   6.360
 3960SOL     OW12778   5.872   2.656   4.527
 3960SOL    HW112779   5.903   2.748   4.507
 3960SOL    HW212780   5.854   2.647   4.626
 3961SOL     OW12781   4.892   6.775   4.303
 3961SOL    HW112782   4.955   6.792   4.227
 3961SOL    HW212783   4.935   6.801   4.389
 3962SOL     OW12784   6.597   5.187   4.916
 3962SOL    HW112785   6.503   5.165   4.940
 3962SOL    HW212786   6.636   5.248   4.985
 3963SOL     OW12787   3.586   6.537   2.011
 3963SOL    HW112788   3.551   6.601   2.079
 3963SOL    HW212789   3.653   6.583   1.952
 3964SOL     OW12790   5.384   2.615   3.750
 3964SOL    HW112791   5.450   2.547   3.719
 3964SOL    HW212792   5.355   2.671   3.672
 3965SOL     OW12793   5.080   4.163   4.165
 3965SOL    HW112794   5.056   4.159   4.068
 3965SOL    HW212795   5.062   4.254   4.201
 3966SOL     OW12796   2.856   6.707   6.541
 3966SOL    HW112797   2.757   6.721   6.550
 3966SOL    HW212798   2.894   6.777   6.480
 3967SOL     OW12799   1.583   4.071   3.866
 3967SOL    HW112800   1.587   4.033   3.958
 3967SOL    HW212801   1.675   4.080   3.829
 3968SOL     OW12802   4.296   6.867   0.850
 3968SOL    HW112803   4.308   6.777   0.892
 3968SOL    HW212804   4.315   6.939   0.917
 3969SOL     OW12805   0.281   4.521   3.527
 3969SOL    HW112806   0.221   4.560   3.596
 3969SOL    HW212807   0.306   4.427   3.554
 3970SOL     OW12808   4.707   6.200   1.382
 3970SOL    HW112809   4.619   6.229   1.344
 3970SOL    HW212810   4.693   6.156   1.471
 3971SOL     OW12811   0.982   5.832   3.673
 3971SOL    HW112812   0.916   5.789   3.611
 3971SOL    HW212813   0.935   5.900   3.729
 3972SOL     OW12814   1.679   3.950   0.425
 3972SOL    HW112815   1.739   4.023   0.391
 3972SOL    HW212816   1.585   3.970   0.399
 3973SOL     OW12817   1.884   4.585   0.848
 3973SOL    HW112818   1.970   4.538   0.869
 3973SOL    HW212819   1.895   4.683   0.861
 3974SOL     OW12820   2.711   0.590   6.173
 3974SOL    HW112821   2.634   0.625   6.119
 3974SOL    HW212822   2.754   0.514   6.123
 3975SOL     OW12823   6.656   3.141   6.956
 3975SOL    HW112824   6.666   3.076   0.011
 3975SOL    HW212825   6.738   3.198   6.950
 3976SOL     OW12826   1.381   4.443   2.700
 3976SOL    HW112827   1.391   4.446   2.601
 3976SOL    HW212828   1.289   4.472   2.726
 3977SOL     OW12829   0.632   2.510   0.091
 3977SOL    HW112830   0.594   2.510   7.018
 3977SOL    HW212831   0.702   2.439   0.098
 3978SOL     OW12832   5.642   4.132   4.109
 3978SOL    HW112833   5.719   4.157   4.050
 3978SOL    HW212834   5.635   4.197   4.184
 3979SOL     OW12835   3.880   5.830   6.192
 3979SOL    HW112836   3.805   5.894   6.206
 3979SOL    HW212837   3.915   5.799   6.280
 3980SOL     OW12838   5.479   4.798   6.155
 3980SOL    HW112839   5.464   4.897   6.152
 3980SOL    HW212840   5.392   4.750   6.148
 3981SOL     OW12841   4.702   5.398   6.656
 3981SOL    HW112842   4.782   5.453   6.676
 3981SOL    HW212843   4.702   5.317   6.715
 3982SOL     OW12844   2.192   6.275   2.821
 3982SOL    HW112845   2.263   6.330   2.865
 3982SOL    HW212846   2.122   6.251   2.888
 3983SOL     OW12847   3.521   6.216   4.402
 3983SOL    HW112848   3.429   6.190   4.432
 3983SOL    HW212849   3.521   6.234   4.304
 3984SOL     OW12850   6.427   2.972   3.081
 3984SOL    HW112851   6.471   3.035   3.145
 3984SOL    HW212852   6.385   3.024   3.007
 3985SOL     OW12853   4.136   5.151   6.115
 3985SOL    HW112854   4.100   5.058   6.106
 3985SOL    HW212855   4.137   5.177   6.212
 3986SOL     OW12856   5.375   0.590   2.939
 3986SOL    HW112857   5.396   0.601   2.842
 3986SOL    HW212858   5.301   0.524   2.949
 3987SOL     OW12859   3.527   5.181   5.698
 3987SOL    HW112860   3.544   5.146   5.790
 3987SOL    HW212861   3.528   5.105   5.633
 3988SOL     OW12862   4.846   5.860   0.833
 3988SOL    HW112863   4.836   5.930   0.762
 3988SOL    HW212864   4.798   5.777   0.804
 3989SOL     OW12865   6.383   2.783   1.425
 3989SOL    HW112866   6.475   2.816   1.404
 3989SOL    HW212867   6.377   2.764   1.523
 3990SOL     OW12868   6.671   1.714   1.881
 3990SOL    HW112869   6.662   1.616   1.898
 3990SOL    HW212870   6.581   1.757   1.885
 3991SOL     OW12871   5.169   1.445   3.369
 3991SOL    HW112872   5.104   1.374   3.393
 3991SOL    HW212873   5.212   1.422   3.281
 3992SOL     OW12874   4.743   1.548   1.678
 3992SOL    HW112875   4.672   1.544   1.748
 3992SOL    HW212876   4.720   1.620   1.612
 3993SOL     OW12877   1.179   3.312   1.368
 3993SOL    HW112878   1.204   3.392   1.422
 3993SOL    HW212879   1.094   3.331   1.319
 3994SOL     OW12880   2.418   5.590   4.331
 3994SOL    HW112881   2.361   5.636   4.263
 3994SOL    HW212882   2.450   5.503   4.295
 3995SOL     OW12883   1.493   2.311   3.942
 3995SOL    HW112884   1.443   2.339   3.860
 3995SOL    HW212885   1.580   2.359   3.946
 3996SOL     OW12886   0.024   5.755   4.699
 3996SOL    HW112887   0.059   5.674   4.652
 3996SOL    HW212888   0.099   5.819   4.716
 3997SOL     OW12889   2.782   0.578   2.913
 3997SOL    HW112890   2.879   0.579   2.890
 3997SOL    HW212891   2.749   0.672   2.923
 3998SOL     OW12892   4.347   2.183   2.881
 3998SOL    HW112893   4.368   2.103   2.825
 3998SOL    HW212894   4.393   2.263   2.843
 3999SOL     OW12895   4.359   1.350   4.219
 3999SOL    HW112896   4.310   1.379   4.137
 3999SOL    HW212897   4.389   1.430   4.270
 4000SOL     OW12898   4.635   5.636   4.681
 4000SOL    HW112899   4.609   5.732   4.692
 4000SOL    HW212900   4.558   5.585   4.641
 4001SOL     OW12901   0.855   1.918   4.828
 4001SOL    HW112902   0.941   1.884   4.791
 4001SOL    HW212903   0.871   1.958   4.918
 4002SOL     OW12904   2.097   4.906   1.910
 4002SOL    HW112905   2.145   4.820   1.931
 4002SOL    HW212906   2.030   4.924   1.982
 4003SOL     OW12907   3.661   2.109   4.716
 4003SOL    HW112908   3.708   2.177   4.659
 4003SOL    HW212909   3.665   2.137   4.812
 4004SOL     OW12910   6.777   1.769   6.346
 4004SOL    HW112911   6.726   1.719   6.276
 4004SOL    HW212912   6.768   1.723   6.434
 4005SOL     OW12913   6.666   4.459   4.539
 4005SOL    HW112914   6.729   4.475   4.462
 4005SOL    HW212915   6.713   4.477   4.625
 4006SOL     OW12916   3.654   6.148   3.634
 4006SOL    HW112917   3.678   6.221   3.698
 4006SOL    HW212918   3.555   6.146   3.622
 4007SOL     OW12919   0.408   1.702   5.618
 4007SOL    HW112920   0.471   1.685   5.693
 4007SOL    HW212921   0.432   1.644   5.540
 4008SOL     OW12922   2.748   1.432   5.336
 4008SOL    HW112923   2.684   1.455   5.262
 4008SOL    HW212924   2.837   1.412   5.297
 4009SOL     OW12925   3.319   3.662   3.059
 4009SOL    HW112926   3.347   3.577   3.015
 4009SOL    HW212927   3.273   3.721   2.993
 4010SOL     OW12928   1.417   3.194   0.318
 4010SOL    HW112929   1.502   3.205   0.369
 4010SOL    HW212930   1.342   3.180   0.383
 4011SOL     OW12931   0.471   1.755   0.877
 4011SOL    HW112932   0.409   1.791   0.808
 4011SOL    HW212933   0.435   1.775   0.968
 4012SOL     OW12934   5.574   3.279   3.379
 4012SOL    HW112935   5.601   3.282   3.475
 4012SOL    HW212936   5.640   3.225   3.327
 4013SOL     OW12937   5.147   2.642   2.694
 4013SOL    HW112938   5.159   2.725   2.750
 4013SOL    HW212939   5.233   2.591   2.693
 4014SOL     OW12940   5.223   4.807   2.714
 4014SOL    HW112941   5.279   4.741   2.764
 4014SOL    HW212942   5.279   4.852   2.644
 4015SOL     OW12943   5.336   3.572   0.502
 4015SOL    HW112944   5.264   3.503   0.491
 4015SOL    HW212945   5.360   3.610   0.414
 4016SOL     OW12946   2.942   6.617   4.576
 4016SOL    HW112947   2.941   6.539   4.638
 4016SOL    HW212948   3.034   6.628   4.538
 4017SOL     OW12949   5.411   6.866   6.117
 4017SOL    HW112950   5.419   6.820   6.206
 4017SOL    HW212951   5.388   6.799   6.047
 4018SOL     OW12952   2.320   0.330   6.887
 4018SOL    HW112953   2.355   0.396   6.953
 4018SOL    HW212954   2.346   0.237   6.914
 4019SOL     OW12955   5.176   6.570   3.937
 4019SOL    HW112956   5.237   6.502   3.978
 4019SOL    HW212957   5.083   6.558   3.972
 4020SOL     OW12958   5.406   1.662   4.390
 4020SOL    HW112959   5.318   1.628   4.356
 4020SOL    HW212960   5.444   1.598   4.456
 4021SOL     OW12961   5.453   3.846   0.040
 4021SOL    HW112962   5.360   3.827   0.010
 4021SOL    HW212963   5.518   3.798   7.000
 4022SOL     OW12964   5.941   0.595   1.180
 4022SOL    HW112965   5.966   0.653   1.102
 4022SOL    HW212966   5.878   0.524   1.149
 4023SOL     OW12967   6.439   6.100   5.002
 4023SOL    HW112968   6.484   6.186   5.025
 4023SOL    HW212969   6.343   6.104   5.032
 4024SOL     OW12970   4.423   4.260   5.492
 4024SOL    HW112971   4.365   4.341   5.501
 4024SOL    HW212972   4.441   4.222   5.583
 4025SOL     OW12973   6.907   3.762   4.058
 4025SOL    HW112974   6.833   3.695   4.053
 4025SOL    HW212975   6.987   3.720   4.101
 4026SOL     OW12976   6.118   1.050   5.246
 4026SOL    HW112977   6.040   1.024   5.189
 4026SOL    HW212978   6.151   0.969   5.295
 4027SOL     OW12979   2.703   5.184   2.960
 4027SOL    HW112980   2.741   5.093   2.943
 4027SOL    HW212981   2.654   5.184   3.047
 4028SOL     OW12982   1.344   5.362   3.129
 4028SOL    HW112983   1.282   5.284   3.120
 4028SOL    HW212984   1.409   5.362   3.053
 4029SOL     OW12985   1.526   4.069   3.372
 4029SOL    HW112986   1.451   4.131   3.351
 4029SOL    HW212987   1.508   4.024   3.460
 4030SOL     OW12988   2.406   1.152   6.452
 4030SOL    HW112989   2.311   1.131   6.477
 4030SOL    HW212990   2.433   1.239   6.494
 4031SOL     OW12991   6.660   5.936   4.156
 4031SOL    HW112992   6.738   5.998   4.158
 4031SOL    HW212993   6.581   5.980   4.199
 4032SOL     OW12994   3.274   6.620   4.987
 4032SOL    HW112995   3.358   6.622   4.933
 4032SOL    HW212996   3.296   6.596   5.081
 4033SOL     OW12997   3.641   3.943   6.308
 4033SOL    HW112998   3.727   3.898   6.285
 4033SOL    HW212999   3.653   3.994   6.394
 4034SOL     OW13000   5.793   3.511   4.927
 4034SOL    HW113001   5.843   3.472   5.005
 4034SOL    HW213002   5.737   3.588   4.958
 4035SOL     OW13003   0.195   6.252   2.084
 4035SOL    HW113004   0.182   6.246   1.985
 4035SOL    HW213005   0.285   6.216   2.108
 4036SOL     OW13006   6.292   5.954   1.330
 4036SOL    HW113007   6.310   5.876   1.270
 4036SOL    HW213008   6.201   5.945   1.369
 4037SOL     OW13009   0.678   3.731   6.323
 4037SOL    HW113010   0.774   3.741   6.300
 4037SOL    HW213011   0.632   3.820   6.315
 4038SOL     OW13012   6.217   5.453   3.565
 4038SOL    HW113013   6.259   5.406   3.488
 4038SOL    HW213014   6.118   5.455   3.554
 4039SOL     OW13015   2.580   4.928   0.972
 4039SOL    HW113016   2.491   4.967   0.995
 4039SOL    HW213017   2.568   4.847   0.915
 4040SOL     OW13018   3.322   6.830   0.144
 4040SOL    HW113019   3.297   6.924   0.167
 4040SOL    HW213020   3.269   6.799   0.065
 4041SOL     OW13021   0.238   5.876   3.446
 4041SOL    HW113022   0.331   5.912   3.440
 4041SOL    HW213023   0.175   5.940   3.404
 4042SOL     OW13024   5.643   5.563   1.898
 4042SOL    HW113025   5.584   5.581   1.820
 4042SOL    HW213026   5.732   5.532   1.866
 4043SOL     OW13027   0.087   3.406   0.844
 4043SOL    HW113028   0.072   3.457   0.929
 4043SOL    HW213029   0.184   3.388   0.833
 4044SOL     OW13030   5.544   4.683   2.373
 4044SOL    HW113031   5.485   4.763   2.357
 4044SOL    HW213032   5.601   4.699   2.453
 4045SOL     OW13033   2.636   5.166   5.320
 4045SOL    HW113034   2.686   5.080   5.309
 4045SOL    HW213035   2.662   5.209   5.407
 4046SOL     OW13036   0.585   3.368   0.507
 4046SOL    HW113037   0.557   3.309   0.583
 4046SOL    HW213038   0.556   3.462   0.525
 4047SOL     OW13039   2.944   3.230   3.360
 4047SOL    HW113040   2.962   3.199   3.454
 4047SOL    HW213041   2.892   3.315   3.363
 4048SOL     OW13042   5.093   2.309   0.275
 4048SOL    HW113043   5.169   2.363   0.237
 4048SOL    HW213044   5.071   2.234   0.212
 4049SOL     OW13045   6.951   6.517   6.556
 4049SOL    HW113046   6.978   6.532   6.651
 4049SOL    HW213047   0.011   6.529   6.496
 4050SOL     OW13048   2.306   1.088   2.719
 4050SOL    HW113049   2.268   1.179   2.702
 4050SOL    HW213050   2.383   1.096   2.782
 4051SOL     OW13051   2.921   3.522   0.775
 4051SOL    HW113052   2.909   3.594   0.707
 4051SOL    HW213053   2.989   3.456   0.742
 4052SOL     OW13054   1.488   0.245   0.725
 4052SOL    HW113055   1.391   0.264   0.739
 4052SOL    HW213056   1.532   0.325   0.685
 4053SOL     OW13057   2.366   5.392   2.587
 4053SOL    HW113058   2.463   5.390   2.611
 4053SOL    HW213059   2.313   5.422   2.666
 4054SOL     OW13060   5.291   1.478   6.362
 4054SOL    HW113061   5.358   1.406   6.348
 4054SOL    HW213062   5.323   1.541   6.434
 4055SOL     OW13063   4.683   3.564   6.358
 4055SOL    HW113064   4.663   3.644   6.301
 4055SOL    HW213065   4.763   3.517   6.321
 4056SOL     OW13066   4.565   2.897   6.889
 4056SOL    HW113067   4.648   2.945   6.918
 4056SOL    HW213068   4.523   2.853   6.969
 4057SOL     OW13069   6.518   2.604   0.738
 4057SOL    HW113070   6.550   2.617   0.831
 4057SOL    HW213071   6.569   2.665   0.676
 4058SOL     OW13072   0.830   3.640   3.727
 4058SOL    HW113073   0.902   3.650   3.795
 4058SOL    HW213074   0.779   3.726   3.720
 4059SOL     OW13075   0.376   1.946   4.701
 4059SOL    HW113076   0.292   1.988   4.734
 4059SOL    HW213077   0.429   1.912   4.779
 4060SOL     OW13078   2.342   6.804   5.655
 4060SOL    HW113079   2.324   6.760   5.743
 4060SOL    HW213080   2.259   6.805   5.600
 4061SOL     OW13081   2.045   2.966   1.560
 4061SOL    HW113082   2.137   2.992   1.589
 4061SOL    HW213083   2.035   2.866   1.568
 4062SOL     OW13084   2.945   0.541   3.275
 4062SOL    HW113085   2.983   0.610   3.214
 4062SOL    HW213086   3.018   0.505   3.334
 4063SOL     OW13087   3.595   6.394   6.184
 4063SOL    HW113088   3.565   6.354   6.270
 4063SOL    HW213089   3.695   6.403   6.184
 4064SOL     OW13090   6.151   6.782   4.689
 4064SOL    HW113091   6.154   6.819   4.782
 4064SOL    HW213092   6.067   6.813   4.644
 4065SOL     OW13093   1.231   4.285   5.661
 4065SOL    HW113094   1.176   4.324   5.734
 4065SOL    HW213095   1.224   4.343   5.579
 4066SOL     OW13096   4.785   4.503   2.153
 4066SOL    HW113097   4.817   4.589   2.193
 4066SOL    HW213098   4.706   4.470   2.204
 4067SOL     OW13099   5.325   0.419   1.604
 4067SOL    HW113100   5.302   0.516   1.600
 4067SOL    HW213101   5.424   0.407   1.611
 4068SOL     OW13102   5.324   0.795   4.792
 4068SOL    HW113103   5.267   0.876   4.804
 4068SOL    HW213104   5.300   0.749   4.707
 4069SOL     OW13105   6.662   6.097   0.527
 4069SOL    HW113106   6.599   6.057   0.460
 4069SOL    HW213107   6.617   6.174   0.573
 4070SOL     OW13108   6.884   3.738   2.501
 4070SOL    HW113109   6.915   3.701   2.588
 4070SOL    HW213110   6.873   3.663   2.435
 4071SOL     OW13111   2.750   6.932   4.873
 4071SOL    HW113112   2.774   6.911   4.967
 4071SOL    HW213113   2.809   7.006   4.839
 4072SOL     OW13114   0.351   0.371   4.447
 4072SOL    HW113115   0.331   0.321   4.363
 4072SOL    HW213116   0.381   0.307   4.518
 4073SOL     OW13117   2.537   4.645   2.044
 4073SOL    HW113118   2.522   4.630   1.946
 4073SOL    HW213119   2.635   4.653   2.061
 4074SOL     OW13120   0.181   2.927   1.677
 4074SOL    HW113121   0.250   2.870   1.723
 4074SOL    HW213122   0.103   2.939   1.737
 4075SOL     OW13123   6.632   0.610   3.321
 4075SOL    HW113124   6.654   0.540   3.253
 4075SOL    HW213125   6.536   0.636   3.312
 4076SOL     OW13126   1.533   3.511   3.303
 4076SOL    HW113127   1.597   3.587   3.308
 4076SOL    HW213128   1.511   3.492   3.207
 4077SOL     OW13129   3.978   0.696   1.810
 4077SOL    HW113130   3.909   0.667   1.743
 4077SOL    HW213131   4.044   0.756   1.766
 4078SOL     OW13132   4.933   4.486   2.789
 4078SOL    HW113133   5.011   4.547   2.805
 4078SOL    HW213134   4.851   4.541   2.769
 4079SOL     OW13135   4.620   1.081   3.203
 4079SOL    HW113136   4.597   0.987   3.177
 4079SOL    HW213137   4.571   1.105   3.287
 4080SOL     OW13138   3.458   3.892   4.677
 4080SOL    HW113139   3.370   3.938   4.695
 4080SOL    HW213140   3.529   3.961   4.662
 4081SOL     OW13141   2.704   6.982   0.296
 4081SOL    HW113142   2.658   0.050   0.309
 4081SOL    HW213143   2.801   6.998   0.278
 4082SOL     OW13144   1.936   1.388   5.810
 4082SOL    HW113145   1.949   1.470   5.754
 4082SOL    HW213146   1.840   1.380   5.837
 4083SOL     OW13147   5.660   4.363   2.573
 4083SOL    HW113148   5.633   4.313   2.655
 4083SOL    HW213149   5.623   4.317   2.493
 4084SOL     OW13150   3.934   6.240   2.825
 4084SOL    HW113151   3.999   6.293   2.879
 4084SOL    HW213152   3.978   6.158   2.789
 4085SOL     OW13153   1.459   4.609   2.461
 4085SOL    HW113154   1.538   4.584   2.405
 4085SOL    HW213155   1.488   4.619   2.556
 4086SOL     OW13156   5.681   5.341   5.011
 4086SOL    HW113157   5.617   5.270   5.040
 4086SOL    HW213158   5.721   5.385   5.092
 4087SOL     OW13159   1.608   1.458   1.404
 4087SOL    HW113160   1.548   1.529   1.442
 4087SOL    HW213161   1.554   1.397   1.345
 4088SOL     OW13162   6.998   2.440   5.271
 4088SOL    HW113163   7.008   2.341   5.257
 4088SOL    HW213164   0.034   2.468   5.349
 4089SOL     OW13165   6.820   6.640   2.627
 4089SOL    HW113166   6.833   6.565   2.692
 4089SOL    HW213167   6.847   6.609   2.536
 4090SOL     OW13168   3.534   2.526   5.365
 4090SOL    HW113169   3.542   2.433   5.329
 4090SOL    HW213170   3.466   2.577   5.312
 4091SOL     OW13171   4.234   6.804   3.416
 4091SOL    HW113172   4.252   6.796   3.514
 4091SOL    HW213173   4.201   6.896   3.395
 4092SOL     OW13174   4.542   1.857   6.552
 4092SOL    HW113175   4.599   1.856   6.470
 4092SOL    HW213176   4.586   1.803   6.624
 4093SOL     OW13177   5.835   4.315   1.670
 4093SOL    HW113178   5.903   4.355   1.608
 4093SOL    HW213179   5.880   4.247   1.728
 4094SOL     OW13180   6.328   6.005   0.045
 4094SOL    HW113181   6.397   5.998   6.994
 4094SOL    HW213182   6.357   6.071   0.115
 4095SOL     OW13183   1.601   5.153   0.165
 4095SOL    HW113184   1.617   5.059   0.134
 4095SOL    HW213185   1.682   5.186   0.214
 4096SOL     OW13186   0.984   6.545   5.947
 4096SOL    HW113187   1.063   6.536   6.008
 4096SOL    HW213188   0.981   6.467   5.884
 4097SOL     OW13189   1.671   3.814   6.002
 4097SOL    HW113190   1.710   3.780   5.917
 4097SOL    HW213191   1.604   3.749   6.037
 4098SOL     OW13192   1.182   6.000   1.807
 4098SOL    HW113193   1.215   6.083   1.764
 4098SOL    HW213194   1.226   5.920   1.765
 4099SOL     OW13195   6.985   2.358   5.932
 4099SOL    HW113196   7.000   2.352   6.031
 4099SOL    HW213197   6.946   2.273   5.899
 4100SOL     OW13198   2.352   0.911   3.647
 4100SOL    HW113199   2.307   0.966   3.577
 4100SOL    HW213200   2.332   0.815   3.632
 4101SOL     OW13201   5.613   6.187   6.066
 4101SOL    HW113202   5.580   6.220   6.155
 4101SOL    HW213203   5.643   6.264   6.011
 4102SOL     OW13204   2.743   5.269   0.627
 4102SOL    HW113205   2.750   5.277   0.527
 4102SOL    HW213206   2.651   5.240   0.652
 4103SOL     OW13207   2.075   5.296   2.299
 4103SOL    HW113208   2.011   5.372   2.312
 4103SOL    HW213209   2.092   5.251   2.387
 4104SOL     OW13210   2.553   5.627   5.570
 4104SOL    HW113211   2.493   5.563   5.522
 4104SOL    HW213212   2.598   5.686   5.503
 4105SOL     OW13213   3.845   0.173   1.771
 4105SOL    HW113214   3.897   0.137   1.848
 4105SOL    HW213215   3.881   0.263   1.746
 4106SOL     OW13216   1.442   6.529   2.922
 4106SOL    HW113217   1.516   6.596   2.925
 4106SOL    HW213218   1.354   6.575   2.937
 4107SOL     OW13219   2.288   1.976   0.546
 4107SOL    HW113220   2.285   1.893   0.602
 4107SOL    HW213221   2.301   2.055   0.604
 4108SOL     OW13222   0.702   5.543   5.265
 4108SOL    HW113223   0.802   5.544   5.274
 4108SOL    HW213224   0.661   5.513   5.351
 4109SOL     OW13225   5.155   0.443   5.238
 4109SOL    HW113226   5.108   0.485   5.161
 4109SOL    HW213227   5.097   0.448   5.320
 4110SOL     OW13228   4.967   2.300   0.614
 4110SOL    HW113229   5.042   2.360   0.587
 4110SOL    HW213230   4.959   2.226   0.548
 4111SOL     OW13231   6.459   4.323   4.167
 4111SOL    HW113232   6.542   4.316   4.112
 4111SOL    HW213233   6.444   4.236   4.215
 4112SOL     OW13234   3.745   5.224   5.473
 4112SOL    HW113235   3.674   5.155   5.462
 4112SOL    HW213236   3.708   5.302   5.525
 4113SOL     OW13237   5.172   5.867   5.937
 4113SOL    HW113238   5.192   5.775   5.906
 4113SOL    HW213239   5.234   5.892   6.011
 4114SOL     OW13240   6.325   1.486   3.789
 4114SOL    HW113241   6.360   1.580   3.793
 4114SOL    HW213242   6.225   1.487   3.795
 4115SOL     OW13243   4.658   0.165   4.835
 4115SOL    HW113244   4.745   0.205   4.866
 4115SOL    HW213245   4.668   0.132   4.742
 4116SOL     OW13246   5.912   3.457   3.473
 4116SOL    HW113247   6.002   3.487   3.506
 4116SOL    HW213248   5.897   3.491   3.381
 4117SOL     OW13249   0.858   2.913   2.670
 4117SOL    HW113250   0.800   2.832   2.671
 4117SOL    HW213251   0.942   2.895   2.722
 4118SOL     OW13252   1.002   0.994   1.907
 4118SOL    HW113253   0.956   1.036   1.828
 4118SOL    HW213254   1.009   1.062   1.980
 4119SOL     OW13255   6.420   1.099   4.314
 4119SOL    HW113256   6.407   1.109   4.215
 4119SOL    HW213257   6.514   1.072   4.333
 4120SOL     OW13258   1.931   0.121   0.381
 4120SOL    HW113259   1.867   0.189   0.345
 4120SOL    HW213260   1.911   0.032   0.340
 4121SOL     OW13261   6.548   0.034   1.394
 4121SOL    HW113262   6.475   7.018   1.452
 4121SOL    HW213263   6.533   0.132   1.380
 4122SOL     OW13264   0.957   4.526   3.259
 4122SOL    HW113265   1.009   4.545   3.342
 4122SOL    HW213266   0.863   4.558   3.271
 4123SOL     OW13267   5.813   4.488   2.051
 4123SOL    HW113268   5.744   4.492   2.123
 4123SOL    HW213269   5.768   4.490   1.962
 4124SOL     OW13270   5.525   6.215   0.428
 4124SOL    HW113271   5.580   6.260   0.357
 4124SOL    HW213272   5.428   6.230   0.410
 4125SOL     OW13273   0.924   2.680   0.149
 4125SOL    HW113274   0.840   2.695   0.201
 4125SOL    HW213275   0.973   2.601   0.186
 4126SOL     OW13276   1.777   4.163   3.119
 4126SOL    HW113277   1.728   4.236   3.071
 4126SOL    HW213278   1.717   4.083   3.126
 4127SOL     OW13279   4.457   2.550   4.363
 4127SOL    HW113280   4.528   2.619   4.347
 4127SOL    HW213281   4.487   2.489   4.436
 4128SOL     OW13282   6.197   2.826   6.387
 4128SOL    HW113283   6.243   2.781   6.463
 4128SOL    HW213284   6.263   2.839   6.312
 4129SOL     OW13285   3.243   6.895   2.271
 4129SOL    HW113286   3.311   6.949   2.222
 4129SOL    HW213287   3.197   6.833   2.207
 4130SOL     OW13288   4.928   0.957   0.156
 4130SOL    HW113289   4.948   0.871   0.108
 4130SOL    HW213290   4.972   1.033   0.108
 4131SOL     OW13291   5.414   5.847   4.281
 4131SOL    HW113292   5.503   5.819   4.246
 4131SOL    HW213293   5.378   5.923   4.226
 4132SOL     OW13294   6.790   3.408   2.249
 4132SOL    HW113295   6.867   3.346   2.264
 4132SOL    HW213296   6.794   3.444   2.156
 4133SOL     OW13297   5.482   6.202   3.895
 4133SOL    HW113298   5.438   6.176   3.809
 4133SOL    HW213299   5.489   6.301   3.902
 4134SOL     OW13300   2.132   2.700   0.918
 4134SOL    HW113301   2.207   2.722   0.856
 4134SOL    HW213302   2.075   2.629   0.877
 4135SOL     OW13303   6.125   0.592   0.949
 4135SOL    HW113304   6.053   0.662   0.953
 4135SOL    HW213305   6.090   0.507   0.990
 4136SOL     OW13306   0.372   5.325   0.123
 4136SOL    HW113307   0.394   5.312   0.220
 4136SOL    HW213308   0.451   5.297   0.068
 4137SOL     OW13309   0.395   2.215   5.247
 4137SOL    HW113310   0.387   2.235   5.345
 4137SOL    HW213311   0.482   2.251   5.213
 4138SOL     OW13312   5.765   6.652   6.415
 4138SOL    HW113313   5.795   6.727   6.356
 4138SOL    HW213314   5.840   6.587   6.428
 4139SOL     OW13315   1.349   4.266   2.102
 4139SOL    HW113316   1.382   4.186   2.153
 4139SOL    HW213317   1.422   4.334   2.096
 4140SOL     OW13318   2.770   6.657   0.772
 4140SOL    HW113319   2.784   6.633   0.676
 4140SOL    HW213320   2.795   6.580   0.830
 4141SOL     OW13321   4.983   0.182   5.974
 4141SOL    HW113322   4.988   0.114   6.047
 4141SOL    HW213323   5.060   0.245   5.981
 4142SOL     OW13324   0.144   6.814   1.787
 4142SOL    HW113325   0.215   6.765   1.737
 4142SOL    HW213326   0.174   6.830   1.881
 4143SOL     OW13327   6.535   3.559   6.411
 4143SOL    HW113328   6.459   3.505   6.448
 4143SOL    HW213329   6.602   3.575   6.483
 4144SOL     OW13330   4.858   0.554   1.695
 4144SOL    HW113331   4.925   0.518   1.760
 4144SOL    HW213332   4.796   0.617   1.743
 4145SOL     OW13333   4.614   0.961   1.209
 4145SOL    HW113334   4.677   0.920   1.143
 4145SOL    HW213335   4.539   1.005   1.160
 4146SOL     OW13336   3.153   1.265   1.967
 4146SOL    HW113337   3.248   1.235   1.961
 4146SOL    HW213338   3.101   1.201   2.023
 4147SOL     OW13339   5.015   4.266   6.796
 4147SOL    HW113340   5.023   4.166   6.796
 4147SOL    HW213341   5.087   4.305   6.853
 4148SOL     OW13342   3.262   0.874   6.211
 4148SOL    HW113343   3.354   0.880   6.172
 4148SOL    HW213344   3.269   0.881   6.311
 4149SOL     OW13345   1.777   2.265   6.512
 4149SOL    HW113346   1.759   2.362   6.497
 4149SOL    HW213347   1.779   2.247   6.611
 4150SOL     OW13348   0.118   1.573   1.425
 4150SOL    HW113349   0.093   1.602   1.332
 4150SOL    HW213350   0.158   1.482   1.422
 4151SOL     OW13351   2.782   5.493   4.469
 4151SOL    HW113352   2.873   5.535   4.463
 4151SOL    HW213353   2.745   5.506   4.561
 4152SOL     OW13354   2.880   4.246   1.304
 4152SOL    HW113355   2.807   4.294   1.354
 4152SOL    HW213356   2.845   4.159   1.269
 4153SOL     OW13357   6.036   6.491   0.367
 4153SOL    HW113358   5.976   6.548   0.422
 4153SOL    HW213359   5.999   6.398   0.362
 4154SOL     OW13360   0.870   6.532   3.626
 4154SOL    HW113361   0.841   6.530   3.722
 4154SOL    HW213362   0.928   6.612   3.611
 4155SOL     OW13363   5.242   0.974   2.542
 4155SOL    HW113364   5.254   0.994   2.444
 4155SOL    HW213365   5.151   0.935   2.556
 4156SOL     OW13366   0.882   5.705   5.920
 4156SOL    HW113367   0.966   5.740   5.878
 4156SOL    HW213368   0.875   5.606   5.904
 4157SOL     OW13369   4.526   6.160   0.586
 4157SOL    HW113370   4.493   6.245   0.546
 4157SOL    HW213371   4.589   6.180   0.661
 4158SOL     OW13372   6.667   1.168   6.621
 4158SOL    HW113373   6.716   1.129   6.543
 4158SOL    HW213374   6.731   1.190   6.694
 4159SOL     OW13375   3.227   0.691   4.608
 4159SOL    HW113376   3.168   0.656   4.680
 4159SOL    HW213377   3.191   0.778   4.573
 4160SOL     OW13378   1.395   0.656   6.048
 4160SOL    HW113379   1.489   0.683   6.028
 4160SOL    HW213380   1.393   0.559   6.072
 4161SOL     OW13381   3.568   3.756   5.047
 4161SOL    HW113382   3.638   3.774   4.978
 4161SOL    HW213383   3.587   3.669   5.092
 4162SOL     OW13384   4.536   6.704   1.139
 4162SOL    HW113385   4.571   6.610   1.136
 4162SOL    HW213386   4.445   6.706   1.097
 4163SOL     OW13387   3.715   6.277   1.501
 4163SOL    HW113388   3.648   6.204   1.517
 4163SOL    HW213389   3.686   6.333   1.424
 4164SOL     OW13390   5.885   1.212   7.011
 4164SOL    HW113391   5.947   1.174   0.059
 4164SOL    HW213392   5.928   1.291   6.967
 4165SOL     OW13393   3.165   1.396   4.553
 4165SOL    HW113394   3.074   1.388   4.592
 4165SOL    HW213395   3.228   1.336   4.603
 4166SOL     OW13396   5.546   1.797   2.312
 4166SOL    HW113397   5.641   1.768   2.305
 4166SOL    HW213398   5.500   1.782   2.225
 4167SOL     OW13399   3.768   6.430   4.872
 4167SOL    HW113400   3.853   6.379   4.874
 4167SOL    HW213401   3.781   6.515   4.821
 4168SOL     OW13402   5.487   3.612   6.828
 4168SOL    HW113403   5.572   3.622   6.880
 4168SOL    HW213404   5.487   3.525   6.779
 4169SOL     OW13405   5.477   4.349   6.709
 4169SOL    HW113406   5.393   4.392   6.679
 4169SOL    HW213407   5.460   4.296   6.792
 4170SOL     OW13408   0.854   3.032   5.171
 4170SOL    HW113409   0.840   3.047   5.073
 4170SOL    HW213410   0.943   2.988   5.186
 4171SOL     OW13411   6.988   0.570   6.030
 4171SOL    HW113412   6.916   0.517   6.075
 4171SOL    HW213413   0.019   0.511   5.968
 4172SOL     OW13414   3.664   3.122   0.039
 4172SOL    HW113415   3.577   3.149   0.080
 4172SOL    HW213416   3.654   3.112   6.960
 4173SOL     OW13417   5.706   1.286   6.107
 4173SOL    HW113418   5.668   1.194   6.115
 4173SOL    HW213419   5.767   1.290   6.028
 4174SOL     OW13420   2.316   6.817   3.548
 4174SOL    HW113421   2.328   6.904   3.500
 4174SOL    HW213422   2.317   6.833   3.647
 4175SOL     OW13423   1.508   3.404   6.229
 4175SOL    HW113424   1.577   3.473   6.251
 4175SOL    HW213425   1.521   3.324   6.287
 4176SOL     OW13426   4.228   6.822   5.068
 4176SOL    HW113427   4.255   6.918   5.057
 4176SOL    HW213428   4.307   6.769   5.100
 4177SOL     OW13429   5.111   6.427   4.274
 4177SOL    HW113430   5.044   6.499   4.259
 4177SOL    HW213431   5.188   6.464   4.326
 4178SOL     OW13432   3.233   6.517   1.185
 4178SOL    HW113433   3.220   6.611   1.154
 4178SOL    HW213434   3.269   6.517   1.278
 4179SOL     OW13435   4.021   1.726   0.087
 4179SOL    HW113436   3.947   1.791   0.070
 4179SOL    HW213437   4.053   1.735   0.181
 4180SOL     OW13438   4.081   4.170   6.784
 4180SOL    HW113439   4.105   4.190   6.879
 4180SOL    HW213440   3.990   4.131   6.780
 4181SOL     OW13441   5.113   6.060   5.744
 4181SOL    HW113442   5.208   6.052   5.713
 4181SOL    HW213443   5.088   5.978   5.796
 4182SOL     OW13444   6.670   5.148   5.445
 4182SOL    HW113445   6.646   5.058   5.481
 4182SOL    HW213446   6.640   5.218   5.509
 4183SOL     OW13447   5.773   2.647   0.071
 4183SOL    HW113448   5.685   2.643   0.119
 4183SOL    HW213449   5.764   2.701   7.008
 4184SOL     OW13450   3.463   5.725   3.167
 4184SOL    HW113451   3.545   5.669   3.172
 4184SOL    HW213452   3.414   5.720   3.254
 4185SOL     OW13453   4.441   4.554   3.360
 4185SOL    HW113454   4.457   4.597   3.271
 4185SOL    HW213455   4.515   4.490   3.380
 4186SOL     OW13456   2.025   4.805   0.967
 4186SOL    HW113457   1.988   4.856   1.045
 4186SOL    HW213458   2.111   4.762   0.994
 4187SOL     OW13459   1.209   3.731   6.212
 4187SOL    HW113460   1.198   3.733   6.112
 4187SOL    HW213461   1.251   3.645   6.239
 4188SOL     OW13462   5.107   0.716   6.369
 4188SOL    HW113463   5.080   0.683   6.460
 4188SOL    HW213464   5.030   0.705   6.306
 4189SOL     OW13465   3.902   5.517   3.331
 4189SOL    HW113466   3.997   5.534   3.356
 4189SOL    HW213467   3.882   5.419   3.338
 4190SOL     OW13468   6.619   5.689   1.225
 4190SOL    HW113469   6.635   5.727   1.316
 4190SOL    HW213470   6.522   5.693   1.203
 4191SOL     OW13471   4.830   2.518   5.794
 4191SOL    HW113472   4.793   2.598   5.842
 4191SOL    HW213473   4.851   2.446   5.861
 4192SOL     OW13474   1.681   3.587   6.319
 4192SOL    HW113475   1.690   3.571   6.417
 4192SOL    HW213476   1.752   3.651   6.289
 4193SOL     OW13477   5.601   6.417   1.520
 4193SOL    HW113478   5.511   6.374   1.523
 4193SOL    HW213479   5.653   6.381   1.442
 4194SOL     OW13480   5.478   0.298   6.834
 4194SOL    HW113481   5.398   0.319   6.778
 4194SOL    HW213482   5.488   0.199   6.842
 4195SOL     OW13483   2.186   6.036   0.634
 4195SOL    HW113484   2.214   5.959   0.691
 4195SOL    HW213485   2.094   6.064   0.659
 4196SOL     OW13486   6.235   3.112   2.912
 4196SOL    HW113487   6.159   3.080   2.968
 4196SOL    HW213488   6.220   3.208   2.888
 4197SOL     OW13489   4.212   0.773   0.009
 4197SOL    HW113490   4.311   0.781   0.017
 4197SOL    HW213491   4.176   0.852   6.980
 4198SOL     OW13492   6.502   2.120   1.841
 4198SOL    HW113493   6.580   2.079   1.794
 4198SOL    HW213494   6.443   2.165   1.774
 4199SOL     OW13495   1.837   3.778   0.078
 4199SOL    HW113496   1.763   3.737   0.025
 4199SOL    HW213497   1.832   3.747   0.172
 4200SOL     OW13498   5.460   1.322   2.705
 4200SOL    HW113499   5.395   1.393   2.734
 4200SOL    HW213500   5.545   1.331   2.758
 4201SOL     OW13501   4.905   0.469   5.391
 4201SOL    HW113502   4.833   0.534   5.414
 4201SOL    HW213503   4.883   0.425   5.304
 4202SOL     OW13504   4.433   4.311   1.407
 4202SOL    HW113505   4.486   4.294   1.489
 4202SOL    HW213506   4.456   4.242   1.337
 4203SOL     OW13507   6.413   3.954   4.636
 4203SOL    HW113508   6.423   3.869   4.583
 4203SOL    HW213509   6.498   3.973   4.685
 4204SOL     OW13510   2.362   4.248   5.899
 4204SOL    HW113511   2.311   4.199   5.969
 4204SOL    HW213512   2.352   4.202   5.811
 4205SOL     OW13513   5.690   5.332   5.863
 4205SOL    HW113514   5.673   5.248   5.914
 4205SOL    HW213515   5.636   5.332   5.779
 4206SOL     OW13516   2.531   2.438   5.010
 4206SOL    HW113517   2.533   2.409   5.105
 4206SOL    HW213518   2.503   2.534   5.004
 4207SOL     OW13519   2.516   2.396   1.077
 4207SOL    HW113520   2.587   2.336   1.113
 4207SOL    HW213521   2.543   2.491   1.087
 4208SOL     OW13522   1.766   2.795   2.966
 4208SOL    HW113523   1.766   2.837   2.875
 4208SOL    HW213524   1.830   2.719   2.968
 4209SOL     OW13525   6.706   5.050   2.739
 4209SOL    HW113526   6.779   5.118   2.736
 4209SOL    HW213527   6.648   5.068   2.818
 4210SOL     OW13528   3.304   5.370   4.826
 4210SOL    HW113529   3.399   5.347   4.845
 4210SOL    HW213530   3.244   5.295   4.857
 4211SOL     OW13531   5.107   3.069   5.981
 4211SOL    HW113532   5.026   3.066   6.040
 4211SOL    HW213533   5.092   3.136   5.908
 4212SOL     OW13534   0.641   2.777   3.089
 4212SOL    HW113535   0.685   2.743   3.173
 4212SOL    HW213536   0.562   2.719   3.068
 4213SOL     OW13537   3.032   0.677   3.778
 4213SOL    HW113538   2.983   0.597   3.813
 4213SOL    HW213539   3.128   0.654   3.763
 4214SOL     OW13540   6.331   6.247   4.020
 4214SOL    HW113541   6.400   6.247   3.948
 4214SOL    HW213542   6.328   6.336   4.064
 4215SOL     OW13543   6.005   6.930   5.228
 4215SOL    HW113544   5.916   6.888   5.243
 4215SOL    HW213545   6.013   6.961   5.133
 4216SOL     OW13546   1.834   5.961   2.550
 4216SOL    HW113547   1.757   6.023   2.562
 4216SOL    HW213548   1.811   5.871   2.588
 4217SOL     OW13549   0.102   0.173   3.107
 4217SOL    HW113550   0.186   0.174   3.054
 4217SOL    HW213551   0.046   0.095   3.081
 4218SOL     OW13552   2.603   0.707   1.623
 4218SOL    HW113553   2.542   0.723   1.545
 4218SOL    HW213554   2.649   0.619   1.610
 4219SOL     OW13555   2.943   5.736   2.319
 4219SOL    HW113556   3.033   5.710   2.283
 4219SOL    HW213557   2.889   5.778   2.246
 4220SOL     OW13558   5.518   1.746   1.331
 4220SOL    HW113559   5.436   1.798   1.306
 4220SOL    HW213560   5.575   1.733   1.250
 4221SOL     OW13561   0.731   0.078   1.062
 4221SOL    HW113562   0.701   0.126   1.144
 4221SOL    HW213563   0.654   0.029   1.021
 4222SOL     OW13564   4.890   3.732   4.444
 4222SOL    HW113565   4.914   3.657   4.506
 4222SOL    HW213566   4.915   3.707   4.350
 4223SOL     OW13567   3.169   3.970   2.678
 4223SOL    HW113568   3.201   4.042   2.739
 4223SOL    HW213569   3.077   3.942   2.704
 4224SOL     OW13570   4.817   4.130   5.078
 4224SOL    HW113571   4.789   4.222   5.051
 4224SOL    HW213572   4.766   4.101   5.158
 4225SOL     OW13573   0.523   1.381   6.149
 4225SOL    HW113574   0.620   1.401   6.131
 4225SOL    HW213575   0.517   1.310   6.219
 4226SOL     OW13576   5.201   5.097   4.166
 4226SOL    HW113577   5.101   5.094   4.173
 4226SOL    HW213578   5.240   5.024   4.224
 4227SOL     OW13579   5.742   6.068   0.968
 4227SOL    HW113580   5.775   5.992   0.913
 4227SOL    HW213581   5.815   6.136   0.980
 4228SOL     OW13582   1.875   4.487   3.496
 4228SOL    HW113583   1.780   4.481   3.528
 4228SOL    HW213584   1.937   4.471   3.572
 4229SOL     OW13585   6.049   6.298   6.013
 4229SOL    HW113586   6.078   6.376   6.069
 4229SOL    HW213587   6.083   6.213   6.054
 4230SOL     OW13588   0.744   1.643   2.149
 4230SOL    HW113589   0.791   1.691   2.223
 4230SOL    HW213590   0.730   1.547   2.175
 4231SOL     OW13591   0.017   0.744   5.779
 4231SOL    HW113592   0.010   0.673   5.848
 4231SOL    HW213593   6.985   0.824   5.808
 4232SOL     OW13594   2.077   4.567   2.225
 4232SOL    HW113595   2.123   4.604   2.306
 4232SOL    HW213596   2.129   4.592   2.143
 4233SOL     OW13597   4.539   5.573   2.463
 4233SOL    HW113598   4.620   5.596   2.517
 4233SOL    HW213599   4.556   5.490   2.411
 4234SOL     OW13600   3.144   5.460   6.292
 4234SOL    HW113601   3.225   5.457   6.349
 4234SOL    HW213602   3.090   5.377   6.305
 4235SOL     OW13603   6.804   6.070   7.017
 4235SOL    HW113604   6.844   6.086   0.087
 4235SOL    HW213605   6.727   6.133   7.004
 4236SOL     OW13606   0.053   4.964   3.584
 4236SOL    HW113607   0.142   4.935   3.547
 4236SOL    HW213608   0.030   5.054   3.548
 4237SOL     OW13609   6.252   4.713   4.211
 4237SOL    HW113610   6.274   4.788   4.274
 4237SOL    HW213611   6.249   4.627   4.263
 4238SOL     OW13612   1.783   5.711   3.098
 4238SOL    HW113613   1.832   5.791   3.131
 4238SOL    HW213614   1.758   5.653   3.176
 4239SOL     OW13615   4.160   1.185   3.619
 4239SOL    HW113616   4.150   1.272   3.666
 4239SOL    HW213617   4.129   1.195   3.524
 4240SOL     OW13618   4.712   6.722   1.901
 4240SOL    HW113619   4.793   6.669   1.875
 4240SOL    HW213620   4.638   6.659   1.925
 4241SOL     OW13621   0.449   4.320   6.810
 4241SOL    HW113622   0.451   4.355   6.717
 4241SOL    HW213623   0.415   4.391   6.872
 4242SOL     OW13624   3.836   2.137   2.885
 4242SOL    HW113625   3.839   2.170   2.979
 4242SOL    HW213626   3.928   2.133   2.848
 4243SOL     OW13627   2.607   1.879   2.801
 4243SOL    HW113628   2.587   1.924   2.889
 4243SOL    HW213629   2.658   1.942   2.742
 4244SOL     OW13630   2.935   3.283   5.217
 4244SOL    HW113631   2.912   3.378   5.199
 4244SOL    HW213632   2.852   3.232   5.239
 4245SOL     OW13633   6.882   1.172   5.381
 4245SOL    HW113634   6.982   1.173   5.382
 4245SOL    HW213635   6.850   1.110   5.309
 4246SOL     OW13636   0.849   5.010   6.152
 4246SOL    HW113637   0.766   4.955   6.157
 4246SOL    HW213638   0.928   4.953   6.174
 4247SOL     OW13639   0.386   4.519   5.117
 4247SOL    HW113640   0.311   4.455   5.098
 4247SOL    HW213641   0.357   4.612   5.096
 4248SOL     OW13642   2.070   3.501   0.019
 4248SOL    HW113643   1.988   3.494   6.983
 4248SOL    HW213644   2.069   3.587   0.070
 4249SOL     OW13645   5.307   3.336   6.294
 4249SOL    HW113646   5.327   3.238   6.285
 4249SOL    HW213647   5.327   3.383   6.209
 4250SOL     OW13648   6.767   3.829   3.786
 4250SOL    HW113649   6.802   3.817   3.879
 4250SOL    HW213650   6.806   3.912   3.746
 4251SOL     OW13651   6.026   4.787   6.102
 4251SOL    HW113652   5.977   4.865   6.063
 4251SOL    HW213653   6.124   4.795   6.079
 4252SOL     OW13654   6.052   4.877   5.370
 4252SOL    HW113655   6.032   4.835   5.459
 4252SOL    HW213656   6.151   4.894   5.364
 4253SOL     OW13657   3.134   0.387   3.386
 4253SOL    HW113658   3.203   0.406   3.315
 4253SOL    HW213659   3.123   0.289   3.396
 4254SOL     OW13660   3.852   3.393   2.908
 4254SOL    HW113661   3.758   3.380   2.877
 4254SOL    HW213662   3.901   3.306   2.902
 4255SOL     OW13663   0.684   2.278   4.358
 4255SOL    HW113664   0.728   2.223   4.429
 4255SOL    HW213665   0.632   2.218   4.297
 4256SOL     OW13666   0.873   0.702   1.650
 4256SOL    HW113667   0.899   0.614   1.688
 4256SOL    HW213668   0.940   0.771   1.674
 4257SOL     OW13669   4.224   2.186   4.837
 4257SOL    HW113670   4.239   2.267   4.894
 4257SOL    HW213671   4.168   2.210   4.758
 4258SOL     OW13672   5.545   5.943   2.182
 4258SOL    HW113673   5.612   5.946   2.107
 4258SOL    HW213674   5.521   6.036   2.209
 4259SOL     OW13675   2.965   3.225   1.858
 4259SOL    HW113676   3.009   3.277   1.785
 4259SOL    HW213677   2.979   3.127   1.842
 4260SOL     OW13678   4.306   6.240   4.887
 4260SOL    HW113679   4.248   6.315   4.855
 4260SOL    HW213680   4.256   6.154   4.881
 4261SOL     OW13681   1.321   1.441   3.109
 4261SOL    HW113682   1.317   1.498   3.027
 4261SOL    HW213683   1.294   1.347   3.085
 4262SOL     OW13684   0.906   6.856   5.422
 4262SOL    HW113685   0.971   6.898   5.359
 4262SOL    HW213686   0.813   6.879   5.394
 4263SOL     OW13687   4.388   5.354   6.877
 4263SOL    HW113688   4.411   5.359   6.779
 4263SOL    HW213689   4.340   5.437   6.904
 4264SOL     OW13690   1.671   0.834   1.250
 4264SOL    HW113691   1.710   0.854   1.161
 4264SOL    HW213692   1.591   0.775   1.240
 4265SOL     OW13693   1.912   1.554   1.053
 4265SOL    HW113694   1.940   1.577   0.960
 4265SOL    HW213695   1.918   1.635   1.111
 4266SOL     OW13696   2.984   4.784   0.484
 4266SOL    HW113697   2.920   4.743   0.549
 4266SOL    HW213698   2.935   4.810   0.400
 4267SOL     OW13699   1.459   3.961   5.043
 4267SOL    HW113700   1.544   4.011   5.027
 4267SOL    HW213701   1.424   3.926   4.956
 4268SOL     OW13702   0.606   1.580   1.122
 4268SOL    HW113703   0.630   1.604   1.217
 4268SOL    HW213704   0.674   1.517   1.086
 4269SOL     OW13705   2.894   3.926   0.653
 4269SOL    HW113706   2.885   3.842   0.599
 4269SOL    HW213707   2.934   3.904   0.742
 4270SOL     OW13708   3.960   2.978   6.739
 4270SOL    HW113709   3.872   2.965   6.694
 4270SOL    HW213710   3.949   3.039   6.818
 4271SOL     OW13711   1.847   0.512   1.433
 4271SOL    HW113712   1.898   0.473   1.356
 4271SOL    HW213713   1.899   0.587   1.473
 4272SOL     OW13714   1.309   4.532   3.415
 4272SOL    HW113715   1.360   4.617   3.424
 4272SOL    HW213716   1.213   4.547   3.437
 4273SOL     OW13717   6.452   6.207   3.570
 4273SOL    HW113718   6.364   6.255   3.561
 4273SOL    HW213719   6.451   6.125   3.514
 4274SOL     OW13720   1.673   0.361   3.579
 4274SOL    HW113721   1.669   0.449   3.532
 4274SOL    HW213722   1.592   0.308   3.556
 4275SOL     OW13723   0.470   0.562   6.009
 4275SOL    HW113724   0.472   0.660   6.029
 4275SOL    HW213725   0.409   0.546   5.931
 4276SOL     OW13726   2.138   3.420   3.674
 4276SOL    HW113727   2.151   3.508   3.628
 4276SOL    HW213728   2.094   3.435   3.762
 4277SOL     OW13729   0.619   5.696   5.830
 4277SOL    HW113730   0.707   5.661   5.862
 4277SOL    HW213731   0.631   5.745   5.744
 4278SOL     OW13732   1.151   6.347   6.551
 4278SOL    HW113733   1.211   6.340   6.471
 4278SOL    HW213734   1.056   6.355   6.521
 4279SOL     OW13735   3.679   5.831   3.325
 4279SOL    HW113736   3.631   5.791   3.403
 4279SOL    HW213737   3.620   5.829   3.244
 4280SOL     OW13738   4.873   3.023   4.350
 4280SOL    HW113739   4.923   3.074   4.419
 4280SOL    HW213740   4.905   3.049   4.259
 4281SOL     OW13741   2.124   3.858   4.643
 4281SOL    HW113742   2.153   3.825   4.733
 4281SOL    HW213743   2.070   3.787   4.598
 4282SOL     OW13744   0.848   1.398   6.980
 4282SOL    HW113745   0.907   1.449   0.022
 4282SOL    HW213746   0.753   1.403   7.013
 4283SOL     OW13747   2.856   1.261   3.843
 4283SOL    HW113748   2.885   1.349   3.880
 4283SOL    HW213749   2.872   1.189   3.911
 4284SOL     OW13750   6.853   2.703   3.090
 4284SOL    HW113751   6.788   2.740   3.156
 4284SOL    HW213752   6.914   2.776   3.058
 4285SOL     OW13753   0.827   6.061   4.244
 4285SOL    HW113754   0.924   6.085   4.251
 4285SOL    HW213755   0.774   6.120   4.304
 4286SOL     OW13756   4.773   5.553   6.957
 4286SOL    HW113757   4.775   5.646   6.992
 4286SOL    HW213758   4.699   5.543   6.891
 4287SOL     OW13759   4.117   5.511   6.078
 4287SOL    HW113760   4.175   5.434   6.049
 4287SOL    HW213761   4.035   5.514   6.021
 4288SOL     OW13762   0.903   6.368   4.195
 4288SOL    HW113763   0.955   6.345   4.278
 4288SOL    HW213764   0.954   6.338   4.115
 4289SOL     OW13765   0.801   4.076   6.731
 4289SOL    HW113766   0.821   3.979   6.739
 4289SOL    HW213767   0.874   4.122   6.680
 4290SOL     OW13768   1.661   1.962   2.775
 4290SOL    HW113769   1.746   1.912   2.793
 4290SOL    HW213770   1.682   2.049   2.731
 4291SOL     OW13771   6.880   4.142   1.211
 4291SOL    HW113772   6.807   4.187   1.261
 4291SOL    HW213773   6.953   4.207   1.191
 4292SOL     OW13774   5.637   5.746   4.741
 4292SOL    HW113775   5.694   5.712   4.816
 4292SOL    HW213776   5.648   5.845   4.733
 4293SOL     OW13777   0.725   1.738   0.587
 4293SOL    HW113778   0.646   1.795   0.563
 4293SOL    HW213779   0.749   1.753   0.683
 4294SOL     OW13780   4.480   2.110   5.938
 4294SOL    HW113781   4.413   2.184   5.937
 4294SOL    HW213782   4.465   2.052   6.018
 4295SOL     OW13783   3.547   5.138   5.201
 4295SOL    HW113784   3.599   5.167   5.121
 4295SOL    HW213785   3.452   5.165   5.191
 4296SOL     OW13786   1.911   1.467   2.439
 4296SOL    HW113787   1.907   1.411   2.522
 4296SOL    HW213788   1.954   1.555   2.461
 4297SOL     OW13789   5.212   0.001   0.525
 4297SOL    HW113790   5.130   0.003   0.582
 4297SOL    HW213791   5.293   0.001   0.584
 4298SOL     OW13792   1.774   4.611   1.767
 4298SOL    HW113793   1.682   4.596   1.803
 4298SOL    HW213794   1.770   4.676   1.691
 4299SOL     OW13795   1.128   5.694   5.114
 4299SOL    HW113796   1.114   5.760   5.040
 4299SOL    HW213797   1.059   5.622   5.109
 4300SOL     OW13798   5.588   0.572   5.446
 4300SOL    HW113799   5.677   0.612   5.466
 4300SOL    HW213800   5.529   0.642   5.406
 4301SOL     OW13801   3.093   0.758   0.808
 4301SOL    HW113802   3.150   0.819   0.754
 4301SOL    HW213803   3.150   0.688   0.852
 4302SOL     OW13804   0.835   0.143   6.830
 4302SOL    HW113805   0.881   0.229   6.811
 4302SOL    HW213806   0.736   0.155   6.820
 4303SOL     OW13807   0.728   4.143   2.082
 4303SOL    HW113808   0.734   4.116   1.986
 4303SOL    HW213809   0.634   4.133   2.114
 4304SOL     OW13810   2.844   3.715   5.659
 4304SOL    HW113811   2.908   3.638   5.658
 4304SOL    HW213812   2.806   3.727   5.752
 4305SOL     OW13813   0.552   1.477   4.952
 4305SOL    HW113814   0.529   1.385   4.921
 4305SOL    HW213815   0.546   1.540   4.874
 4306SOL     OW13816   6.384   5.574   5.755
 4306SOL    HW113817   6.481   5.574   5.780
 4306SOL    HW213818   6.333   5.629   5.821
 4307SOL     OW13819   6.148   3.990   1.087
 4307SOL    HW113820   6.229   3.951   1.131
 4307SOL    HW213821   6.152   3.972   0.989
 4308SOL     OW13822   3.063   0.168   5.359
 4308SOL    HW113823   3.125   0.132   5.289
 4308SOL    HW213824   2.969   0.164   5.326
 4309SOL     OW13825   1.018   0.424   1.411
 4309SOL    HW113826   1.060   0.333   1.419
 4309SOL    HW213827   0.961   0.442   1.491
 4310SOL     OW13828   1.494   6.901   2.810
 4310SOL    HW113829   1.538   6.856   2.887
 4310SOL    HW213830   1.494   7.000   2.824
 4311SOL     OW13831   1.120   4.838   4.897
 4311SOL    HW113832   1.030   4.814   4.861
 4311SOL    HW213833   1.109   4.904   4.971
 4312SOL     OW13834   1.243   5.425   2.737
 4312SOL    HW113835   1.155   5.465   2.764
 4312SOL    HW213836   1.297   5.406   2.819
 4313SOL     OW13837   5.263   1.141   1.144
 4313SOL    HW113838   5.302   1.154   1.235
 4313SOL    HW213839   5.220   1.051   1.139
 4314SOL     OW13840   6.638   3.151   1.487
 4314SOL    HW113841   6.547   3.192   1.483
 4314SOL    HW213842   6.651   3.107   1.577
 4315SOL     OW13843   1.450   0.813   2.242
 4315SOL    HW113844   1.449   0.865   2.327
 4315SOL    HW213845   1.473   0.718   2.261
 4316SOL     OW13846   0.198   1.111   2.273
 4316SOL    HW113847   0.283   1.094   2.324
 4316SOL    HW213848   0.147   1.184   2.318
 4317SOL     OW13849   4.259   0.807   3.469
 4317SOL    HW113850   4.270   0.825   3.567
 4317SOL    HW213851   4.271   0.709   3.451
 4318SOL     OW13852   0.011   2.235   4.899
 4318SOL    HW113853   6.932   2.231   4.902
 4318SOL    HW213854   0.048   2.201   4.986
 4319SOL     OW13855   4.005   3.102   6.296
 4319SOL    HW113856   3.928   3.079   6.356
 4319SOL    HW213857   4.023   3.026   6.234
 4320SOL     OW13858   6.919   6.285   3.432
 4320SOL    HW113859   6.994   6.311   3.371
 4320SOL    HW213860   6.953   6.223   3.503
 4321SOL     OW13861   0.353   0.643   4.400
 4321SOL    HW113862   0.353   0.548   4.430
 4321SOL    HW213863   0.271   0.689   4.434
 4322SOL     OW13864   6.573   0.975   0.621
 4322SOL    HW113865   6.509   1.026   0.679
 4322SOL    HW213866   6.667   0.997   0.647
 4323SOL     OW13867   0.093   2.126   4.005
 4323SOL    HW113868   0.011   2.162   3.962
 4323SOL    HW213869   0.137   2.060   3.943
 4324SOL     OW13870   5.655   2.389   5.868
 4324SOL    HW113871   5.557   2.379   5.881
 4324SOL    HW213872   5.701   2.302   5.889
 4325SOL     OW13873   1.777   2.541   6.429
 4325SOL    HW113874   1.808   2.635   6.441
 4325SOL    HW213875   1.857   2.480   6.421
 4326SOL     OW13876   6.857   2.571   5.507
 4326SOL    HW113877   6.865   2.633   5.430
 4326SOL    HW213878   6.944   2.566   5.555
 4327SOL     OW13879   4.837   0.791   3.308
 4327SOL    HW113880   4.828   0.758   3.214
 4327SOL    HW213881   4.871   0.885   3.307
 4328SOL     OW13882   6.358   4.998   0.772
 4328SOL    HW113883   6.330   4.935   0.700
 4328SOL    HW213884   6.317   4.970   0.859
 4329SOL     OW13885   5.129   1.872   6.198
 4329SOL    HW113886   5.133   1.779   6.162
 4329SOL    HW213887   5.055   1.880   6.265
 4330SOL     OW13888   0.884   0.814   6.101
 4330SOL    HW113889   0.838   0.732   6.066
 4330SOL    HW213890   0.959   0.787   6.162
 4331SOL     OW13891   5.420   2.855   6.307
 4331SOL    HW113892   5.444   2.900   6.394
 4331SOL    HW213893   5.493   2.791   6.282
 4332SOL     OW13894   6.284   4.672   2.095
 4332SOL    HW113895   6.247   4.663   2.002
 4332SOL    HW213896   6.276   4.584   2.142
 4333SOL     OW13897   6.425   1.661   5.006
 4333SOL    HW113898   6.492   1.730   4.977
 4333SOL    HW213899   6.411   1.596   4.931
 4334SOL     OW13900   4.072   6.914   2.079
 4334SOL    HW113901   4.032   6.874   2.161
 4334SOL    HW213902   4.171   6.896   2.078
 4335SOL     OW13903   3.742   4.366   6.282
 4335SOL    HW113904   3.781   4.457   6.272
 4335SOL    HW213905   3.661   4.357   6.223
 4336SOL     OW13906   1.184   0.478   5.966
 4336SOL    HW113907   1.224   0.569   5.978
 4336SOL    HW213908   1.130   0.455   6.047
 4337SOL     OW13909   1.118   5.489   6.092
 4337SOL    HW113910   1.140   5.392   6.086
 4337SOL    HW213911   1.135   5.521   6.185
 4338SOL     OW13912   5.440   6.845   2.964
 4338SOL    HW113913   5.503   6.866   2.889
 4338SOL    HW213914   5.434   6.746   2.975
 4339SOL     OW13915   6.635   0.759   0.417
 4339SOL    HW113916   6.631   0.665   0.449
 4339SOL    HW213917   6.622   0.821   0.494
 4340SOL     OW13918   4.814   3.497   1.796
 4340SOL    HW113919   4.828   3.469   1.890
 4340SOL    HW213920   4.784   3.419   1.741
 4341SOL     OW13921   1.238   3.406   0.645
 4341SOL    HW113922   1.257   3.326   0.588
 4341SOL    HW213923   1.158   3.389   0.703
 4342SOL     OW13924   0.180   2.672   2.604
 4342SOL    HW113925   0.113   2.598   2.595
 4342SOL    HW213926   0.179   2.728   2.521
 4343SOL     OW13927   3.172   3.040   1.482
 4343SOL    HW113928   3.119   3.019   1.400
 4343SOL    HW213929   3.230   2.962   1.506
 4344SOL     OW13930   2.426   3.193   1.729
 4344SOL    HW113931   2.524   3.173   1.730
 4344SOL    HW213932   2.409   3.281   1.774
 4345SOL     OW13933   2.950   0.893   6.076
 4345SOL    HW113934   3.011   0.827   6.119
 4345SOL    HW213935   2.962   0.890   5.977
 4346SOL     OW13936   0.178   3.933   1.411
 4346SOL    HW113937   0.230   3.921   1.327
 4346SOL    HW213938   0.081   3.942   1.390
 4347SOL     OW13939   5.139   6.104   2.471
 4347SOL    HW113940   5.211   6.165   2.436
 4347SOL    HW213941   5.050   6.141   2.446
 4348SOL     OW13942   1.303   3.553   0.333
 4348SOL    HW113943   1.281   3.646   0.366
 4348SOL    HW213944   1.268   3.486   0.398
 4349SOL     OW13945   6.201   1.293   1.043
 4349SOL    HW113946   6.228   1.304   1.139
 4349SOL    HW213947   6.177   1.197   1.027
 4350SOL     OW13948   3.251   0.486   3.165
 4350SOL    HW113949   3.295   0.568   3.202
 4350SOL    HW213950   3.156   0.507   3.143
 4351SOL     OW13951   3.598   6.940   0.511
 4351SOL    HW113952   3.676   7.001   0.526
 4351SOL    HW213953   3.554   6.920   0.599
 4352SOL     OW13954   6.266   1.725   1.543
 4352SOL    HW113955   6.335   1.797   1.544
 4352SOL    HW213956   6.186   1.756   1.492
 4353SOL     OW13957   3.041   5.630   0.774
 4353SOL    HW113958   3.102   5.554   0.793
 4353SOL    HW213959   2.946   5.598   0.774
 4354SOL     OW13960   2.792   1.042   1.515
 4354SOL    HW113961   2.790   1.036   1.615
 4354SOL    HW213962   2.700   1.029   1.478
 4355SOL     OW13963   4.648   0.113   6.963
 4355SOL    HW113964   4.667   0.058   0.025
 4355SOL    HW213965   4.549   0.116   6.947
 4356SOL     OW13966   3.448   3.792   1.118
 4356SOL    HW113967   3.517   3.732   1.158
 4356SOL    HW213968   3.492   3.869   1.072
 4357SOL     OW13969   5.713   6.980   0.770
 4357SOL    HW113970   5.779   6.918   0.812
 4357SOL    HW213971   5.758   0.018   0.704
 4358SOL     OW13972   6.692   0.534   1.043
 4358SOL    HW113973   6.788   0.533   1.015
 4358SOL    HW213974   6.633   0.535   0.962
 4359SOL     OW13975   6.914   3.955   4.480
 4359SOL    HW113976   6.862   4.020   4.536
 4359SOL    HW213977   6.896   3.973   4.383
 4360SOL     OW13978   2.536   3.338   1.057
 4360SOL    HW113979   2.563   3.310   1.149
 4360SOL    HW213980   2.612   3.323   0.994
 4361SOL     OW13981   5.145   1.701   2.236
 4361SOL    HW113982   5.089   1.782   2.219
 4361SOL    HW213983   5.195   1.713   2.322
 4362SOL     OW13984   4.749   4.169   2.429
 4362SOL    HW113985   4.703   4.205   2.510
 4362SOL    HW213986   4.840   4.208   2.421
 4363SOL     OW13987   4.863   0.622   6.635
 4363SOL    HW113988   4.942   0.562   6.627
 4363SOL    HW213989   4.780   0.567   6.640
 4364SOL     OW13990   4.409   3.679   5.479
 4364SOL    HW113991   4.374   3.595   5.437
 4364SOL    HW213992   4.369   3.758   5.433
 4365SOL     OW13993   5.280   2.437   6.947
 4365SOL    HW113994   5.234   2.348   6.952
 4365SOL    HW213995   5.251   2.486   6.866
 4366SOL     OW13996   4.988   5.195   0.883
 4366SOL    HW113997   5.016   5.108   0.842
 4366SOL    HW213998   4.904   5.182   0.934
 4367SOL     OW13999   6.189   6.309   0.968
 4367SOL    HW114000   6.154   6.392   0.924
 4367SOL    HW214001   6.113   6.258   1.009
 4368SOL     OW14002   4.526   5.732   2.219
 4368SOL    HW114003   4.541   5.697   2.312
 4368SOL    HW214004   4.439   5.697   2.184
 4369SOL     OW14005   3.217   5.469   1.534
 4369SOL    HW114006   3.177   5.468   1.443
 4369SOL    HW214007   3.238   5.375   1.563
 4370SOL     OW14008   5.570   4.253   1.625
 4370SOL    HW114009   5.527   4.286   1.541
 4370SOL    HW214010   5.666   4.280   1.626
 4371SOL     OW14011   1.030   1.848   2.169
 4371SOL    HW114012   0.982   1.826   2.084
 4371SOL    HW214013   0.970   1.829   2.246
 4372SOL     OW14014   4.922   0.098   4.081
 4372SOL    HW114015   4.972   0.016   4.109
 4372SOL    HW214016   4.986   0.172   4.062
 4373SOL     OW14017   0.528   1.849   5.382
 4373SOL    HW114018   0.481   1.815   5.300
 4373SOL    HW214019   0.472   1.831   5.463
 4374SOL     OW14020   3.818   1.524   0.314
 4374SOL    HW114021   3.849   1.454   0.250
 4374SOL    HW214022   3.821   1.488   0.407
 4375SOL     OW14023   3.384   5.564   4.273
 4375SOL    HW114024   3.434   5.623   4.336
 4375SOL    HW214025   3.328   5.499   4.324
 4376SOL     OW14026   0.275   2.899   2.990
 4376SOL    HW114027   0.230   2.812   2.967
 4376SOL    HW214028   0.246   2.969   2.926
 4377SOL     OW14029   0.194   4.417   6.172
 4377SOL    HW114030   0.283   4.371   6.176
 4377SOL    HW214031   0.125   4.352   6.138
 4378SOL     OW14032   2.951   1.933   4.489
 4378SOL    HW114033   2.891   1.915   4.567
 4378SOL    HW214034   3.006   2.015   4.507
 4379SOL     OW14035   3.597   1.636   6.314
 4379SOL    HW114036   3.563   1.693   6.240
 4379SOL    HW214037   3.678   1.678   6.355
 4380SOL     OW14038   0.084   2.242   2.986
 4380SOL    HW114039   0.058   2.211   2.894
 4380SOL    HW214040   0.184   2.239   2.995
 4381SOL     OW14041   1.028   4.809   6.730
 4381SOL    HW114042   1.014   4.908   6.725
 4381SOL    HW214043   1.124   4.788   6.710
 4382SOL     OW14044   1.364   4.683   4.476
 4382SOL    HW114045   1.425   4.608   4.451
 4382SOL    HW214046   1.379   4.707   4.572
 4383SOL     OW14047   0.534   4.470   0.350
 4383SOL    HW114048   0.602   4.490   0.420
 4383SOL    HW214049   0.450   4.521   0.368
 4384SOL     OW14050   4.923   6.501   4.000
 4384SOL    HW114051   4.894   6.416   4.042
 4384SOL    HW214052   4.851   6.570   4.010
 4385SOL     OW14053   4.514   0.472   5.948
 4385SOL    HW114054   4.583   0.405   5.977
 4385SOL    HW214055   4.518   0.484   5.849
 4386SOL     OW14056   2.112   3.533   4.355
 4386SOL    HW114057   2.034   3.487   4.397
 4386SOL    HW214058   2.125   3.623   4.397
 4387SOL     OW14059   4.858   2.030   0.932
 4387SOL    HW114060   4.870   1.931   0.921
 4387SOL    HW214061   4.810   2.066   0.853
 4388SOL     OW14062   6.171   3.428   0.334
 4388SOL    HW114063   6.086   3.399   0.290
 4388SOL    HW214064   6.211   3.350   0.382
 4389SOL     OW14065   2.218   1.484   6.534
 4389SOL    HW114066   2.298   1.429   6.553
 4389SOL    HW214067   2.237   1.546   6.457
 4390SOL     OW14068   6.874   1.190   1.167
 4390SOL    HW114069   6.775   1.185   1.180
 4390SOL    HW214070   6.916   1.107   1.202
 4391SOL     OW14071   0.151   6.249   1.404
 4391SOL    HW114072   0.147   6.159   1.449
 4391SOL    HW214073   0.068   6.262   1.350
 4392SOL     OW14074   1.523   2.984   6.166
 4392SOL    HW114075   1.471   2.935   6.096
 4392SOL    HW214076   1.586   3.048   6.123
 4393SOL     OW14077   6.442   0.559   2.038
 4393SOL    HW114078   6.492   0.626   2.093
 4393SOL    HW214079   6.429   0.476   2.092
 4394SOL     OW14080   0.081   1.186   2.625
 4394SOL    HW114081   0.089   1.247   2.546
 4394SOL    HW214082   7.006   1.156   2.634
 4395SOL     OW14083   1.444   3.731   1.561
 4395SOL    HW114084   1.491   3.659   1.611
 4395SOL    HW214085   1.508   3.776   1.499
 4396SOL     OW14086   2.529   2.013   2.372
 4396SOL    HW114087   2.583   1.929   2.364
 4396SOL    HW214088   2.464   2.018   2.296
 4397SOL     OW14089   3.471   0.486   4.626
 4397SOL    HW114090   3.403   0.448   4.689
 4397SOL    HW214091   3.513   0.567   4.668
 4398SOL     OW14092   1.764   3.148   6.096
 4398SOL    HW114093   1.771   3.128   6.194
 4398SOL    HW214094   1.805   3.237   6.078
 4399SOL     OW14095   2.875   5.801   1.520
 4399SOL    HW114096   2.838   5.710   1.538
 4399SOL    HW214097   2.812   5.853   1.463
 4400SOL     OW14098   1.315   6.256   5.456
 4400SOL    HW114099   1.379   6.289   5.526
 4400SOL    HW214100   1.314   6.321   5.379
 4401SOL     OW14101   3.093   0.111   6.598
 4401SOL    HW114102   3.148   0.044   6.648
 4401SOL    HW214103   3.045   0.170   6.663
 4402SOL     OW14104   0.943   0.330   2.660
 4402SOL    HW114105   1.028   0.332   2.608
 4402SOL    HW214106   0.938   0.245   2.712
 4403SOL     OW14107   6.554   6.120   3.096
 4403SOL    HW114108   6.594   6.070   3.173
 4403SOL    HW214109   6.620   6.187   3.062
 4404SOL     OW14110   0.852   6.567   5.126
 4404SOL    HW114111   0.805   6.652   5.102
 4404SOL    HW214112   0.935   6.589   5.178
 4405SOL     OW14113   0.848   5.285   2.846
 4405SOL    HW114114   0.906   5.239   2.779
 4405SOL    HW214115   0.818   5.220   2.915
 4406SOL     OW14116   6.223   4.241   2.651
 4406SOL    HW114117   6.143   4.244   2.590
 4406SOL    HW214118   6.298   4.292   2.609
 4407SOL     OW14119   5.187   0.198   1.556
 4407SOL    HW114120   5.235   0.283   1.576
 4407SOL    HW214121   5.214   0.165   1.465
 4408SOL     OW14122   4.901   0.615   0.717
 4408SOL    HW114123   4.878   0.542   0.781
 4408SOL    HW214124   4.852   0.699   0.744
 4409SOL     OW14125   4.068   0.731   3.764
 4409SOL    HW114126   4.133   0.663   3.728
 4409SOL    HW214127   3.993   0.743   3.699
 4410SOL     OW14128   1.684   0.361   1.068
 4410SOL    HW114129   1.608   0.375   1.130
 4410SOL    HW214130   1.667   0.279   1.012
 4411SOL     OW14131   4.638   4.482   4.427
 4411SOL    HW114132   4.564   4.468   4.362
 4411SOL    HW214133   4.654   4.397   4.478
 4412SOL     OW14134   4.930   6.514   1.080
 4412SOL    HW114135   4.902   6.552   1.168
 4412SOL    HW214136   4.886   6.425   1.067
 4413SOL     OW14137   5.405   6.270   4.446
 4413SOL    HW114138   5.376   6.263   4.542
 4413SOL    HW214139   5.406   6.366   4.419
 4414SOL     OW14140   5.936   4.003   1.550
 4414SOL    HW114141   5.839   3.998   1.577
 4414SOL    HW214142   5.944   4.057   1.466
 4415SOL     OW14143   1.465   4.370   1.681
 4415SOL    HW114144   1.456   4.465   1.653
 4415SOL    HW214145   1.491   4.314   1.603
 4416SOL     OW14146   4.714   2.799   4.351
 4416SOL    HW114147   4.768   2.880   4.372
 4416SOL    HW214148   4.730   2.773   4.255
 4417SOL     OW14149   0.134   4.318   1.803
 4417SOL    HW114150   0.156   4.223   1.826
 4417SOL    HW214151   0.038   4.325   1.779
 4418SOL     OW14152   6.521   2.214   5.394
 4418SOL    HW114153   6.555   2.171   5.477
 4418SOL    HW214154   6.535   2.313   5.400
 4419SOL     OW14155   6.452   6.588   6.736
 4419SOL    HW114156   6.486   6.588   6.642
 4419SOL    HW214157   6.402   6.503   6.754
 4420SOL     OW14158   3.225   1.000   0.710
 4420SOL    HW114159   3.212   1.023   0.806
 4420SOL    HW214160   3.297   0.931   0.702
 4421SOL     OW14161   2.764   2.670   0.268
 4421SOL    HW114162   2.691   2.626   0.321
 4421SOL    HW214163   2.757   2.769   0.278
 4422SOL     OW14164   1.116   3.165   6.660
 4422SOL    HW114165   1.019   3.162   6.682
 4422SOL    HW214166   1.168   3.114   6.729
 4423SOL     OW14167   5.686   4.999   4.456
 4423SOL    HW114168   5.700   5.002   4.555
 4423SOL    HW214169   5.631   4.919   4.432
 4424SOL     OW14170   4.068   5.452   2.413
 4424SOL    HW114171   4.038   5.517   2.483
 4424SOL    HW214172   3.994   5.390   2.391
 4425SOL     OW14173   0.704   5.886   0.995
 4425SOL    HW114174   0.728   5.863   1.089
 4425SOL    HW214175   0.605   5.879   0.983
 4426SOL     OW14176   0.809   0.660   4.066
 4426SOL    HW114177   0.749   0.740   4.073
 4426SOL    HW214178   0.836   0.631   4.158
 4427SOL     OW14179   3.429   6.303   1.099
 4427SOL    HW114180   3.407   6.206   1.096
 4427SOL    HW214181   3.349   6.355   1.128
 4428SOL     OW14182   6.391   6.272   3.257
 4428SOL    HW114183   6.372   6.221   3.340
 4428SOL    HW214184   6.467   6.231   3.208
 4429SOL     OW14185   2.368   6.080   2.814
 4429SOL    HW114186   2.297   6.151   2.822
 4429SOL    HW214187   2.332   6.003   2.763
 4430SOL     OW14188   5.694   4.101   4.512
 4430SOL    HW114189   5.783   4.082   4.554
 4430SOL    HW214190   5.659   4.019   4.468
 4431SOL     OW14191   4.284   0.071   4.988
 4431SOL    HW114192   4.272   0.073   4.888
 4431SOL    HW214193   4.381   0.056   5.008
 4432SOL     OW14194   1.881   3.381   6.281
 4432SOL    HW114195   1.872   3.410   6.186
 4432SOL    HW214196   1.918   3.456   6.335
 4433SOL     OW14197   0.810   0.280   4.924
 4433SOL    HW114198   0.756   0.325   4.853
 4433SOL    HW214199   0.907   0.281   4.898
 4434SOL     OW14200   6.426   0.772   2.725
 4434SOL    HW114201   6.412   0.695   2.787
 4434SOL    HW214202   6.345   0.831   2.725
 4435SOL     OW14203   1.893   4.437   1.939
 4435SOL    HW114204   1.855   4.514   1.887
 4435SOL    HW214205   1.981   4.463   1.978
 4436SOL     OW14206   5.008   2.269   1.660
 4436SOL    HW114207   5.010   2.231   1.752
 4436SOL    HW214208   4.917   2.305   1.641
 4437SOL     OW14209   6.735   5.501   6.799
 4437SOL    HW114210   6.778   5.582   6.838
 4437SOL    HW214211   6.642   5.492   6.834
 4438SOL     OW14212   3.659   1.772   4.867
 4438SOL    HW114213   3.611   1.689   4.838
 4438SOL    HW214214   3.685   1.826   4.787
 4439SOL     OW14215   2.748   5.190   1.664
 4439SOL    HW114216   2.709   5.274   1.702
 4439SOL    HW214217   2.839   5.175   1.701
 4440SOL     OW14218   2.091   5.451   5.701
 4440SOL    HW114219   2.157   5.520   5.730
 4440SOL    HW214220   2.010   5.455   5.759
 4441SOL     OW14221   6.436   1.156   0.828
 4441SOL    HW114222   6.403   1.246   0.799
 4441SOL    HW214223   6.430   1.149   0.928
 4442SOL     OW14224   1.697   4.818   1.041
 4442SOL    HW114225   1.614   4.806   0.986
 4442SOL    HW214226   1.700   4.912   1.075
 4443SOL     OW14227   1.220   6.043   5.071
 4443SOL    HW114228   1.297   6.041   5.007
 4443SOL    HW214229   1.139   6.007   5.025
 4444SOL     OW14230   4.680   6.503   6.916
 4444SOL    HW114231   4.694   6.457   6.829
 4444SOL    HW214232   4.586   6.489   6.947
 4445SOL     OW14233   2.382   3.460   0.563
 4445SOL    HW114234   2.319   3.501   0.496
 4445SOL    HW214235   2.369   3.505   0.651
 4446SOL     OW14236   5.730   2.295   1.282
 4446SOL    HW114237   5.652   2.354   1.301
 4446SOL    HW214238   5.700   2.200   1.277
 4447SOL     OW14239   4.841   5.691   5.638
 4447SOL    HW114240   4.899   5.744   5.576
 4447SOL    HW214241   4.747   5.726   5.633
 4448SOL     OW14242   3.155   6.320   2.292
 4448SOL    HW114243   3.146   6.407   2.244
 4448SOL    HW214244   3.119   6.247   2.234
 4449SOL     OW14245   3.849   1.998   5.346
 4449SOL    HW114246   3.867   2.075   5.286
 4449SOL    HW214247   3.824   1.918   5.292
 4450SOL     OW14248   2.609   6.028   0.801
 4450SOL    HW114249   2.676   6.025   0.727
 4450SOL    HW214250   2.568   5.937   0.813
 4451SOL     OW14251   5.176   6.167   3.262
 4451SOL    HW114252   5.268   6.195   3.290
 4451SOL    HW214253   5.178   6.073   3.228
 4452SOL     OW14254   5.129   4.721   3.439
 4452SOL    HW114255   5.131   4.792   3.509
 4452SOL    HW214256   5.097   4.635   3.479
 4453SOL     OW14257   0.544   5.648   1.329
 4453SOL    HW114258   0.554   5.615   1.235
 4453SOL    HW214259   0.511   5.742   1.327
 4454SOL     OW14260   0.125   1.024   0.141
 4454SOL    HW114261   0.139   1.011   0.239
 4454SOL    HW214262   0.026   1.028   0.122
 4455SOL     OW14263   0.852   0.464   3.558
 4455SOL    HW114264   0.830   0.438   3.652
 4455SOL    HW214265   0.900   0.552   3.559
 4456SOL     OW14266   1.759   5.726   4.097
 4456SOL    HW114267   1.755   5.826   4.102
 4456SOL    HW214268   1.676   5.691   4.053
 4457SOL     OW14269   1.121   2.120   4.815
 4457SOL    HW114270   1.036   2.129   4.867
 4457SOL    HW214271   1.109   2.055   4.740
 4458SOL     OW14272   2.382   2.420   5.567
 4458SOL    HW114273   2.463   2.363   5.586
 4458SOL    HW214274   2.301   2.362   5.567
 4459SOL     OW14275   1.346   4.295   3.301
 4459SOL    HW114276   1.444   4.308   3.281
 4459SOL    HW214277   1.310   4.378   3.343
 4460SOL     OW14278   0.149   3.014   5.247
 4460SOL    HW114279   0.073   3.030   5.184
 4460SOL    HW214280   0.124   3.047   5.338
 4461SOL     OW14281   2.432   0.122   0.592
 4461SOL    HW114282   2.377   0.202   0.619
 4461SOL    HW214283   2.371   0.049   0.561
 4462SOL     OW14284   0.350   4.480   2.384
 4462SOL    HW114285   0.414   4.404   2.389
 4462SOL    HW214286   0.391   4.563   2.423
 4463SOL     OW14287   6.118   1.841   0.145
 4463SOL    HW114288   6.026   1.854   0.182
 4463SOL    HW214289   6.132   1.745   0.121
 4464SOL     OW14290   0.595   3.500   1.168
 4464SOL    HW114291   0.522   3.433   1.160
 4464SOL    HW214292   0.652   3.478   1.248
 4465SOL     OW14293   4.428   4.825   1.178
 4465SOL    HW114294   4.373   4.898   1.220
 4465SOL    HW214295   4.399   4.812   1.083
 4466SOL     OW14296   1.124   2.936   2.750
 4466SOL    HW114297   1.091   3.004   2.815
 4466SOL    HW214298   1.183   2.981   2.683
 4467SOL     OW14299   5.379   4.809   1.806
 4467SOL    HW114300   5.435   4.758   1.742
 4467SOL    HW214301   5.437   4.866   1.864
 4468SOL     OW14302   2.215   3.583   0.379
 4468SOL    HW114303   2.180   3.677   0.375
 4468SOL    HW214304   2.274   3.566   0.300
 4469SOL     OW14305   1.408   5.815   2.162
 4469SOL    HW114306   1.405   5.865   2.249
 4469SOL    HW214307   1.448   5.874   2.091
 4470SOL     OW14308   0.816   0.060   3.240
 4470SOL    HW114309   0.739   0.106   3.196
 4470SOL    HW214310   0.844   0.112   3.320
 4471SOL     OW14311   1.289   1.058   6.685
 4471SOL    HW114312   1.214   1.117   6.716
 4471SOL    HW214313   1.263   1.013   6.599
 4472SOL     OW14314   2.343   3.179   0.983
 4472SOL    HW114315   2.269   3.203   0.920
 4472SOL    HW214316   2.372   3.261   1.032
 4473SOL     OW14317   0.599   2.987   5.286
 4473SOL    HW114318   0.687   2.993   5.239
 4473SOL    HW214319   0.613   2.953   5.379
 4474SOL     OW14320   2.123   6.706   1.249
 4474SOL    HW114321   2.084   6.768   1.181
 4474SOL    HW214322   2.086   6.727   1.339
 4475SOL     OW14323   0.982   3.248   0.680
 4475SOL    HW114324   0.977   3.156   0.641
 4475SOL    HW214325   0.979   3.316   0.606
 4476SOL     OW14326   4.884   1.068   3.632
 4476SOL    HW114327   4.869   0.970   3.625
 4476SOL    HW214328   4.924   1.089   3.721
 4477SOL     OW14329   6.854   1.320   4.526
 4477SOL    HW114330   6.948   1.292   4.544
 4477SOL    HW214331   6.824   1.383   4.598
 4478SOL     OW14332   1.175   0.338   2.513
 4478SOL    HW114333   1.196   0.393   2.432
 4478SOL    HW214334   1.104   0.271   2.490
 4479SOL     OW14335   2.630   3.328   0.133
 4479SOL    HW114336   2.567   3.379   0.075
 4479SOL    HW214337   2.648   3.379   0.217
 4480SOL     OW14338   6.695   0.426   3.161
 4480SOL    HW114339   6.760   0.352   3.176
 4480SOL    HW214340   6.653   0.416   3.071
 4481SOL     OW14341   2.153   3.880   6.094
 4481SOL    HW114342   2.060   3.903   6.123
 4481SOL    HW214343   2.167   3.913   6.000
 4482SOL     OW14344   2.737   6.878   1.242
 4482SOL    HW114345   2.806   6.866   1.314
 4482SOL    HW214346   2.713   6.790   1.203
 4483SOL     OW14347   1.155   2.877   0.782
 4483SOL    HW114348   1.239   2.928   0.797
 4483SOL    HW214349   1.078   2.928   0.820
 4484SOL     OW14350   4.641   0.219   1.143
 4484SOL    HW114351   4.614   0.309   1.110
 4484SOL    HW214352   4.597   0.201   1.231
 4485SOL     OW14353   0.102   2.552   5.475
 4485SOL    HW114354   0.163   2.507   5.540
 4485SOL    HW214355   0.135   2.645   5.458
 4486SOL     OW14356   5.373   4.801   3.619
 4486SOL    HW114357   5.394   4.885   3.568
 4486SOL    HW214358   5.326   4.824   3.704
 4487SOL     OW14359   0.385   2.974   6.590
 4487SOL    HW114360   0.419   2.965   6.684
 4487SOL    HW214361   0.321   3.051   6.586
 4488SOL     OW14362   5.611   4.767   3.429
 4488SOL    HW114363   5.530   4.757   3.486
 4488SOL    HW214364   5.690   4.790   3.487
 4489SOL     OW14365   3.298   6.282   5.801
 4489SOL    HW114366   3.240   6.209   5.838
 4489SOL    HW214367   3.358   6.318   5.873
 4490SOL     OW14368   5.294   1.592   1.941
 4490SOL    HW114369   5.315   1.667   2.003
 4490SOL    HW214370   5.197   1.596   1.914
 4491SOL     OW14371   0.346   4.159   3.252
 4491SOL    HW114372   0.295   4.075   3.270
 4491SOL    HW214373   0.426   4.139   3.196
 4492SOL     OW14374   6.689   0.978   1.929
 4492SOL    HW114375   6.782   1.012   1.915
 4492SOL    HW214376   6.673   0.965   2.027
 4493SOL     OW14377   5.187   1.432   5.920
 4493SOL    HW114378   5.207   1.412   5.823
 4493SOL    HW214379   5.219   1.356   5.976
 4494SOL     OW14380   1.375   1.506   2.329
 4494SOL    HW114381   1.360   1.427   2.388
 4494SOL    HW214382   1.382   1.589   2.385
 4495SOL     OW14383   3.971   6.202   1.532
 4495SOL    HW114384   3.982   6.186   1.630
 4495SOL    HW214385   3.878   6.236   1.514
 4496SOL     OW14386   2.316   5.127   5.500
 4496SOL    HW114387   2.230   5.132   5.552
 4496SOL    HW214388   2.341   5.218   5.467
 4497SOL     OW14389   5.321   6.358   4.976
 4497SOL    HW114390   5.236   6.335   5.024
 4497SOL    HW214391   5.385   6.401   5.040
 4498SOL     OW14392   1.651   4.900   3.820
 4498SOL    HW114393   1.629   4.842   3.898
 4498SOL    HW214394   1.634   4.996   3.844
 4499SOL     OW14395   5.150   1.251   2.103
 4499SOL    HW114396   5.180   1.331   2.155
 4499SOL    HW214397   5.228   1.213   2.053
 4500SOL     OW14398   3.196   6.255   0.347
 4500SOL    HW114399   3.273   6.241   0.409
 4500SOL    HW214400   3.113   6.270   0.400
 4501SOL     OW14401   5.254   0.713   3.263
 4501SOL    HW114402   5.224   0.692   3.356
 4501SOL    HW214403   5.248   0.812   3.248
 4502SOL     OW14404   0.943   3.950   7.005
 4502SOL    HW114405   0.956   4.043   0.019
 4502SOL    HW214406   0.865   3.908   0.031
 4503SOL     OW14407   3.376   1.569   3.095
 4503SOL    HW114408   3.471   1.539   3.109
 4503SOL    HW214409   3.357   1.647   3.154
 4504SOL     OW14410   0.952   2.915   3.557
 4504SOL    HW114411   1.013   2.994   3.558
 4504SOL    HW214412   0.991   2.845   3.497
 4505SOL     OW14413   6.320   3.756   3.523
 4505SOL    HW114414   6.318   3.758   3.623
 4505SOL    HW214415   6.302   3.847   3.487
 4506SOL     OW14416   4.237   3.904   6.837
 4506SOL    HW114417   4.214   3.984   6.780
 4506SOL    HW214418   4.322   3.863   6.803
 4507SOL     OW14419   5.692   2.368   2.855
 4507SOL    HW114420   5.663   2.284   2.808
 4507SOL    HW214421   5.767   2.411   2.805
 4508SOL     OW14422   6.663   4.177   0.680
 4508SOL    HW114423   6.576   4.225   0.672
 4508SOL    HW214424   6.692   4.175   0.776
 4509SOL     OW14425   4.673   1.555   2.762
 4509SOL    HW114426   4.615   1.477   2.782
 4509SOL    HW214427   4.695   1.556   2.664
 4510SOL     OW14428   5.007   1.619   3.637
 4510SOL    HW114429   4.951   1.536   3.626
 4510SOL    HW214430   5.084   1.616   3.573
 4511SOL     OW14431   1.240   4.037   6.750
 4511SOL    HW114432   1.179   4.004   6.822
 4511SOL    HW214433   1.331   4.051   6.787
 4512SOL     OW14434   2.626   3.708   6.259
 4512SOL    HW114435   2.589   3.688   6.168
 4512SOL    HW214436   2.721   3.735   6.250
 4513SOL     OW14437   0.403   1.762   1.135
 4513SOL    HW114438   0.389   1.778   1.233
 4513SOL    HW214439   0.486   1.708   1.122
 4514SOL     OW14440   4.006   5.259   6.734
 4514SOL    HW114441   4.102   5.272   6.708
 4514SOL    HW214442   3.999   5.182   6.798
 4515SOL     OW14443   4.541   0.002   6.061
 4515SOL    HW114444   4.603   0.076   6.088
 4515SOL    HW214445   4.506   0.020   5.968
 4516SOL     OW14446   3.318   1.607   5.189
 4516SOL    HW114447   3.291   1.644   5.100
 4516SOL    HW214448   3.346   1.682   5.249
 4517SOL     OW14449   3.471   0.052   4.320
 4517SOL    HW114450   3.472   0.137   4.372
 4517SOL    HW214451   3.560   0.037   4.277
 4518SOL     OW14452   6.581   6.447   0.799
 4518SOL    HW114453   6.509   6.477   0.736
 4518SOL    HW214454   6.540   6.388   0.869
 4519SOL     OW14455   5.154   6.515   6.549
 4519SOL    HW114456   5.224   6.553   6.609
 4519SOL    HW214457   5.095   6.589   6.516
 4520SOL     OW14458   4.812   5.205   4.890
 4520SOL    HW114459   4.826   5.107   4.876
 4520SOL    HW214460   4.854   5.256   4.815
 4521SOL     OW14461   4.659   2.684   3.630
 4521SOL    HW114462   4.686   2.590   3.609
 4521SOL    HW214463   4.638   2.692   3.727
 4522SOL     OW14464   5.297   4.305   3.864
 4522SOL    HW114465   5.353   4.310   3.947
 4522SOL    HW214466   5.321   4.381   3.804
 4523SOL     OW14467   1.063   2.837   7.011
 4523SOL    HW114468   1.018   2.766   0.045
 4523SOL    HW214469   1.159   2.843   0.017
 4524SOL     OW14470   1.907   3.535   1.809
 4524SOL    HW114471   1.825   3.506   1.858
 4524SOL    HW214472   1.885   3.614   1.752
 4525SOL     OW14473   3.222   1.814   6.182
 4525SOL    HW114474   3.233   1.819   6.281
 4525SOL    HW214475   3.219   1.906   6.144
 4526SOL     OW14476   0.888   0.153   5.595
 4526SOL    HW114477   0.896   0.069   5.541
 4526SOL    HW214478   0.908   0.232   5.537
 4527SOL     OW14479   1.116   2.676   2.706
 4527SOL    HW114480   1.205   2.646   2.669
 4527SOL    HW214481   1.115   2.776   2.714
 4528SOL     OW14482   5.164   1.949   4.403
 4528SOL    HW114483   5.244   1.991   4.445
 4528SOL    HW214484   5.103   1.914   4.473
 4529SOL     OW14485   1.341   2.714   3.672
 4529SOL    HW114486   1.397   2.654   3.615
 4529SOL    HW214487   1.283   2.658   3.731
 4530SOL     OW14488   4.038   4.518   6.360
 4530SOL    HW114489   4.060   4.540   6.455
 4530SOL    HW214490   4.026   4.602   6.308
 4531SOL     OW14491   1.431   6.671   5.330
 4531SOL    HW114492   1.351   6.709   5.378
 4531SOL    HW214493   1.480   6.610   5.392
 4532SOL     OW14494   6.000   0.668   2.086
 4532SOL    HW114495   5.962   0.602   2.150
 4532SOL    HW214496   6.080   0.713   2.127
 4533SOL     OW14497   2.976   5.789   1.200
 4533SOL    HW114498   3.057   5.778   1.257
 4533SOL    HW214499   2.936   5.699   1.182
 4534SOL     OW14500   5.869   1.458   4.854
 4534SOL    HW114501   5.935   1.384   4.840
 4534SOL    HW214502   5.897   1.538   4.801
 4535SOL     OW14503   1.885   6.892   0.279
 4535SOL    HW114504   1.851   6.871   0.187
 4535SOL    HW214505   1.939   6.815   0.313
 4536SOL     OW14506   3.643   0.643   5.574
 4536SOL    HW114507   3.718   0.595   5.619
 4536SOL    HW214508   3.588   0.578   5.522
 4537SOL     OW14509   3.264   3.671   3.305
 4537SOL    HW114510   3.209   3.590   3.326
 4537SOL    HW214511   3.305   3.661   3.215
 4538SOL     OW14512   1.506   2.274   0.290
 4538SOL    HW114513   1.415   2.244   0.261
 4538SOL    HW214514   1.504   2.298   0.387
 4539SOL     OW14515   0.973   4.978   5.542
 4539SOL    HW114516   1.022   5.065   5.551
 4539SOL    HW214517   0.946   4.946   5.633
 4540SOL     OW14518   1.767   1.386   0.336
 4540SOL    HW114519   1.742   1.363   0.242
 4540SOL    HW214520   1.812   1.475   0.338
 4541SOL     OW14521   4.337   2.810   0.060
 4541SOL    HW114522   4.265   2.879   0.048
 4541SOL    HW214523   4.380   2.821   0.149
 4542SOL     OW14524   0.153   2.048   0.738
 4542SOL    HW114525   0.102   2.131   0.714
 4542SOL    HW214526   0.143   1.981   0.665
 4543SOL     OW14527   4.416   1.122   1.025
 4543SOL    HW114528   4.463   1.203   1.061
 4543SOL    HW214529   4.396   1.135   0.928
 4544SOL     OW14530   4.980   6.191   0.111
 4544SOL    HW114531   4.950   6.285   0.126
 4544SOL    HW214532   4.915   6.128   0.153
 4545SOL     OW14533   2.767   3.284   5.751
 4545SOL    HW114534   2.726   3.230   5.677
 4545SOL    HW214535   2.816   3.362   5.711
 4546SOL     OW14536   5.172   6.552   5.528
 4546SOL    HW114537   5.257   6.506   5.501
 4546SOL    HW214538   5.111   6.486   5.571
 4547SOL     OW14539   0.111   0.261   0.961
 4547SOL    HW114540   0.184   0.267   0.893
 4547SOL    HW214541   0.107   0.167   0.997
 4548SOL     OW14542   3.428   0.906   1.942
 4548SOL    HW114543   3.402   0.917   2.038
 4548SOL    HW214544   3.360   0.850   1.895
 4549SOL     OW14545   6.788   5.106   3.659
 4549SOL    HW114546   6.808   5.008   3.668
 4549SOL    HW214547   6.743   5.123   3.572
 4550SOL     OW14548   2.252   5.688   6.734
 4550SOL    HW114549   2.286   5.680   6.828
 4550SOL    HW214550   2.325   5.667   6.669
 4551SOL     OW14551   3.556   2.883   6.150
 4551SOL    HW114552   3.462   2.863   6.125
 4551SOL    HW214553   3.561   2.973   6.194
 4552SOL     OW14554   5.516   0.242   6.399
 4552SOL    HW114555   5.558   0.173   6.340
 4552SOL    HW214556   5.501   0.326   6.347
 4553SOL     OW14557   0.026   6.959   0.813
 4553SOL    HW114558   0.069   6.981   0.900
 4553SOL    HW214559   6.947   6.951   0.826
 4554SOL     OW14560   5.767   6.130   3.119
 4554SOL    HW114561   5.719   6.042   3.126
 4554SOL    HW214562   5.849   6.118   3.063
 4555SOL     OW14563   0.597   0.265   3.258
 4555SOL    HW114564   0.647   0.303   3.336
 4555SOL    HW214565   0.603   0.327   3.180
 4556SOL     OW14566   5.130   4.786   4.656
 4556SOL    HW114567   5.108   4.826   4.745
 4556SOL    HW214568   5.154   4.690   4.667
 4557SOL     OW14569   0.172   5.719   5.192
 4557SOL    HW114570   0.236   5.769   5.133
 4557SOL    HW214571   0.221   5.644   5.238
 4558SOL     OW14572   0.834   4.540   3.762
 4558SOL    HW114573   0.924   4.552   3.805
 4558SOL    HW214574   0.833   4.456   3.709
 4559SOL     OW14575   0.081   3.296   4.514
 4559SOL    HW114576   0.168   3.326   4.475
 4559SOL    HW214577   0.085   3.198   4.533
 4560SOL     OW14578   6.504   3.267   4.416
 4560SOL    HW114579   6.468   3.335   4.480
 4560SOL    HW214580   6.536   3.312   4.333
 4561SOL     OW14581   5.592   3.373   4.598
 4561SOL    HW114582   5.589   3.459   4.649
 4561SOL    HW214583   5.686   3.350   4.577
 4562SOL     OW14584   4.795   1.011   0.994
 4562SOL    HW114585   4.806   1.101   0.951
 4562SOL    HW214586   4.878   0.987   1.044
 4563SOL     OW14587   0.916   3.439   2.426
 4563SOL    HW114588   0.956   3.530   2.415
 4563SOL    HW214589   0.974   3.371   2.380
 4564SOL     OW14590   2.082   3.617   2.157
 4564SOL    HW114591   2.141   3.569   2.093
 4564SOL    HW214592   2.126   3.702   2.186
 4565SOL     OW14593   1.988   6.088   5.160
 4565SOL    HW114594   1.940   6.128   5.238
 4565SOL    HW214595   1.921   6.042   5.100
 4566SOL     OW14596   6.888   5.037   3.024
 4566SOL    HW114597   6.882   5.078   2.934
 4566SOL    HW214598   6.946   4.955   3.020
 4567SOL     OW14599   1.681   0.237   0.318
 4567SOL    HW114600   1.705   0.274   0.229
 4567SOL    HW214601   1.615   0.163   0.307
 4568SOL     OW14602   6.959   4.596   3.875
 4568SOL    HW114603   0.014   4.649   3.836
 4568SOL    HW214604   6.986   4.560   3.965
 4569SOL     OW14605   6.805   2.402   3.353
 4569SOL    HW114606   6.888   2.361   3.313
 4569SOL    HW214607   6.735   2.408   3.283
 4570SOL     OW14608   4.723   5.681   1.632
 4570SOL    HW114609   4.756   5.669   1.726
 4570SOL    HW214610   4.689   5.594   1.597
 4571SOL     OW14611   2.215   2.345   5.134
 4571SOL    HW114612   2.125   2.371   5.168
 4571SOL    HW214613   2.223   2.371   5.037
 4572SOL     OW14614   5.021   3.294   1.782
 4572SOL    HW114615   4.929   3.275   1.746
 4572SOL    HW214616   5.070   3.352   1.717
 4573SOL     OW14617   2.499   4.595   1.062
 4573SOL    HW114618   2.438   4.662   1.106
 4573SOL    HW214619   2.523   4.627   0.971
 4574SOL     OW14620   4.642   0.375   2.270
 4574SOL    HW114621   4.592   0.306   2.218
 4574SOL    HW214622   4.589   0.460   2.273
 4575SOL     OW14623   0.279   1.801   5.199
 4575SOL    HW114624   0.306   1.705   5.197
 4575SOL    HW214625   0.212   1.818   5.126
 4576SOL     OW14626   3.170   3.637   7.002
 4576SOL    HW114627   3.079   3.632   6.961
 4576SOL    HW214628   3.234   3.678   6.937
 4577SOL     OW14629   0.458   1.712   2.197
 4577SOL    HW114630   0.413   1.631   2.160
 4577SOL    HW214631   0.556   1.708   2.179
 4578SOL     OW14632   2.113   0.649   2.486
 4578SOL    HW114633   2.160   0.737   2.496
 4578SOL    HW214634   2.070   0.625   2.572
 4579SOL     OW14635   3.844   0.811   2.701
 4579SOL    HW114636   3.753   0.820   2.662
 4579SOL    HW214637   3.839   0.812   2.801
 4580SOL     OW14638   0.886   0.111   1.535
 4580SOL    HW114639   0.974   0.156   1.521
 4580SOL    HW214640   0.893   0.014   1.511
 4581SOL     OW14641   3.377   0.645   1.500
 4581SOL    HW114642   3.374   0.582   1.578
 4581SOL    HW214643   3.468   0.643   1.459
 4582SOL     OW14644   5.539   1.251   4.788
 4582SOL    HW114645   5.539   1.159   4.749
 4582SOL    HW214646   5.617   1.303   4.753
 4583SOL     OW14647   1.776   5.844   6.711
 4583SOL    HW114648   1.702   5.789   6.671
 4583SOL    HW214649   1.745   5.938   6.720
 4584SOL     OW14650   6.692   0.904   4.333
 4584SOL    HW114651   6.763   0.839   4.305
 4584SOL    HW214652   6.735   0.982   4.378
 4585SOL     OW14653   1.595   3.110   2.552
 4585SOL    HW114654   1.640   3.161   2.626
 4585SOL    HW214655   1.648   3.121   2.468
 4586SOL     OW14656   0.470   4.150   5.841
 4586SOL    HW114657   0.471   4.187   5.748
 4586SOL    HW214658   0.535   4.074   5.847
 4587SOL     OW14659   4.194   3.318   6.044
 4587SOL    HW114660   4.098   3.300   6.066
 4587SOL    HW214661   4.246   3.233   6.047
 4588SOL     OW14662   2.007   4.815   6.362
 4588SOL    HW114663   1.992   4.914   6.365
 4588SOL    HW214664   2.094   4.793   6.407
 4589SOL     OW14665   5.177   5.791   2.117
 4589SOL    HW114666   5.154   5.825   2.208
 4589SOL    HW214667   5.260   5.735   2.122
 4590SOL     OW14668   2.130   5.211   1.818
 4590SOL    HW114669   2.110   5.130   1.762
 4590SOL    HW214670   2.162   5.285   1.760
 4591SOL     OW14671   2.261   1.873   4.946
 4591SOL    HW114672   2.304   1.876   4.855
 4591SOL    HW214673   2.296   1.947   5.002
 4592SOL     OW14674   2.692   2.306   2.835
 4592SOL    HW114675   2.696   2.361   2.751
 4592SOL    HW214676   2.777   2.254   2.845
 4593SOL     OW14677   1.763   5.484   4.835
 4593SOL    HW114678   1.730   5.564   4.786
 4593SOL    HW214679   1.721   5.481   4.926
 4594SOL     OW14680   0.942   6.809   3.663
 4594SOL    HW114681   0.927   6.872   3.740
 4594SOL    HW214682   0.892   6.842   3.583
 4595SOL     OW14683   5.565   1.595   6.768
 4595SOL    HW114684   5.645   1.581   6.827
 4595SOL    HW214685   5.508   1.668   6.805
 4596SOL     OW14686   0.682   1.371   2.233
 4596SOL    HW114687   0.695   1.280   2.273
 4596SOL    HW214688   0.728   1.375   2.144
 4597SOL     OW14689   1.812   5.225   0.321
 4597SOL    HW114690   1.866   5.212   0.404
 4597SOL    HW214691   1.871   5.221   0.241
 4598SOL     OW14692   0.733   2.223   0.258
 4598SOL    HW114693   0.784   2.138   0.244
 4598SOL    HW214694   0.793   2.291   0.301
 4599SOL     OW14695   3.037   6.472   2.984
 4599SOL    HW114696   2.961   6.509   2.930
 4599SOL    HW214697   3.109   6.540   2.991
 4600SOL     OW14698   0.177   6.958   5.591
 4600SOL    HW114699   0.187   6.894   5.667
 4600SOL    HW214700   0.218   0.026   5.616
 4601SOL     OW14701   1.705   1.208   4.806
 4601SOL    HW114702   1.753   1.296   4.799
 4601SOL    HW214703   1.651   1.193   4.723
 4602SOL     OW14704   4.400   0.380   5.437
 4602SOL    HW114705   4.374   0.395   5.341
 4602SOL    HW214706   4.439   0.288   5.447
 4603SOL     OW14707   4.776   6.465   0.564
 4603SOL    HW114708   4.871   6.474   0.595
 4603SOL    HW214709   4.771   6.486   0.466
 4604SOL     OW14710   0.441   6.643   3.625
 4604SOL    HW114711   0.521   6.600   3.668
 4604SOL    HW214712   0.465   6.673   3.533
 4605SOL     OW14713   4.153   1.514   2.078
 4605SOL    HW114714   4.209   1.585   2.034
 4605SOL    HW214715   4.088   1.476   2.012
 4606SOL     OW14716   6.778   0.163   4.613
 4606SOL    HW114717   6.861   0.175   4.668
 4606SOL    HW214718   6.784   0.220   4.531
 4607SOL     OW14719   2.330   1.884   1.110
 4607SOL    HW114720   2.302   1.893   1.206
 4607SOL    HW214721   2.262   1.928   1.051
 4608SOL     OW14722   0.443   2.240   5.938
 4608SOL    HW114723   0.532   2.199   5.962
 4608SOL    HW214724   0.383   2.169   5.902
 4609SOL     OW14725   5.621   5.219   6.289
 4609SOL    HW114726   5.664   5.198   6.201
 4609SOL    HW214727   5.527   5.248   6.275
 4610SOL     OW14728   5.004   3.676   6.433
 4610SOL    HW114729   4.978   3.687   6.337
 4610SOL    HW214730   5.044   3.585   6.446
 4611SOL     OW14731   0.445   0.481   6.541
 4611SOL    HW114732   0.536   0.444   6.519
 4611SOL    HW214733   0.380   0.453   6.470
 4612SOL     OW14734   1.541   0.577   2.268
 4612SOL    HW114735   1.573   0.537   2.183
 4612SOL    HW214736   1.580   0.527   2.346
 4613SOL     OW14737   1.242   4.871   3.848
 4613SOL    HW114738   1.292   4.953   3.873
 4613SOL    HW214739   1.162   4.860   3.907
 4614SOL     OW14740   6.477   4.687   2.789
 4614SOL    HW114741   6.490   4.588   2.798
 4614SOL    HW214742   6.501   4.715   2.696
 4615SOL     OW14743   0.623   4.758   6.941
 4615SOL    HW114744   0.566   4.696   6.993
 4615SOL    HW214745   0.702   4.708   6.904
 4616SOL     OW14746   1.764   4.719   5.932
 4616SOL    HW114747   1.715   4.632   5.939
 4616SOL    HW214748   1.827   4.728   6.009
 4617SOL     OW14749   0.711   4.581   4.226
 4617SOL    HW114750   0.646   4.558   4.153
 4617SOL    HW214751   0.801   4.543   4.204
 4618SOL     OW14752   2.209   4.337   5.299
 4618SOL    HW114753   2.184   4.248   5.261
 4618SOL    HW214754   2.251   4.325   5.388
 4619SOL     OW14755   4.875   6.132   6.873
 4619SOL    HW114756   4.940   6.173   6.937
 4619SOL    HW214757   4.821   6.063   6.920
 4620SOL     OW14758   0.728   4.620   1.727
 4620SOL    HW114759   0.702   4.542   1.784
 4620SOL    HW214760   0.751   4.587   1.635
 4621SOL     OW14761   2.529   0.525   2.727
 4621SOL    HW114762   2.563   0.489   2.640
 4621SOL    HW214763   2.551   0.460   2.801
 4622SOL     OW14764   5.973   6.880   0.862
 4622SOL    HW114765   5.979   6.970   0.819
 4622SOL    HW214766   6.003   6.811   0.796
 4623SOL     OW14767   2.927   4.786   2.597
 4623SOL    HW114768   2.913   4.732   2.680
 4623SOL    HW214769   2.843   4.785   2.542
 4624SOL     OW14770   5.505   1.839   0.508
 4624SOL    HW114771   5.409   1.865   0.496
 4624SOL    HW214772   5.512   1.739   0.503
 4625SOL     OW14773   0.600   0.020   1.662
 4625SOL    HW114774   0.503   0.007   1.682
 4625SOL    HW214775   0.616   0.008   1.564
 4626SOL     OW14776   4.208   4.108   1.727
 4626SOL    HW114777   4.141   4.077   1.794
 4626SOL    HW214778   4.259   4.185   1.765
 4627SOL     OW14779   5.702   6.242   4.679
 4627SOL    HW114780   5.769   6.289   4.621
 4627SOL    HW214781   5.621   6.299   4.689
 4628SOL     OW14782   6.430   3.451   2.671
 4628SOL    HW114783   6.454   3.358   2.645
 4628SOL    HW214784   6.473   3.515   2.608
 4629SOL     OW14785   1.421   5.227   1.225
 4629SOL    HW114786   1.359   5.287   1.275
 4629SOL    HW214787   1.368   5.160   1.173
 4630SOL     OW14788   1.706   3.379   1.597
 4630SOL    HW114789   1.690   3.365   1.695
 4630SOL    HW214790   1.744   3.296   1.557
 4631SOL     OW14791   5.925   1.275   1.636
 4631SOL    HW114792   5.861   1.245   1.707
 4631SOL    HW214793   5.997   1.206   1.625
 4632SOL     OW14794   2.576   5.030   3.728
 4632SOL    HW114795   2.558   5.009   3.631
 4632SOL    HW214796   2.655   4.978   3.759
 4633SOL     OW14797   5.304   3.217   3.360
 4633SOL    HW114798   5.370   3.177   3.424
 4633SOL    HW214799   5.345   3.222   3.269
 4634SOL     OW14800   3.961   2.915   5.168
 4634SOL    HW114801   3.872   2.871   5.160
 4634SOL    HW214802   3.985   2.958   5.081
 4635SOL     OW14803   4.347   0.146   2.383
 4635SOL    HW114804   4.394   0.139   2.294
 4635SOL    HW214805   4.409   0.190   2.449
 4636SOL     OW14806   1.470   5.872   6.829
 4636SOL    HW114807   1.450   5.897   6.924
 4636SOL    HW214808   1.517   5.784   6.827
 4637SOL     OW14809   2.090   2.649   3.311
 4637SOL    HW114810   2.187   2.672   3.320
 4637SOL    HW214811   2.035   2.711   3.368
 4638SOL     OW14812   4.211   4.095   6.554
 4638SOL    HW114813   4.168   4.132   6.471
 4638SOL    HW214814   4.155   4.118   6.633
 4639SOL     OW14815   3.800   2.712   1.544
 4639SOL    HW114816   3.756   2.658   1.616
 4639SOL    HW214817   3.768   2.806   1.549
 4640SOL     OW14818   0.196   2.276   0.906
 4640SOL    HW114819   0.181   2.183   0.871
 4640SOL    HW214820   0.189   2.341   0.831
 4641SOL     OW14821   1.038   5.915   4.924
 4641SOL    HW114822   0.948   5.907   4.881
 4641SOL    HW214823   1.104   5.947   4.857
 4642SOL     OW14824   5.440   1.246   6.392
 4642SOL    HW114825   5.433   1.159   6.442
 4642SOL    HW214826   5.533   1.280   6.397
 4643SOL     OW14827   0.942   1.887   0.470
 4643SOL    HW114828   0.865   1.865   0.529
 4643SOL    HW214829   0.997   1.805   0.455
 4644SOL     OW14830   1.349   1.990   1.072
 4644SOL    HW114831   1.292   1.970   1.151
 4644SOL    HW214832   1.389   1.905   1.037
 4645SOL     OW14833   5.767   2.662   5.934
 4645SOL    HW114834   5.709   2.744   5.939
 4645SOL    HW214835   5.713   2.585   5.899
 4646SOL     OW14836   1.043   3.915   2.241
 4646SOL    HW114837   0.981   3.862   2.299
 4646SOL    HW214838   1.015   4.011   2.241
 4647SOL     OW14839   1.373   5.869   2.456
 4647SOL    HW114840   1.377   5.838   2.551
 4647SOL    HW214841   1.281   5.857   2.421
 4648SOL     OW14842   2.796   1.455   4.266
 4648SOL    HW114843   2.819   1.517   4.341
 4648SOL    HW214844   2.826   1.362   4.288
 4649SOL     OW14845   4.505   3.344   1.517
 4649SOL    HW114846   4.471   3.430   1.557
 4649SOL    HW214847   4.468   3.267   1.569
 4650SOL     OW14848   3.800   4.896   0.797
 4650SOL    HW114849   3.848   4.936   0.875
 4650SOL    HW214850   3.823   4.948   0.714
 4651SOL     OW14851   1.439   3.082   0.043
 4651SOL    HW114852   1.452   3.120   0.134
 4651SOL    HW214853   1.502   3.005   0.029
 4652SOL     OW14854   6.531   0.345   5.729
 4652SOL    HW114855   6.480   0.287   5.792
 4652SOL    HW214856   6.532   0.302   5.638
 4653SOL     OW14857   1.217   6.688   0.842
 4653SOL    HW114858   1.141   6.653   0.788
 4653SOL    HW214859   1.268   6.755   0.788
 4654SOL     OW14860   1.054   1.130   5.260
 4654SOL    HW114861   1.005   1.131   5.172
 4654SOL    HW214862   1.102   1.217   5.272
 4655SOL     OW14863   5.543   5.101   3.107
 4655SOL    HW114864   5.530   5.090   3.009
 4655SOL    HW214865   5.580   5.016   3.146
 4656SOL     OW14866   6.328   0.515   1.332
 4656SOL    HW114867   6.376   0.593   1.372
 4656SOL    HW214868   6.331   0.523   1.232
 4657SOL     OW14869   3.535   2.090   2.281
 4657SOL    HW114870   3.437   2.088   2.261
 4657SOL    HW214871   3.582   2.148   2.214
 4658SOL     OW14872   1.825   1.401   0.593
 4658SOL    HW114873   1.924   1.397   0.607
 4658SOL    HW214874   1.805   1.381   0.498
 4659SOL     OW14875   2.297   4.908   0.954
 4659SOL    HW114876   2.266   4.871   1.041
 4659SOL    HW214877   2.281   4.840   0.882
 4660SOL     OW14878   0.122   4.824   4.892
 4660SOL    HW114879   0.119   4.726   4.873
 4660SOL    HW214880   0.124   4.875   4.806
 4661SOL     OW14881   0.665   0.992   5.396
 4661SOL    HW114882   0.577   0.949   5.417
 4661SOL    HW214883   0.650   1.083   5.357
 4662SOL     OW14884   2.867   0.028   6.437
 4662SOL    HW114885   2.950   0.059   6.484
 4662SOL    HW214886   2.796   0.008   6.505
 4663SOL     OW14887   0.225   0.451   1.114
 4663SOL    HW114888   0.205   0.535   1.064
 4663SOL    HW214889   0.203   0.372   1.057
 4664SOL     OW14890   6.346   6.431   5.029
 4664SOL    HW114891   6.425   6.422   5.090
 4664SOL    HW214892   6.285   6.353   5.041
 4665SOL     OW14893   0.396   1.294   2.762
 4665SOL    HW114894   0.318   1.333   2.812
 4665SOL    HW214895   0.363   1.250   2.679
 4666SOL     OW14896   1.718   2.467   5.819
 4666SOL    HW114897   1.708   2.542   5.884
 4666SOL    HW214898   1.796   2.484   5.760
 4667SOL     OW14899   6.608   2.333   1.082
 4667SOL    HW114900   6.674   2.407   1.070
 4667SOL    HW214901   6.519   2.370   1.108
 4668SOL     OW14902   4.552   2.034   4.968
 4668SOL    HW114903   4.499   1.950   4.956
 4668SOL    HW214904   4.619   2.021   5.042
 4669SOL     OW14905   5.539   6.146   6.332
 4669SOL    HW114906   5.542   6.046   6.343
 4669SOL    HW214907   5.591   6.189   6.405
 4670SOL     OW14908   0.461   3.171   0.349
 4670SOL    HW114909   0.476   3.262   0.389
 4670SOL    HW214910   0.533   3.152   0.283
 4671SOL     OW14911   7.007   1.758   1.787
 4671SOL    HW114912   6.925   1.737   1.734
 4671SOL    HW214913   0.051   1.681   1.780
 4672SOL     OW14914   4.460   3.228   0.725
 4672SOL    HW114915   4.477   3.259   0.631
 4672SOL    HW214916   4.381   3.167   0.727
 4673SOL     OW14917   4.709   1.473   0.579
 4673SOL    HW114918   4.778   1.506   0.643
 4673SOL    HW214919   4.749   1.400   0.523
 4674SOL     OW14920   1.158   3.173   0.457
 4674SOL    HW114921   1.102   3.092   0.438
 4674SOL    HW214922   1.101   3.255   0.449
 4675SOL     OW14923   2.100   6.732   0.405
 4675SOL    HW114924   2.192   6.746   0.367
 4675SOL    HW214925   2.086   6.794   0.482
 4676SOL     OW14926   0.777   5.641   4.814
 4676SOL    HW114927   0.813   5.631   4.721
 4676SOL    HW214928   0.714   5.565   4.833
 4677SOL     OW14929   4.996   0.053   6.998
 4677SOL    HW114930   4.982   0.053   6.898
 4677SOL    HW214931   5.015   6.979   0.008
 4678SOL     OW14932   2.464   4.925   0.359
 4678SOL    HW114933   2.432   4.845   0.308
 4678SOL    HW214934   2.384   4.975   0.394
 4679SOL     OW14935   2.108   6.683   5.551
 4679SOL    HW114936   2.097   6.665   5.453
 4679SOL    HW214937   2.136   6.599   5.597
 4680SOL     OW14938   1.517   5.581   6.005
 4680SOL    HW114939   1.572   5.663   5.987
 4680SOL    HW214940   1.420   5.607   6.008
 4681SOL     OW14941   6.560   6.312   5.197
 4681SOL    HW114942   6.511   6.304   5.284
 4681SOL    HW214943   6.641   6.370   5.210
 4682SOL     OW14944   3.247   0.062   0.817
 4682SOL    HW114945   3.176   7.012   0.826
 4682SOL    HW214946   3.284   0.060   0.724
 4683SOL     OW14947   0.548   4.927   3.715
 4683SOL    HW114948   0.540   4.925   3.815
 4683SOL    HW214949   0.557   4.833   3.681
 4684SOL     OW14950   2.411   1.180   5.259
 4684SOL    HW114951   2.367   1.269   5.273
 4684SOL    HW214952   2.388   1.146   5.168
 4685SOL     OW14953   5.480   4.757   4.091
 4685SOL    HW114954   5.549   4.688   4.074
 4685SOL    HW214955   5.520   4.848   4.082
 4686SOL     OW14956   4.694   5.418   6.208
 4686SOL    HW114957   4.791   5.417   6.185
 4686SOL    HW214958   4.641   5.382   6.130
 4687SOL     OW14959   4.213   0.936   4.931
 4687SOL    HW114960   4.149   0.990   4.986
 4687SOL    HW214961   4.284   0.899   4.991
 4688SOL     OW14962   0.079   0.807   1.041
 4688SOL    HW114963   0.018   0.728   1.043
 4688SOL    HW214964   0.174   0.776   1.039
 4689SOL     OW14965   2.057   5.487   4.588
 4689SOL    HW114966   2.088   5.578   4.612
 4689SOL    HW214967   1.972   5.466   4.637
 4690SOL     OW14968   2.748   1.885   0.382
 4690SOL    HW114969   2.733   1.983   0.394
 4690SOL    HW214970   2.687   1.850   0.311
 4691SOL     OW14971   3.130   4.713   6.950
 4691SOL    HW114972   3.216   4.761   6.935
 4691SOL    HW214973   3.078   4.709   6.864
 4692SOL     OW14974   0.825   4.807   3.340
 4692SOL    HW114975   0.829   4.829   3.243
 4692SOL    HW214976   0.764   4.728   3.354
 4693SOL     OW14977   0.665   1.956   2.517
 4693SOL    HW114978   0.578   1.920   2.482
 4693SOL    HW214979   0.695   2.031   2.460
 4694SOL     OW14980   1.736   0.953   4.897
 4694SOL    HW114981   1.750   1.049   4.873
 4694SOL    HW214982   1.718   0.900   4.814
 4695SOL     OW14983   2.946   3.498   3.138
 4695SOL    HW114984   2.892   3.473   3.219
 4695SOL    HW214985   2.975   3.593   3.147
 4696SOL     OW14986   0.319   2.568   6.898
 4696SOL    HW114987   0.349   2.638   6.963
 4696SOL    HW214988   0.398   2.530   6.851
 4697SOL     OW14989   0.507   5.216   6.909
 4697SOL    HW114990   0.415   5.192   6.876
 4697SOL    HW214991   0.548   5.282   6.846
 4698SOL     OW14992   5.364   3.225   2.532
 4698SOL    HW114993   5.447   3.199   2.481
 4698SOL    HW214994   5.284   3.216   2.473
 4699SOL     OW14995   6.853   0.205   3.209
 4699SOL    HW114996   6.936   0.192   3.156
 4699SOL    HW214997   6.877   0.232   3.302
 4700SOL     OW14998   5.353   0.314   5.101
 4700SOL    HW114999   5.307   0.388   5.149
 4700SOL    HW215000   5.292   0.234   5.096
 4701SOL     OW15001   2.230   1.008   6.282
 4701SOL    HW115002   2.245   0.919   6.327
 4701SOL    HW215003   2.192   0.993   6.191
 4702SOL     OW15004   3.676   2.595   1.189
 4702SOL    HW115005   3.693   2.692   1.209
 4702SOL    HW215006   3.597   2.563   1.242
 4703SOL     OW15007   0.445   6.373   1.886
 4703SOL    HW115008   0.502   6.361   1.805
 4703SOL    HW215009   0.502   6.368   1.968
 4704SOL     OW15010   4.502   6.784   6.269
 4704SOL    HW115011   4.566   6.778   6.192
 4704SOL    HW215012   4.438   6.707   6.265
 4705SOL     OW15013   3.755   2.902   4.784
 4705SOL    HW115014   3.796   2.814   4.762
 4705SOL    HW215015   3.689   2.891   4.858
 4706SOL     OW15016   5.572   3.333   6.971
 4706SOL    HW115017   5.603   3.270   0.022
 4706SOL    HW215018   5.486   3.375   6.998
 4707SOL     OW15019   2.833   4.616   0.718
 4707SOL    HW115020   2.795   4.598   0.809
 4707SOL    HW215021   2.770   4.581   0.649
 4708SOL     OW15022   1.919   2.932   2.398
 4708SOL    HW115023   1.884   3.026   2.394
 4708SOL    HW215024   2.008   2.927   2.352
 4709SOL     OW15025   2.820   4.186   0.166
 4709SOL    HW115026   2.896   4.156   0.224
 4709SOL    HW215027   2.789   4.276   0.195
 4710SOL     OW15028   4.728   2.725   1.174
 4710SOL    HW115029   4.697   2.792   1.241
 4710SOL    HW215030   4.810   2.761   1.128
 4711SOL     OW15031   2.930   0.082   3.737
 4711SOL    HW115032   2.876   0.032   3.669
 4711SOL    HW215033   3.024   0.048   3.736
 4712SOL     OW15034   1.424   3.803   6.830
 4712SOL    HW115035   1.396   3.751   6.749
 4712SOL    HW215036   1.342   3.836   6.878
 4713SOL     OW15037   0.734   5.839   1.270
 4713SOL    HW115038   0.722   5.744   1.297
 4713SOL    HW215039   0.650   5.890   1.291
 4714SOL     OW15040   4.216   2.128   1.097
 4714SOL    HW115041   4.138   2.171   1.141
 4714SOL    HW215042   4.299   2.151   1.147
 4715SOL     OW15043   4.943   3.398   4.869
 4715SOL    HW115044   5.038   3.415   4.895
 4715SOL    HW215045   4.882   3.456   4.924
 4716SOL     OW15046   2.162   5.768   6.344
 4716SOL    HW115047   2.083   5.806   6.392
 4716SOL    HW215048   2.136   5.681   6.300
 4717SOL     OW15049   2.078   5.159   4.990
 4717SOL    HW115050   2.136   5.137   5.069
 4717SOL    HW215051   2.050   5.075   4.944
 4718SOL     OW15052   4.794   6.694   0.271
 4718SOL    HW115053   4.874   6.694   0.331
 4718SOL    HW215054   4.798   6.616   0.209
 4719SOL     OW15055   4.576   3.489   1.209
 4719SOL    HW115056   4.543   3.423   1.277
 4719SOL    HW215057   4.598   3.441   1.124
 4720SOL     OW15058   2.101   1.941   3.450
 4720SOL    HW115059   2.030   1.978   3.390
 4720SOL    HW215060   2.190   1.951   3.407
 4721SOL     OW15061   1.849   1.543   1.827
 4721SOL    HW115062   1.873   1.511   1.736
 4721SOL    HW215063   1.926   1.529   1.889
 4722SOL     OW15064   2.516   1.122   2.882
 4722SOL    HW115065   2.466   1.091   2.963
 4722SOL    HW215066   2.609   1.147   2.909
 4723SOL     OW15067   2.726   0.322   5.446
 4723SOL    HW115068   2.743   0.296   5.541
 4723SOL    HW215069   2.646   0.382   5.442
 4724SOL     OW15070   4.627   5.405   0.991
 4724SOL    HW115071   4.557   5.375   1.055
 4724SOL    HW215072   4.717   5.382   1.026
 4725SOL     OW15073   5.818   5.026   2.738
 4725SOL    HW115074   5.874   4.967   2.797
 4725SOL    HW215075   5.830   4.998   2.642
 4726SOL     OW15076   6.757   6.683   4.407
 4726SOL    HW115077   6.752   6.776   4.443
 4726SOL    HW215078   6.667   6.656   4.371
 4727SOL     OW15079   5.151   6.542   1.791
 4727SOL    HW115080   5.232   6.536   1.848
 4727SOL    HW215081   5.169   6.605   1.715
 4728SOL     OW15082   6.688   6.395   6.517
 4728SOL    HW115083   6.694   6.310   6.465
 4728SOL    HW215084   6.779   6.436   6.522
 4729SOL     OW15085   3.136   0.528   1.390
 4729SOL    HW115086   3.043   0.562   1.401
 4729SOL    HW215087   3.201   0.595   1.424
 4730SOL     OW15088   1.619   0.693   6.229
 4730SOL    HW115089   1.537   0.746   6.252
 4730SOL    HW215090   1.695   0.756   6.215
 4731SOL     OW15091   4.430   1.383   5.885
 4731SOL    HW115092   4.468   1.344   5.801
 4731SOL    HW215093   4.445   1.482   5.886
 4732SOL     OW15094   0.385   6.773   6.402
 4732SOL    HW115095   0.368   6.681   6.437
 4732SOL    HW215096   0.480   6.799   6.422
 4733SOL     OW15097   5.818   4.009   3.122
 4733SOL    HW115098   5.889   3.940   3.138
 4733SOL    HW215099   5.779   4.037   3.210
 4734SOL     OW15100   6.366   3.497   5.979
 4734SOL    HW115101   6.273   3.511   6.013
 4734SOL    HW215102   6.427   3.566   6.017
 4735SOL     OW15103   0.461   4.077   3.711
 4735SOL    HW115104   0.528   4.006   3.731
 4735SOL    HW215105   0.370   4.046   3.739
 4736SOL     OW15106   1.380   7.007   2.397
 4736SOL    HW115107   1.440   6.928   2.410
 4736SOL    HW215108   1.308   6.984   2.331
 4737SOL     OW15109   3.375   5.066   2.169
 4737SOL    HW115110   3.303   5.006   2.203
 4737SOL    HW215111   3.350   5.161   2.186
 4738SOL     OW15112   1.031   0.106   3.038
 4738SOL    HW115113   0.954   0.075   3.095
 4738SOL    HW215114   1.081   0.178   3.086
 4739SOL     OW15115   3.694   0.024   1.588
 4739SOL    HW115116   3.652   0.061   1.505
 4739SOL    HW215117   3.730   0.098   1.644
 4740SOL     OW15118   0.954   1.687   4.470
 4740SOL    HW115119   0.917   1.606   4.517
 4740SOL    HW215120   1.041   1.663   4.426
 4741SOL     OW15121   3.636   4.055   3.239
 4741SOL    HW115122   3.712   4.081   3.180
 4741SOL    HW215123   3.670   4.038   3.332
 4742SOL     OW15124   4.926   1.034   2.937
 4742SOL    HW115125   5.021   1.016   2.911
 4742SOL    HW215126   4.925   1.098   3.014
 4743SOL     OW15127   0.738   5.182   0.602
 4743SOL    HW115128   0.716   5.085   0.588
 4743SOL    HW215129   0.692   5.215   0.685
 4744SOL     OW15130   1.547   4.874   1.633
 4744SOL    HW115131   1.459   4.835   1.661
 4744SOL    HW215132   1.531   4.960   1.585
 4745SOL     OW15133   1.782   3.029   0.220
 4745SOL    HW115134   1.746   2.957   0.280
 4745SOL    HW215135   1.770   3.118   0.264
 4746SOL     OW15136   6.004   5.791   4.593
 4746SOL    HW115137   5.954   5.828   4.515
 4746SOL    HW215138   6.020   5.694   4.578
 4747SOL     OW15139   4.035   0.776   1.171
 4747SOL    HW115140   3.941   0.790   1.141
 4747SOL    HW215141   4.039   0.697   1.233
 4748SOL     OW15142   1.878   6.728   3.286
 4748SOL    HW115143   1.923   6.738   3.374
 4748SOL    HW215144   1.821   6.809   3.269
 4749SOL     OW15145   2.318   0.972   1.355
 4749SOL    HW115146   2.413   1.000   1.345
 4749SOL    HW215147   2.261   1.051   1.378
 4750SOL     OW15148   5.307   3.136   6.789
 4750SOL    HW115149   5.342   3.227   6.770
 4750SOL    HW215150   5.237   3.112   6.722
 4751SOL     OW15151   3.957   1.564   2.599
 4751SOL    HW115152   3.904   1.493   2.646
 4751SOL    HW215153   3.966   1.644   2.659
 4752SOL     OW15154   5.673   6.918   0.014
 4752SOL    HW115155   5.680   6.875   6.944
 4752SOL    HW215156   5.632   7.009   0.004
 4753SOL     OW15157   3.083   5.129   4.957
 4753SOL    HW115158   3.011   5.177   4.908
 4753SOL    HW215159   3.081   5.032   4.934
 4754SOL     OW15160   5.622   4.592   0.485
 4754SOL    HW115161   5.654   4.663   0.422
 4754SOL    HW215162   5.701   4.542   0.520
 4755SOL     OW15163   0.120   1.127   1.591
 4755SOL    HW115164   0.085   1.038   1.620
 4755SOL    HW215165   0.104   1.194   1.663
 4756SOL     OW15166   6.875   3.843   5.227
 4756SOL    HW115167   6.871   3.789   5.311
 4756SOL    HW215168   6.950   3.909   5.233
 4757SOL     OW15169   2.123   3.220   1.362
 4757SOL    HW115170   2.154   3.143   1.306
 4757SOL    HW215171   2.027   3.238   1.343
 4758SOL     OW15172   1.897   5.210   1.977
 4758SOL    HW115173   1.813   5.167   1.944
 4758SOL    HW215174   1.976   5.156   1.949
 4759SOL     OW15175   0.578   6.908   2.609
 4759SOL    HW115176   0.483   6.908   2.639
 4759SOL    HW215177   0.632   6.968   2.668
 4760SOL     OW15178   0.359   0.112   1.786
 4760SOL    HW115179   0.421   0.111   1.864
 4760SOL    HW215180   0.283   0.049   1.803
 4761SOL     OW15181   4.274   6.397   2.210
 4761SOL    HW115182   4.359   6.358   2.244
 4761SOL    HW215183   4.245   6.471   2.270
 4762SOL     OW15184   0.955   0.848   2.266
 4762SOL    HW115185   1.019   0.912   2.311
 4762SOL    HW215186   0.988   0.828   2.174
 4763SOL     OW15187   5.143   4.705   1.811
 4763SOL    HW115188   5.238   4.736   1.824
 4763SOL    HW215189   5.140   4.605   1.816
 4764SOL     OW15190   4.785   2.923   6.507
 4764SOL    HW115191   4.703   2.884   6.548
 4764SOL    HW215192   4.866   2.890   6.555
 4765SOL     OW15193   3.539   1.403   5.465
 4765SOL    HW115194   3.455   1.412   5.518
 4765SOL    HW215195   3.519   1.358   5.378
 4766SOL     OW15196   1.195   0.846   3.476
 4766SOL    HW115197   1.175   0.938   3.510
 4766SOL    HW215198   1.288   0.845   3.440
 4767SOL     OW15199   2.714   4.888   3.222
 4767SOL    HW115200   2.809   4.863   3.201
 4767SOL    HW215201   2.660   4.887   3.138
 4768SOL     OW15202   4.820   2.285   6.205
 4768SOL    HW115203   4.770   2.223   6.267
 4768SOL    HW215204   4.758   2.317   6.134
 4769SOL     OW15205   2.984   3.137   0.619
 4769SOL    HW115206   2.990   3.110   0.715
 4769SOL    HW215207   2.890   3.159   0.596
 4770SOL     OW15208   0.075   1.814   3.940
 4770SOL    HW115209   0.016   1.746   3.897
 4770SOL    HW215210   0.149   1.838   3.877
 4771SOL     OW15211   3.203   0.872   4.255
 4771SOL    HW115212   3.154   0.785   4.251
 4771SOL    HW215213   3.167   0.927   4.331
 4772SOL     OW15214   2.526   4.936   2.579
 4772SOL    HW115215   2.565   5.026   2.559
 4772SOL    HW215216   2.450   4.947   2.643
 4773SOL     OW15217   2.827   5.656   4.165
 4773SOL    HW115218   2.925   5.676   4.165
 4773SOL    HW215219   2.810   5.571   4.214
 4774SOL     OW15220   0.812   4.645   0.160
 4774SOL    HW115221   0.743   4.591   0.207
 4774SOL    HW215222   0.768   4.718   0.108
 4775SOL     OW15223   5.577   5.196   4.284
 4775SOL    HW115224   5.507   5.263   4.308
 4775SOL    HW215225   5.591   5.134   4.361
 4776SOL     OW15226   0.037   2.011   4.745
 4776SOL    HW115227   0.031   2.105   4.779
 4776SOL    HW215228   0.049   2.013   4.646
 4777SOL     OW15229   1.044   6.301   3.510
 4777SOL    HW115230   1.135   6.316   3.470
 4777SOL    HW215231   1.008   6.387   3.545
 4778SOL     OW15232   1.632   0.043   0.568
 4778SOL    HW115233   1.561   0.096   0.614
 4778SOL    HW215234   1.696   0.105   0.523
 4779SOL     OW15235   4.763   1.849   4.283
 4779SOL    HW115236   4.760   1.764   4.336
 4779SOL    HW215237   4.753   1.828   4.186
 4780SOL     OW15238   4.938   2.747   4.896
 4780SOL    HW115239   4.843   2.780   4.899
 4780SOL    HW215240   4.992   2.794   4.965
 4781SOL     OW15241   2.889   5.468   1.873
 4781SOL    HW115242   2.943   5.386   1.852
 4781SOL    HW215243   2.890   5.484   1.972
 4782SOL     OW15244   1.203   6.917   3.087
 4782SOL    HW115245   1.135   6.990   3.080
 4782SOL    HW215246   1.295   6.957   3.083
 4783SOL     OW15247   1.048   4.206   6.610
 4783SOL    HW115248   1.080   4.301   6.604
 4783SOL    HW215249   1.120   4.149   6.648
 4784SOL     OW15250   6.014   2.500   6.807
 4784SOL    HW115251   5.997   2.496   6.708
 4784SOL    HW215252   5.928   2.487   6.856
 4785SOL     OW15253   0.599   1.299   4.115
 4785SOL    HW115254   0.583   1.234   4.041
 4785SOL    HW215255   0.695   1.295   4.143
 4786SOL     OW15256   1.937   6.333   0.270
 4786SOL    HW115257   1.906   6.239   0.281
 4786SOL    HW215258   1.963   6.370   0.360
 4787SOL     OW15259   4.226   1.409   5.112
 4787SOL    HW115260   4.244   1.396   5.015
 4787SOL    HW215261   4.275   1.339   5.165
 4788SOL     OW15262   7.016   5.948   0.762
 4788SOL    HW115263   6.947   6.017   0.783
 4788SOL    HW215264   6.972   5.869   0.719
 4789SOL     OW15265   5.978   1.159   2.029
 4789SOL    HW115266   6.044   1.086   2.012
 4789SOL    HW215267   5.926   1.177   1.945
 4790SOL     OW15268   0.371   2.617   6.289
 4790SOL    HW115269   0.291   2.642   6.344
 4790SOL    HW215270   0.341   2.577   6.203
 4791SOL     OW15271   0.928   0.743   6.505
 4791SOL    HW115272   0.956   0.766   6.411
 4791SOL    HW215273   0.949   0.819   6.566
 4792SOL     OW15274   0.819   4.109   1.395
 4792SOL    HW115275   0.874   4.143   1.471
 4792SOL    HW215276   0.874   4.109   1.311
 4793SOL     OW15277   0.866   3.099   5.445
 4793SOL    HW115278   0.953   3.140   5.472
 4793SOL    HW215279   0.865   3.087   5.346
 4794SOL     OW15280   5.721   1.359   6.442
 4794SOL    HW115281   5.726   1.457   6.462
 4794SOL    HW215282   5.807   1.329   6.401
 4795SOL     OW15283   6.997   6.596   6.810
 4795SOL    HW115284   6.903   6.600   6.844
 4795SOL    HW215285   0.021   6.514   6.847
 4796SOL     OW15286   5.822   1.318   5.844
 4796SOL    HW115287   5.796   1.414   5.833
 4796SOL    HW215288   5.846   1.280   5.755
 4797SOL     OW15289   3.115   4.950   5.311
 4797SOL    HW115290   3.025   4.989   5.294
 4797SOL    HW215291   3.138   4.959   5.408
 4798SOL     OW15292   3.426   5.826   0.180
 4798SOL    HW115293   3.510   5.778   0.155
 4798SOL    HW215294   3.406   5.809   0.277
 4799SOL     OW15295   4.485   3.810   0.989
 4799SOL    HW115296   4.437   3.890   0.952
 4799SOL    HW215297   4.494   3.820   1.088
 4800SOL     OW15298   1.017   4.855   0.096
 4800SOL    HW115299   0.986   4.949   0.098
 4800SOL    HW215300   0.949   4.796   0.140
 4801SOL     OW15301   4.867   3.411   3.502
 4801SOL    HW115302   4.860   3.477   3.577
 4801SOL    HW215303   4.828   3.324   3.532
 4802SOL     OW15304   6.903   0.518   5.239
 4802SOL    HW115305   6.993   0.541   5.277
 4802SOL    HW215306   6.914   0.448   5.169
 4803SOL     OW15307   5.570   3.436   5.682
 4803SOL    HW115308   5.520   3.478   5.606
 4803SOL    HW215309   5.505   3.398   5.748
 4804SOL     OW15310   5.688   2.836   0.952
 4804SOL    HW115311   5.598   2.868   0.980
 4804SOL    HW215312   5.710   2.873   0.861
 4805SOL     OW15313   5.934   0.701   6.047
 4805SOL    HW115314   5.935   0.765   6.124
 4805SOL    HW215315   6.023   0.702   6.002
 4806SOL     OW15316   1.775   3.047   3.562
 4806SOL    HW115317   1.754   3.139   3.594
 4806SOL    HW215318   1.711   2.982   3.602
 4807SOL     OW15319   1.360   3.623   0.792
 4807SOL    HW115320   1.357   3.696   0.723
 4807SOL    HW215321   1.311   3.543   0.757
 4808SOL     OW15322   3.222   6.812   3.191
 4808SOL    HW115323   3.156   6.821   3.265
 4808SOL    HW215324   3.290   6.885   3.197
 4809SOL     OW15325   2.850   4.527   0.364
 4809SOL    HW115326   2.941   4.485   0.358
 4809SOL    HW215327   2.800   4.488   0.441
 4810SOL     OW15328   1.735   5.536   4.491
 4810SOL    HW115329   1.652   5.504   4.445
 4810SOL    HW215330   1.811   5.476   4.469
 4811SOL     OW15331   3.377   3.341   5.043
 4811SOL    HW115332   3.312   3.390   5.102
 4811SOL    HW215333   3.470   3.374   5.062
 4812SOL     OW15334   2.283   6.466   1.183
 4812SOL    HW115335   2.237   6.550   1.211
 4812SOL    HW215336   2.322   6.421   1.263
 4813SOL     OW15337   0.747   2.677   5.181
 4813SOL    HW115338   0.834   2.682   5.132
 4813SOL    HW215339   0.684   2.745   5.144
 4814SOL     OW15340   4.740   1.566   0.271
 4814SOL    HW115341   4.745   1.571   0.171
 4814SOL    HW215342   4.717   1.472   0.298
 4815SOL     OW15343   6.675   3.906   3.108
 4815SOL    HW115344   6.698   3.882   3.202
 4815SOL    HW215345   6.579   3.932   3.102
 4816SOL     OW15346   2.039   0.619   2.781
 4816SOL    HW115347   2.135   0.645   2.789
 4816SOL    HW215348   2.012   0.567   2.863
 4817SOL     OW15349   4.732   3.078   0.022
 4817SOL    HW115350   4.729   3.125   0.110
 4817SOL    HW215351   4.747   3.145   6.969
 4818SOL     OW15352   4.593   6.666   5.586
 4818SOL    HW115353   4.606   6.589   5.648
 4818SOL    HW215354   4.629   6.643   5.496
 4819SOL     OW15355   3.281   0.576   0.539
 4819SOL    HW115356   3.236   0.570   0.450
 4819SOL    HW215357   3.325   0.488   0.559
 4820SOL     OW15358   0.380   4.885   1.450
 4820SOL    HW115359   0.431   4.830   1.516
 4820SOL    HW215360   0.330   4.957   1.497
 4821SOL     OW15361   6.694   5.751   1.495
 4821SOL    HW115362   6.649   5.812   1.560
 4821SOL    HW215363   6.788   5.735   1.524
 4822SOL     OW15364   0.219   3.662   1.864
 4822SOL    HW115365   0.161   3.601   1.809
 4822SOL    HW215366   0.170   3.688   1.947
 4823SOL     OW15367   0.122   1.904   2.797
 4823SOL    HW115368   0.055   1.905   2.871
 4823SOL    HW215369   0.208   1.866   2.831
 4824SOL     OW15370   5.144   1.718   2.997
 4824SOL    HW115371   5.218   1.720   3.063
 4824SOL    HW215372   5.076   1.787   3.021
 4825SOL     OW15373   2.155   3.909   4.212
 4825SOL    HW115374   2.212   3.977   4.166
 4825SOL    HW215375   2.127   3.839   4.146
 4826SOL     OW15376   0.668   5.957   0.039
 4826SOL    HW115377   0.739   6.018   0.006
 4826SOL    HW215378   0.687   5.931   0.134
 4827SOL     OW15379   5.306   0.703   6.972
 4827SOL    HW115380   5.338   0.628   0.010
 4827SOL    HW215381   5.344   0.693   6.880
 4828SOL     OW15382   6.539   2.581   6.853
 4828SOL    HW115383   6.560   2.678   6.835
 4828SOL    HW215384   6.619   2.537   6.894
 4829SOL     OW15385   2.563   0.693   5.969
 4829SOL    HW115386   2.496   0.765   5.952
 4829SOL    HW215387   2.622   0.683   5.888
 4830SOL     OW15388   5.496   4.763   4.710
 4830SOL    HW115389   5.450   4.709   4.640
 4830SOL    HW215390   5.582   4.719   4.736
 4831SOL     OW15391   6.639   1.786   6.638
 4831SOL    HW115392   6.552   1.832   6.621
 4831SOL    HW215393   6.688   1.832   6.712
 4832SOL     OW15394   1.370   2.515   6.196
 4832SOL    HW115395   1.399   2.475   6.109
 4832SOL    HW215396   1.451   2.532   6.252
 4833SOL     OW15397   6.221   2.838   2.355
 4833SOL    HW115398   6.282   2.874   2.426
 4833SOL    HW215399   6.151   2.906   2.334
 4834SOL     OW15400   5.848   0.079   3.038
 4834SOL    HW115401   5.759   0.124   3.034
 4834SOL    HW215402   5.837   7.002   3.018
 4835SOL     OW15403   2.348   2.270   5.879
 4835SOL    HW115404   2.377   2.360   5.912
 4835SOL    HW215405   2.428   2.218   5.848
 4836SOL     OW15406   6.099   4.582   3.363
 4836SOL    HW115407   6.112   4.487   3.391
 4836SOL    HW215408   6.096   4.587   3.263
 4837SOL     OW15409   0.249   5.096   1.524
 4837SOL    HW115410   0.321   5.095   1.593
 4837SOL    HW215411   0.176   5.159   1.553
 4838SOL     OW15412   3.022   6.423   2.509
 4838SOL    HW115413   2.926   6.395   2.514
 4838SOL    HW215414   3.070   6.365   2.443
 4839SOL     OW15415   0.791   0.131   6.065
 4839SOL    HW115416   0.795   0.231   6.072
 4839SOL    HW215417   0.698   0.100   6.086
 4840SOL     OW15418   6.856   5.400   5.656
 4840SOL    HW115419   6.913   5.326   5.692
 4840SOL    HW215420   6.876   5.413   5.559
 4841SOL     OW15421   1.220   5.178   1.839
 4841SOL    HW115422   1.217   5.260   1.895
 4841SOL    HW215423   1.259   5.102   1.892
 4842SOL     OW15424   3.405   6.698   0.790
 4842SOL    HW115425   3.314   6.658   0.785
 4842SOL    HW215426   3.469   6.631   0.828
 4843SOL     OW15427   1.982   4.118   0.741
 4843SOL    HW115428   1.993   4.111   0.840
 4843SOL    HW215429   1.888   4.093   0.716
 4844SOL     OW15430   0.146   1.360   5.168
 4844SOL    HW115431   0.169   1.278   5.115
 4844SOL    HW215432   0.213   1.432   5.148
 4845SOL     OW15433   5.857   6.810   3.508
 4845SOL    HW115434   5.832   6.721   3.547
 4845SOL    HW215435   5.852   6.805   3.408
 4846SOL     OW15436   0.232   4.128   5.381
 4846SOL    HW115437   0.257   4.216   5.422
 4846SOL    HW215438   0.306   4.063   5.394
 4847SOL     OW15439   5.129   3.232   4.301
 4847SOL    HW115440   5.145   3.242   4.202
 4847SOL    HW215441   5.181   3.302   4.350
 4848SOL     OW15442   3.107   3.778   1.177
 4848SOL    HW115443   3.151   3.867   1.159
 4848SOL    HW215444   3.170   3.719   1.227
 4849SOL     OW15445   2.330   6.500   6.607
 4849SOL    HW115446   2.424   6.475   6.630
 4849SOL    HW215447   2.291   6.553   6.681
 4850SOL     OW15448   3.462   6.516   3.075
 4850SOL    HW115449   3.447   6.560   3.163
 4850SOL    HW215450   3.502   6.425   3.090
 4851SOL     OW15451   4.747   1.793   5.394
 4851SOL    HW115452   4.682   1.752   5.458
 4851SOL    HW215453   4.840   1.781   5.428
 4852SOL     OW15454   1.229   2.134   1.483
 4852SOL    HW115455   1.242   2.198   1.559
 4852SOL    HW215456   1.288   2.054   1.497
 4853SOL     OW15457   3.421   0.928   1.461
 4853SOL    HW115458   3.369   1.011   1.439
 4853SOL    HW215459   3.364   0.848   1.445
 4854SOL     OW15460   4.233   0.348   5.740
 4854SOL    HW115461   4.149   0.374   5.789
 4854SOL    HW215462   4.311   0.357   5.802
 4855SOL     OW15463   0.464   2.652   2.396
 4855SOL    HW115464   0.474   2.562   2.437
 4855SOL    HW215465   0.373   2.689   2.418
 4856SOL     OW15466   0.052   4.598   3.068
 4856SOL    HW115467   0.101   4.677   3.105
 4856SOL    HW215468   0.113   4.518   3.070
 4857SOL     OW15469   6.757   1.198   5.645
 4857SOL    HW115470   6.800   1.179   5.556
 4857SOL    HW215471   6.792   1.133   5.712
 4858SOL     OW15472   1.284   0.426   3.412
 4858SOL    HW115473   1.352   0.496   3.436
 4858SOL    HW215474   1.260   0.373   3.494
 4859SOL     OW15475   3.440   6.314   5.558
 4859SOL    HW115476   3.440   6.297   5.657
 4859SOL    HW215477   3.374   6.385   5.537
 4860SOL     OW15478   3.428   5.325   0.074
 4860SOL    HW115479   3.421   5.227   0.094
 4860SOL    HW215480   3.434   5.339   6.996
 4861SOL     OW15481   4.190   3.831   6.427
 4861SOL    HW115482   4.206   3.910   6.487
 4861SOL    HW215483   4.235   3.847   6.339
 4862SOL     OW15484   2.171   0.022   0.433
 4862SOL    HW115485   2.158   0.084   0.355
 4862SOL    HW215486   2.085   0.014   0.484
 4863SOL     OW15487   5.252   3.795   6.195
 4863SOL    HW115488   5.332   3.770   6.139
 4863SOL    HW215489   5.269   3.882   6.241
 4864SOL     OW15490   3.520   1.100   3.951
 4864SOL    HW115491   3.480   1.185   3.916
 4864SOL    HW215492   3.475   1.022   3.908
 4865SOL     OW15493   1.304   5.991   5.348
 4865SOL    HW115494   1.271   6.019   5.258
 4865SOL    HW215495   1.340   6.070   5.397
 4866SOL     OW15496   0.041   3.994   5.643
 4866SOL    HW115497   0.016   3.910   5.596
 4866SOL    HW215498   0.065   4.064   5.575
 4867SOL     OW15499   4.045   1.167   3.336
 4867SOL    HW115500   4.106   1.243   3.314
 4867SOL    HW215501   3.968   1.200   3.391
 4868SOL     OW15502   0.391   5.840   1.646
 4868SOL    HW115503   0.425   5.786   1.569
 4868SOL    HW215504   0.436   5.810   1.730
 4869SOL     OW15505   0.346   0.733   1.020
 4869SOL    HW115506   0.405   0.798   1.068
 4869SOL    HW215507   0.403   0.670   0.967
 4870SOL     OW15508   1.413   0.616   0.991
 4870SOL    HW115509   1.408   0.534   1.049
 4870SOL    HW215510   1.505   0.624   0.952
 4871SOL     OW15511   0.714   2.145   4.024
 4871SOL    HW115512   0.766   2.217   4.070
 4871SOL    HW215513   0.621   2.144   4.059
 4872SOL     OW15514   5.424   0.490   3.325
 4872SOL    HW115515   5.452   0.516   3.417
 4872SOL    HW215516   5.372   0.565   3.283
 4873SOL     OW15517   6.882   6.159   4.031
 4873SOL    HW115518   6.874   6.152   3.932
 4873SOL    HW215519   6.899   6.254   4.057
 4874SOL     OW15520   6.050   4.504   2.310
 4874SOL    HW115521   6.118   4.553   2.364
 4874SOL    HW215522   6.090   4.422   2.271
 4875SOL     OW15523   6.489   6.855   4.449
 4875SOL    HW115524   6.583   6.881   4.471
 4875SOL    HW215525   6.440   6.934   4.415
 4876SOL     OW15526   6.151   1.638   2.423
 4876SOL    HW115527   6.060   1.619   2.385
 4876SOL    HW215528   6.193   1.712   2.372
 4877SOL     OW15529   0.392   1.740   0.338
 4877SOL    HW115530   0.422   1.783   0.423
 4877SOL    HW215531   0.453   1.664   0.316
 4878SOL     OW15532   5.678   4.532   4.048
 4878SOL    HW115533   5.739   4.524   4.127
 4878SOL    HW215534   5.730   4.562   3.968
 4879SOL     OW15535   6.061   0.804   2.877
 4879SOL    HW115536   5.981   0.863   2.888
 4879SOL    HW215537   6.134   0.854   2.831
 4880SOL     OW15538   6.974   3.538   6.249
 4880SOL    HW115539   6.892   3.483   6.233
 4880SOL    HW215540   0.032   3.478   6.261
 4881SOL     OW15541   6.764   3.740   1.569
 4881SOL    HW115542   6.767   3.725   1.470
 4881SOL    HW215543   6.856   3.733   1.607
 4882SOL     OW15544   5.159   2.418   4.467
 4882SOL    HW115545   5.182   2.348   4.534
 4882SOL    HW215546   5.063   2.408   4.441
 4883SOL     OW15547   6.969   3.986   6.105
 4883SOL    HW115548   6.987   3.984   6.007
 4883SOL    HW215549   0.036   3.987   6.155
 4884SOL     OW15550   1.600   2.339   1.560
 4884SOL    HW115551   1.623   2.276   1.486
 4884SOL    HW215552   1.641   2.307   1.645
 4885SOL     OW15553   1.154   6.094   6.651
 4885SOL    HW115554   1.081   6.068   6.714
 4885SOL    HW215555   1.148   6.192   6.632
 4886SOL     OW15556   3.400   0.865   2.207
 4886SOL    HW115557   3.492   0.830   2.191
 4886SOL    HW215558   3.400   0.923   2.288
 4887SOL     OW15559   5.251   5.269   0.440
 4887SOL    HW115560   5.315   5.228   0.506
 4887SOL    HW215561   5.197   5.197   0.397
 4888SOL     OW15562   4.271   6.769   2.674
 4888SOL    HW115563   4.248   6.714   2.754
 4888SOL    HW215564   4.219   6.855   2.677
 4889SOL     OW15565   5.205   3.267   3.766
 4889SOL    HW115566   5.224   3.218   3.681
 4889SOL    HW215567   5.237   3.362   3.758
 4890SOL     OW15568   6.671   2.201   4.460
 4890SOL    HW115569   6.669   2.102   4.446
 4890SOL    HW215570   6.594   2.243   4.412
 4891SOL     OW15571   2.904   5.511   0.214
 4891SOL    HW115572   2.991   5.474   0.184
 4891SOL    HW215573   2.875   5.585   0.152
 4892SOL     OW15574   5.022   4.826   2.037
 4892SOL    HW115575   5.022   4.765   2.117
 4892SOL    HW215576   5.056   4.776   1.958
 4893SOL     OW15577   2.771   2.861   0.940
 4893SOL    HW115578   2.772   2.824   0.847
 4893SOL    HW215579   2.687   2.831   0.986
 4894SOL     OW15580   5.409   6.377   6.998
 4894SOL    HW115581   5.413   6.321   6.915
 4894SOL    HW215582   5.380   6.321   0.055
 4895SOL     OW15583   6.417   3.673   5.525
 4895SOL    HW115584   6.332   3.691   5.574
 4895SOL    HW215585   6.399   3.616   5.445
 4896SOL     OW15586   2.789   5.041   4.862
 4896SOL    HW115587   2.753   4.979   4.932
 4896SOL    HW215588   2.789   5.135   4.898
 4897SOL     OW15589   2.717   1.837   5.838
 4897SOL    HW115590   2.766   1.755   5.808
 4897SOL    HW215591   2.773   1.887   5.904
 4898SOL     OW15592   4.446   2.468   3.481
 4898SOL    HW115593   4.431   2.566   3.496
 4898SOL    HW215594   4.440   2.420   3.568
 4899SOL     OW15595   6.438   6.080   1.523
 4899SOL    HW115596   6.414   6.029   1.605
 4899SOL    HW215597   6.396   6.038   1.443
 4900SOL     OW15598   3.414   5.367   6.017
 4900SOL    HW115599   3.471   5.445   6.042
 4900SOL    HW215600   3.370   5.384   5.929
 4901SOL     OW15601   2.555   0.703   0.075
 4901SOL    HW115602   2.570   0.761   7.015
 4901SOL    HW215603   2.471   0.650   0.063
 4902SOL     OW15604   2.086   0.277   5.495
 4902SOL    HW115605   2.058   0.298   5.588
 4902SOL    HW215606   2.054   0.185   5.470
 4903SOL     OW15607   4.967   3.752   2.528
 4903SOL    HW115608   5.022   3.821   2.481
 4903SOL    HW215609   4.906   3.797   2.594
 4904SOL     OW15610   2.421   0.653   2.116
 4904SOL    HW115611   2.415   0.572   2.056
 4904SOL    HW215612   2.439   0.734   2.060
 4905SOL     OW15613   2.788   1.628   1.578
 4905SOL    HW115614   2.696   1.620   1.618
 4905SOL    HW215615   2.782   1.622   1.479
 4906SOL     OW15616   5.494   3.249   4.849
 4906SOL    HW115617   5.539   3.293   4.771
 4906SOL    HW215618   5.405   3.213   4.821
 4907SOL     OW15619   4.389   2.566   0.558
 4907SOL    HW115620   4.478   2.569   0.602
 4907SOL    HW215621   4.321   2.531   0.622
 4908SOL     OW15622   2.630   6.437   6.695
 4908SOL    HW115623   2.573   6.454   6.775
 4908SOL    HW215624   2.696   6.511   6.685
 4909SOL     OW15625   4.936   6.095   4.943
 4909SOL    HW115626   4.991   6.159   4.995
 4909SOL    HW215627   4.844   6.088   4.983
 4910SOL     OW15628   4.862   1.900   6.643
 4910SOL    HW115629   4.790   1.831   6.653
 4910SOL    HW215630   4.825   1.989   6.668
 4911SOL     OW15631   6.672   4.287   4.017
 4911SOL    HW115632   6.764   4.247   4.019
 4911SOL    HW215633   6.673   4.369   3.960
 4912SOL     OW15634   5.844   3.060   4.368
 4912SOL    HW115635   5.764   3.001   4.362
 4912SOL    HW215636   5.831   3.128   4.440
 4913SOL     OW15637   1.377   3.832   5.929
 4913SOL    HW115638   1.295   3.779   5.909
 4913SOL    HW215639   1.448   3.770   5.964
 4914SOL     OW15640   2.752   6.650   4.216
 4914SOL    HW115641   2.691   6.730   4.216
 4914SOL    HW215642   2.715   6.580   4.277
 4915SOL     OW15643   4.691   6.766   5.028
 4915SOL    HW115644   4.645   6.850   5.055
 4915SOL    HW215645   4.790   6.777   5.042
 4916SOL     OW15646   5.874   2.852   3.728
 4916SOL    HW115647   5.875   2.911   3.808
 4916SOL    HW215648   5.829   2.899   3.652
 4917SOL     OW15649   5.062   6.336   6.742
 4917SOL    HW115650   5.090   6.391   6.664
 4917SOL    HW215651   4.994   6.268   6.712
 4918SOL     OW15652   4.666   6.149   4.354
 4918SOL    HW115653   4.661   6.080   4.426
 4918SOL    HW215654   4.618   6.117   4.273
 4919SOL     OW15655   4.636   4.025   1.671
 4919SOL    HW115656   4.679   4.007   1.759
 4919SOL    HW215657   4.595   4.117   1.672
 4920SOL     OW15658   6.120   0.850   5.619
 4920SOL    HW115659   6.215   0.866   5.592
 4920SOL    HW215660   6.061   0.920   5.577
 4921SOL     OW15661   6.244   0.430   2.521
 4921SOL    HW115662   6.319   0.442   2.587
 4921SOL    HW215663   6.277   0.453   2.429
 4922SOL     OW15664   3.953   0.540   6.185
 4922SOL    HW115665   4.034   0.495   6.147
 4922SOL    HW215666   3.951   0.525   6.284
 4923SOL     OW15667   3.688   1.319   2.185
 4923SOL    HW115668   3.640   1.362   2.109
 4923SOL    HW215669   3.775   1.366   2.201
 4924SOL     OW15670   3.169   1.457   5.349
 4924SOL    HW115671   3.104   1.402   5.296
 4924SOL    HW215672   3.227   1.508   5.286
 4925SOL     OW15673   5.581   0.166   3.725
 4925SOL    HW115674   5.564   0.171   3.627
 4925SOL    HW215675   5.520   0.228   3.773
 4926SOL     OW15676   4.818   2.391   2.111
 4926SOL    HW115677   4.740   2.328   2.108
 4926SOL    HW215678   4.822   2.443   2.026
 4927SOL     OW15679   2.258   1.667   0.344
 4927SOL    HW115680   2.268   1.725   0.263
 4927SOL    HW215681   2.306   1.709   0.422
 4928SOL     OW15682   1.018   1.877   1.353
 4928SOL    HW115683   1.016   1.958   1.412
 4928SOL    HW215684   0.926   1.858   1.320
 4929SOL     OW15685   6.625   0.718   4.993
 4929SOL    HW115686   6.644   0.799   4.938
 4929SOL    HW215687   6.536   0.680   4.967
 4930SOL     OW15688   4.824   5.811   2.298
 4930SOL    HW115689   4.747   5.870   2.275
 4930SOL    HW215690   4.907   5.866   2.305
 4931SOL     OW15691   4.548   0.539   1.393
 4931SOL    HW115692   4.494   0.483   1.329
 4931SOL    HW215693   4.627   0.486   1.424
 4932SOL     OW15694   2.971   3.767   3.557
 4932SOL    HW115695   2.964   3.693   3.490
 4932SOL    HW215696   2.978   3.728   3.649
 4933SOL     OW15697   1.775   0.715   5.057
 4933SOL    HW115698   1.751   0.787   4.992
 4933SOL    HW215699   1.803   0.633   5.007
 4934SOL     OW15700   2.213   0.078   2.917
 4934SOL    HW115701   2.145   0.018   2.873
 4934SOL    HW215702   2.268   0.122   2.846
 4935SOL     OW15703   6.295   0.270   4.701
 4935SOL    HW115704   6.232   0.224   4.638
 4935SOL    HW215705   6.268   0.366   4.710
 4936SOL     OW15706   5.057   2.726   0.681
 4936SOL    HW115707   5.095   2.742   0.590
 4936SOL    HW215708   5.094   2.640   0.717
 4937SOL     OW15709   3.707   2.767   5.232
 4937SOL    HW115710   3.711   2.784   5.331
 4937SOL    HW215711   3.726   2.670   5.214
 4938SOL     OW15712   2.585   4.591   6.861
 4938SOL    HW115713   2.678   4.559   6.876
 4938SOL    HW215714   2.561   4.582   6.765
 4939SOL     OW15715   5.127   3.083   6.595
 4939SOL    HW115716   5.158   3.050   6.506
 4939SOL    HW215717   5.036   3.124   6.586
 4940SOL     OW15718   1.327   5.953   3.407
 4940SOL    HW115719   1.297   5.928   3.499
 4940SOL    HW215720   1.417   5.913   3.389
 4941SOL     OW15721   6.324   0.257   0.598
 4941SOL    HW115722   6.337   0.279   0.694
 4941SOL    HW215723   6.407   0.214   0.562
 4942SOL     OW15724   5.526   2.628   5.767
 4942SOL    HW115725   5.440   2.580   5.783
 4942SOL    HW215726   5.534   2.650   5.669
 4943SOL     OW15727   6.235   3.608   1.077
 4943SOL    HW115728   6.249   3.525   1.130
 4943SOL    HW215729   6.303   3.613   1.004
 4944SOL     OW15730   1.858   3.151   1.502
 4944SOL    HW115731   1.833   3.129   1.597
 4944SOL    HW215732   1.938   3.098   1.476
 4945SOL     OW15733   6.866   5.436   4.025
 4945SOL    HW115734   6.935   5.451   4.095
 4945SOL    HW215735   6.776   5.427   4.069
 4946SOL     OW15736   6.605   4.505   2.378
 4946SOL    HW115737   6.695   4.468   2.401
 4946SOL    HW215738   6.592   4.503   2.279
 4947SOL     OW15739   5.759   0.217   0.521
 4947SOL    HW115740   5.757   0.314   0.545
 4947SOL    HW215741   5.842   0.198   0.468
 4948SOL     OW15742   2.733   1.373   2.036
 4948SOL    HW115743   2.658   1.435   2.057
 4948SOL    HW215744   2.805   1.422   1.988
 4949SOL     OW15745   5.371   2.300   5.905
 4949SOL    HW115746   5.317   2.261   5.979
 4949SOL    HW215747   5.318   2.372   5.860
 4950SOL     OW15748   3.600   5.333   4.128
 4950SOL    HW115749   3.639   5.390   4.055
 4950SOL    HW215750   3.672   5.309   4.193
 4951SOL     OW15751   4.621   2.716   3.897
 4951SOL    HW115752   4.523   2.711   3.914
 4951SOL    HW215753   4.670   2.669   3.971
 4952SOL     OW15754   6.578   5.270   4.410
 4952SOL    HW115755   6.614   5.305   4.323
 4952SOL    HW215756   6.617   5.322   4.486
 4953SOL     OW15757   0.634   4.881   1.693
 4953SOL    HW115758   0.649   4.794   1.739
 4953SOL    HW215759   0.687   4.884   1.608
 4954SOL     OW15760   0.310   6.762   6.121
 4954SOL    HW115761   0.344   6.677   6.080
 4954SOL    HW215762   0.327   6.760   6.219
 4955SOL     OW15763   1.486   0.192   1.959
 4955SOL    HW115764   1.478   0.277   2.011
 4955SOL    HW215765   1.523   0.211   1.868
 4956SOL     OW15766   6.095   6.158   3.272
 4956SOL    HW115767   6.057   6.129   3.184
 4956SOL    HW215768   6.179   6.108   3.291
 4957SOL     OW15769   1.552   5.308   4.687
 4957SOL    HW115770   1.560   5.213   4.657
 4957SOL    HW215771   1.639   5.338   4.726
 4958SOL     OW15772   0.056   6.340   6.971
 4958SOL    HW115773   0.013   6.404   0.015
 4958SOL    HW215774   0.154   6.335   6.990
 4959SOL     OW15775   1.450   1.366   0.023
 4959SOL    HW115776   1.452   1.331   0.117
 4959SOL    HW215777   1.518   1.439   0.013
 4960SOL     OW15778   4.053   6.568   5.381
 4960SOL    HW115779   3.997   6.631   5.327
 4960SOL    HW215780   4.054   6.478   5.338
 4961SOL     OW15781   5.548   7.007   5.156
 4961SOL    HW115782   5.587   0.029   5.238
 4961SOL    HW215783   5.578   0.038   5.076
 4962SOL     OW15784   6.257   2.098   2.476
 4962SOL    HW115785   6.167   2.088   2.520
 4962SOL    HW215786   6.284   2.011   2.436
 4963SOL     OW15787   0.908   4.532   1.149
 4963SOL    HW115788   0.996   4.561   1.187
 4963SOL    HW215789   0.920   4.505   1.054
 4964SOL     OW15790   3.791   1.258   3.491
 4964SOL    HW115791   3.821   1.349   3.463
 4964SOL    HW215792   3.747   1.264   3.581
 4965SOL     OW15793   0.152   5.432   5.103
 4965SOL    HW115794   0.244   5.392   5.102
 4965SOL    HW215795   0.142   5.492   5.024
 4966SOL     OW15796   5.029   5.937   5.358
 4966SOL    HW115797   4.995   5.869   5.293
 4966SOL    HW215798   5.091   5.894   5.423
 4967SOL     OW15799   5.585   0.735   0.138
 4967SOL    HW115800   5.677   0.724   0.100
 4967SOL    HW215801   5.540   0.812   0.092
 4968SOL     OW15802   5.398   3.550   6.487
 4968SOL    HW115803   5.364   3.530   6.579
 4968SOL    HW215804   5.360   3.483   6.423
 4969SOL     OW15805   1.103   0.762   1.381
 4969SOL    HW115806   1.199   0.744   1.403
 4969SOL    HW215807   1.056   0.800   1.461
 4970SOL     OW15808   2.000   2.012   6.122
 4970SOL    HW115809   1.964   1.965   6.042
 4970SOL    HW215810   1.931   2.075   6.157
 4971SOL     OW15811   5.918   5.648   3.875
 4971SOL    HW115812   5.987   5.720   3.863
 4971SOL    HW215813   5.902   5.633   3.972
 4972SOL     OW15814   1.850   2.381   4.414
 4972SOL    HW115815   1.855   2.388   4.314
 4972SOL    HW215816   1.810   2.465   4.451
 4973SOL     OW15817   4.692   5.869   3.120
 4973SOL    HW115818   4.724   5.950   3.071
 4973SOL    HW215819   4.688   5.888   3.218
 4974SOL     OW15820   3.562   6.706   6.228
 4974SOL    HW115821   3.504   6.744   6.300
 4974SOL    HW215822   3.584   6.611   6.250
 4975SOL     OW15823   4.098   5.929   6.876
 4975SOL    HW115824   4.156   5.894   6.950
 4975SOL    HW215825   4.004   5.940   6.910
 4976SOL     OW15826   2.426   1.116   4.732
 4976SOL    HW115827   2.395   1.204   4.697
 4976SOL    HW215828   2.391   1.102   4.824
 4977SOL     OW15829   3.680   3.450   2.043
 4977SOL    HW115830   3.654   3.354   2.033
 4977SOL    HW215831   3.779   3.457   2.052
 4978SOL     OW15832   5.960   3.716   6.463
 4978SOL    HW115833   6.045   3.719   6.411
 4978SOL    HW215834   5.885   3.688   6.403
 4979SOL     OW15835   1.168   1.991   3.501
 4979SOL    HW115836   1.136   1.896   3.501
 4979SOL    HW215837   1.149   2.032   3.412
 4980SOL     OW15838   2.251   4.735   2.469
 4980SOL    HW115839   2.239   4.669   2.543
 4980SOL    HW215840   2.232   4.827   2.503
 4981SOL     OW15841   5.133   5.746   5.552
 4981SOL    HW115842   5.150   5.661   5.502
 4981SOL    HW215843   5.221   5.784   5.583
 4982SOL     OW15844   2.705   1.429   6.454
 4982SOL    HW115845   2.785   1.388   6.408
 4982SOL    HW215846   2.654   1.483   6.388
 4983SOL     OW15847   6.810   1.607   4.014
 4983SOL    HW115848   6.808   1.695   3.967
 4983SOL    HW215849   6.733   1.602   4.078
 4984SOL     OW15850   4.887   5.458   3.685
 4984SOL    HW115851   4.922   5.365   3.694
 4984SOL    HW215852   4.788   5.455   3.672
 4985SOL     OW15853   5.698   3.955   1.329
 4985SOL    HW115854   5.618   3.922   1.278
 4985SOL    HW215855   5.690   3.930   1.425
 4986SOL     OW15856   3.703   5.203   3.504
 4986SOL    HW115857   3.765   5.224   3.428
 4986SOL    HW215858   3.610   5.194   3.469
 4987SOL     OW15859   1.255   2.497   0.164
 4987SOL    HW115860   1.215   2.405   0.158
 4987SOL    HW215861   1.273   2.519   0.260
 4988SOL     OW15862   2.262   1.945   4.663
 4988SOL    HW115863   2.265   2.012   4.589
 4988SOL    HW215864   2.212   1.864   4.633
 4989SOL     OW15865   6.977   0.943   1.265
 4989SOL    HW115866   7.016   0.887   1.192
 4989SOL    HW215867   6.988   0.897   1.353
 4990SOL     OW15868   1.858   1.991   6.654
 4990SOL    HW115869   1.759   1.978   6.660
 4990SOL    HW215870   1.877   2.075   6.604
 4991SOL     OW15871   2.510   1.926   5.647
 4991SOL    HW115872   2.574   1.920   5.723
 4991SOL    HW215873   2.509   1.840   5.596
 4992SOL     OW15874   3.976   0.175   4.587
 4992SOL    HW115875   3.963   0.114   4.665
 4992SOL    HW215876   4.050   0.239   4.606
 4993SOL     OW15877   1.045   6.462   4.461
 4993SOL    HW115878   1.122   6.524   4.449
 4993SOL    HW215879   1.068   6.392   4.529
 4994SOL     OW15880   0.043   5.773   3.215
 4994SOL    HW115881   7.016   5.774   3.303
 4994SOL    HW215882   0.020   5.689   3.166
 4995SOL     OW15883   5.413   2.629   5.165
 4995SOL    HW115884   5.422   2.545   5.112
 4995SOL    HW215885   5.342   2.687   5.123
 4996SOL     OW15886   0.571   2.403   4.042
 4996SOL    HW115887   0.563   2.315   4.090
 4996SOL    HW215888   0.666   2.435   4.046
 4997SOL     OW15889   0.150   2.451   3.460
 4997SOL    HW115890   0.216   2.376   3.460
 4997SOL    HW215891   0.195   2.535   3.491
 4998SOL     OW15892   1.120   5.847   5.874
 4998SOL    HW115893   1.071   5.891   5.799
 4998SOL    HW215894   1.190   5.909   5.909
 4999SOL     OW15895   6.062   5.219   1.065
 4999SOL    HW115896   6.010   5.288   1.016
 4999SOL    HW215897   6.105   5.261   1.145
 5000SOL     OW15898   5.738   5.508   3.708
 5000SOL    HW115899   5.647   5.549   3.698
 5000SOL    HW215900   5.785   5.553   3.784
 5001SOL     OW15901   4.700   3.502   5.571
 5001SOL    HW115902   4.759   3.435   5.528
 5001SOL    HW215903   4.608   3.495   5.532
 5002SOL     OW15904   1.376   2.520   1.528
 5002SOL    HW115905   1.441   2.443   1.536
 5002SOL    HW215906   1.378   2.554   1.434
 5003SOL     OW15907   5.521   5.649   4.502
 5003SOL    HW115908   5.533   5.709   4.582
 5003SOL    HW215909   5.458   5.693   4.438
 5004SOL     OW15910   2.287   4.827   6.069
 5004SOL    HW115911   2.288   4.914   6.019
 5004SOL    HW215912   2.381   4.804   6.096
 5005SOL     OW15913   5.458   1.811   0.177
 5005SOL    HW115914   5.472   1.831   0.274
 5005SOL    HW215915   5.497   1.884   0.122
 5006SOL     OW15916   4.431   5.247   1.651
 5006SOL    HW115917   4.514   5.303   1.645
 5006SOL    HW215918   4.446   5.160   1.603
 5007SOL     OW15919   3.482   0.788   4.640
 5007SOL    HW115920   3.397   0.738   4.627
 5007SOL    HW215921   3.533   0.790   4.554
 5008SOL     OW15922   6.166   1.927   4.199
 5008SOL    HW115923   6.132   2.021   4.198
 5008SOL    HW215924   6.204   1.904   4.109
 5009SOL     OW15925   2.837   6.987   2.257
 5009SOL    HW115926   2.763   6.939   2.303
 5009SOL    HW215927   2.902   0.002   2.325
 5010SOL     OW15928   3.169   3.979   5.729
 5010SOL    HW115929   3.193   4.042   5.656
 5010SOL    HW215930   3.090   4.015   5.779
 5011SOL     OW15931   0.965   1.656   4.797
 5011SOL    HW115932   0.882   1.643   4.743
 5011SOL    HW215933   1.018   1.571   4.797
 5012SOL     OW15934   6.696   2.426   7.018
 5012SOL    HW115935   6.615   2.409   0.054
 5012SOL    HW215936   6.743   2.339   7.001
 5013SOL     OW15937   4.664   1.610   5.181
 5013SOL    HW115938   4.691   1.689   5.237
 5013SOL    HW215939   4.567   1.618   5.158
 5014SOL     OW15940   1.094   4.573   6.279
 5014SOL    HW115941   1.170   4.520   6.317
 5014SOL    HW215942   1.035   4.604   6.353
 5015SOL     OW15943   4.804   2.447   3.608
 5015SOL    HW115944   4.727   2.387   3.631
 5015SOL    HW215945   4.890   2.396   3.617
 5016SOL     OW15946   2.008   5.834   1.623
 5016SOL    HW115947   2.004   5.763   1.694
 5016SOL    HW215948   2.082   5.897   1.644
 5017SOL     OW15949   0.204   2.387   1.227
 5017SOL    HW115950   0.109   2.415   1.226
 5017SOL    HW215951   0.210   2.291   1.256
 5018SOL     OW15952   6.224   5.408   4.355
 5018SOL    HW115953   6.288   5.475   4.316
 5018SOL    HW215954   6.201   5.340   4.285
 5019SOL     OW15955   2.684   5.613   4.718
 5019SOL    HW115956   2.735   5.691   4.755
 5019SOL    HW215957   2.621   5.578   4.788
 5020SOL     OW15958   4.518   5.214   0.085
 5020SOL    HW115959   4.475   5.261   0.008
 5020SOL    HW215960   4.500   5.116   0.078
 5021SOL     OW15961   2.515   4.748   5.294
 5021SOL    HW115962   2.592   4.685   5.284
 5021SOL    HW215963   2.435   4.710   5.248
 5022SOL     OW15964   1.744   2.830   6.207
 5022SOL    HW115965   1.659   2.881   6.199
 5022SOL    HW215966   1.781   2.840   6.300
 5023SOL     OW15967   6.334   3.025   3.847
 5023SOL    HW115968   6.328   2.926   3.835
 5023SOL    HW215969   6.428   3.049   3.871
 5024SOL     OW15970   5.010   3.953   5.169
 5024SOL    HW115971   4.948   3.929   5.244
 5024SOL    HW215972   4.974   4.032   5.120
 5025SOL     OW15973   5.325   6.790   5.301
 5025SOL    HW115974   5.358   6.800   5.207
 5025SOL    HW215975   5.267   6.868   5.324
 5026SOL     OW15976   1.081   5.685   2.394
 5026SOL    HW115977   1.054   5.731   2.479
 5026SOL    HW215978   1.104   5.590   2.413
 5027SOL     OW15979   0.952   5.581   3.148
 5027SOL    HW115980   0.854   5.604   3.147
 5027SOL    HW215981   1.000   5.646   3.207
 5028SOL     OW15982   0.748   6.464   2.272
 5028SOL    HW115983   0.755   6.546   2.328
 5028SOL    HW215984   0.654   6.430   2.275
 5029SOL     OW15985   5.723   0.411   4.576
 5029SOL    HW115986   5.666   0.476   4.526
 5029SOL    HW215987   5.725   0.436   4.673
 5030SOL     OW15988   1.702   5.636   0.588
 5030SOL    HW115989   1.607   5.657   0.609
 5030SOL    HW215990   1.731   5.557   0.642
 5031SOL     OW15991   5.463   0.477   0.014
 5031SOL    HW115992   5.548   0.524   0.036
 5031SOL    HW215993   5.478   0.413   6.959
 5032SOL     OW15994   1.802   5.724   2.684
 5032SOL    HW115995   1.869   5.654   2.658
 5032SOL    HW215996   1.822   5.757   2.776
 5033SOL     OW15997   0.927   4.477   4.826
 5033SOL    HW115998   0.982   4.540   4.771
 5033SOL    HW215999   0.890   4.405   4.767
 5034SOL     OW16000   1.078   2.490   6.077
 5034SOL    HW116001   1.116   2.581   6.096
 5034SOL    HW216002   0.982   2.488   6.103
 5035SOL     OW16003   6.692   4.975   0.773
 5035SOL    HW116004   6.707   5.045   0.843
 5035SOL    HW216005   6.670   4.888   0.817
 5036SOL     OW16006   1.216   1.550   2.843
 5036SOL    HW116007   1.228   1.641   2.883
 5036SOL    HW216008   1.119   1.533   2.828
 5037SOL     OW16009   5.091   3.901   1.076
 5037SOL    HW116010   5.158   3.973   1.056
 5037SOL    HW216011   5.130   3.836   1.141
 5038SOL     OW16012   3.024   5.791   5.433
 5038SOL    HW116013   3.035   5.841   5.519
 5038SOL    HW216014   3.113   5.756   5.404
 5039SOL     OW16015   0.846   2.804   3.784
 5039SOL    HW116016   0.918   2.804   3.714
 5039SOL    HW216017   0.774   2.868   3.758
 5040SOL     OW16018   2.455   3.152   6.674
 5040SOL    HW116019   2.516   3.170   6.598
 5040SOL    HW216020   2.387   3.226   6.681
 5041SOL     OW16021   0.702   5.678   6.995
 5041SOL    HW116022   0.685   5.619   0.053
 5041SOL    HW216023   0.666   5.770   7.013
 5042SOL     OW16024   5.574   1.038   6.215
 5042SOL    HW116025   5.640   0.996   6.278
 5042SOL    HW216026   5.483   1.038   6.256
 5043SOL     OW16027   5.390   6.520   4.357
 5043SOL    HW116028   5.402   6.556   4.450
 5043SOL    HW216029   5.451   6.568   4.294
 5044SOL     OW16030   6.998   4.122   2.091
 5044SOL    HW116031   6.915   4.099   2.040
 5044SOL    HW216032   6.994   4.081   2.182
 5045SOL     OW16033   5.144   2.718   5.442
 5045SOL    HW116034   5.176   2.623   5.450
 5045SOL    HW216035   5.046   2.722   5.460
 5046SOL     OW16036   3.855   2.816   5.797
 5046SOL    HW116037   3.843   2.869   5.713
 5046SOL    HW216038   3.833   2.873   5.876
 5047SOL     OW16039   0.417   1.728   1.750
 5047SOL    HW116040   0.330   1.684   1.729
 5047SOL    HW216041   0.415   1.763   1.844
 5048SOL     OW16042   5.313   4.271   0.401
 5048SOL    HW116043   5.352   4.219   0.476
 5048SOL    HW216044   5.270   4.209   0.336
 5049SOL     OW16045   1.299   0.856   0.481
 5049SOL    HW116046   1.285   0.764   0.444
 5049SOL    HW216047   1.235   0.872   0.557
 5050SOL     OW16048   1.634   3.957   0.993
 5050SOL    HW116049   1.575   3.876   0.992
 5050SOL    HW216050   1.716   3.938   1.047
 5051SOL     OW16051   2.273   3.844   6.348
 5051SOL    HW116052   2.330   3.766   6.321
 5051SOL    HW216053   2.216   3.873   6.270
 5052SOL     OW16054   6.324   3.281   1.247
 5052SOL    HW116055   6.300   3.184   1.255
 5052SOL    HW216056   6.317   3.324   1.337
 5053SOL     OW16057   1.031   3.708   1.634
 5053SOL    HW116058   1.101   3.777   1.653
 5053SOL    HW216059   0.987   3.728   1.547
 5054SOL     OW16060   3.968   5.774   5.228
 5054SOL    HW116061   4.012   5.862   5.211
 5054SOL    HW216062   3.968   5.756   5.326
 5055SOL     OW16063   0.842   0.280   4.256
 5055SOL    HW116064   0.755   0.329   4.262
 5055SOL    HW216065   0.878   0.285   4.163
 5056SOL     OW16066   2.913   1.323   6.322
 5056SOL    HW116067   2.994   1.268   6.342
 5056SOL    HW216068   2.940   1.405   6.272
 5057SOL     OW16069   0.594   3.558   2.175
 5057SOL    HW116070   0.580   3.536   2.079
 5057SOL    HW216071   0.625   3.476   2.224
 5058SOL     OW16072   3.870   2.226   0.199
 5058SOL    HW116073   3.897   2.208   0.104
 5058SOL    HW216074   3.943   2.275   0.246
 5059SOL     OW16075   5.526   2.506   2.381
 5059SOL    HW116076   5.438   2.460   2.372
 5059SOL    HW216077   5.549   2.518   2.477
 5060SOL     OW16078   6.797   2.756   5.779
 5060SOL    HW116079   6.810   2.692   5.855
 5060SOL    HW216080   6.702   2.785   5.776
 5061SOL     OW16081   4.582   2.778   6.164
 5061SOL    HW116082   4.553   2.860   6.213
 5061SOL    HW216083   4.501   2.733   6.126
 5062SOL     OW16084   5.851   0.898   3.303
 5062SOL    HW116085   5.846   0.982   3.357
 5062SOL    HW216086   5.759   0.859   3.294
 5063SOL     OW16087   0.279   0.713   0.394
 5063SOL    HW116088   0.272   0.696   0.492
 5063SOL    HW216089   0.253   0.808   0.375
 5064SOL     OW16090   6.388   5.138   0.231
 5064SOL    HW116091   6.355   5.078   0.158
 5064SOL    HW216092   6.337   5.120   0.315
 5065SOL     OW16093   0.994   1.981   2.496
 5065SOL    HW116094   0.935   2.050   2.539
 5065SOL    HW216095   0.939   1.921   2.439
 5066SOL     OW16096   1.015   5.119   4.054
 5066SOL    HW116097   0.919   5.146   4.057
 5066SOL    HW216098   1.064   5.175   3.987
 5067SOL     OW16099   4.707   3.073   0.641
 5067SOL    HW116100   4.623   3.094   0.690
 5067SOL    HW216101   4.773   3.147   0.654
 5068SOL     OW16102   1.362   0.024   1.403
 5068SOL    HW116103   1.269   7.016   1.424
 5068SOL    HW216104   1.425   6.968   1.421
 5069SOL     OW16105   4.109   4.503   6.014
 5069SOL    HW116106   4.038   4.440   5.983
 5069SOL    HW216107   4.126   4.489   6.112
 5070SOL     OW16108   0.913   3.547   6.588
 5070SOL    HW116109   0.870   3.632   6.618
 5070SOL    HW216110   0.887   3.528   6.494
 5071SOL     OW16111   1.617   6.571   2.298
 5071SOL    HW116112   1.643   6.503   2.230
 5071SOL    HW216113   1.543   6.628   2.262
 5072SOL     OW16114   0.575   2.212   2.671
 5072SOL    HW116115   0.631   2.150   2.616
 5072SOL    HW216116   0.622   2.233   2.756
 5073SOL     OW16117   1.682   1.861   4.283
 5073SOL    HW116118   1.712   1.933   4.346
 5073SOL    HW216119   1.752   1.846   4.213
 5074SOL     OW16120   4.061   2.079   1.572
 5074SOL    HW116121   4.026   2.160   1.525
 5074SOL    HW216122   4.160   2.085   1.578
 5075SOL     OW16123   6.184   1.867   6.823
 5075SOL    HW116124   6.152   1.917   6.742
 5075SOL    HW216125   6.115   1.875   6.896
 5076SOL     OW16126   0.127   1.355   5.728
 5076SOL    HW116127   0.181   1.308   5.797
 5076SOL    HW216128   0.033   1.322   5.730
 5077SOL     OW16129   0.840   5.047   4.468
 5077SOL    HW116130   0.775   5.083   4.534
 5077SOL    HW216131   0.931   5.045   4.508
 5078SOL     OW16132   6.020   1.146   2.876
 5078SOL    HW116133   5.991   1.164   2.970
 5078SOL    HW216134   5.943   1.161   2.814
 5079SOL     OW16135   1.537   3.509   5.768
 5079SOL    HW116136   1.546   3.411   5.747
 5079SOL    HW216137   1.540   3.562   5.683
 5080SOL     OW16138   6.569   6.215   6.949
 5080SOL    HW116139   6.593   6.281   6.877
 5080SOL    HW216140   6.483   6.241   6.992
 5081SOL     OW16141   3.467   4.567   5.652
 5081SOL    HW116142   3.512   4.496   5.597
 5081SOL    HW216143   3.422   4.632   5.591
 5082SOL     OW16144   5.653   6.972   2.840
 5082SOL    HW116145   5.633   0.048   2.857
 5082SOL    HW216146   5.648   6.954   2.742
 5083SOL     OW16147   0.344   0.536   3.231
 5083SOL    HW116148   0.353   0.633   3.206
 5083SOL    HW216149   0.423   0.507   3.284
 5084SOL     OW16150   3.584   5.154   5.976
 5084SOL    HW116151   3.677   5.181   5.998
 5084SOL    HW216152   3.522   5.231   5.992
 5085SOL     OW16153   1.152   3.435   6.609
 5085SOL    HW116154   1.076   3.499   6.594
 5085SOL    HW216155   1.117   3.351   6.650
 5086SOL     OW16156   0.934   4.612   1.966
 5086SOL    HW116157   0.876   4.547   2.016
 5086SOL    HW216158   0.908   4.705   1.991
 5087SOL     OW16159   6.341   5.446   1.766
 5087SOL    HW116160   6.371   5.362   1.721
 5087SOL    HW216161   6.420   5.490   1.811
 5088SOL     OW16162   3.986   4.795   2.359
 5088SOL    HW116163   4.076   4.780   2.318
 5088SOL    HW216164   3.931   4.853   2.299
 5089SOL     OW16165   4.939   5.602   5.973
 5089SOL    HW116166   4.996   5.547   6.033
 5089SOL    HW216167   4.866   5.646   6.026
 5090SOL     OW16168   2.206   6.663   4.683
 5090SOL    HW116169   2.159   6.664   4.772
 5090SOL    HW216170   2.203   6.571   4.645
 5091SOL     OW16171   6.404   5.776   4.919
 5091SOL    HW116172   6.478   5.761   4.984
 5091SOL    HW216173   6.324   5.812   4.968
 5092SOL     OW16174   3.780   3.165   4.662
 5092SOL    HW116175   3.870   3.202   4.684
 5092SOL    HW216176   3.772   3.072   4.700
 5093SOL     OW16177   3.080   1.997   3.708
 5093SOL    HW116178   3.055   1.900   3.705
 5093SOL    HW216179   3.102   2.029   3.615
 5094SOL     OW16180   2.345   4.858   4.934
 5094SOL    HW116181   2.436   4.818   4.934
 5094SOL    HW216182   2.276   4.786   4.938
 5095SOL     OW16183   5.942   2.089   3.356
 5095SOL    HW116184   5.941   2.143   3.440
 5095SOL    HW216185   5.991   2.003   3.371
 5096SOL     OW16186   5.851   3.098   5.229
 5096SOL    HW116187   5.888   3.071   5.140
 5096SOL    HW216188   5.758   3.062   5.238
 5097SOL     OW16189   0.821   0.388   6.070
 5097SOL    HW116190   0.745   0.424   6.123
 5097SOL    HW216191   0.812   0.417   5.975
 5098SOL     OW16192   3.054   1.929   0.827
 5098SOL    HW116193   3.081   1.848   0.776
 5098SOL    HW216194   2.955   1.928   0.840
 5099SOL     OW16195   1.533   5.936   1.944
 5099SOL    HW116196   1.521   6.033   1.923
 5099SOL    HW216197   1.625   5.920   1.980
 5100SOL     OW16198   6.706   3.466   1.281
 5100SOL    HW116199   6.638   3.462   1.207
 5100SOL    HW216200   6.662   3.446   1.368
 5101SOL     OW16201   4.462   1.908   6.118
 5101SOL    HW116202   4.400   1.852   6.062
 5101SOL    HW216203   4.542   1.853   6.144
 5102SOL     OW16204   5.467   4.592   5.429
 5102SOL    HW116205   5.543   4.579   5.365
 5102SOL    HW216206   5.499   4.638   5.511
 5103SOL     OW16207   0.198   0.336   5.537
 5103SOL    HW116208   0.100   0.342   5.518
 5103SOL    HW216209   0.246   0.312   5.453
 5104SOL     OW16210   3.461   3.113   3.925
 5104SOL    HW116211   3.404   3.192   3.901
 5104SOL    HW216212   3.476   3.057   3.844
 5105SOL     OW16213   4.395   2.325   6.586
 5105SOL    HW116214   4.468   2.380   6.546
 5105SOL    HW216215   4.312   2.334   6.530
 5106SOL     OW16216   4.134   0.536   1.568
 5106SOL    HW116217   4.225   0.559   1.602
 5106SOL    HW216218   4.073   0.615   1.578
 5107SOL     OW16219   6.296   4.591   6.491
 5107SOL    HW116220   6.205   4.550   6.502
 5107SOL    HW216221   6.352   4.569   6.571
 5108SOL     OW16222   4.596   4.125   1.190
 5108SOL    HW116223   4.597   4.097   1.094
 5108SOL    HW216224   4.663   4.071   1.241
 5109SOL     OW16225   1.795   2.352   1.918
 5109SOL    HW116226   1.803   2.313   2.010
 5109SOL    HW216227   1.764   2.281   1.855
 5110SOL     OW16228   3.166   6.318   4.922
 5110SOL    HW116229   3.218   6.390   4.969
 5110SOL    HW216230   3.209   6.297   4.835
 5111SOL     OW16231   2.605   6.095   6.318
 5111SOL    HW116232   2.569   6.097   6.225
 5111SOL    HW216233   2.620   6.188   6.350
 5112SOL     OW16234   0.491   4.115   2.511
 5112SOL    HW116235   0.578   4.069   2.496
 5112SOL    HW216236   0.488   4.199   2.456
 5113SOL     OW16237   2.947   4.828   1.253
 5113SOL    HW116238   2.995   4.756   1.202
 5113SOL    HW216239   2.852   4.801   1.267
 5114SOL     OW16240   4.564   4.407   1.105
 5114SOL    HW116241   4.570   4.317   1.149
 5114SOL    HW216242   4.599   4.477   1.167
 5115SOL     OW16243   1.721   3.900   0.697
 5115SOL    HW116244   1.684   3.913   0.605
 5115SOL    HW216245   1.652   3.925   0.765
 5116SOL     OW16246   0.605   6.414   5.583
 5116SOL    HW116247   0.678   6.478   5.559
 5116SOL    HW216248   0.592   6.348   5.509
 5117SOL     OW16249   0.024   3.598   4.206
 5117SOL    HW116250   0.027   3.501   4.228
 5117SOL    HW216251   0.003   3.650   4.289
 5118SOL     OW16252   5.053   5.452   0.128
 5118SOL    HW116253   4.980   5.385   0.139
 5118SOL    HW216254   5.021   5.541   0.160
 5119SOL     OW16255   5.293   1.199   0.093
 5119SOL    HW116256   5.344   1.258   0.031
 5119SOL    HW216257   5.318   1.220   0.188
 5120SOL     OW16258   5.541   6.667   6.579
 5120SOL    HW116259   5.544   6.767   6.577
 5120SOL    HW216260   5.627   6.629   6.544
 5121SOL     OW16261   2.373   3.617   0.168
 5121SOL    HW116262   2.350   3.669   0.086
 5121SOL    HW216263   2.442   3.666   0.220
 5122SOL     OW16264   5.183   5.300   3.571
 5122SOL    HW116265   5.281   5.291   3.583
 5122SOL    HW216266   5.150   5.381   3.620
 5123SOL     OW16267   4.696   2.105   1.314
 5123SOL    HW116268   4.761   2.175   1.345
 5123SOL    HW216269   4.746   2.030   1.271
 5124SOL     OW16270   0.563   5.636   4.456
 5124SOL    HW116271   0.494   5.583   4.505
 5124SOL    HW216272   0.518   5.692   4.386
 5125SOL     OW16273   5.005   2.600   3.937
 5125SOL    HW116274   5.009   2.688   3.984
 5125SOL    HW216275   4.913   2.563   3.944
 5126SOL     OW16276   2.695   0.721   2.406
 5126SOL    HW116277   2.708   0.812   2.444
 5126SOL    HW216278   2.715   0.722   2.308
 5127SOL     OW16279   2.351   6.182   1.189
 5127SOL    HW116280   2.414   6.223   1.254
 5127SOL    HW216281   2.290   6.253   1.153
 5128SOL     OW16282   4.099   0.270   2.346
 5128SOL    HW116283   4.182   0.217   2.362
 5128SOL    HW216284   4.023   0.230   2.396
 5129SOL     OW16285   6.179   5.366   6.876
 5129SOL    HW116286   6.268   5.410   6.863
 5129SOL    HW216287   6.191   5.279   6.923
 5130SOL     OW16288   5.914   4.746   2.296
 5130SOL    HW116289   5.947   4.658   2.263
 5130SOL    HW216290   5.953   4.765   2.386
 5131SOL     OW16291   2.285   2.245   1.752
 5131SOL    HW116292   2.260   2.342   1.744
 5131SOL    HW216293   2.279   2.217   1.848
 5132SOL     OW16294   2.352   6.174   5.734
 5132SOL    HW116295   2.428   6.239   5.746
 5132SOL    HW216296   2.284   6.190   5.805
 5133SOL     OW16297   4.172   6.016   4.837
 5133SOL    HW116298   4.143   5.935   4.785
 5133SOL    HW216299   4.092   6.066   4.868
 5134SOL     OW16300   1.369   2.430   6.917
 5134SOL    HW116301   1.353   2.473   7.006
 5134SOL    HW216302   1.306   2.469   6.850
 5135SOL     OW16303   6.374   1.461   3.170
 5135SOL    HW116304   6.299   1.430   3.228
 5135SOL    HW216305   6.408   1.384   3.115
 5136SOL     OW16306   3.639   2.082   6.676
 5136SOL    HW116307   3.614   2.084   6.773
 5136SOL    HW216308   3.655   2.175   6.644
 5137SOL     OW16309   4.748   3.218   6.817
 5137SOL    HW116310   4.819   3.283   6.843
 5137SOL    HW216311   4.704   3.248   6.733
 5138SOL     OW16312   2.273   3.273   5.553
 5138SOL    HW116313   2.207   3.349   5.550
 5138SOL    HW216314   2.342   3.293   5.623
 5139SOL     OW16315   0.858   6.823   4.409
 5139SOL    HW116316   0.928   6.859   4.471
 5139SOL    HW216317   0.836   6.729   4.435
 5140SOL     OW16318   3.158   2.974   2.495
 5140SOL    HW116319   3.090   2.901   2.489
 5140SOL    HW216320   3.245   2.942   2.459
 5141SOL     OW16321   1.390   3.303   5.222
 5141SOL    HW116322   1.390   3.265   5.315
 5141SOL    HW216323   1.304   3.278   5.176
 5142SOL     OW16324   5.463   3.456   1.763
 5142SOL    HW116325   5.556   3.454   1.727
 5142SOL    HW216326   5.449   3.378   1.824
 5143SOL     OW16327   0.222   5.130   5.901
 5143SOL    HW116328   0.302   5.173   5.860
 5143SOL    HW216329   0.244   5.036   5.926
 5144SOL     OW16330   2.341   1.073   4.991
 5144SOL    HW116331   2.425   1.019   4.988
 5144SOL    HW216332   2.265   1.015   5.022
 5145SOL     OW16333   3.605   5.006   6.686
 5145SOL    HW116334   3.634   4.916   6.717
 5145SOL    HW216335   3.505   5.012   6.692
 5146SOL     OW16336   3.690   5.419   1.336
 5146SOL    HW116337   3.670   5.466   1.422
 5146SOL    HW216338   3.775   5.456   1.298
 5147SOL     OW16339   0.863   5.439   5.920
 5147SOL    HW116340   0.796   5.382   5.969
 5147SOL    HW216341   0.955   5.403   5.936
 5148SOL     OW16342   6.815   0.294   1.624
 5148SOL    HW116343   6.816   0.195   1.612
 5148SOL    HW216344   6.723   0.324   1.652
 5149SOL     OW16345   6.625   0.575   5.302
 5149SOL    HW116346   6.613   0.600   5.205
 5149SOL    HW216347   6.673   0.648   5.350
 5150SOL     OW16348   2.752   5.297   5.762
 5150SOL    HW116349   2.658   5.302   5.797
 5150SOL    HW216350   2.752   5.254   5.672
 5151SOL     OW16351   5.001   0.365   6.369
 5151SOL    HW116352   4.912   0.321   6.379
 5151SOL    HW216353   5.063   0.303   6.321
 5152SOL     OW16354   0.091   4.629   6.309
 5152SOL    HW116355   0.142   4.563   6.254
 5152SOL    HW216356   0.067   4.588   6.396
 5153SOL     OW16357   3.223   3.509   1.010
 5153SOL    HW116358   3.315   3.471   1.007
 5153SOL    HW216359   3.189   3.507   1.105
 5154SOL     OW16360   0.680   4.048   5.540
 5154SOL    HW116361   0.725   4.136   5.527
 5154SOL    HW216362   0.684   4.022   5.636
 5155SOL     OW16363   4.215   0.951   2.723
 5155SOL    HW116364   4.141   0.979   2.784
 5155SOL    HW216365   4.229   1.020   2.653
 5156SOL     OW16366   5.427   3.537   5.491
 5156SOL    HW116367   5.428   3.532   5.391
 5156SOL    HW216368   5.458   3.628   5.519
 5157SOL     OW16369   6.746   2.452   3.895
 5157SOL    HW116370   6.762   2.527   3.831
 5157SOL    HW216371   6.653   2.416   3.882
 5158SOL     OW16372   4.165   0.791   2.131
 5158SOL    HW116373   4.245   0.812   2.075
 5158SOL    HW216374   4.187   0.809   2.227
 5159SOL     OW16375   1.719   4.057   4.937
 5159SOL    HW116376   1.748   4.153   4.929
 5159SOL    HW216377   1.742   4.008   4.853
 5160SOL     OW16378   2.708   2.442   3.616
 5160SOL    HW116379   2.688   2.512   3.685
 5160SOL    HW216380   2.655   2.359   3.637
 5161SOL     OW16381   1.763   2.841   6.810
 5161SOL    HW116382   1.856   2.823   6.777
 5161SOL    HW216383   1.716   2.899   6.744
 5162SOL     OW16384   6.565   5.997   4.762
 5162SOL    HW116385   6.533   6.002   4.857
 5162SOL    HW216386   6.602   5.906   4.744
 5163SOL     OW16387   6.456   4.102   0.911
 5163SOL    HW116388   6.485   4.047   0.833
 5163SOL    HW216389   6.368   4.145   0.889
 5164SOL     OW16390   6.766   6.821   4.740
 5164SOL    HW116391   6.764   6.906   4.792
 5164SOL    HW216392   6.767   6.842   4.643
 5165SOL     OW16393   5.214   4.479   5.422
 5165SOL    HW116394   5.235   4.382   5.409
 5165SOL    HW216395   5.298   4.532   5.425
 5166SOL     OW16396   0.209   6.868   3.134
 5166SOL    HW116397   0.266   6.945   3.108
 5166SOL    HW216398   0.190   6.811   3.054
 5167SOL     OW16399   2.022   0.097   4.969
 5167SOL    HW116400   2.089   0.153   4.920
 5167SOL    HW216401   1.950   0.068   4.906
 5168SOL     OW16402   3.274   2.055   2.243
 5168SOL    HW116403   3.191   2.107   2.221
 5168SOL    HW216404   3.256   1.957   2.228
 5169SOL     OW16405   3.744   5.246   6.670
 5169SOL    HW116406   3.841   5.229   6.684
 5169SOL    HW216407   3.692   5.162   6.687
 5170SOL     OW16408   4.209   4.970   4.196
 5170SOL    HW116409   4.152   4.993   4.117
 5170SOL    HW216410   4.299   5.012   4.186
 5171SOL     OW16411   2.602   4.305   5.254
 5171SOL    HW116412   2.684   4.247   5.251
 5171SOL    HW216413   2.623   4.395   5.216
 5172SOL     OW16414   1.484   3.878   6.316
 5172SOL    HW116415   1.506   3.965   6.272
 5172SOL    HW216416   1.391   3.881   6.352
 5173SOL     OW16417   0.485   2.049   4.446
 5173SOL    HW116418   0.430   1.976   4.487
 5173SOL    HW216419   0.582   2.030   4.459
 5174SOL     OW16420   3.063   5.159   6.712
 5174SOL    HW116421   2.993   5.126   6.649
 5174SOL    HW216422   3.023   5.174   6.803
 5175SOL     OW16423   1.132   5.796   0.206
 5175SOL    HW116424   1.096   5.719   0.154
 5175SOL    HW216425   1.136   5.877   0.147
 5176SOL     OW16426   5.673   3.196   6.573
 5176SOL    HW116427   5.771   3.195   6.554
 5176SOL    HW216428   5.623   3.180   6.488
 5177SOL     OW16429   4.761   5.183   6.812
 5177SOL    HW116430   4.805   5.198   6.901
 5177SOL    HW216431   4.829   5.151   6.746
 5178SOL     OW16432   3.908   4.592   0.317
 5178SOL    HW116433   3.950   4.628   0.400
 5178SOL    HW216434   3.836   4.655   0.287
 5179SOL     OW16435   2.779   6.026   5.582
 5179SOL    HW116436   2.749   6.111   5.540
 5179SOL    HW216437   2.852   6.046   5.648
 5180SOL     OW16438   5.033   1.572   6.478
 5180SOL    HW116439   5.048   1.671   6.480
 5180SOL    HW216440   5.098   1.530   6.415
 5181SOL     OW16441   3.297   6.196   2.784
 5181SOL    HW116442   3.324   6.119   2.725
 5181SOL    HW216443   3.288   6.279   2.728
 5182SOL     OW16444   4.893   4.327   0.844
 5182SOL    HW116445   4.977   4.356   0.800
 5182SOL    HW216446   4.906   4.327   0.944
 5183SOL     OW16447   3.304   1.047   3.577
 5183SOL    HW116448   3.310   1.099   3.492
 5183SOL    HW216449   3.261   1.104   3.647
 5184SOL     OW16450   1.208   1.795   2.999
 5184SOL    HW116451   1.153   1.831   2.923
 5184SOL    HW216452   1.297   1.841   3.000
 5185SOL     OW16453   4.111   0.344   2.073
 5185SOL    HW116454   4.035   0.408   2.063
 5185SOL    HW216455   4.139   0.340   2.169
 5186SOL     OW16456   5.716   3.616   6.976
 5186SOL    HW116457   5.715   3.525   7.019
 5186SOL    HW216458   5.781   3.674   0.005
 5187SOL     OW16459   4.680   4.243   4.202
 5187SOL    HW116460   4.727   4.331   4.206
 5187SOL    HW216461   4.714   4.184   4.275
 5188SOL     OW16462   0.759   1.078   3.583
 5188SOL    HW116463   0.730   1.005   3.521
 5188SOL    HW216464   0.709   1.162   3.561
 5189SOL     OW16465   4.693   5.034   5.983
 5189SOL    HW116466   4.638   5.118   5.983
 5189SOL    HW216467   4.783   5.054   6.022
 5190SOL     OW16468   1.930   2.101   2.925
 5190SOL    HW116469   2.019   2.136   2.956
 5190SOL    HW216470   1.944   2.015   2.875
 5191SOL     OW16471   4.854   1.210   2.425
 5191SOL    HW116472   4.866   1.170   2.516
 5191SOL    HW216473   4.902   1.298   2.421
 5192SOL     OW16474   6.799   4.014   1.615
 5192SOL    HW116475   6.899   4.016   1.603
 5192SOL    HW216476   6.760   3.945   1.556
 5193SOL     OW16477   3.589   5.070   3.194
 5193SOL    HW116478   3.630   5.158   3.167
 5193SOL    HW216479   3.531   5.084   3.274
 5194SOL     OW16480   5.296   0.680   0.550
 5194SOL    HW116481   5.212   0.645   0.507
 5194SOL    HW216482   5.298   0.654   0.646
 5195SOL     OW16483   0.629   4.972   5.497
 5195SOL    HW116484   0.728   4.957   5.500
 5195SOL    HW216485   0.593   4.942   5.408
 5196SOL     OW16486   1.314   3.252   3.220
 5196SOL    HW116487   1.392   3.295   3.263
 5196SOL    HW216488   1.345   3.173   3.166
 5197SOL     OW16489   3.631   5.947   5.169
 5197SOL    HW116490   3.633   5.866   5.228
 5197SOL    HW216491   3.537   5.966   5.142
 5198SOL     OW16492   4.361   0.968   6.228
 5198SOL    HW116493   4.284   0.988   6.288
 5198SOL    HW216494   4.334   0.899   6.161
 5199SOL     OW16495   0.473   6.092   2.543
 5199SOL    HW116496   0.402   6.134   2.487
 5199SOL    HW216497   0.465   6.125   2.637
 5200SOL     OW16498   5.794   6.323   5.635
 5200SOL    HW116499   5.806   6.227   5.608
 5200SOL    HW216500   5.841   6.382   5.569
 5201SOL     OW16501   6.744   3.650   5.480
 5201SOL    HW116502   6.695   3.565   5.502
 5201SOL    HW216503   6.687   3.728   5.504
 5202SOL     OW16504   3.802   2.362   5.940
 5202SOL    HW116505   3.716   2.347   5.990
 5202SOL    HW216506   3.842   2.274   5.915
 5203SOL     OW16507   0.302   0.553   5.783
 5203SOL    HW116508   0.357   0.478   5.745
 5203SOL    HW216509   0.208   0.522   5.794
 5204SOL     OW16510   2.207   0.349   2.215
 5204SOL    HW116511   2.303   0.344   2.186
 5204SOL    HW216512   2.153   0.283   2.162
 5205SOL     OW16513   6.029   0.245   2.090
 5205SOL    HW116514   6.022   0.262   1.991
 5205SOL    HW216515   6.123   0.220   2.113
 5206SOL     OW16516   0.869   4.774   5.183
 5206SOL    HW116517   0.909   4.864   5.164
 5206SOL    HW216518   0.942   4.706   5.190
 5207SOL     OW16519   4.686   1.752   4.611
 5207SOL    HW116520   4.725   1.712   4.528
 5207SOL    HW216521   4.726   1.707   4.691
 5208SOL     OW16522   0.123   1.940   0.467
 5208SOL    HW116523   0.030   1.959   0.434
 5208SOL    HW216524   0.150   1.848   0.439
 5209SOL     OW16525   5.006   5.956   2.717
 5209SOL    HW116526   4.918   5.938   2.675
 5209SOL    HW216527   5.069   5.992   2.647
 5210SOL     OW16528   6.580   4.178   1.575
 5210SOL    HW116529   6.661   4.124   1.599
 5210SOL    HW216530   6.499   4.120   1.578
 5211SOL     OW16531   4.886   3.160   4.742
 5211SOL    HW116532   4.914   3.248   4.780
 5211SOL    HW216533   4.949   3.134   4.669
 5212SOL     OW16534   6.766   3.697   6.892
 5212SOL    HW116535   6.700   3.711   6.966
 5212SOL    HW216536   6.796   3.786   6.857
 5213SOL     OW16537   3.344   3.208   4.340
 5213SOL    HW116538   3.369   3.278   4.273
 5213SOL    HW216539   3.408   3.212   4.417
 5214SOL     OW16540   5.916   2.836   5.474
 5214SOL    HW116541   5.971   2.873   5.399
 5214SOL    HW216542   5.971   2.834   5.558
 5215SOL     OW16543   0.693   4.737   4.980
 5215SOL    HW116544   0.637   4.819   4.970
 5215SOL    HW216545   0.749   4.745   5.063
 5216SOL     OW16546   7.020   3.976   0.047
 5216SOL    HW116547   0.034   3.882   0.045
 5216SOL    HW216548   6.964   3.990   0.130
 5217SOL     OW16549   3.278   0.642   2.228
 5217SOL    HW116550   3.321   0.731   2.213
 5217SOL    HW216551   3.179   0.655   2.238
 5218SOL     OW16552   6.222   6.844   0.525
 5218SOL    HW116553   6.268   6.821   0.440
 5218SOL    HW216554   6.283   6.898   0.583
 5219SOL     OW16555   4.139   1.935   4.582
 5219SOL    HW116556   4.094   1.867   4.641
 5219SOL    HW216557   4.238   1.922   4.588
 5220SOL     OW16558   2.086   4.230   4.419
 5220SOL    HW116559   2.035   4.178   4.487
 5220SOL    HW216560   2.162   4.174   4.385
 5221SOL     OW16561   3.983   6.541   0.356
 5221SOL    HW116562   3.968   6.638   0.375
 5221SOL    HW216563   3.910   6.487   0.397
 5222SOL     OW16564   5.464   2.844   2.043
 5222SOL    HW116565   5.550   2.878   2.080
 5222SOL    HW216566   5.423   2.779   2.108
 5223SOL     OW16567   6.830   1.801   0.908
 5223SOL    HW116568   6.760   1.792   0.838
 5223SOL    HW216569   6.900   1.730   0.895
 5224SOL     OW16570   1.620   1.681   4.725
 5224SOL    HW116571   1.694   1.712   4.785
 5224SOL    HW216572   1.615   1.741   4.646
 5225SOL     OW16573   6.781   2.849   6.143
 5225SOL    HW116574   6.784   2.819   6.238
 5225SOL    HW216575   6.771   2.769   6.083
 5226SOL     OW16576   0.011   6.993   4.074
 5226SOL    HW116577   7.012   6.921   4.140
 5226SOL    HW216578   6.945   0.010   4.039
 5227SOL     OW16579   2.492   2.484   6.518
 5227SOL    HW116580   2.395   2.481   6.492
 5227SOL    HW216581   2.539   2.404   6.482
 5228SOL     OW16582   0.682   2.107   5.913
 5228SOL    HW116583   0.774   2.146   5.906
 5228SOL    HW216584   0.637   2.111   5.824
 5229SOL     OW16585   4.017   1.500   1.041
 5229SOL    HW116586   3.966   1.460   1.117
 5229SOL    HW216587   4.001   1.599   1.038
 5230SOL     OW16588   6.140   0.863   2.408
 5230SOL    HW116589   6.053   0.816   2.424
 5230SOL    HW216590   6.124   0.961   2.398
 5231SOL     OW16591   0.186   4.068   1.896
 5231SOL    HW116592   0.135   4.075   1.982
 5231SOL    HW216593   0.278   4.032   1.914
 5232SOL     OW16594   1.680   1.668   6.171
 5232SOL    HW116595   1.682   1.582   6.223
 5232SOL    HW216596   1.586   1.688   6.144
 5233SOL     OW16597   2.253   6.548   3.412
 5233SOL    HW116598   2.275   6.641   3.442
 5233SOL    HW216599   2.154   6.534   3.420
 5234SOL     OW16600   3.541   2.110   6.229
 5234SOL    HW116601   3.523   2.089   6.133
 5234SOL    HW216602   3.636   2.142   6.239
 5235SOL     OW16603   2.677   3.160   1.747
 5235SOL    HW116604   2.699   3.095   1.674
 5235SOL    HW216605   2.746   3.153   1.820
 5236SOL     OW16606   2.954   5.159   1.847
 5236SOL    HW116607   3.045   5.168   1.806
 5236SOL    HW216608   2.953   5.078   1.906
 5237SOL     OW16609   1.339   1.608   1.444
 5237SOL    HW116610   1.241   1.592   1.455
 5237SOL    HW216611   1.359   1.705   1.456
 5238SOL     OW16612   6.083   1.181   3.440
 5238SOL    HW116613   6.081   1.281   3.447
 5238SOL    HW216614   6.178   1.150   3.435
 5239SOL     OW16615   2.843   4.008   6.987
 5239SOL    HW116616   2.802   3.923   0.001
 5239SOL    HW216617   2.848   4.074   0.042
 5240SOL     OW16618   1.357   3.923   4.796
 5240SOL    HW116619   1.371   3.978   4.713
 5240SOL    HW216620   1.310   3.838   4.772
 5241SOL     OW16621   2.298   5.128   3.070
 5241SOL    HW116622   2.374   5.081   3.113
 5241SOL    HW216623   2.296   5.223   3.100
 5242SOL     OW16624   4.116   6.168   5.824
 5242SOL    HW116625   4.154   6.190   5.733
 5242SOL    HW216626   4.186   6.123   5.879
 5243SOL     OW16627   2.137   5.369   3.640
 5243SOL    HW116628   2.157   5.272   3.624
 5243SOL    HW216629   2.178   5.398   3.726
 5244SOL     OW16630   5.418   0.022   6.868
 5244SOL    HW116631   5.379   6.994   6.946
 5244SOL    HW216632   5.379   7.006   6.783
 5245SOL     OW16633   3.541   3.319   1.302
 5245SOL    HW116634   3.634   3.318   1.338
 5245SOL    HW216635   3.477   3.282   1.370
 5246SOL     OW16636   6.560   2.376   5.761
 5246SOL    HW116637   6.532   2.286   5.797
 5246SOL    HW216638   6.633   2.363   5.694
 5247SOL     OW16639   4.909   1.017   5.051
 5247SOL    HW116640   4.980   1.077   5.013
 5247SOL    HW216641   4.933   0.991   5.144
 5248SOL     OW16642   4.065   1.277   2.400
 5248SOL    HW116643   4.079   1.375   2.416
 5248SOL    HW216644   3.978   1.263   2.353
 5249SOL     OW16645   0.408   5.798   2.100
 5249SOL    HW116646   0.461   5.715   2.081
 5249SOL    HW216647   0.338   5.808   2.030
 5250SOL     OW16648   1.574   5.263   6.942
 5250SOL    HW116649   1.572   5.221   0.012
 5250SOL    HW216650   1.666   5.256   6.904
 5251SOL     OW16651   1.886   3.931   6.126
 5251SOL    HW116652   1.816   3.906   6.059
 5251SOL    HW216653   1.885   4.030   6.139
 5252SOL     OW16654   3.986   6.242   3.862
 5252SOL    HW116655   3.956   6.206   3.950
 5252SOL    HW216656   3.974   6.173   3.791
 5253SOL     OW16657   0.354   6.328   4.831
 5253SOL    HW116658   0.382   6.303   4.923
 5253SOL    HW216659   0.407   6.275   4.764
 5254SOL     OW16660   4.839   6.274   1.818
 5254SOL    HW116661   4.758   6.289   1.874
 5254SOL    HW216662   4.826   6.193   1.760
 5255SOL     OW16663   0.087   1.452   6.312
 5255SOL    HW116664   0.068   1.490   6.221
 5255SOL    HW216665   0.186   1.450   6.328
 5256SOL     OW16666   4.504   1.730   2.868
 5256SOL    HW116667   4.576   1.672   2.829
 5256SOL    HW216668   4.533   1.765   2.956
 5257SOL     OW16669   5.881   0.808   0.308
 5257SOL    HW116670   5.824   0.781   0.230
 5257SOL    HW216671   5.895   0.907   0.306
 5258SOL     OW16672   6.010   2.031   5.192
 5258SOL    HW116673   6.056   1.942   5.199
 5258SOL    HW216674   5.911   2.019   5.202
 5259SOL     OW16675   4.002   6.363   4.676
 5259SOL    HW116676   3.989   6.335   4.580
 5259SOL    HW216677   3.952   6.448   4.693
 5260SOL     OW16678   1.392   6.687   2.202
 5260SOL    HW116679   1.360   6.746   2.128
 5260SOL    HW216680   1.396   6.592   2.169
 5261SOL     OW16681   6.683   4.515   6.815
 5261SOL    HW116682   6.668   4.422   6.851
 5261SOL    HW216683   6.771   4.549   6.848
 5262SOL     OW16684   1.986   2.530   1.910
 5262SOL    HW116685   1.972   2.622   1.872
 5262SOL    HW216686   1.903   2.476   1.899
 5263SOL     OW16687   0.097   6.027   2.347
 5263SOL    HW116688   0.039   6.071   2.279
 5263SOL    HW216689   0.087   5.928   2.340
 5264SOL     OW16690   5.868   2.473   2.142
 5264SOL    HW116691   5.915   2.396   2.185
 5264SOL    HW216692   5.920   2.502   2.062
 5265SOL     OW16693   1.322   6.001   6.150
 5265SOL    HW116694   1.410   5.954   6.143
 5265SOL    HW216695   1.338   6.099   6.161
 5266SOL     OW16696   0.638   0.309   6.463
 5266SOL    HW116697   0.582   0.306   6.380
 5266SOL    HW216698   0.616   0.230   6.521
 5267SOL     OW16699   6.384   1.532   4.745
 5267SOL    HW116700   6.366   1.611   4.686
 5267SOL    HW216701   6.365   1.448   4.695
 5268SOL     OW16702   5.160   0.723   5.635
 5268SOL    HW116703   5.202   0.778   5.707
 5268SOL    HW216704   5.066   0.753   5.620
 5269SOL     OW16705   1.068   0.490   4.208
 5269SOL    HW116706   1.034   0.434   4.133
 5269SOL    HW216707   1.087   0.583   4.174
 5270SOL     OW16708   1.593   1.795   6.584
 5270SOL    HW116709   1.619   1.699   6.593
 5270SOL    HW216710   1.647   1.838   6.512
 5271SOL     OW16711   1.683   6.719   6.631
 5271SOL    HW116712   1.765   6.661   6.638
 5271SOL    HW216713   1.711   6.815   6.636
 5272SOL     OW16714   4.391   0.247   6.401
 5272SOL    HW116715   4.322   0.290   6.459
 5272SOL    HW216716   4.352   0.167   6.356
 5273SOL     OW16717   1.735   1.597   3.763
 5273SOL    HW116718   1.639   1.624   3.768
 5273SOL    HW216719   1.793   1.677   3.775
 5274SOL     OW16720   6.216   4.984   0.999
 5274SOL    HW116721   6.133   4.930   0.995
 5274SOL    HW216722   6.194   5.078   1.025
 5275SOL     OW16723   5.618   0.445   6.640
 5275SOL    HW116724   5.628   0.359   6.591
 5275SOL    HW216725   5.597   0.427   6.736
 5276SOL     OW16726   2.810   6.162   1.470
 5276SOL    HW116727   2.756   6.141   1.389
 5276SOL    HW216728   2.850   6.253   1.461
 5277SOL     OW16729   1.572   3.385   1.360
 5277SOL    HW116730   1.612   3.397   1.450
 5277SOL    HW216731   1.586   3.467   1.305
 5278SOL     OW16732   4.016   3.650   4.689
 5278SOL    HW116733   4.043   3.686   4.600
 5278SOL    HW216734   3.917   3.638   4.690
 5279SOL     OW16735   1.447   0.060   3.126
 5279SOL    HW116736   1.427   0.105   3.039
 5279SOL    HW216737   1.500   0.121   3.184
 5280SOL     OW16738   3.590   0.437   3.930
 5280SOL    HW116739   3.621   0.513   3.987
 5280SOL    HW216740   3.625   0.449   3.837
 5281SOL     OW16741   6.804   2.839   3.487
 5281SOL    HW116742   6.774   2.934   3.487
 5281SOL    HW216743   6.750   2.787   3.421
 5282SOL     OW16744   5.067   2.492   1.283
 5282SOL    HW116745   5.091   2.397   1.268
 5282SOL    HW216746   4.977   2.497   1.327
 5283SOL     OW16747   5.173   4.961   5.139
 5283SOL    HW116748   5.112   5.030   5.177
 5283SOL    HW216749   5.165   4.961   5.039
 5284SOL     OW16750   5.421   2.679   4.040
 5284SOL    HW116751   5.488   2.667   4.114
 5284SOL    HW216752   5.456   2.639   3.956
 5285SOL     OW16753   4.255   5.272   2.298
 5285SOL    HW116754   4.223   5.177   2.295
 5285SOL    HW216755   4.187   5.328   2.345
 5286SOL     OW16756   1.613   4.885   2.235
 5286SOL    HW116757   1.608   4.976   2.195
 5286SOL    HW216758   1.668   4.825   2.176
 5287SOL     OW16759   0.375   0.792   3.171
 5287SOL    HW116760   0.474   0.791   3.184
 5287SOL    HW216761   0.348   0.878   3.127
 5288SOL     OW16762   3.916   0.529   0.686
 5288SOL    HW116763   3.882   0.453   0.741
 5288SOL    HW216764   3.869   0.613   0.713
 5289SOL     OW16765   1.671   0.004   1.654
 5289SOL    HW116766   1.712   6.994   1.741
 5289SOL    HW216767   1.718   6.979   1.578
 5290SOL     OW16768   5.223   6.875   6.652
 5290SOL    HW116769   5.244   6.793   6.706
 5290SOL    HW216770   5.157   6.932   6.702
 5291SOL     OW16771   1.197   5.417   0.170
 5291SOL    HW116772   1.194   5.398   0.269
 5291SOL    HW216773   1.272   5.365   0.129
 5292SOL     OW16774   5.373   1.135   1.973
 5292SOL    HW116775   5.388   1.042   1.940
 5292SOL    HW216776   5.425   1.149   2.057
 5293SOL     OW16777   1.991   1.611   4.270
 5293SOL    HW116778   1.926   1.579   4.201
 5293SOL    HW216779   2.070   1.652   4.224
 5294SOL     OW16780   3.585   2.137   0.008
 5294SOL    HW116781   3.564   2.047   0.046
 5294SOL    HW216782   3.501   2.191   0.003
 5295SOL     OW16783   0.039   2.091   3.449
 5295SOL    HW116784   0.093   2.148   3.510
 5295SOL    HW216785   7.015   2.149   3.380
 5296SOL     OW16786   0.299   3.712   6.288
 5296SOL    HW116787   0.201   3.718   6.265
 5296SOL    HW216788   0.354   3.731   6.207
 5297SOL     OW16789   1.379   2.379   2.061
 5297SOL    HW116790   1.394   2.360   1.964
 5297SOL    HW216791   1.461   2.353   2.113
 5298SOL     OW16792   0.805   3.731   2.203
 5298SOL    HW116793   0.893   3.683   2.212
 5298SOL    HW216794   0.731   3.670   2.230
 5299SOL     OW16795   3.982   0.694   0.153
 5299SOL    HW116796   4.067   0.702   0.102
 5299SOL    HW216797   3.957   0.597   0.160
 5300SOL     OW16798   6.597   5.003   4.554
 5300SOL    HW116799   6.526   5.006   4.625
 5300SOL    HW216800   6.599   5.089   4.505
 5301SOL     OW16801   5.614   7.006   6.283
 5301SOL    HW116802   5.550   6.961   6.221
 5301SOL    HW216803   5.697   6.952   6.290
 5302SOL     OW16804   0.238   3.371   2.654
 5302SOL    HW116805   0.268   3.278   2.635
 5302SOL    HW216806   0.290   3.408   2.731
 5303SOL     OW16807   2.278   5.002   2.279
 5303SOL    HW116808   2.346   4.966   2.343
 5303SOL    HW216809   2.315   5.081   2.231
 5304SOL     OW16810   5.387   1.896   6.280
 5304SOL    HW116811   5.290   1.876   6.267
 5304SOL    HW216812   5.438   1.810   6.289
 5305SOL     OW16813   3.921   1.482   4.747
 5305SOL    HW116814   3.858   1.520   4.680
 5305SOL    HW216815   3.886   1.499   4.840
 5306SOL     OW16816   2.480   6.742   3.781
 5306SOL    HW116817   2.392   6.718   3.821
 5306SOL    HW216818   2.490   6.842   3.778
 5307SOL     OW16819   4.810   6.440   6.363
 5307SOL    HW116820   4.748   6.510   6.328
 5307SOL    HW216821   4.766   6.393   6.440
 5308SOL     OW16822   6.386   1.678   1.269
 5308SOL    HW116823   6.353   1.769   1.247
 5308SOL    HW216824   6.346   1.648   1.356
 5309SOL     OW16825   3.141   4.527   6.342
 5309SOL    HW116826   3.157   4.559   6.435
 5309SOL    HW216827   3.226   4.532   6.290
 5310SOL     OW16828   5.570   2.589   0.260
 5310SOL    HW116829   5.545   2.682   0.231
 5310SOL    HW216830   5.660   2.591   0.303
 5311SOL     OW16831   6.866   5.260   6.883
 5311SOL    HW116832   6.828   5.351   6.870
 5311SOL    HW216833   6.966   5.264   6.876
 5312SOL     OW16834   0.454   4.118   2.105
 5312SOL    HW116835   0.458   4.140   2.007
 5312SOL    HW216836   0.390   4.043   2.120
 5313SOL     OW16837   0.714   5.969   6.065
 5313SOL    HW116838   0.684   5.883   6.024
 5313SOL    HW216839   0.748   5.952   6.157
 5314SOL     OW16840   4.559   4.401   0.826
 5314SOL    HW116841   4.566   4.301   0.822
 5314SOL    HW216842   4.569   4.432   0.921
 5315SOL     OW16843   5.346   0.624   2.653
 5315SOL    HW116844   5.256   0.656   2.684
 5315SOL    HW216845   5.338   0.586   2.561
 5316SOL     OW16846   5.140   5.347   4.920
 5316SOL    HW116847   5.214   5.413   4.909
 5316SOL    HW216848   5.053   5.390   4.894
 5317SOL     OW16849   0.413   5.369   1.119
 5317SOL    HW116850   0.403   5.360   1.218
 5317SOL    HW216851   0.323   5.378   1.077
 5318SOL     OW16852   6.687   2.690   3.713
 5318SOL    HW116853   6.734   2.735   3.638
 5318SOL    HW216854   6.599   2.655   3.681
 5319SOL     OW16855   2.745   6.379   2.607
 5319SOL    HW116856   2.775   6.346   2.697
 5319SOL    HW216857   2.664   6.327   2.578
 5320SOL     OW16858   6.973   2.214   0.253
 5320SOL    HW116859   6.906   2.263   0.197
 5320SOL    HW216860   0.040   2.210   0.205
 5321SOL     OW16861   2.961   5.208   6.951
 5321SOL    HW116862   2.962   5.262   0.015
 5321SOL    HW216863   2.931   5.115   6.971
 5322SOL     OW16864   3.169   6.263   0.079
 5322SOL    HW116865   3.175   6.266   0.179
 5322SOL    HW216866   3.191   6.170   0.047
 5323SOL     OW16867   6.839   3.656   0.421
 5323SOL    HW116868   6.915   3.656   0.486
 5323SOL    HW216869   6.806   3.563   0.408
 5324SOL     OW16870   3.861   3.444   2.307
 5324SOL    HW116871   3.883   3.490   2.393
 5324SOL    HW216872   3.944   3.432   2.253
 5325SOL     OW16873   2.779   0.034   5.677
 5325SOL    HW116874   2.720   6.992   5.728
 5325SOL    HW216875   2.754   0.129   5.696
 5326SOL     OW16876   6.137   1.081   4.351
 5326SOL    HW116877   6.233   1.053   4.348
 5326SOL    HW216878   6.092   1.038   4.429
 5327SOL     OW16879   6.419   7.016   4.056
 5327SOL    HW116880   6.505   7.016   4.108
 5327SOL    HW216881   6.343   7.000   4.119
 5328SOL     OW16882   2.426   4.879   5.533
 5328SOL    HW116883   2.387   4.971   5.532
 5328SOL    HW216884   2.454   4.853   5.441
 5329SOL     OW16885   0.634   6.917   6.083
 5329SOL    HW116886   0.719   6.882   6.123
 5329SOL    HW216887   0.604   6.855   6.010
 5330SOL     OW16888   4.989   3.889   0.084
 5330SOL    HW116889   4.907   3.915   0.133
 5330SOL    HW216890   4.972   3.807   0.029
 5331SOL     OW16891   6.146   0.797   0.167
 5331SOL    HW116892   6.192   0.845   0.092
 5331SOL    HW216893   6.047   0.808   0.158
 5332SOL     OW16894   0.544   3.151   0.012
 5332SOL    HW116895   0.563   3.247   0.028
 5332SOL    HW216896   0.446   3.133   0.026
 5333SOL     OW16897   0.389   6.703   4.281
 5333SOL    HW116898   0.431   6.776   4.334
 5333SOL    HW216899   0.371   6.624   4.340
 5334SOL     OW16900   3.158   6.239   1.224
 5334SOL    HW116901   3.182   6.174   1.152
 5334SOL    HW216902   3.154   6.192   1.312
 5335SOL     OW16903   6.533   5.241   2.006
 5335SOL    HW116904   6.608   5.280   1.951
 5335SOL    HW216905   6.502   5.156   1.964
 5336SOL     OW16906   1.317   2.959   5.328
 5336SOL    HW116907   1.374   3.014   5.267
 5336SOL    HW216908   1.322   2.997   5.421
 5337SOL     OW16909   6.556   2.640   1.000
 5337SOL    HW116910   6.544   2.735   1.027
 5337SOL    HW216911   6.480   2.585   1.035
 5338SOL     OW16912   6.413   2.319   1.696
 5338SOL    HW116913   6.474   2.398   1.701
 5338SOL    HW216914   6.327   2.347   1.653
 5339SOL     OW16915   4.839   3.946   2.237
 5339SOL    HW116916   4.811   3.981   2.327
 5339SOL    HW216917   4.815   4.013   2.167
 5340SOL     OW16918   5.570   3.618   0.939
 5340SOL    HW116919   5.506   3.658   0.873
 5340SOL    HW216920   5.551   3.654   1.030
 5341SOL     OW16921   4.846   5.200   3.225
 5341SOL    HW116922   4.802   5.155   3.303
 5341SOL    HW216923   4.803   5.289   3.209
 5342SOL     OW16924   5.608   5.240   4.769
 5342SOL    HW116925   5.655   5.281   4.847
 5342SOL    HW216926   5.672   5.232   4.693
 5343SOL     OW16927   3.635   3.652   0.153
 5343SOL    HW116928   3.604   3.561   0.126
 5343SOL    HW216929   3.731   3.663   0.128
 5344SOL     OW16930   6.590   2.044   0.012
 5344SOL    HW116931   6.632   2.042   6.942
 5344SOL    HW216932   6.491   2.029   0.003
 5345SOL     OW16933   3.530   0.763   6.663
 5345SOL    HW116934   3.530   0.812   6.576
 5345SOL    HW216935   3.472   0.812   6.728
 5346SOL     OW16936   2.590   5.859   3.129
 5346SOL    HW116937   2.584   5.793   3.055
 5346SOL    HW216938   2.682   5.856   3.168
 5347SOL     OW16939   5.813   2.563   5.549
 5347SOL    HW116940   5.823   2.649   5.500
 5347SOL    HW216941   5.881   2.558   5.622
 5348SOL     OW16942   5.267   2.907   5.290
 5348SOL    HW116943   5.245   2.827   5.346
 5348SOL    HW216944   5.347   2.954   5.329
 5349SOL     OW16945   1.143   4.097   0.377
 5349SOL    HW116946   1.213   4.163   0.404
 5349SOL    HW216947   1.103   4.124   0.290
 5350SOL     OW16948   1.467   0.529   6.399
 5350SOL    HW116949   1.534   0.569   6.337
 5350SOL    HW216950   1.448   0.593   6.474
 5351SOL     OW16951   0.585   6.060   3.080
 5351SOL    HW116952   0.626   6.069   3.170
 5351SOL    HW216953   0.623   5.979   3.034
 5352SOL     OW16954   0.293   2.465   6.045
 5352SOL    HW116955   0.356   2.390   6.025
 5352SOL    HW216956   0.244   2.446   6.130
 5353SOL     OW16957   2.173   6.615   2.826
 5353SOL    HW116958   2.245   6.606   2.895
 5353SOL    HW216959   2.086   6.585   2.865
 5354SOL     OW16960   2.572   6.319   1.617
 5354SOL    HW116961   2.617   6.387   1.676
 5354SOL    HW216962   2.577   6.229   1.660
 5355SOL     OW16963   4.838   3.973   5.599
 5355SOL    HW116964   4.749   3.941   5.567
 5355SOL    HW216965   4.861   3.929   5.685
 5356SOL     OW16966   6.928   6.882   1.655
 5356SOL    HW116967   6.857   6.831   1.704
 5356SOL    HW216968   7.016   6.868   1.700
 5357SOL     OW16969   6.303   3.363   2.369
 5357SOL    HW116970   6.358   3.373   2.286
 5357SOL    HW216971   6.240   3.440   2.377
 5358SOL     OW16972   5.353   6.622   5.755
 5358SOL    HW116973   5.272   6.626   5.813
 5358SOL    HW216974   5.340   6.552   5.684
 5359SOL     OW16975   3.421   1.887   6.813
 5359SOL    HW116976   3.513   1.863   6.782
 5359SOL    HW216977   3.403   1.843   6.901
 5360SOL     OW16978   5.182   6.085   2.899
 5360SOL    HW116979   5.254   6.051   2.837
 5360SOL    HW216980   5.094   6.078   2.853
 5361SOL     OW16981   1.088   4.370   2.232
 5361SOL    HW116982   1.162   4.331   2.177
 5361SOL    HW216983   1.027   4.297   2.262
 5362SOL     OW16984   5.762   1.516   3.831
 5362SOL    HW116985   5.674   1.563   3.834
 5362SOL    HW216986   5.763   1.444   3.900
 5363SOL     OW16987   5.975   4.422   6.178
 5363SOL    HW116988   5.936   4.353   6.117
 5363SOL    HW216989   6.073   4.404   6.191
 5364SOL     OW16990   5.167   2.636   1.692
 5364SOL    HW116991   5.235   2.706   1.667
 5364SOL    HW216992   5.171   2.620   1.791
 5365SOL     OW16993   3.134   3.183   6.095
 5365SOL    HW116994   3.060   3.224   6.042
 5365SOL    HW216995   3.126   3.209   6.191
 5366SOL     OW16996   6.937   4.236   4.064
 5366SOL    HW116997   6.977   4.288   4.140
 5366SOL    HW216998   7.006   4.220   3.994
 5367SOL     OW16999   6.434   5.254   0.670
 5367SOL    HW117000   6.436   5.157   0.694
 5367SOL    HW217001   6.367   5.301   0.727
 5368SOL     OW17002   0.161   5.533   4.849
 5368SOL    HW117003   0.113   5.621   4.846
 5368SOL    HW217004   0.118   5.469   4.786
 5369SOL     OW17005   3.699   0.629   2.383
 5369SOL    HW117006   3.640   0.660   2.457
 5369SOL    HW217007   3.791   0.667   2.395
 5370SOL     OW17008   2.490   2.260   0.249
 5370SOL    HW117009   2.528   2.278   0.158
 5370SOL    HW217010   2.398   2.223   0.240
 5371SOL     OW17011   6.538   5.283   3.119
 5371SOL    HW117012   6.522   5.184   3.117
 5371SOL    HW217013   6.591   5.306   3.200
 5372SOL     OW17014   0.810   1.072   4.279
 5372SOL    HW117015   0.750   1.011   4.227
 5372SOL    HW217016   0.834   1.151   4.222
 5373SOL     OW17017   4.042   0.023   0.830
 5373SOL    HW117018   4.020   0.027   0.927
 5373SOL    HW217019   4.027   6.950   0.796
 5374SOL     OW17020   1.613   3.607   1.218
 5374SOL    HW117021   1.666   3.606   1.133
 5374SOL    HW217022   1.674   3.622   1.295
 5375SOL     OW17023   3.132   4.843   4.832
 5375SOL    HW117024   3.118   4.833   4.930
 5375SOL    HW217025   3.070   4.782   4.783
 5376SOL     OW17026   6.614   6.333   2.415
 5376SOL    HW117027   6.565   6.267   2.358
 5376SOL    HW217028   6.554   6.411   2.435
 5377SOL     OW17029   0.638   2.795   1.211
 5377SOL    HW117030   0.645   2.783   1.112
 5377SOL    HW217031   0.543   2.778   1.240
 5378SOL     OW17032   4.477   0.381   4.741
 5378SOL    HW117033   4.533   0.425   4.671
 5378SOL    HW217034   4.534   0.323   4.798
 5379SOL     OW17035   3.336   2.062   4.447
 5379SOL    HW117036   3.415   2.093   4.395
 5379SOL    HW217037   3.364   2.037   4.539
 5380SOL     OW17038   4.650   6.878   1.702
 5380SOL    HW117039   4.702   6.846   1.622
 5380SOL    HW217040   4.677   6.824   1.782
 5381SOL     OW17041   2.688   2.088   2.617
 5381SOL    HW117042   2.706   2.185   2.602
 5381SOL    HW217043   2.634   2.051   2.542
 5382SOL     OW17044   4.161   0.000   2.796
 5382SOL    HW117045   4.162   0.019   2.698
 5382SOL    HW217046   4.067   0.009   2.830
 5383SOL     OW17047   2.174   4.359   5.580
 5383SOL    HW117048   2.219   4.448   5.590
 5383SOL    HW217049   2.081   4.373   5.545
 5384SOL     OW17050   5.304   6.312   5.941
 5384SOL    HW117051   5.370   6.381   5.971
 5384SOL    HW217052   5.312   6.232   6.000
 5385SOL     OW17053   3.594   3.989   0.963
 5385SOL    HW117054   3.628   4.056   0.896
 5385SOL    HW217055   3.622   4.017   1.055
 5386SOL     OW17056   3.931   5.396   2.732
 5386SOL    HW117057   3.847   5.370   2.779
 5386SOL    HW217058   3.978   5.314   2.699
 5387SOL     OW17059   0.881   2.264   5.472
 5387SOL    HW117060   0.845   2.171   5.462
 5387SOL    HW217061   0.827   2.327   5.415
 5388SOL     OW17062   6.654   6.373   3.385
 5388SOL    HW117063   6.745   6.372   3.426
 5388SOL    HW217064   6.585   6.352   3.454
 5389SOL     OW17065   6.819   1.932   4.747
 5389SOL    HW117066   6.913   1.964   4.731
 5389SOL    HW217067   6.821   1.837   4.779
 5390SOL     OW17068   5.794   2.341   3.365
 5390SOL    HW117069   5.734   2.350   3.285
 5390SOL    HW217070   5.873   2.286   3.342
 5391SOL     OW17071   4.833   3.299   0.750
 5391SOL    HW117072   4.784   3.351   0.820
 5391SOL    HW217073   4.915   3.350   0.722
 5392SOL     OW17074   5.199   1.389   3.798
 5392SOL    HW117075   5.238   1.410   3.888
 5392SOL    HW217076   5.099   1.392   3.804
 5393SOL     OW17077   4.779   2.954   2.484
 5393SOL    HW117078   4.736   3.039   2.452
 5393SOL    HW217079   4.878   2.968   2.490
 5394SOL     OW17080   0.437   3.006   3.416
 5394SOL    HW117081   0.418   3.029   3.512
 5394SOL    HW217082   0.521   2.954   3.411
 5395SOL     OW17083   0.534   0.399   1.543
 5395SOL    HW117084   0.448   0.391   1.493
 5395SOL    HW217085   0.517   0.396   1.641
 5396SOL     OW17086   3.689   2.432   6.913
 5396SOL    HW117087   3.694   2.332   6.918
 5396SOL    HW217088   3.655   2.467   7.000
 5397SOL     OW17089   0.570   6.702   3.011
 5397SOL    HW117090   0.602   6.793   2.985
 5397SOL    HW217091   0.612   6.675   3.098
 5398SOL     OW17092   5.773   2.530   3.561
 5398SOL    HW117093   5.789   2.466   3.487
 5398SOL    HW217094   5.807   2.492   3.647
 5399SOL     OW17095   2.911   2.517   0.081
 5399SOL    HW117096   2.907   2.418   0.094
 5399SOL    HW217097   2.844   2.561   0.141
 5400SOL     OW17098   4.611   3.095   1.134
 5400SOL    HW117099   4.512   3.085   1.142
 5400SOL    HW217100   4.657   3.019   1.179
 5401SOL     OW17101   5.009   3.889   1.717
 5401SOL    HW117102   4.970   3.973   1.681
 5401SOL    HW217103   5.024   3.824   1.642
 5402SOL     OW17104   2.128   5.470   1.395
 5402SOL    HW117105   2.207   5.428   1.352
 5402SOL    HW217106   2.064   5.398   1.424
 5403SOL     OW17107   6.504   2.745   4.921
 5403SOL    HW117108   6.469   2.837   4.902
 5403SOL    HW217109   6.474   2.683   4.848
 5404SOL     OW17110   4.321   6.551   0.077
 5404SOL    HW117111   4.395   6.601   0.123
 5404SOL    HW217112   4.264   6.506   0.146
 5405SOL     OW17113   6.045   5.285   5.991
 5405SOL    HW117114   6.008   5.374   5.962
 5405SOL    HW217115   6.131   5.268   5.943
 5406SOL     OW17116   2.147   1.340   5.333
 5406SOL    HW117117   2.148   1.439   5.317
 5406SOL    HW217118   2.152   1.322   5.431
 5407SOL     OW17119   1.963   1.984   2.491
 5407SOL    HW117120   2.006   2.073   2.500
 5407SOL    HW217121   1.875   1.993   2.444
 5408SOL     OW17122   2.450   2.513   4.294
 5408SOL    HW117123   2.541   2.475   4.277
 5408SOL    HW217124   2.382   2.461   4.243
 5409SOL     OW17125   0.251   4.751   3.751
 5409SOL    HW117126   0.273   4.826   3.814
 5409SOL    HW217127   0.262   4.782   3.657
 5410SOL     OW17128   6.083   1.288   0.315
 5410SOL    HW117129   6.061   1.340   0.397
 5410SOL    HW217130   6.014   1.217   0.300
 5411SOL     OW17131   2.891   6.507   2.127
 5411SOL    HW117132   2.828   6.575   2.089
 5411SOL    HW217133   2.960   6.484   2.058
 5412SOL     OW17134   2.523   2.649   5.651
 5412SOL    HW117135   2.463   2.577   5.614
 5412SOL    HW217136   2.474   2.700   5.721
 5413SOL     OW17137   6.963   5.272   5.411
 5413SOL    HW117138   6.903   5.248   5.334
 5413SOL    HW217139   6.977   5.191   5.468
 5414SOL     OW17140   6.284   5.963   5.777
 5414SOL    HW117141   6.324   5.907   5.704
 5414SOL    HW217142   6.214   5.910   5.825
 5415SOL     OW17143   2.419   0.156   0.081
 5415SOL    HW117144   2.457   0.072   0.042
 5415SOL    HW217145   2.489   0.227   0.081
 5416SOL     OW17146   4.240   4.738   5.905
 5416SOL    HW117147   4.187   4.660   5.938
 5416SOL    HW217148   4.324   4.745   5.958
 5417SOL     OW17149   5.290   0.475   2.449
 5417SOL    HW117150   5.321   0.414   2.376
 5417SOL    HW217151   5.207   0.522   2.420
 5418SOL     OW17152   0.093   2.669   6.016
 5418SOL    HW117153   0.157   2.598   5.987
 5418SOL    HW217154   0.106   2.688   6.114
 5419SOL     OW17155   4.301   2.323   5.954
 5419SOL    HW117156   4.240   2.388   6.000
 5419SOL    HW217157   4.258   2.291   5.870
 5420SOL     OW17158   1.436   1.865   1.393
 5420SOL    HW117159   1.512   1.834   1.336
 5420SOL    HW217160   1.356   1.882   1.336
 5421SOL     OW17161   3.714   5.662   1.160
 5421SOL    HW117162   3.660   5.669   1.244
 5421SOL    HW217163   3.806   5.696   1.177
 5422SOL     OW17164   2.367   6.774   3.083
 5422SOL    HW117165   2.421   6.690   3.090
 5422SOL    HW217166   2.272   6.753   3.108
 5423SOL     OW17167   4.135   6.379   2.926
 5423SOL    HW117168   4.201   6.322   2.973
 5423SOL    HW217169   4.167   6.474   2.926
 5424SOL     OW17170   4.341   3.447   5.803
 5424SOL    HW117171   4.299   3.428   5.891
 5424SOL    HW217172   4.270   3.470   5.737
 5425SOL     OW17173   2.068   5.763   4.283
 5425SOL    HW117174   2.112   5.766   4.373
 5425SOL    HW217175   2.021   5.675   4.273
 5426SOL     OW17176   1.754   4.041   0.056
 5426SOL    HW117177   1.656   4.022   0.060
 5426SOL    HW217178   1.805   3.956   0.072
 5427SOL     OW17179   4.820   1.544   0.027
 5427SOL    HW117180   4.894   1.549   6.980
 5427SOL    HW217181   4.779   1.453   0.025
 5428SOL     OW17182   4.996   5.598   2.461
 5428SOL    HW117183   4.990   5.557   2.370
 5428SOL    HW217184   5.051   5.681   2.457
 5429SOL     OW17185   2.879   6.337   3.320
 5429SOL    HW117186   2.790   6.292   3.319
 5429SOL    HW217187   2.928   6.315   3.235
 5430SOL     OW17188   0.805   3.503   5.414
 5430SOL    HW117189   0.705   3.505   5.419
 5430SOL    HW217190   0.840   3.594   5.392
 5431SOL     OW17191   5.206   4.350   0.936
 5431SOL    HW117192   5.141   4.369   1.009
 5431SOL    HW217193   5.204   4.424   0.869
 5432SOL     OW17194   1.844   5.397   5.812
 5432SOL    HW117195   1.806   5.396   5.719
 5432SOL    HW217196   1.808   5.319   5.863
 5433SOL     OW17197   3.404   0.041   2.118
 5433SOL    HW117198   3.374   0.102   2.045
 5433SOL    HW217199   3.500   0.016   2.104
 5434SOL     OW17200   5.293   6.312   4.098
 5434SOL    HW117201   5.392   6.324   4.110
 5434SOL    HW217202   5.245   6.355   4.175
 5435SOL     OW17203   1.088   2.927   0.267
 5435SOL    HW117204   1.086   2.991   0.191
 5435SOL    HW217205   1.089   2.833   0.232
 5436SOL     OW17206   1.413   4.361   1.174
 5436SOL    HW117207   1.337   4.352   1.110
 5436SOL    HW217208   1.485   4.297   1.149
 5437SOL     OW17209   2.918   6.822   5.603
 5437SOL    HW117210   2.914   6.822   5.703
 5437SOL    HW217211   2.880   6.907   5.568
 5438SOL     OW17212   4.595   6.801   3.735
 5438SOL    HW117213   4.673   6.781   3.675
 5438SOL    HW217214   4.569   6.897   3.723
 5439SOL     OW17215   1.239   3.549   1.900
 5439SOL    HW117216   1.229   3.468   1.842
 5439SOL    HW217217   1.167   3.615   1.878
 5440SOL     OW17218   5.132   6.675   3.066
 5440SOL    HW117219   5.230   6.686   3.056
 5440SOL    HW217220   5.088   6.765   3.068
 5441SOL     OW17221   5.960   0.259   5.115
 5441SOL    HW117222   5.960   0.244   5.213
 5441SOL    HW217223   6.055   0.256   5.081
 5442SOL     OW17224   2.716   5.753   0.009
 5442SOL    HW117225   2.724   5.852   7.017
 5442SOL    HW217226   2.780   5.707   6.967
 5443SOL     OW17227   5.911   1.121   3.159
 5443SOL    HW117228   5.988   1.166   3.205
 5443SOL    HW217229   5.899   1.029   3.196
 5444SOL     OW17230   2.056   1.756   6.232
 5444SOL    HW117231   2.017   1.699   6.160
 5444SOL    HW217232   2.056   1.852   6.203
 5445SOL     OW17233   6.838   6.435   5.370
 5445SOL    HW117234   6.799   6.378   5.442
 5445SOL    HW217235   6.845   6.530   5.402
 5446SOL     OW17236   2.246   4.126   7.011
 5446SOL    HW117237   2.217   4.077   0.073
 5446SOL    HW217238   2.170   4.179   6.975
 5447SOL     OW17239   5.387   2.788   1.611
 5447SOL    HW117240   5.400   2.795   1.710
 5447SOL    HW217241   5.475   2.773   1.566
 5448SOL     OW17242   6.275   5.846   0.911
 5448SOL    HW117243   6.344   5.815   0.845
 5448SOL    HW217244   6.244   5.937   0.885
 5449SOL     OW17245   2.119   0.032   2.657
 5449SOL    HW117246   2.054   6.977   2.647
 5449SOL    HW217247   2.154   0.057   2.566
 5450SOL     OW17248   4.455   4.701   2.101
 5450SOL    HW117249   4.468   4.777   2.037
 5450SOL    HW217250   4.477   4.615   2.055
 5451SOL     OW17251   0.365   5.774   3.228
 5451SOL    HW117252   0.350   5.704   3.158
 5451SOL    HW217253   0.280   5.792   3.276
 5452SOL     OW17254   2.204   3.988   3.224
 5452SOL    HW117255   2.200   3.905   3.168
 5452SOL    HW217256   2.170   4.065   3.171
 5453SOL     OW17257   5.806   5.227   4.591
 5453SOL    HW117258   5.777   5.299   4.528
 5453SOL    HW217259   5.905   5.218   4.589
 5454SOL     OW17260   6.581   3.863   1.985
 5454SOL    HW117261   6.540   3.779   2.021
 5454SOL    HW217262   6.513   3.937   1.991
 5455SOL     OW17263   1.706   2.189   3.104
 5455SOL    HW117264   1.762   2.126   3.051
 5455SOL    HW217265   1.646   2.137   3.165
 5456SOL     OW17266   5.953   2.931   6.994
 5456SOL    HW117267   5.957   3.030   6.986
 5456SOL    HW217268   5.887   2.894   6.929
 5457SOL     OW17269   6.133   0.666   0.685
 5457SOL    HW117270   6.131   0.615   0.770
 5457SOL    HW217271   6.075   0.621   0.617
 5458SOL     OW17272   5.900   4.646   6.279
 5458SOL    HW117273   5.930   4.558   6.243
 5458SOL    HW217274   5.941   4.720   6.225
 5459SOL     OW17275   1.592   3.799   5.514
 5459SOL    HW117276   1.576   3.785   5.416
 5459SOL    HW217277   1.660   3.734   5.547
 5460SOL     OW17278   6.706   1.556   1.197
 5460SOL    HW117279   6.633   1.489   1.184
 5460SOL    HW217280   6.683   1.617   1.272
 5461SOL     OW17281   5.357   0.494   5.925
 5461SOL    HW117282   5.277   0.448   5.886
 5461SOL    HW217283   5.418   0.522   5.851
 5462SOL     OW17284   5.761   4.917   0.619
 5462SOL    HW117285   5.755   4.864   0.534
 5462SOL    HW217286   5.848   4.966   0.622
 5463SOL     OW17287   3.403   4.914   6.988
 5463SOL    HW117288   3.503   4.924   6.984
 5463SOL    HW217289   3.371   4.939   0.060
 5464SOL     OW17290   2.260   5.661   4.123
 5464SOL    HW117291   2.321   5.702   4.055
 5464SOL    HW217292   2.191   5.729   4.151
 5465SOL     OW17293   0.748   1.501   4.648
 5465SOL    HW117294   0.665   1.557   4.649
 5465SOL    HW217295   0.738   1.428   4.581
 5466SOL     OW17296   5.328   2.018   4.878
 5466SOL    HW117297   5.234   2.052   4.879
 5466SOL    HW217298   5.327   1.919   4.868
 5467SOL     OW17299   4.778   4.792   3.275
 5467SOL    HW117300   4.727   4.847   3.209
 5467SOL    HW217301   4.775   4.696   3.249
 5468SOL     OW17302   0.126   2.682   1.539
 5468SOL    HW117303   0.148   2.771   1.578
 5468SOL    HW217304   0.185   2.612   1.579
 5469SOL     OW17305   4.529   0.841   3.106
 5469SOL    HW117306   4.517   0.752   3.149
 5469SOL    HW217307   4.455   0.857   3.040
 5470SOL     OW17308   2.468   4.698   3.517
 5470SOL    HW117309   2.425   4.649   3.441
 5470SOL    HW217310   2.485   4.793   3.490
 5471SOL     OW17311   5.550   0.633   4.171
 5471SOL    HW117312   5.564   0.600   4.078
 5471SOL    HW217313   5.460   0.678   4.178
 5472SOL     OW17314   2.420   4.591   0.608
 5472SOL    HW117315   2.388   4.607   0.514
 5472SOL    HW217316   2.437   4.493   0.621
 5473SOL     OW17317   3.081   4.744   1.911
 5473SOL    HW117318   3.026   4.662   1.898
 5473SOL    HW217319   3.151   4.750   1.840
 5474SOL     OW17320   0.858   5.478   1.852
 5474SOL    HW117321   0.828   5.509   1.942
 5474SOL    HW217322   0.882   5.381   1.856
 5475SOL     OW17323   0.364   1.165   5.514
 5475SOL    HW117324   0.383   1.133   5.607
 5475SOL    HW217325   0.394   1.259   5.504
 5476SOL     OW17326   3.206   1.399   4.259
 5476SOL    HW117327   3.152   1.480   4.237
 5476SOL    HW217328   3.213   1.389   4.358
 5477SOL     OW17329   1.795   4.112   2.784
 5477SOL    HW117330   1.894   4.097   2.779
 5477SOL    HW217331   1.749   4.027   2.809
 5478SOL     OW17332   6.398   2.998   5.547
 5478SOL    HW117333   6.426   3.029   5.457
 5478SOL    HW217334   6.302   3.021   5.563
 5479SOL     OW17335   5.197   4.158   4.935
 5479SOL    HW117336   5.100   4.134   4.934
 5479SOL    HW217337   5.216   4.215   5.015
 5480SOL     OW17338   2.027   2.377   6.393
 5480SOL    HW117339   2.126   2.379   6.407
 5480SOL    HW217340   1.997   2.282   6.381
 5481SOL     OW17341   3.588   0.697   0.839
 5481SOL    HW117342   3.674   0.749   0.839
 5481SOL    HW217343   3.561   0.678   0.744
 5482SOL     OW17344   5.241   4.657   2.347
 5482SOL    HW117345   5.211   4.585   2.409
 5482SOL    HW217346   5.335   4.640   2.318
 5483SOL     OW17347   5.907   1.609   0.760
 5483SOL    HW117348   5.887   1.706   0.766
 5483SOL    HW217349   6.006   1.594   0.771
 5484SOL     OW17350   5.972   0.225   5.712
 5484SOL    HW117351   5.973   0.290   5.637
 5484SOL    HW217352   6.039   0.152   5.694
 5485SOL     OW17353   2.587   1.398   3.873
 5485SOL    HW117354   2.567   1.411   3.970
 5485SOL    HW217355   2.667   1.339   3.863
 5486SOL     OW17356   6.973   1.032   3.790
 5486SOL    HW117357   6.884   1.043   3.833
 5486SOL    HW217358   7.007   0.939   3.805
 5487SOL     OW17359   4.119   5.786   1.299
 5487SOL    HW117360   4.134   5.884   1.312
 5487SOL    HW217361   4.207   5.739   1.292
 5488SOL     OW17362   4.794   0.179   6.471
 5488SOL    HW117363   4.748   0.245   6.529
 5488SOL    HW217364   4.775   0.086   6.504
 5489SOL     OW17365   6.511   3.515   2.953
 5489SOL    HW117366   6.458   3.443   2.908
 5489SOL    HW217367   6.462   3.601   2.946
 5490SOL     OW17368   3.024   1.389   6.617
 5490SOL    HW117369   3.110   1.429   6.585
 5490SOL    HW217370   2.998   1.314   6.556
 5491SOL     OW17371   5.968   6.720   1.813
 5491SOL    HW117372   6.053   6.684   1.775
 5491SOL    HW217373   5.985   6.763   1.901
 5492SOL     OW17374   1.615   1.143   5.132
 5492SOL    HW117375   1.683   1.168   5.202
 5492SOL    HW217376   1.662   1.101   5.054
 5493SOL     OW17377   4.129   1.272   0.007
 5493SOL    HW117378   4.138   1.371   0.014
 5493SOL    HW217379   4.099   1.235   0.095
 5494SOL     OW17380   5.259   3.144   2.213
 5494SOL    HW117381   5.305   3.225   2.176
 5494SOL    HW217382   5.300   3.061   2.173
 5495SOL     OW17383   3.612   3.161   5.041
 5495SOL    HW117384   3.518   3.185   5.064
 5495SOL    HW217385   3.615   3.068   5.004
 5496SOL     OW17386   4.555   4.980   2.006
 5496SOL    HW117387   4.467   5.021   1.984
 5496SOL    HW217388   4.591   5.019   2.091
 5497SOL     OW17389   5.470   6.666   0.128
 5497SOL    HW117390   5.423   6.747   0.092
 5497SOL    HW217391   5.520   6.691   0.210
 5498SOL     OW17392   3.736   0.915   3.824
 5498SOL    HW117393   3.826   0.934   3.784
 5498SOL    HW217394   3.665   0.961   3.770
 5499SOL     OW17395   0.667   0.448   5.102
 5499SOL    HW117396   0.668   0.410   5.195
 5499SOL    HW217397   0.726   0.394   5.043
 5500SOL     OW17398   1.632   6.178   0.912
 5500SOL    HW117399   1.625   6.080   0.934
 5500SOL    HW217400   1.724   6.198   0.879
 5501SOL     OW17401   2.056   1.351   2.233
 5501SOL    HW117402   2.142   1.396   2.258
 5501SOL    HW217403   1.989   1.364   2.306
 5502SOL     OW17404   5.382   4.705   0.926
 5502SOL    HW117405   5.423   4.642   0.993
 5502SOL    HW217406   5.454   4.754   0.879
 5503SOL     OW17407   6.937   0.922   4.097
 5503SOL    HW117408   7.015   0.966   4.052
 5503SOL    HW217409   6.853   0.944   4.048
 5504SOL     OW17410   2.403   2.137   4.849
 5504SOL    HW117411   2.388   2.068   4.779
 5504SOL    HW217412   2.462   2.209   4.813
 5505SOL     OW17413   3.672   5.486   0.704
 5505SOL    HW117414   3.632   5.533   0.625
 5505SOL    HW217415   3.688   5.552   0.777
 5506SOL     OW17416   1.153   6.558   4.961
 5506SOL    HW117417   1.088   6.568   4.885
 5506SOL    HW217418   1.206   6.475   4.949
 5507SOL     OW17419   2.359   5.285   5.076
 5507SOL    HW117420   2.458   5.271   5.072
 5507SOL    HW217421   2.315   5.203   5.112
 5508SOL     OW17422   2.636   1.454   5.786
 5508SOL    HW117423   2.704   1.452   5.858
 5508SOL    HW217424   2.680   1.440   5.697
 5509SOL     OW17425   6.804   0.339   6.158
 5509SOL    HW117426   6.730   0.364   6.221
 5509SOL    HW217427   6.891   0.344   6.205
 5510SOL     OW17428   1.013   0.646   5.574
 5510SOL    HW117429   0.978   0.638   5.668
 5510SOL    HW217430   0.938   0.640   5.510
 5511SOL     OW17431   0.506   2.390   0.935
 5511SOL    HW117432   0.505   2.293   0.914
 5511SOL    HW217433   0.412   2.424   0.944
 5512SOL     OW17434   6.625   6.484   0.223
 5512SOL    HW117435   6.672   6.536   0.295
 5512SOL    HW217436   6.691   6.456   0.153
 5513SOL     OW17437   2.464   6.381   4.547
 5513SOL    HW117438   2.435   6.317   4.618
 5513SOL    HW217439   2.422   6.356   4.460
 5514SOL     OW17440   5.287   5.827   3.639
 5514SOL    HW117441   5.291   5.867   3.547
 5514SOL    HW217442   5.214   5.872   3.691
 5515SOL     OW17443   0.948   4.180   3.809
 5515SOL    HW117444   1.013   4.108   3.786
 5515SOL    HW217445   0.938   4.242   3.731
 5516SOL     OW17446   2.266   2.902   0.185
 5516SOL    HW117447   2.285   2.999   0.170
 5516SOL    HW217448   2.180   2.892   0.237
 5517SOL     OW17449   3.259   0.619   2.583
 5517SOL    HW117450   3.218   0.554   2.519
 5517SOL    HW217451   3.245   0.712   2.550
 5518SOL     OW17452   5.605   4.071   6.254
 5518SOL    HW117453   5.688   4.101   6.300
 5518SOL    HW217454   5.609   4.096   6.157
 5519SOL     OW17455   5.353   3.902   2.210
 5519SOL    HW117456   5.391   3.946   2.292
 5519SOL    HW217457   5.258   3.876   2.228
 5520SOL     OW17458   1.413   2.853   1.087
 5520SOL    HW117459   1.438   2.869   1.183
 5520SOL    HW217460   1.398   2.755   1.073
 5521SOL     OW17461   5.214   4.482   6.627
 5521SOL    HW117462   5.131   4.432   6.651
 5521SOL    HW217463   5.201   4.529   6.540
 5522SOL     OW17464   1.813   3.095   1.219
 5522SOL    HW117465   1.755   3.022   1.184
 5522SOL    HW217466   1.766   3.142   1.294
 5523SOL     OW17467   2.297   6.698   1.751
 5523SOL    HW117468   2.346   6.654   1.827
 5523SOL    HW217469   2.354   6.771   1.713
 5524SOL     OW17470   6.137   6.537   5.803
 5524SOL    HW117471   6.120   6.548   5.901
 5524SOL    HW217472   6.235   6.548   5.785
 5525SOL     OW17473   6.736   6.439   3.094
 5525SOL    HW117474   6.722   6.392   3.181
 5525SOL    HW217475   6.792   6.383   3.033
 5526SOL     OW17476   5.598   3.723   4.700
 5526SOL    HW117477   5.531   3.794   4.678
 5526SOL    HW217478   5.686   3.746   4.658
 5527SOL     OW17479   3.117   3.137   0.367
 5527SOL    HW117480   3.123   3.232   0.334
 5527SOL    HW217481   3.057   3.134   0.447
 5528SOL     OW17482   6.009   2.968   2.574
 5528SOL    HW117483   6.066   3.031   2.520
 5528SOL    HW217484   5.918   3.007   2.585
 5529SOL     OW17485   1.342   0.800   4.324
 5529SOL    HW117486   1.335   0.819   4.421
 5529SOL    HW217487   1.375   0.882   4.276
 5530SOL     OW17488   0.110   3.177   6.854
 5530SOL    HW117489   0.126   3.244   6.781
 5530SOL    HW217490   0.011   3.164   6.865
 5531SOL     OW17491   2.958   3.080   0.894
 5531SOL    HW117492   2.866   3.044   0.908
 5531SOL    HW217493   3.024   3.022   0.941
 5532SOL     OW17494   2.494   2.555   1.908
 5532SOL    HW117495   2.405   2.541   1.864
 5532SOL    HW217496   2.483   2.617   1.986
 5533SOL     OW17497   3.018   0.261   0.845
 5533SOL    HW117498   3.087   0.200   0.807
 5533SOL    HW217499   3.018   0.254   0.945
 5534SOL     OW17500   0.489   3.385   5.449
 5534SOL    HW117501   0.551   3.350   5.519
 5534SOL    HW217502   0.451   3.473   5.479
 5535SOL     OW17503   4.905   4.874   3.824
 5535SOL    HW117504   4.890   4.873   3.725
 5535SOL    HW217505   5.001   4.894   3.843
 5536SOL     OW17506   2.434   1.519   4.560
 5536SOL    HW117507   2.499   1.477   4.497
 5536SOL    HW217508   2.369   1.450   4.592
 5537SOL     OW17509   3.908   1.737   3.551
 5537SOL    HW117510   3.969   1.785   3.615
 5537SOL    HW217511   3.827   1.705   3.600
 5538SOL     OW17512   4.956   2.269   2.495
 5538SOL    HW117513   4.965   2.353   2.441
 5538SOL    HW217514   4.860   2.255   2.519
 5539SOL     OW17515   1.081   0.758   6.273
 5539SOL    HW117516   1.165   0.802   6.241
 5539SOL    HW217517   1.095   0.660   6.279
 5540SOL     OW17518   4.965   0.126   5.245
 5540SOL    HW117519   5.065   0.132   5.253
 5540SOL    HW217520   4.938   0.032   5.227
 5541SOL     OW17521   4.874   2.725   5.505
 5541SOL    HW117522   4.890   2.776   5.590
 5541SOL    HW217523   4.813   2.648   5.523
 5542SOL     OW17524   4.828   4.376   6.652
 5542SOL    HW117525   4.906   4.333   6.698
 5542SOL    HW217526   4.760   4.307   6.628
 5543SOL     OW17527   0.224   0.241   6.122
 5543SOL    HW117528   0.279   0.169   6.079
 5543SOL    HW217529   0.198   0.309   6.054
 5544SOL     OW17530   4.020   4.825   0.063
 5544SOL    HW117531   4.074   4.842   0.146
 5544SOL    HW217532   4.081   4.795   7.010
 5545SOL     OW17533   5.487   1.948   3.107
 5545SOL    HW117534   5.554   1.971   3.178
 5545SOL    HW217535   5.533   1.945   3.018
 5546SOL     OW17536   0.610   6.183   4.372
 5546SOL    HW117537   0.602   6.176   4.471
 5546SOL    HW217538   0.531   6.234   4.335
 5547SOL     OW17539   4.848   1.403   4.663
 5547SOL    HW117540   4.923   1.451   4.617
 5547SOL    HW217541   4.799   1.468   4.722
 5548SOL     OW17542   1.147   3.773   4.712
 5548SOL    HW117543   1.104   3.703   4.656
 5548SOL    HW217544   1.084   3.851   4.722
 5549SOL     OW17545   4.384   3.399   0.249
 5549SOL    HW117546   4.407   3.303   0.230
 5549SOL    HW217547   4.337   3.438   0.170
 5550SOL     OW17548   3.054   3.910   1.581
 5550SOL    HW117549   3.107   3.832   1.613
 5550SOL    HW217550   3.075   3.991   1.637
 5551SOL     OW17551   1.012   4.658   2.245
 5551SOL    HW117552   1.028   4.565   2.211
 5551SOL    HW217553   0.914   4.679   2.239
 5552SOL     OW17554   0.669   0.571   0.695
 5552SOL    HW117555   0.692   0.584   0.599
 5552SOL    HW217556   0.753   0.552   0.747
 5553SOL     OW17557   6.056   5.566   0.773
 5553SOL    HW117558   5.979   5.578   0.711
 5553SOL    HW217559   6.082   5.654   0.812
 5554SOL     OW17560   0.108   2.492   1.761
 5554SOL    HW117561   0.140   2.560   1.827
 5554SOL    HW217562   0.174   2.416   1.757
 5555SOL     OW17563   0.971   4.866   1.768
 5555SOL    HW117564   0.992   4.859   1.865
 5555SOL    HW217565   0.906   4.794   1.742
 5556SOL     OW17566   6.706   2.037   5.137
 5556SOL    HW117567   6.636   2.054   5.206
 5556SOL    HW217568   6.672   1.971   5.071
 5557SOL     OW17569   3.603   7.015   2.997
 5557SOL    HW117570   3.604   6.918   2.972
 5557SOL    HW217571   3.616   0.051   2.916
 5558SOL     OW17572   3.823   3.569   6.264
 5558SOL    HW117573   3.854   3.662   6.246
 5558SOL    HW217574   3.875   3.505   6.207
 5559SOL     OW17575   3.453   0.803   2.898
 5559SOL    HW117576   3.480   0.727   2.839
 5559SOL    HW217577   3.514   0.807   2.978
 5560SOL     OW17578   0.099   5.189   3.261
 5560SOL    HW117579   0.012   5.188   3.310
 5560SOL    HW217580   0.167   5.241   3.314
 5561SOL     OW17581   3.199   0.787   3.531
 5561SOL    HW117582   3.110   0.818   3.567
 5561SOL    HW217583   3.266   0.861   3.541
 5562SOL     OW17584   4.989   3.147   1.036
 5562SOL    HW117585   5.042   3.091   1.099
 5562SOL    HW217586   4.892   3.125   1.047
 5563SOL     OW17587   1.821   3.989   2.167
 5563SOL    HW117588   1.830   4.087   2.149
 5563SOL    HW217589   1.896   3.940   2.121
 5564SOL     OW17590   4.357   0.137   6.904
 5564SOL    HW117591   4.353   0.236   6.912
 5564SOL    HW217592   4.268   0.102   6.874
 5565SOL     OW17593   2.954   1.982   6.401
 5565SOL    HW117594   2.918   2.012   6.313
 5565SOL    HW217595   2.970   1.884   6.399
 5566SOL     OW17596   1.412   5.527   5.406
 5566SOL    HW117597   1.349   5.604   5.394
 5566SOL    HW217598   1.454   5.532   5.496
 5567SOL     OW17599   1.203   5.125   6.614
 5567SOL    HW117600   1.125   5.179   6.643
 5567SOL    HW217601   1.172   5.043   6.566
 5568SOL     OW17602   5.334   5.450   1.956
 5568SOL    HW117603   5.337   5.362   2.003
 5568SOL    HW217604   5.395   5.514   2.002
 5569SOL     OW17605   1.742   2.371   2.875
 5569SOL    HW117606   1.742   2.325   2.964
 5569SOL    HW217607   1.675   2.446   2.877
 5570SOL     OW17608   0.064   3.123   1.044
 5570SOL    HW117609   0.066   3.135   0.945
 5570SOL    HW217610   0.018   3.201   1.087
 5571SOL     OW17611   0.022   4.400   6.495
 5571SOL    HW117612   6.965   4.344   6.524
 5571SOL    HW217613   0.099   4.341   6.470
 5572SOL     OW17614   1.218   4.496   5.478
 5572SOL    HW117615   1.249   4.576   5.529
 5572SOL    HW217616   1.254   4.500   5.385
 5573SOL     OW17617   3.139   4.981   3.281
 5573SOL    HW117618   3.153   4.933   3.368
 5573SOL    HW217619   3.215   4.961   3.219
 5574SOL     OW17620   1.171   1.095   5.989
 5574SOL    HW117621   1.143   1.174   5.936
 5574SOL    HW217622   1.124   1.013   5.956
 5575SOL     OW17623   6.996   0.538   1.648
 5575SOL    HW117624   6.931   0.465   1.629
 5575SOL    HW217625   6.995   0.559   1.746
 5576SOL     OW17626   1.851   4.816   3.353
 5576SOL    HW117627   1.950   4.814   3.366
 5576SOL    HW217628   1.823   4.736   3.300
 5577SOL     OW17629   3.289   2.238   6.465
 5577SOL    HW117630   3.339   2.324   6.478
 5577SOL    HW217631   3.299   2.181   6.546
 5578SOL     OW17632   3.899   4.031   3.745
 5578SOL    HW117633   3.825   4.071   3.800
 5578SOL    HW217634   3.979   4.091   3.750
 5579SOL     OW17635   6.004   2.875   1.506
 5579SOL    HW117636   5.967   2.795   1.553
 5579SOL    HW217637   6.017   2.853   1.409
 5580SOL     OW17638   5.895   1.955   6.486
 5580SOL    HW117639   5.942   1.874   6.450
 5580SOL    HW217640   5.796   1.946   6.470
 5581SOL     OW17641   1.659   0.886   5.515
 5581SOL    HW117642   1.561   0.907   5.514
 5581SOL    HW217643   1.712   0.971   5.513
 5582SOL     OW17644   2.516   3.034   5.897
 5582SOL    HW117645   2.491   2.941   5.868
 5582SOL    HW217646   2.588   3.069   5.836
 5583SOL     OW17647   5.778   6.699   1.310
 5583SOL    HW117648   5.814   6.715   1.218
 5583SOL    HW217649   5.682   6.673   1.304
 5584SOL     OW17650   0.527   3.636   4.872
 5584SOL    HW117651   0.627   3.634   4.878
 5584SOL    HW217652   0.500   3.674   4.784
 5585SOL     OW17653   6.202   5.208   1.504
 5585SOL    HW117654   6.106   5.188   1.525
 5585SOL    HW217655   6.256   5.202   1.588
 5586SOL     OW17656   1.338   6.244   1.742
 5586SOL    HW117657   1.306   6.314   1.806
 5586SOL    HW217658   1.434   6.223   1.760
 5587SOL     OW17659   5.819   1.214   5.042
 5587SOL    HW117660   5.761   1.294   5.059
 5587SOL    HW217661   5.897   1.241   4.984
 5588SOL     OW17662   3.197   6.779   1.108
 5588SOL    HW117663   3.171   6.836   1.186
 5588SOL    HW217664   3.175   6.827   1.023
 5589SOL     OW17665   0.615   4.632   5.792
 5589SOL    HW117666   0.586   4.635   5.888
 5589SOL    HW217667   0.543   4.668   5.734
 5590SOL     OW17668   5.888   5.391   3.273
 5590SOL    HW117669   5.956   5.365   3.204
 5590SOL    HW217670   5.796   5.376   3.236
 5591SOL     OW17671   5.054   1.278   2.792
 5591SOL    HW117672   5.020   1.317   2.877
 5591SOL    HW217673   4.982   1.221   2.751
 5592SOL     OW17674   0.071   5.530   4.549
 5592SOL    HW117675   0.013   5.453   4.575
 5592SOL    HW217676   0.148   5.496   4.496
 5593SOL     OW17677   1.987   4.087   1.017
 5593SOL    HW117678   1.983   4.168   1.075
 5593SOL    HW217679   2.081   4.051   1.016
 5594SOL     OW17680   6.093   6.998   5.641
 5594SOL    HW117681   6.158   6.989   5.717
 5594SOL    HW217682   6.141   6.985   5.555
 5595SOL     OW17683   0.035   1.669   0.803
 5595SOL    HW117684   0.084   1.727   0.868
 5595SOL    HW217685   0.100   1.627   0.740
 5596SOL     OW17686   4.123   6.211   3.195
 5596SOL    HW117687   4.121   6.121   3.151
 5596SOL    HW217688   4.040   6.262   3.173
 5597SOL     OW17689   4.991   3.443   2.209
 5597SOL    HW117690   5.005   3.356   2.161
 5597SOL    HW217691   4.913   3.491   2.169
 5598SOL     OW17692   3.215   0.400   4.198
 5598SOL    HW117693   3.205   0.303   4.173
 5598SOL    HW217694   3.302   0.434   4.162
 5599SOL     OW17695   1.091   1.729   3.518
 5599SOL    HW117696   1.148   1.648   3.503
 5599SOL    HW217697   1.011   1.705   3.573
 5600SOL     OW17698   2.555   2.780   5.291
 5600SOL    HW117699   2.534   2.872   5.257
 5600SOL    HW217700   2.478   2.718   5.269
 5601SOL     OW17701   1.875   0.686   6.440
 5601SOL    HW117702   1.839   0.763   6.387
 5601SOL    HW217703   1.896   0.610   6.379
 5602SOL     OW17704   2.025   1.348   0.179
 5602SOL    HW117705   1.960   1.324   0.251
 5602SOL    HW217706   2.032   1.273   0.113
 5603SOL     OW17707   6.634   3.376   5.124
 5603SOL    HW117708   6.676   3.405   5.038
 5603SOL    HW217709   6.706   3.352   5.190
 5604SOL     OW17710   5.503   0.746   6.408
 5604SOL    HW117711   5.586   0.694   6.425
 5604SOL    HW217712   5.466   0.721   6.319
 5605SOL     OW17713   1.268   1.578   6.668
 5605SOL    HW117714   1.202   1.568   6.594
 5605SOL    HW217715   1.258   1.668   6.710
 5606SOL     OW17716   5.871   6.837   2.992
 5606SOL    HW117717   5.822   6.846   2.905
 5606SOL    HW217718   5.968   6.854   2.977
 5607SOL     OW17719   5.025   0.372   1.250
 5607SOL    HW117720   4.951   0.426   1.290
 5607SOL    HW217721   5.109   0.389   1.301
 5608SOL     OW17722   3.653   6.419   5.337
 5608SOL    HW117723   3.583   6.348   5.326
 5608SOL    HW217724   3.686   6.418   5.432
 5609SOL     OW17725   1.197   5.992   4.725
 5609SOL    HW117726   1.191   6.009   4.626
 5609SOL    HW217727   1.278   6.037   4.761
 5610SOL     OW17728   5.285   0.173   6.553
 5610SOL    HW117729   5.382   0.182   6.531
 5610SOL    HW217730   5.261   0.237   6.626
 5611SOL     OW17731   2.146   4.375   4.055
 5611SOL    HW117732   2.107   4.429   4.130
 5611SOL    HW217733   2.217   4.314   4.091
 5612SOL     OW17734   3.671   6.443   4.489
 5612SOL    HW117735   3.625   6.481   4.569
 5612SOL    HW217736   3.623   6.360   4.458
 5613SOL     OW17737   2.595   5.204   2.556
 5613SOL    HW117738   2.631   5.283   2.507
 5613SOL    HW217739   2.628   5.205   2.650
 5614SOL     OW17740   4.847   2.466   4.437
 5614SOL    HW117741   4.814   2.380   4.475
 5614SOL    HW217742   4.804   2.543   4.483
 5615SOL     OW17743   1.001   1.444   1.956
 5615SOL    HW117744   0.907   1.421   1.979
 5615SOL    HW217745   1.060   1.429   2.036
 5616SOL     OW17746   2.537   6.793   4.698
 5616SOL    HW117747   2.486   6.709   4.680
 5616SOL    HW217748   2.620   6.794   4.642
 5617SOL     OW17749   0.251   1.177   5.891
 5617SOL    HW117750   0.344   1.149   5.866
 5617SOL    HW217751   0.212   1.110   5.954
 5618SOL     OW17752   6.424   4.946   3.612
 5618SOL    HW117753   6.355   4.886   3.573
 5618SOL    HW217754   6.391   4.984   3.698
 5619SOL     OW17755   2.182   3.240   4.721
 5619SOL    HW117756   2.179   3.166   4.788
 5619SOL    HW217757   2.248   3.218   4.650
 5620SOL     OW17758   5.383   2.051   6.505
 5620SOL    HW117759   5.332   2.134   6.480
 5620SOL    HW217760   5.409   2.002   6.422
 5621SOL     OW17761   2.846   1.433   5.947
 5621SOL    HW117762   2.850   1.345   5.993
 5621SOL    HW217763   2.918   1.493   5.981
 5622SOL     OW17764   5.351   1.316   5.176
 5622SOL    HW117765   5.384   1.378   5.105
 5622SOL    HW217766   5.415   1.315   5.253
 5623SOL     OW17767   0.134   6.225   6.534
 5623SOL    HW117768   0.058   6.220   6.600
 5623SOL    HW217769   0.104   6.274   6.452
 5624SOL     OW17770   1.063   4.268   2.684
 5624SOL    HW117771   1.126   4.318   2.744
 5624SOL    HW217772   1.112   4.194   2.638
 5625SOL     OW17773   6.663   1.673   5.758
 5625SOL    HW117774   6.631   1.600   5.698
 5625SOL    HW217775   6.740   1.721   5.716
 5626SOL     OW17776   5.699   6.796   5.283
 5626SOL    HW117777   5.648   6.876   5.251
 5626SOL    HW217778   5.640   6.740   5.341
 5627SOL     OW17779   1.150   0.553   1.673
 5627SOL    HW117780   1.151   0.650   1.699
 5627SOL    HW217781   1.228   0.507   1.715
 5628SOL     OW17782   1.802   1.509   4.084
 5628SOL    HW117783   1.786   1.419   4.043
 5628SOL    HW217784   1.791   1.580   4.014
 5629SOL     OW17785   3.625   3.534   3.653
 5629SOL    HW117786   3.571   3.565   3.575
 5629SOL    HW217787   3.700   3.476   3.621
 5630SOL     OW17788   6.810   3.853   0.866
 5630SOL    HW117789   6.867   3.915   0.919
 5630SOL    HW217790   6.816   3.761   0.904
 5631SOL     OW17791   5.927   1.263   6.284
 5631SOL    HW117792   5.847   1.278   6.227
 5631SOL    HW217793   5.966   1.173   6.264
 5632SOL     OW17794   3.439   2.480   0.766
 5632SOL    HW117795   3.488   2.558   0.727
 5632SOL    HW217796   3.504   2.408   0.789
 5633SOL     OW17797   0.043   2.756   5.686
 5633SOL    HW117798   0.106   2.684   5.715
 5633SOL    HW217799   6.973   2.738   5.726
 5634SOL     OW17800   4.651   5.965   5.503
 5634SOL    HW117801   4.617   5.873   5.524
 5634SOL    HW217802   4.631   5.987   5.407
 5635SOL     OW17803   2.957   1.672   6.541
 5635SOL    HW117804   3.000   1.709   6.624
 5635SOL    HW217805   2.975   1.574   6.536
 5636SOL     OW17806   4.643   1.026   4.161
 5636SOL    HW117807   4.557   0.991   4.198
 5636SOL    HW217808   4.689   0.954   4.109
 5637SOL     OW17809   6.151   6.748   2.579
 5637SOL    HW117810   6.137   6.702   2.667
 5637SOL    HW217811   6.097   6.833   2.577
 5638SOL     OW17812   0.415   3.544   6.857
 5638SOL    HW117813   0.334   3.595   6.887
 5638SOL    HW217814   0.492   3.607   6.849
 5639SOL     OW17815   4.130   0.199   6.579
 5639SOL    HW117816   4.095   0.114   6.541
 5639SOL    HW217817   4.150   0.187   6.676
 5640SOL     OW17818   1.500   6.985   3.416
 5640SOL    HW117819   1.465   0.054   3.386
 5640SOL    HW217820   1.424   6.930   3.451
 5641SOL     OW17821   6.958   6.033   4.851
 5641SOL    HW117822   6.962   5.948   4.903
 5641SOL    HW217823   6.924   6.015   4.759
 5642SOL     OW17824   1.731   0.647   0.075
 5642SOL    HW117825   1.635   0.666   0.095
 5642SOL    HW217826   1.772   0.726   0.029
 5643SOL     OW17827   5.152   2.198   6.969
 5643SOL    HW117828   5.099   2.151   0.019
 5643SOL    HW217829   5.132   2.157   6.880
 5644SOL     OW17830   2.738   0.287   5.740
 5644SOL    HW117831   2.667   0.320   5.803
 5644SOL    HW217832   2.827   0.319   5.771
 5645SOL     OW17833   5.220   3.737   4.143
 5645SOL    HW117834   5.208   3.792   4.061
 5645SOL    HW217835   5.132   3.699   4.172
 5646SOL     OW17836   0.775   4.477   2.383
 5646SOL    HW117837   0.776   4.576   2.398
 5646SOL    HW217838   0.802   4.430   2.467
 5647SOL     OW17839   4.271   5.644   2.520
 5647SOL    HW117840   4.212   5.591   2.459
 5647SOL    HW217841   4.358   5.597   2.533
 5648SOL     OW17842   5.406   6.379   3.263
 5648SOL    HW117843   5.504   6.361   3.270
 5648SOL    HW217844   5.372   6.344   3.175
 5649SOL     OW17845   0.402   0.421   5.040
 5649SOL    HW117846   0.371   0.515   5.056
 5649SOL    HW217847   0.501   0.421   5.025
 5650SOL     OW17848   0.454   3.784   6.069
 5650SOL    HW117849   0.398   3.816   5.991
 5650SOL    HW217850   0.468   3.686   6.061
 5651SOL     OW17851   2.897   1.002   1.821
 5651SOL    HW117852   2.833   0.935   1.858
 5651SOL    HW217853   2.966   0.955   1.767
 5652SOL     OW17854   0.581   5.944   2.809
 5652SOL    HW117855   0.580   5.946   2.709
 5652SOL    HW217856   0.543   6.029   2.845
 5653SOL     OW17857   6.900   0.254   2.907
 5653SOL    HW117858   6.907   0.165   2.951
 5653SOL    HW217859   6.872   0.242   2.812
 5654SOL     OW17860   3.025   6.227   5.435
 5654SOL    HW117861   3.038   6.175   5.351
 5654SOL    HW217862   3.020   6.164   5.513
 5655SOL     OW17863   6.281   3.483   4.290
 5655SOL    HW117864   6.206   3.534   4.247
 5655SOL    HW217865   6.333   3.434   4.220
 5656SOL     OW17866   0.519   4.634   1.466
 5656SOL    HW117867   0.508   4.586   1.379
 5656SOL    HW217868   0.435   4.627   1.520
 5657SOL     OW17869   6.152   6.332   5.567
 5657SOL    HW117870   6.137   6.402   5.636
 5657SOL    HW217871   6.122   6.243   5.602
 5658SOL     OW17872   2.971   2.592   5.438
 5658SOL    HW117873   3.042   2.593   5.368
 5658SOL    HW217874   2.884   2.564   5.397
 5659SOL     OW17875   2.549   3.988   5.904
 5659SOL    HW117876   2.571   4.085   5.910
 5659SOL    HW217877   2.503   3.969   5.817
 5660SOL     OW17878   4.193   0.697   4.249
 5660SOL    HW117879   4.159   0.700   4.343
 5660SOL    HW217880   4.119   0.719   4.185
 5661SOL     OW17881   0.393   5.867   5.823
 5661SOL    HW117882   0.467   5.802   5.844
 5661SOL    HW217883   0.432   5.948   5.779
 5662SOL     OW17884   2.525   5.941   1.096
 5662SOL    HW117885   2.484   6.008   1.158
 5662SOL    HW217886   2.526   5.977   1.003
 5663SOL     OW17887   3.259   1.837   6.446
 5663SOL    HW117888   3.351   1.874   6.464
 5663SOL    HW217889   3.196   1.870   6.517
 5664SOL     OW17890   5.028   5.764   5.150
 5664SOL    HW117891   5.084   5.807   5.079
 5664SOL    HW217892   4.936   5.748   5.115
 5665SOL     OW17893   2.228   0.763   0.807
 5665SOL    HW117894   2.308   0.761   0.867
 5665SOL    HW217895   2.222   0.852   0.762
 5666SOL     OW17896   5.935   3.296   4.828
 5666SOL    HW117897   5.940   3.254   4.919
 5666SOL    HW217898   5.900   3.390   4.837
 5667SOL     OW17899   2.737   4.758   4.038
 5667SOL    HW117900   2.690   4.674   4.011
 5667SOL    HW217901   2.760   4.811   3.956
 5668SOL     OW17902   4.473   4.486   3.887
 5668SOL    HW117903   4.444   4.556   3.952
 5668SOL    HW217904   4.456   4.518   3.794
 5669SOL     OW17905   5.684   3.917   5.740
 5669SOL    HW117906   5.705   3.822   5.763
 5669SOL    HW217907   5.768   3.965   5.715
 5670SOL     OW17908   1.075   3.347   4.104
 5670SOL    HW117909   1.138   3.420   4.080
 5670SOL    HW217910   1.084   3.272   4.038
 5671SOL     OW17911   6.175   5.846   2.893
 5671SOL    HW117912   6.078   5.834   2.912
 5671SOL    HW217913   6.217   5.898   2.968
 5672SOL     OW17914   5.832   3.045   4.805
 5672SOL    HW117915   5.762   3.010   4.743
 5672SOL    HW217916   5.869   3.131   4.769
 5673SOL     OW17917   1.188   1.973   0.537
 5673SOL    HW117918   1.206   1.960   0.635
 5673SOL    HW217919   1.094   1.945   0.516
 5674SOL     OW17920   3.042   5.616   4.802
 5674SOL    HW117921   2.988   5.588   4.882
 5674SOL    HW217922   3.137   5.627   4.829
 5675SOL     OW17923   3.590   2.170   0.755
 5675SOL    HW117924   3.516   2.183   0.821
 5675SOL    HW217925   3.553   2.129   0.671
 5676SOL     OW17926   3.887   1.204   1.950
 5676SOL    HW117927   3.844   1.138   1.888
 5676SOL    HW217928   3.963   1.161   1.997
 5677SOL     OW17929   1.452   1.100   5.967
 5677SOL    HW117930   1.354   1.114   5.985
 5677SOL    HW217931   1.483   1.166   5.899
 5678SOL     OW17932   3.885   1.743   1.981
 5678SOL    HW117933   3.889   1.658   1.928
 5678SOL    HW217934   3.792   1.755   2.016
 5679SOL     OW17935   0.917   3.819   5.917
 5679SOL    HW117936   0.937   3.798   5.822
 5679SOL    HW217937   0.885   3.913   5.926
 5680SOL     OW17938   0.820   5.610   4.538
 5680SOL    HW117939   0.725   5.617   4.509
 5680SOL    HW217940   0.867   5.541   4.483
 5681SOL     OW17941   1.493   3.460   3.030
 5681SOL    HW117942   1.406   3.457   2.982
 5681SOL    HW217943   1.552   3.386   2.999
 5682SOL     OW17944   1.656   4.694   0.377
 5682SOL    HW117945   1.679   4.648   0.463
 5682SOL    HW217946   1.725   4.763   0.356
 5683SOL     OW17947   0.030   6.558   5.888
 5683SOL    HW117948   7.006   6.473   5.856
 5683SOL    HW217949   0.029   6.561   5.988
 5684SOL     OW17950   1.790   3.346   4.717
 5684SOL    HW117951   1.721   3.371   4.785
 5684SOL    HW217952   1.746   3.322   4.631
 5685SOL     OW17953   1.762   2.191   1.710
 5685SOL    HW117954   1.730   2.105   1.673
 5685SOL    HW217955   1.855   2.210   1.677
 5686SOL     OW17956   6.102   5.644   5.583
 5686SOL    HW117957   6.048   5.724   5.608
 5686SOL    HW217958   6.137   5.600   5.665
 5687SOL     OW17959   1.193   0.699   6.697
 5687SOL    HW117960   1.127   0.682   6.625
 5687SOL    HW217961   1.145   0.720   6.782
 5688SOL     OW17962   1.364   2.723   2.533
 5688SOL    HW117963   1.456   2.762   2.530
 5688SOL    HW217964   1.326   2.721   2.441
 5689SOL     OW17965   0.074   1.665   1.175
 5689SOL    HW117966   0.102   1.749   1.127
 5689SOL    HW217967   0.021   1.608   1.112
 5690SOL     OW17968   3.111   5.373   0.116
 5690SOL    HW117969   3.181   5.390   0.047
 5690SOL    HW217970   3.144   5.304   0.180
 5691SOL     OW17971   5.048   3.123   3.310
 5691SOL    HW117972   5.139   3.162   3.324
 5691SOL    HW217973   4.996   3.130   3.394
 5692SOL     OW17974   6.574   4.896   1.738
 5692SOL    HW117975   6.636   4.917   1.813
 5692SOL    HW217976   6.531   4.807   1.754
 5693SOL     OW17977   3.197   0.881   2.504
 5693SOL    HW117978   3.268   0.932   2.454
 5693SOL    HW217979   3.111   0.932   2.499
 5694SOL     OW17980   0.148   6.466   1.044
 5694SOL    HW117981   0.214   6.428   1.109
 5694SOL    HW217982   0.170   6.562   1.025
 5695SOL     OW17983   1.881   0.997   2.165
 5695SOL    HW117984   1.890   1.012   2.264
 5695SOL    HW217985   1.784   1.000   2.140
 5696SOL     OW17986   0.103   0.775   3.808
 5696SOL    HW117987   0.014   0.754   3.767
 5696SOL    HW217988   0.168   0.798   3.735
 5697SOL     OW17989   6.184   1.967   0.455
 5697SOL    HW117990   6.143   2.038   0.398
 5697SOL    HW217991   6.259   1.923   0.406
 5698SOL     OW17992   3.093   2.195   3.277
 5698SOL    HW117993   3.135   2.138   3.347
 5698SOL    HW217994   3.161   2.214   3.205
 5699SOL     OW17995   2.269   2.827   2.643
 5699SOL    HW117996   2.367   2.809   2.652
 5699SOL    HW217997   2.219   2.741   2.651
 5700SOL     OW17998   5.622   0.420   2.187
 5700SOL    HW117999   5.716   0.454   2.184
 5700SOL    HW218000   5.570   0.458   2.111
 5701SOL     OW18001   1.822   0.732   0.690
 5701SOL    HW118002   1.880   0.696   0.764
 5701SOL    HW218003   1.727   0.704   0.706
 5702SOL     OW18004   1.190   6.300   4.950
 5702SOL    HW118005   1.192   6.208   4.990
 5702SOL    HW218006   1.156   6.295   4.856
 5703SOL     OW18007   0.983   3.117   6.114
 5703SOL    HW118008   1.013   3.022   6.127
 5703SOL    HW218009   0.893   3.118   6.070
 5704SOL     OW18010   4.131   5.760   4.726
 5704SOL    HW118011   4.180   5.757   4.639
 5704SOL    HW218012   4.037   5.727   4.712
 5705SOL     OW18013   5.616   1.395   5.006
 5705SOL    HW118014   5.562   1.344   4.938
 5705SOL    HW218015   5.683   1.452   4.958
 5706SOL     OW18016   5.506   0.827   1.133
 5706SOL    HW118017   5.518   0.910   1.188
 5706SOL    HW218018   5.447   0.763   1.182
 5707SOL     OW18019   6.072   5.833   1.464
 5707SOL    HW118020   5.982   5.796   1.444
 5707SOL    HW218021   6.123   5.770   1.523
 5708SOL     OW18022   5.292   6.573   2.321
 5708SOL    HW118023   5.318   6.612   2.232
 5708SOL    HW218024   5.278   6.475   2.311
 5709SOL     OW18025   6.843   2.382   2.481
 5709SOL    HW118026   6.745   2.370   2.488
 5709SOL    HW218027   6.863   2.444   2.404
 5710SOL     OW18028   5.683   1.246   0.685
 5710SOL    HW118029   5.599   1.300   0.690
 5710SOL    HW218030   5.730   1.250   0.773
 5711SOL     OW18031   4.158   1.530   2.438
 5711SOL    HW118032   4.180   1.614   2.389
 5711SOL    HW218033   4.085   1.547   2.503
 5712SOL     OW18034   6.718   6.175   6.346
 5712SOL    HW118035   6.804   6.135   6.376
 5712SOL    HW218036   6.642   6.127   6.389
 5713SOL     OW18037   1.445   1.484   0.410
 5713SOL    HW118038   1.487   1.396   0.388
 5713SOL    HW218039   1.381   1.511   0.338
 5714SOL     OW18040   5.608   6.985   1.588
 5714SOL    HW118041   5.509   6.992   1.598
 5714SOL    HW218042   5.633   6.889   1.574
 5715SOL     OW18043   0.440   5.847   0.926
 5715SOL    HW118044   0.383   5.900   0.862
 5715SOL    HW218045   0.382   5.785   0.978
 5716SOL     OW18046   0.044   4.722   5.768
 5716SOL    HW118047   6.979   4.766   5.741
 5716SOL    HW218048   0.034   4.682   5.859
 5717SOL     OW18049   0.155   5.869   2.854
 5717SOL    HW118050   0.081   5.906   2.910
 5717SOL    HW218051   0.135   5.885   2.758
 5718SOL     OW18052   1.501   4.564   6.660
 5718SOL    HW118053   1.500   4.522   6.751
 5718SOL    HW218054   1.529   4.495   6.593
 5719SOL     OW18055   3.623   3.618   1.245
 5719SOL    HW118056   3.695   3.661   1.299
 5719SOL    HW218057   3.574   3.551   1.302
 5720SOL     OW18058   2.696   4.120   6.760
 5720SOL    HW118059   2.690   4.064   6.678
 5720SOL    HW218060   2.747   4.070   6.831
 5721SOL     OW18061   0.861   3.032   0.465
 5721SOL    HW118062   0.887   2.937   0.475
 5721SOL    HW218063   0.818   3.046   0.375
 5722SOL     OW18064   1.803   0.892   6.208
 5722SOL    HW118065   1.895   0.888   6.169
 5722SOL    HW218066   1.768   0.986   6.200
 5723SOL     OW18067   4.291   3.988   0.517
 5723SOL    HW118068   4.357   4.061   0.538
 5723SOL    HW218069   4.248   4.006   0.428
 5724SOL     OW18070   6.635   1.619   6.191
 5724SOL    HW118071   6.540   1.591   6.174
 5724SOL    HW218072   6.678   1.644   6.104
 5725SOL     OW18073   6.741   4.104   4.623
 5725SOL    HW118074   6.805   4.169   4.664
 5725SOL    HW218075   6.675   4.153   4.566
 5726SOL     OW18076   3.941   4.839   2.040
 5726SOL    HW118077   3.866   4.811   2.100
 5726SOL    HW218078   3.978   4.759   1.993
 5727SOL     OW18079   1.127   3.044   6.387
 5727SOL    HW118080   1.060   3.094   6.332
 5727SOL    HW218081   1.121   3.074   6.482
 5728SOL     OW18082   2.269   6.178   4.101
 5728SOL    HW118083   2.317   6.100   4.061
 5728SOL    HW218084   2.334   6.235   4.151
 5729SOL     OW18085   2.728   1.891   5.110
 5729SOL    HW118086   2.793   1.903   5.184
 5729SOL    HW218087   2.715   1.978   5.061
 5730SOL     OW18088   6.272   4.879   4.512
 5730SOL    HW118089   6.190   4.839   4.553
 5730SOL    HW218090   6.351   4.860   4.570
 5731SOL     OW18091   0.086   6.338   2.336
 5731SOL    HW118092   7.010   6.343   2.310
 5731SOL    HW218093   0.139   6.305   2.258
 5732SOL     OW18094   5.149   0.690   3.775
 5732SOL    HW118095   5.126   0.673   3.679
 5732SOL    HW218096   5.140   0.788   3.794
 5733SOL     OW18097   2.649   0.976   5.283
 5733SOL    HW118098   2.645   1.064   5.330
 5733SOL    HW218099   2.557   0.938   5.274
 5734SOL     OW18100   1.963   6.320   3.895
 5734SOL    HW118101   1.982   6.225   3.917
 5734SOL    HW218102   1.864   6.332   3.882
 5735SOL     OW18103   2.103   0.766   1.448
 5735SOL    HW118104   2.173   0.829   1.416
 5735SOL    HW218105   2.025   0.817   1.484
 5736SOL     OW18106   1.751   4.619   1.227
 5736SOL    HW118107   1.655   4.605   1.251
 5736SOL    HW218108   1.757   4.664   1.138
 5737SOL     OW18109   6.027   3.895   6.869
 5737SOL    HW118110   5.989   3.983   6.896
 5737SOL    HW218111   6.078   3.905   6.784
 5738SOL     OW18112   1.119   5.638   4.220
 5738SOL    HW118113   1.050   5.650   4.291
 5738SOL    HW218114   1.086   5.573   4.152
 5739SOL     OW18115   0.904   2.283   1.044
 5739SOL    HW118116   0.979   2.274   1.109
 5739SOL    HW218117   0.845   2.359   1.070
 5740SOL     OW18118   4.550   4.907   0.682
 5740SOL    HW118119   4.527   4.991   0.633
 5740SOL    HW218120   4.501   4.830   0.641
 5741SOL     OW18121   0.175   2.560   2.278
 5741SOL    HW118122   0.172   2.489   2.349
 5741SOL    HW218123   0.208   2.520   2.192
 5742SOL     OW18124   0.037   5.310   3.559
 5742SOL    HW118125   6.966   5.338   3.591
 5742SOL    HW218126   0.106   5.372   3.595
 5743SOL     OW18127   0.807   0.694   5.135
 5743SOL    HW118128   0.784   0.597   5.129
 5743SOL    HW218129   0.894   0.710   5.089
 5744SOL     OW18130   5.984   0.350   2.487
 5744SOL    HW118131   6.070   0.400   2.501
 5744SOL    HW218132   6.004   0.254   2.472
 5745SOL     OW18133   6.841   3.519   2.006
 5745SOL    HW118134   6.851   3.615   2.032
 5745SOL    HW218135   6.765   3.510   1.942
 5746SOL     OW18136   0.477   3.506   6.050
 5746SOL    HW118137   0.466   3.431   6.116
 5746SOL    HW218138   0.413   3.493   5.974
 5747SOL     OW18139   6.965   5.968   4.212
 5747SOL    HW118140   6.970   5.889   4.152
 5747SOL    HW218141   6.938   6.049   4.160
 5748SOL     OW18142   1.715   1.201   3.944
 5748SOL    HW118143   1.638   1.254   3.909
 5748SOL    HW218144   1.696   1.104   3.936
 5749SOL     OW18145   0.479   1.541   3.032
 5749SOL    HW118146   0.461   1.496   3.120
 5749SOL    HW218147   0.557   1.497   2.988
 5750SOL     OW18148   4.405   6.247   2.728
 5750SOL    HW118149   4.495   6.205   2.713
 5750SOL    HW218150   4.391   6.262   2.825
 5751SOL     OW18151   1.248   1.846   6.781
 5751SOL    HW118152   1.318   1.820   6.848
 5751SOL    HW218153   1.289   1.906   6.712
 5752SOL     OW18154   1.848   1.071   6.677
 5752SOL    HW118155   1.815   1.081   6.583
 5752SOL    HW218156   1.826   1.154   6.729
 5753SOL     OW18157   4.019   1.685   6.449
 5753SOL    HW118158   4.042   1.588   6.462
 5753SOL    HW218159   3.929   1.703   6.490
 5754SOL     OW18160   6.370   5.732   0.504
 5754SOL    HW118161   6.435   5.665   0.470
 5754SOL    HW218162   6.283   5.721   0.455
 5755SOL     OW18163   3.068   3.921   2.149
 5755SOL    HW118164   3.041   3.918   2.246
 5755SOL    HW218165   3.147   3.862   2.135
 5756SOL     OW18166   6.346   0.253   3.860
 5756SOL    HW118167   6.400   0.214   3.934
 5756SOL    HW218168   6.262   0.201   3.848
 5757SOL     OW18169   6.635   6.738   2.109
 5757SOL    HW118170   6.608   6.647   2.140
 5757SOL    HW218171   6.718   6.731   2.052
 5758SOL     OW18172   3.130   0.630   6.097
 5758SOL    HW118173   3.195   0.693   6.140
 5758SOL    HW218174   3.095   0.672   6.012
 5759SOL     OW18175   0.817   1.181   5.555
 5759SOL    HW118176   0.813   1.217   5.462
 5759SOL    HW218177   0.837   1.083   5.552
 5760SOL     OW18178   6.535   5.567   1.914
 5760SOL    HW118179   6.567   5.492   1.971
 5760SOL    HW218180   6.555   5.654   1.959
 5761SOL     OW18181   3.708   0.414   4.329
 5761SOL    HW118182   3.719   0.460   4.417
 5761SOL    HW218183   3.795   0.370   4.304
 5762SOL     OW18184   4.912   0.074   1.361
 5762SOL    HW118185   5.009   0.090   1.382
 5762SOL    HW218186   4.890   0.113   1.271
 5763SOL     OW18187   3.835   0.778   0.749
 5763SOL    HW118188   3.883   0.816   0.829
 5763SOL    HW218189   3.840   0.843   0.673
 5764SOL     OW18190   3.393   2.897   6.670
 5764SOL    HW118191   3.390   2.959   6.592
 5764SOL    HW218192   3.306   2.901   6.719
 5765SOL     OW18193   6.641   4.616   6.007
 5765SOL    HW118194   6.627   4.673   6.088
 5765SOL    HW218195   6.738   4.596   5.997
 5766SOL     OW18196   2.345   1.699   3.361
 5766SOL    HW118197   2.246   1.685   3.367
 5766SOL    HW218198   2.393   1.620   3.399
 5767SOL     OW18199   4.997   6.437   0.355
 5767SOL    HW118200   4.936   6.422   0.277
 5767SOL    HW218201   5.077   6.489   0.326
 5768SOL     OW18202   5.532   6.766   2.255
 5768SOL    HW118203   5.482   6.803   2.334
 5768SOL    HW218204   5.630   6.780   2.268
 5769SOL     OW18205   6.788   4.527   3.096
 5769SOL    HW118206   6.846   4.534   3.015
 5769SOL    HW218207   6.737   4.612   3.108
 5770SOL     OW18208   4.734   2.457   1.080
 5770SOL    HW118209   4.733   2.454   0.980
 5770SOL    HW218210   4.744   2.551   1.110
 5771SOL     OW18211   0.831   0.381   1.603
 5771SOL    HW118212   0.850   0.283   1.597
 5771SOL    HW218213   0.741   0.400   1.566
 5772SOL     OW18214   6.278   5.329   5.427
 5772SOL    HW118215   6.270   5.294   5.334
 5772SOL    HW218216   6.190   5.365   5.457
 5773SOL     OW18217   5.068   6.314   5.072
 5773SOL    HW118218   5.043   6.409   5.093
 5773SOL    HW218219   5.090   6.266   5.158
 5774SOL     OW18220   1.783   4.773   1.503
 5774SOL    HW118221   1.686   4.784   1.525
 5774SOL    HW218222   1.793   4.750   1.406
 5775SOL     OW18223   1.005   0.976   0.887
 5775SOL    HW118224   1.071   1.011   0.953
 5775SOL    HW218225   1.052   0.916   0.822
 5776SOL     OW18226   4.916   0.876   5.577
 5776SOL    HW118227   4.860   0.939   5.632
 5776SOL    HW218228   4.857   0.806   5.537
 5777SOL     OW18229   5.193   6.582   4.901
 5777SOL    HW118230   5.243   6.508   4.946
 5777SOL    HW218231   5.178   6.559   4.805
 5778SOL     OW18232   2.579   6.728   3.278
 5778SOL    HW118233   2.570   6.680   3.365
 5778SOL    HW218234   2.658   6.693   3.229
 5779SOL     OW18235   3.520   6.721   2.214
 5779SOL    HW118236   3.600   6.781   2.202
 5779SOL    HW218237   3.508   6.702   2.312
 5780SOL     OW18238   6.933   4.508   6.979
 5780SOL    HW118239   6.993   4.558   6.916
 5780SOL    HW218240   6.913   4.417   6.941
 5781SOL     OW18241   4.745   4.276   5.708
 5781SOL    HW118242   4.785   4.190   5.676
 5781SOL    HW218243   4.652   4.259   5.741
 5782SOL     OW18244   4.855   1.715   2.867
 5782SOL    HW118245   4.929   1.648   2.867
 5782SOL    HW218246   4.769   1.672   2.840
 5783SOL     OW18247   2.981   6.095   3.464
 5783SOL    HW118248   3.002   6.182   3.418
 5783SOL    HW218249   3.046   6.079   3.537
 5784SOL     OW18250   0.165   6.613   2.204
 5784SOL    HW118251   0.221   6.578   2.129
 5784SOL    HW218252   0.219   6.678   2.259
 5785SOL     OW18253   2.710   0.961   6.194
 5785SOL    HW118254   2.797   0.915   6.176
 5785SOL    HW218255   2.635   0.903   6.163
 5786SOL     OW18256   2.277   1.603   6.296
 5786SOL    HW118257   2.202   1.659   6.262
 5786SOL    HW218258   2.279   1.516   6.246
 5787SOL     OW18259   0.383   2.121   6.241
 5787SOL    HW118260   0.468   2.152   6.199
 5787SOL    HW218261   0.381   2.148   6.337
 5788SOL     OW18262   0.357   2.417   2.040
 5788SOL    HW118263   0.371   2.509   2.004
 5788SOL    HW218264   0.289   2.369   1.984
 5789SOL     OW18265   3.277   1.303   0.078
 5789SOL    HW118266   3.351   1.334   0.137
 5789SOL    HW218267   3.239   1.381   0.029
 5790SOL     OW18268   6.240   5.918   2.284
 5790SOL    HW118269   6.200   5.923   2.375
 5790SOL    HW218270   6.280   6.006   2.260
 5791SOL     OW18271   3.859   0.964   1.402
 5791SOL    HW118272   3.785   0.960   1.335
 5791SOL    HW218273   3.840   1.036   1.469
 5792SOL     OW18274   4.610   1.966   2.281
 5792SOL    HW118275   4.675   1.966   2.357
 5792SOL    HW218276   4.591   2.060   2.253
 5793SOL     OW18277   4.448   2.213   0.651
 5793SOL    HW118278   4.503   2.214   0.735
 5793SOL    HW218279   4.508   2.220   0.572
 5794SOL     OW18280   3.434   6.102   6.783
 5794SOL    HW118281   3.532   6.107   6.763
 5794SOL    HW218282   3.421   6.067   6.876
 5795SOL     OW18283   0.636   0.204   1.328
 5795SOL    HW118284   0.623   0.110   1.361
 5795SOL    HW218285   0.615   0.269   1.400
 5796SOL     OW18286   4.599   1.024   6.081
 5796SOL    HW118287   4.628   0.953   6.017
 5796SOL    HW218288   4.541   0.982   6.151
 5797SOL     OW18289   5.920   1.362   6.743
 5797SOL    HW118290   5.857   1.292   6.709
 5797SOL    HW218291   5.868   1.443   6.770
 5798SOL     OW18292   2.280   2.954   4.744
 5798SOL    HW118293   2.189   2.926   4.712
 5798SOL    HW218294   2.287   2.935   4.842
 5799SOL     OW18295   2.796   0.836   3.856
 5799SOL    HW118296   2.727   0.854   3.786
 5799SOL    HW218297   2.868   0.778   3.817
 5800SOL     OW18298   1.596   6.154   1.750
 5800SOL    HW118299   1.688   6.175   1.784
 5800SOL    HW218300   1.590   6.056   1.731
 5801SOL     OW18301   1.336   2.198   3.037
 5801SOL    HW118302   1.344   2.276   2.976
 5801SOL    HW218303   1.270   2.218   3.109
 5802SOL     OW18304   0.128   6.517   2.538
 5802SOL    HW118305   0.084   6.606   2.549
 5802SOL    HW218306   0.122   6.488   2.442
 5803SOL     OW18307   6.979   6.848   4.315
 5803SOL    HW118308   0.043   6.820   4.360
 5803SOL    HW218309   6.917   6.770   4.308
 5804SOL     OW18310   6.161   2.480   3.249
 5804SOL    HW118311   6.081   2.502   3.194
 5804SOL    HW218312   6.140   2.495   3.346
 5805SOL     OW18313   0.777   1.876   1.556
 5805SOL    HW118314   0.705   1.938   1.588
 5805SOL    HW218315   0.856   1.881   1.617
 5806SOL     OW18316   6.591   4.164   1.254
 5806SOL    HW118317   6.556   4.164   1.348
 5806SOL    HW218318   6.561   4.247   1.207
 5807SOL     OW18319   0.973   0.842   3.009
 5807SOL    HW118320   1.031   0.804   3.081
 5807SOL    HW218321   0.964   0.776   2.934
 5808SOL     OW18322   6.135   5.734   5.856
 5808SOL    HW118323   6.192   5.726   5.938
 5808SOL    HW218324   6.054   5.676   5.867
 5809SOL     OW18325   6.403   3.245   5.092
 5809SOL    HW118326   6.496   3.280   5.088
 5809SOL    HW218327   6.362   3.249   5.000
 5810SOL     OW18328   0.767   6.088   5.039
 5810SOL    HW118329   0.672   6.118   5.040
 5810SOL    HW218330   0.821   6.152   4.984
 5811SOL     OW18331   3.332   5.035   0.207
 5811SOL    HW118332   3.403   4.994   0.265
 5811SOL    HW218333   3.275   5.096   0.262
 5812SOL     OW18334   6.326   1.897   6.017
 5812SOL    HW118335   6.362   1.804   6.010
 5812SOL    HW218336   6.227   1.896   6.000
 5813SOL     OW18337   6.486   5.793   0.748
 5813SOL    HW118338   6.531   5.726   0.806
 5813SOL    HW218339   6.495   5.765   0.652
 5814SOL     OW18340   4.866   2.001   2.432
 5814SOL    HW118341   4.905   2.093   2.432
 5814SOL    HW218342   4.888   1.955   2.519
 5815SOL     OW18343   0.194   4.513   4.827
 5815SOL    HW118344   0.285   4.472   4.826
 5815SOL    HW218345   0.143   4.479   4.906
 5816SOL     OW18346   6.939   3.930   1.352
 5816SOL    HW118347   6.913   4.019   1.313
 5816SOL    HW218348   6.881   3.859   1.313
 5817SOL     OW18349   6.932   2.465   3.588
 5817SOL    HW118350   0.005   2.432   3.577
 5817SOL    HW218351   6.889   2.475   3.499
 5818SOL     OW18352   2.926   1.062   4.046
 5818SOL    HW118353   3.004   1.013   4.007
 5818SOL    HW218354   2.841   1.014   4.024
 5819SOL     OW18355   4.246   4.662   1.587
 5819SOL    HW118356   4.281   4.603   1.660
 5819SOL    HW218357   4.235   4.755   1.622
 5820SOL     OW18358   0.764   6.171   2.141
 5820SOL    HW118359   0.731   6.265   2.150
 5820SOL    HW218360   0.731   6.117   2.219
 5821SOL     OW18361   4.688   6.042   1.609
 5821SOL    HW118362   4.608   6.045   1.669
 5821SOL    HW218363   4.700   5.949   1.574
 5822SOL     OW18364   1.185   4.028   3.153
 5822SOL    HW118365   1.214   3.934   3.173
 5822SOL    HW218366   1.249   4.091   3.197
 5823SOL     OW18367   2.013   6.433   5.105
 5823SOL    HW118368   1.943   6.373   5.068
 5823SOL    HW218369   2.052   6.489   5.031
 5824SOL     OW18370   1.672   5.627   2.317
 5824SOL    HW118371   1.618   5.638   2.400
 5824SOL    HW218372   1.712   5.715   2.292
 5825SOL     OW18373   3.405   2.027   4.724
 5825SOL    HW118374   3.505   2.034   4.720
 5825SOL    HW218375   3.372   2.070   4.808
 5826SOL     OW18376   1.339   6.306   6.089
 5826SOL    HW118377   1.329   6.298   5.990
 5826SOL    HW218378   1.263   6.361   6.126
 5827SOL     OW18379   1.504   4.765   4.193
 5827SOL    HW118380   1.435   4.824   4.235
 5827SOL    HW218381   1.483   4.670   4.213
 5828SOL     OW18382   4.585   0.176   5.230
 5828SOL    HW118383   4.551   0.182   5.324
 5828SOL    HW218384   4.638   0.258   5.209
 5829SOL     OW18385   1.890   1.250   2.640
 5829SOL    HW118386   1.847   1.289   2.721
 5829SOL    HW218387   1.900   1.151   2.653
 5830SOL     OW18388   4.845   5.266   4.121
 5830SOL    HW118389   4.883   5.349   4.161
 5830SOL    HW218390   4.890   5.186   4.160
 5831SOL     OW18391   2.443   1.778   3.672
 5831SOL    HW118392   2.372   1.718   3.708
 5831SOL    HW218393   2.456   1.856   3.733
 5832SOL     OW18394   2.925   5.433   3.210
 5832SOL    HW118395   2.951   5.391   3.123
 5832SOL    HW218396   2.936   5.366   3.284
 5833SOL     OW18397   2.281   4.673   1.585
 5833SOL    HW118398   2.328   4.692   1.671
 5833SOL    HW218399   2.193   4.721   1.584
 5834SOL     OW18400   6.164   1.108   6.798
 5834SOL    HW118401   6.163   1.203   6.767
 5834SOL    HW218402   6.106   1.052   6.739
 5835SOL     OW18403   3.731   0.826   3.476
 5835SOL    HW118404   3.819   0.856   3.440
 5835SOL    HW218405   3.740   0.735   3.515
 5836SOL     OW18406   6.061   4.604   1.377
 5836SOL    HW118407   6.114   4.604   1.462
 5836SOL    HW218408   5.977   4.552   1.391
 5837SOL     OW18409   1.981   4.148   6.872
 5837SOL    HW118410   1.933   4.228   6.909
 5837SOL    HW218411   1.916   4.091   6.821
 5838SOL     OW18412   3.124   3.358   0.666
 5838SOL    HW118413   3.190   3.336   0.738
 5838SOL    HW218414   3.092   3.274   0.623
 5839SOL     OW18415   2.787   1.905   0.838
 5839SOL    HW118416   2.790   1.806   0.847
 5839SOL    HW218417   2.699   1.932   0.799
 5840SOL     OW18418   6.139   3.628   2.391
 5840SOL    HW118419   6.085   3.600   2.471
 5840SOL    HW218420   6.088   3.604   2.308
 5841SOL     OW18421   5.034   1.196   0.044
 5841SOL    HW118422   5.131   1.203   0.066
 5841SOL    HW218423   4.993   1.288   0.040
 5842SOL     OW18424   3.802   2.073   2.448
 5842SOL    HW118425   3.749   2.029   2.521
 5842SOL    HW218426   3.747   2.076   2.365
 5843SOL     OW18427   2.917   2.371   1.412
 5843SOL    HW118428   2.981   2.365   1.489
 5843SOL    HW218429   2.924   2.288   1.357
 5844SOL     OW18430   6.302   5.468   4.988
 5844SOL    HW118431   6.367   5.475   5.063
 5844SOL    HW218432   6.345   5.422   4.911
 5845SOL     OW18433   1.994   6.165   3.012
 5845SOL    HW118434   1.902   6.145   3.046
 5845SOL    HW218435   2.045   6.214   3.082
 5846SOL     OW18436   0.437   3.960   5.430
 5846SOL    HW118437   0.427   3.860   5.434
 5846SOL    HW218438   0.528   3.986   5.459
 5847SOL     OW18439   1.819   3.609   5.490
 5847SOL    HW118440   1.766   3.576   5.413
 5847SOL    HW218441   1.895   3.665   5.457
 5848SOL     OW18442   3.164   6.745   1.962
 5848SOL    HW118443   3.257   6.778   1.943
 5848SOL    HW218444   3.109   6.821   1.997
 5849SOL     OW18445   2.921   6.450   6.457
 5849SOL    HW118446   2.912   6.547   6.480
 5849SOL    HW218447   2.997   6.439   6.393
 5850SOL     OW18448   5.349   2.454   0.962
 5850SOL    HW118449   5.250   2.439   0.964
 5850SOL    HW218450   5.394   2.389   1.022
 5851SOL     OW18451   1.233   2.712   6.118
 5851SOL    HW118452   1.285   2.751   6.042
 5851SOL    HW218453   1.285   2.637   6.159
 5852SOL     OW18454   4.145   5.039   3.285
 5852SOL    HW118455   4.140   4.943   3.259
 5852SOL    HW218456   4.187   5.046   3.376
 5853SOL     OW18457   4.564   4.726   6.806
 5853SOL    HW118458   4.609   4.781   6.876
 5853SOL    HW218459   4.513   4.787   6.744
 5854SOL     OW18460   2.444   4.131   5.373
 5854SOL    HW118461   2.444   4.051   5.315
 5854SOL    HW218462   2.488   4.207   5.325
 5855SOL     OW18463   1.250   2.288   4.505
 5855SOL    HW118464   1.326   2.224   4.492
 5855SOL    HW218465   1.279   2.380   4.480
 5856SOL     OW18466   0.142   0.685   2.126
 5856SOL    HW118467   0.206   0.688   2.202
 5856SOL    HW218468   0.167   0.611   2.063
 5857SOL     OW18469   6.526   5.949   6.873
 5857SOL    HW118470   6.549   6.046   6.877
 5857SOL    HW218471   6.524   5.919   6.777
 5858SOL     OW18472   2.595   1.566   1.069
 5858SOL    HW118473   2.580   1.629   1.146
 5858SOL    HW218474   2.550   1.479   1.087
 5859SOL     OW18475   6.199   4.920   1.405
 5859SOL    HW118476   6.244   4.910   1.316
 5859SOL    HW218477   6.192   5.017   1.428
 5860SOL     OW18478   1.677   2.761   1.610
 5860SOL    HW118479   1.687   2.694   1.536
 5860SOL    HW218480   1.620   2.837   1.579
 5861SOL     OW18481   5.052   6.214   4.697
 5861SOL    HW118482   5.011   6.183   4.783
 5861SOL    HW218483   4.980   6.235   4.631
 5862SOL     OW18484   0.447   5.224   1.377
 5862SOL    HW118485   0.491   5.151   1.324
 5862SOL    HW218486   0.370   5.185   1.428
 5863SOL     OW18487   4.128   7.019   5.920
 5863SOL    HW118488   4.102   0.034   6.009
 5863SOL    HW218489   4.208   0.049   5.886
 5864SOL     OW18490   3.764   4.050   3.466
 5864SOL    HW118491   3.825   4.069   3.543
 5864SOL    HW218492   3.679   4.010   3.500
 5865SOL     OW18493   6.932   6.257   1.247
 5865SOL    HW118494   6.969   6.252   1.154
 5865SOL    HW218495   6.856   6.321   1.249
 5866SOL     OW18496   2.893   3.355   3.645
 5866SOL    HW118497   2.908   3.356   3.744
 5866SOL    HW218498   2.927   3.270   3.606
 5867SOL     OW18499   4.780   1.160   0.507
 5867SOL    HW118500   4.737   1.077   0.470
 5867SOL    HW218501   4.870   1.172   0.466
 5868SOL     OW18502   1.456   0.662   0.144
 5868SOL    HW118503   1.400   0.667   0.227
 5868SOL    HW218504   1.399   0.682   0.064
 5869SOL     OW18505   2.198   5.126   3.753
 5869SOL    HW118506   2.254   5.107   3.834
 5869SOL    HW218507   2.238   5.081   3.673
 5870SOL     OW18508   3.931   6.038   3.666
 5870SOL    HW118509   3.838   6.064   3.641
 5870SOL    HW218510   3.956   5.953   3.620
 5871SOL     OW18511   3.913   3.874   3.297
 5871SOL    HW118512   3.959   3.803   3.351
 5871SOL    HW218513   3.867   3.938   3.357
 5872SOL     OW18514   3.965   5.138   1.653
 5872SOL    HW118515   4.015   5.225   1.655
 5872SOL    HW218516   3.869   5.155   1.630
 5873SOL     OW18517   4.083   6.957   2.545
 5873SOL    HW118518   4.071   6.898   2.465
 5873SOL    HW218519   4.022   0.016   2.537
 5874SOL     OW18520   0.514   3.504   4.426
 5874SOL    HW118521   0.577   3.512   4.348
 5874SOL    HW218522   0.440   3.442   4.403
 5875SOL     OW18523   4.190   2.737   1.249
 5875SOL    HW118524   4.154   2.664   1.191
 5875SOL    HW218525   4.266   2.782   1.202
 5876SOL     OW18526   3.494   3.755   2.683
 5876SOL    HW118527   3.444   3.821   2.627
 5876SOL    HW218528   3.515   3.796   2.772
 5877SOL     OW18529   4.676   4.857   1.589
 5877SOL    HW118530   4.775   4.863   1.601
 5877SOL    HW218531   4.655   4.840   1.492
 5878SOL     OW18532   0.499   3.510   1.898
 5878SOL    HW118533   0.483   3.416   1.927
 5878SOL    HW218534   0.418   3.565   1.918
 5879SOL     OW18535   2.168   4.342   4.927
 5879SOL    HW118536   2.199   4.269   4.866
 5879SOL    HW218537   2.198   4.323   5.020
 5880SOL     OW18538   2.779   5.290   0.355
 5880SOL    HW118539   2.808   5.366   0.298
 5880SOL    HW218540   2.799   5.204   0.309
 5881SOL     OW18541   1.456   6.126   4.456
 5881SOL    HW118542   1.509   6.107   4.538
 5881SOL    HW218543   1.511   6.104   4.375
 5882SOL     OW18544   5.180   0.419   3.478
 5882SOL    HW118545   5.127   0.339   3.506
 5882SOL    HW218546   5.225   0.400   3.390
 5883SOL     OW18547   0.661   3.197   5.613
 5883SOL    HW118548   0.724   3.159   5.546
 5883SOL    HW218549   0.687   3.167   5.704
 5884SOL     OW18550   0.339   1.143   3.519
 5884SOL    HW118551   0.384   1.135   3.429
 5884SOL    HW218552   0.327   1.240   3.541
 5885SOL     OW18553   6.223   5.416   0.218
 5885SOL    HW118554   6.158   5.403   0.143
 5885SOL    HW218555   6.234   5.330   0.267
 5886SOL     OW18556   5.690   1.723   5.509
 5886SOL    HW118557   5.748   1.789   5.556
 5886SOL    HW218558   5.715   1.720   5.412
 5887SOL     OW18559   3.705   6.996   2.385
 5887SOL    HW118560   3.650   6.919   2.418
 5887SOL    HW218561   3.647   0.057   2.378
 5888SOL     OW18562   6.949   5.958   1.659
 5888SOL    HW118563   6.921   5.980   1.753
 5888SOL    HW218564   6.874   5.977   1.596
 5889SOL     OW18565   3.069   0.137   1.189
 5889SOL    HW118566   3.092   0.062   1.251
 5889SOL    HW218567   2.972   0.130   1.165
 5890SOL     OW18568   4.259   5.287   5.923
 5890SOL    HW118569   4.321   5.235   5.865
 5890SOL    HW218570   4.208   5.225   5.982
 5891SOL     OW18571   2.281   2.955   6.561
 5891SOL    HW118572   2.224   2.898   6.621
 5891SOL    HW218573   2.361   2.986   6.612
 5892SOL     OW18574   3.092   5.380   1.255
 5892SOL    HW118575   3.154   5.340   1.188
 5892SOL    HW218576   3.039   5.308   1.299
 5893SOL     OW18577   0.293   3.001   2.205
 5893SOL    HW118578   0.377   3.014   2.151
 5893SOL    HW218579   0.288   3.069   2.277
 5894SOL     OW18580   1.788   4.097   3.448
 5894SOL    HW118581   1.834   4.119   3.362
 5894SOL    HW218582   1.699   4.056   3.429
 5895SOL     OW18583   4.799   5.237   2.718
 5895SOL    HW118584   4.820   5.195   2.807
 5895SOL    HW218585   4.734   5.312   2.731
 5896SOL     OW18586   5.837   2.131   5.721
 5896SOL    HW118587   5.780   2.052   5.747
 5896SOL    HW218588   5.799   2.174   5.639
 5897SOL     OW18589   4.471   4.243   0.389
 5897SOL    HW118590   4.424   4.207   0.308
 5897SOL    HW218591   4.534   4.173   0.424
 5898SOL     OW18592   1.415   5.397   2.543
 5898SOL    HW118593   1.342   5.390   2.611
 5898SOL    HW218594   1.473   5.475   2.564
 5899SOL     OW18595   5.145   0.943   3.894
 5899SOL    HW118596   5.152   1.013   3.823
 5899SOL    HW218597   5.232   0.933   3.941
 5900SOL     OW18598   3.641   5.218   2.017
 5900SOL    HW118599   3.646   5.198   2.114
 5900SOL    HW218600   3.729   5.252   1.985
 5901SOL     OW18601   3.037   6.564   3.248
 5901SOL    HW118602   3.046   6.559   3.149
 5901SOL    HW218603   2.981   6.487   3.281
 5902SOL     OW18604   6.866   2.013   0.421
 5902SOL    HW118605   6.911   2.083   0.364
 5902SOL    HW218606   6.793   1.970   0.368
 5903SOL     OW18607   0.725   1.659   6.536
 5903SOL    HW118608   0.791   1.734   6.543
 5903SOL    HW218609   0.720   1.611   6.623
 5904SOL     OW18610   0.347   2.760   1.803
 5904SOL    HW118611   0.370   2.752   1.900
 5904SOL    HW218612   0.392   2.687   1.752
 5905SOL     OW18613   6.812   3.775   2.133
 5905SOL    HW118614   6.795   3.838   2.209
 5905SOL    HW218615   6.748   3.796   2.059
 5906SOL     OW18616   6.534   1.693   3.244
 5906SOL    HW118617   6.480   1.618   3.206
 5906SOL    HW218618   6.562   1.669   3.337
 5907SOL     OW18619   1.630   0.975   2.098
 5907SOL    HW118620   1.565   0.909   2.136
 5907SOL    HW218621   1.581   1.052   2.059
 5908SOL     OW18622   0.402   2.630   5.431
 5908SOL    HW118623   0.340   2.708   5.432
 5908SOL    HW218624   0.375   2.566   5.359
 5909SOL     OW18625   6.779   4.439   6.315
 5909SOL    HW118626   6.856   4.385   6.282
 5909SOL    HW218627   6.716   4.457   6.239
 5910SOL     OW18628   1.653   1.758   3.392
 5910SOL    HW118629   1.621   1.708   3.473
 5910SOL    HW218630   1.742   1.722   3.364
 5911SOL     OW18631   5.815   4.972   6.544
 5911SOL    HW118632   5.876   4.975   6.465
 5911SOL    HW218633   5.748   4.899   6.531
 5912SOL     OW18634   0.844   1.790   2.374
 5912SOL    HW118635   0.777   1.842   2.426
 5912SOL    HW218636   0.895   1.729   2.435
 5913SOL     OW18637   0.036   3.540   1.082
 5913SOL    HW118638   0.105   3.599   1.124
 5913SOL    HW218639   0.021   3.461   1.141
 5914SOL     OW18640   1.707   6.588   0.511
 5914SOL    HW118641   1.645   6.518   0.546
 5914SOL    HW218642   1.696   6.595   0.411
 5915SOL     OW18643   4.685   0.659   5.501
 5915SOL    HW118644   4.646   0.622   5.585
 5915SOL    HW218645   4.613   0.699   5.446
 5916SOL     OW18646   0.723   0.841   2.919
 5916SOL    HW118647   0.723   0.877   2.825
 5916SOL    HW218648   0.812   0.856   2.960
 5917SOL     OW18649   3.856   3.479   0.392
 5917SOL    HW118650   3.955   3.489   0.394
 5917SOL    HW218651   3.827   3.417   0.465
 5918SOL     OW18652   3.470   6.229   5.195
 5918SOL    HW118653   3.388   6.173   5.204
 5918SOL    HW218654   3.503   6.224   5.100
 5919SOL     OW18655   2.947   3.720   4.540
 5919SOL    HW118656   2.849   3.717   4.559
 5919SOL    HW218657   2.984   3.627   4.545
 5920SOL     OW18658   1.620   0.263   5.468
 5920SOL    HW118659   1.569   0.180   5.492
 5920SOL    HW218660   1.649   0.310   5.551
 5921SOL     OW18661   3.035   4.540   1.240
 5921SOL    HW118662   3.035   4.463   1.175
 5921SOL    HW218663   3.065   4.508   1.329
 5922SOL     OW18664   5.130   2.603   1.946
 5922SOL    HW118665   5.076   2.527   1.910
 5922SOL    HW218666   5.157   2.584   2.040
 5923SOL     OW18667   5.679   0.901   2.317
 5923SOL    HW118668   5.621   0.957   2.376
 5923SOL    HW218669   5.680   0.807   2.350
 5924SOL     OW18670   0.251   6.037   3.110
 5924SOL    HW118671   0.193   6.015   3.032
 5924SOL    HW218672   0.319   5.964   3.122
 5925SOL     OW18673   4.218   0.857   0.988
 5925SOL    HW118674   4.271   0.933   1.026
 5925SOL    HW218675   4.154   0.824   1.057
 5926SOL     OW18676   4.983   3.397   3.232
 5926SOL    HW118677   4.945   3.419   3.322
 5926SOL    HW218678   5.016   3.302   3.233
 5927SOL     OW18679   1.284   0.198   1.733
 5927SOL    HW118680   1.228   0.240   1.805
 5927SOL    HW218681   1.374   0.242   1.731
 5928SOL     OW18682   3.382   0.016   6.678
 5928SOL    HW118683   3.379   0.114   6.657
 5928SOL    HW218684   3.469   6.999   6.646
 5929SOL     OW18685   1.364   1.022   1.300
 5929SOL    HW118686   1.306   1.033   1.381
 5929SOL    HW218687   1.360   0.928   1.268
 5930SOL     OW18688   0.043   4.894   1.713
 5930SOL    HW118689   0.070   4.865   1.620
 5930SOL    HW218690   0.047   4.815   1.774
 5931SOL     OW18691   4.665   0.754   4.898
 5931SOL    HW118692   4.616   0.841   4.904
 5931SOL    HW218693   4.686   0.722   4.991
 5932SOL     OW18694   2.786   5.364   0.957
 5932SOL    HW118695   2.796   5.275   0.912
 5932SOL    HW218696   2.810   5.437   0.893
 5933SOL     OW18697   6.977   5.544   4.262
 5933SOL    HW118698   6.908   5.616   4.263
 5933SOL    HW218699   7.005   5.524   4.356
 5934SOL     OW18700   2.868   4.659   0.012
 5934SOL    HW118701   2.966   4.674   0.029
 5934SOL    HW218702   2.815   4.697   0.087
 5935SOL     OW18703   1.536   0.601   5.435
 5935SOL    HW118704   1.477   0.632   5.510
 5935SOL    HW218705   1.553   0.503   5.443
 5936SOL     OW18706   3.877   2.973   2.095
 5936SOL    HW118707   3.861   2.996   1.998
 5936SOL    HW218708   3.930   3.046   2.138
 5937SOL     OW18709   0.801   2.733   0.599
 5937SOL    HW118710   0.769   2.760   0.690
 5937SOL    HW218711   0.724   2.739   0.534
 5938SOL     OW18712   0.293   3.290   4.331
 5938SOL    HW118713   0.261   3.315   4.240
 5938SOL    HW218714   0.356   3.213   4.324
 5939SOL     OW18715   4.976   1.909   5.840
 5939SOL    HW118716   4.923   1.940   5.761
 5939SOL    HW218717   5.072   1.897   5.813
 5940SOL     OW18718   4.781   5.066   1.015
 5940SOL    HW118719   4.693   5.086   0.973
 5940SOL    HW218720   4.788   4.968   1.035
 5941SOL     OW18721   1.527   2.069   3.388
 5941SOL    HW118722   1.469   2.043   3.465
 5941SOL    HW218723   1.539   1.990   3.328
 5942SOL     OW18724   4.682   2.131   6.377
 5942SOL    HW118725   4.690   2.193   6.456
 5942SOL    HW218726   4.588   2.095   6.374
 5943SOL     OW18727   1.812   4.469   2.339
 5943SOL    HW118728   1.792   4.549   2.395
 5943SOL    HW218729   1.902   4.480   2.296
 5944SOL     OW18730   6.730   3.262   5.867
 5944SOL    HW118731   6.729   3.171   5.910
 5944SOL    HW218732   6.704   3.254   5.771
 5945SOL     OW18733   0.540   6.591   4.529
 5945SOL    HW118734   0.477   6.521   4.494
 5945SOL    HW218735   0.633   6.568   4.504
 5946SOL     OW18736   3.120   2.712   6.728
 5946SOL    HW118737   3.062   2.713   6.810
 5946SOL    HW218738   3.088   2.782   6.664
 5947SOL     OW18739   3.178   3.758   5.570
 5947SOL    HW118740   3.188   3.826   5.643
 5947SOL    HW218741   3.122   3.682   5.603
 5948SOL     OW18742   4.817   3.625   1.213
 5948SOL    HW118743   4.723   3.592   1.209
 5948SOL    HW218744   4.876   3.553   1.249
 5949SOL     OW18745   1.424   5.010   4.524
 5949SOL    HW118746   1.511   4.974   4.490
 5949SOL    HW218747   1.421   5.002   4.624
 5950SOL     OW18748   1.739   6.336   4.994
 5950SOL    HW118749   1.669   6.341   4.924
 5950SOL    HW218750   1.696   6.332   5.084
 5951SOL     OW18751   0.052   3.113   6.277
 5951SOL    HW118752   6.975   3.137   6.276
 5951SOL    HW218753   0.089   3.120   6.184
 5952SOL     OW18754   3.500   4.191   1.849
 5952SOL    HW118755   3.428   4.149   1.794
 5952SOL    HW218756   3.494   4.157   1.943
 5953SOL     OW18757   0.092   2.861   6.620
 5953SOL    HW118758   0.187   2.840   6.598
 5953SOL    HW218759   0.075   2.841   6.717
 5954SOL     OW18760   2.607   5.278   3.618
 5954SOL    HW118761   2.525   5.286   3.561
 5954SOL    HW218762   2.600   5.195   3.674
 5955SOL     OW18763   4.764   2.987   0.383
 5955SOL    HW118764   4.722   2.988   0.474
 5955SOL    HW218765   4.791   3.080   0.358
 5956SOL     OW18766   4.098   2.136   6.712
 5956SOL    HW118767   4.180   2.186   6.742
 5956SOL    HW218768   4.097   2.046   6.756
 5957SOL     OW18769   7.012   2.752   3.670
 5957SOL    HW118770   6.935   2.766   3.608
 5957SOL    HW218771   0.067   2.708   3.621
 5958SOL     OW18772   2.449   6.585   2.001
 5958SOL    HW118773   2.545   6.609   1.987
 5958SOL    HW218774   2.442   6.494   2.041
 5959SOL     OW18775   4.977   4.405   3.273
 5959SOL    HW118776   4.951   4.310   3.262
 5959SOL    HW218777   4.991   4.425   3.370
 5960SOL     OW18778   6.508   6.590   6.458
 5960SOL    HW118779   6.571   6.519   6.489
 5960SOL    HW218780   6.434   6.549   6.406
 5961SOL     OW18781   1.456   2.369   3.259
 5961SOL    HW118782   1.421   2.347   3.168
 5961SOL    HW218783   1.473   2.285   3.309
 5962SOL     OW18784   5.451   5.583   0.636
 5962SOL    HW118785   5.418   5.555   0.546
 5962SOL    HW218786   5.525   5.523   0.665
 5963SOL     OW18787   2.349   3.982   1.372
 5963SOL    HW118788   2.425   3.949   1.317
 5963SOL    HW218789   2.293   3.904   1.400
 5964SOL     OW18790   1.260   6.338   4.208
 5964SOL    HW118791   1.227   6.409   4.145
 5964SOL    HW218792   1.265   6.376   4.300
 5965SOL     OW18793   1.933   0.136   1.605
 5965SOL    HW118794   1.835   0.156   1.610
 5965SOL    HW218795   1.946   0.040   1.582
 5966SOL     OW18796   2.833   1.903   5.374
 5966SOL    HW118797   2.788   1.817   5.398
 5966SOL    HW218798   2.770   1.979   5.392
 5967SOL     OW18799   4.856   2.048   5.631
 5967SOL    HW118800   4.798   2.024   5.554
 5967SOL    HW218801   4.805   2.107   5.695
 5968SOL     OW18802   6.400   1.700   2.885
 5968SOL    HW118803   6.352   1.749   2.812
 5968SOL    HW218804   6.441   1.617   2.848
 5969SOL     OW18805   5.611   6.333   1.793
 5969SOL    HW118806   5.639   6.363   1.702
 5969SOL    HW218807   5.691   6.326   1.852
 5970SOL     OW18808   6.581   1.436   0.310
 5970SOL    HW118809   6.505   1.500   0.319
 5970SOL    HW218810   6.628   1.426   0.398
 5971SOL     OW18811   6.718   5.155   3.912
 5971SOL    HW118812   6.747   5.134   3.818
 5971SOL    HW218813   6.790   5.204   3.959
 5972SOL     OW18814   6.547   5.373   0.165
 5972SOL    HW118815   6.513   5.296   0.217
 5972SOL    HW218816   6.646   5.382   0.178
 5973SOL     OW18817   3.599   0.548   1.921
 5973SOL    HW118818   3.502   0.540   1.944
 5973SOL    HW218819   3.640   0.622   1.975
 5974SOL     OW18820   5.718   0.836   4.594
 5974SOL    HW118821   5.718   0.754   4.652
 5974SOL    HW218822   5.712   0.809   4.498
 5975SOL     OW18823   3.942   4.332   0.420
 5975SOL    HW118824   3.852   4.323   0.463
 5975SOL    HW218825   3.943   4.416   0.365
 5976SOL     OW18826   0.393   1.895   6.672
 5976SOL    HW118827   0.379   1.987   6.635
 5976SOL    HW218828   0.355   1.828   6.609
 5977SOL     OW18829   0.633   5.611   1.679
 5977SOL    HW118830   0.683   5.562   1.751
 5977SOL    HW218831   0.695   5.628   1.602
 5978SOL     OW18832   2.888   3.773   6.239
 5978SOL    HW118833   2.941   3.714   6.179
 5978SOL    HW218834   2.941   3.796   6.320
 5979SOL     OW18835   5.923   0.922   1.858
 5979SOL    HW118836   5.832   0.921   1.898
 5979SOL    HW218837   5.950   0.829   1.833
 5980SOL     OW18838   3.909   2.694   0.294
 5980SOL    HW118839   3.915   2.649   0.205
 5980SOL    HW218840   3.996   2.686   0.342
 5981SOL     OW18841   4.248   2.250   0.831
 5981SOL    HW118842   4.241   2.209   0.922
 5981SOL    HW218843   4.328   2.213   0.783
 5982SOL     OW18844   5.964   2.918   1.243
 5982SOL    HW118845   5.944   3.014   1.222
 5982SOL    HW218846   5.885   2.862   1.221
 5983SOL     OW18847   0.215   1.742   3.668
 5983SOL    HW118848   0.200   1.775   3.575
 5983SOL    HW218849   0.299   1.687   3.671
 5984SOL     OW18850   6.154   5.608   1.628
 5984SOL    HW118851   6.225   5.546   1.662
 5984SOL    HW218852   6.129   5.672   1.701
 5985SOL     OW18853   0.211   4.299   2.556
 5985SOL    HW118854   0.166   4.340   2.636
 5985SOL    HW218855   0.263   4.369   2.508
 5986SOL     OW18856   3.916   3.588   3.137
 5986SOL    HW118857   3.936   3.536   3.220
 5986SOL    HW218858   3.874   3.528   3.069
 5987SOL     OW18859   0.239   6.041   4.268
 5987SOL    HW118860   0.227   6.106   4.343
 5987SOL    HW218861   0.153   5.993   4.250
 5988SOL     OW18862   1.854   2.121   0.729
 5988SOL    HW118863   1.827   2.178   0.651
 5988SOL    HW218864   1.861   2.178   0.810
 5989SOL     OW18865   2.548   6.302   6.010
 5989SOL    HW118866   2.513   6.215   6.044
 5989SOL    HW218867   2.474   6.354   5.967
 5990SOL     OW18868   2.457   3.989   1.682
 5990SOL    HW118869   2.553   4.010   1.697
 5990SOL    HW218870   2.441   3.971   1.585
 5991SOL     OW18871   5.303   1.180   0.606
 5991SOL    HW118872   5.306   1.188   0.705
 5991SOL    HW218873   5.309   1.084   0.579
 5992SOL     OW18874   2.640   4.704   2.588
 5992SOL    HW118875   2.596   4.658   2.664
 5992SOL    HW218876   2.589   4.787   2.564
 5993SOL     OW18877   5.642   1.037   6.990
 5993SOL    HW118878   5.731   1.080   6.977
 5993SOL    HW218879   5.611   1.051   0.064
 5994SOL     OW18880   0.815   4.785   1.078
 5994SOL    HW118881   0.844   4.708   1.134
 5994SOL    HW218882   0.818   4.869   1.132
 5995SOL     OW18883   5.435   4.532   1.146
 5995SOL    HW118884   5.489   4.450   1.129
 5995SOL    HW218885   5.340   4.516   1.117
 5996SOL     OW18886   2.462   0.853   1.915
 5996SOL    HW118887   2.556   0.828   1.893
 5996SOL    HW218888   2.458   0.947   1.948
 5997SOL     OW18889   6.723   0.797   4.671
 5997SOL    HW118890   6.710   0.846   4.584
 5997SOL    HW218891   6.662   0.835   4.740
 5998SOL     OW18892   5.916   6.236   0.402
 5998SOL    HW118893   5.909   6.209   0.498
 5998SOL    HW218894   5.880   6.164   0.344
 5999SOL     OW18895   5.644   3.232   0.610
 5999SOL    HW118896   5.605   3.140   0.602
 5999SOL    HW218897   5.573   3.297   0.635
 6000SOL     OW18898   0.276   5.217   1.916
 6000SOL    HW118899   0.289   5.297   1.858
 6000SOL    HW218900   0.180   5.190   1.916
 6001SOL     OW18901   0.287   6.451   6.114
 6001SOL    HW118902   0.276   6.431   6.016
 6001SOL    HW218903   0.384   6.465   6.134
 6002SOL     OW18904   5.395   5.024   4.732
 6002SOL    HW118905   5.454   5.093   4.775
 6002SOL    HW218906   5.449   4.945   4.706
 6003SOL     OW18907   2.262   0.747   4.559
 6003SOL    HW118908   2.190   0.684   4.588
 6003SOL    HW218909   2.226   0.810   4.490
 6004SOL     OW18910   5.202   2.906   5.000
 6004SOL    HW118911   5.135   2.979   5.008
 6004SOL    HW218912   5.236   2.881   5.090
 6005SOL     OW18913   3.851   3.857   0.482
 6005SOL    HW118914   3.880   3.810   0.398
 6005SOL    HW218915   3.800   3.793   0.539
 6006SOL     OW18916   2.795   6.173   5.929
 6006SOL    HW118917   2.702   6.206   5.946
 6006SOL    HW218918   2.856   6.250   5.913
 6007SOL     OW18919   3.287   6.677   4.163
 6007SOL    HW118920   3.198   6.708   4.197
 6007SOL    HW218921   3.275   6.637   4.072
 6008SOL     OW18922   2.354   3.654   6.696
 6008SOL    HW118923   2.313   3.729   6.643
 6008SOL    HW218924   2.312   3.650   6.787
 6009SOL     OW18925   2.261   5.863   2.142
 6009SOL    HW118926   2.162   5.877   2.139
 6009SOL    HW218927   2.291   5.861   2.237
 6010SOL     OW18928   0.438   5.296   5.857
 6010SOL    HW118929   0.497   5.277   5.936
 6010SOL    HW218930   0.427   5.395   5.847
 6011SOL     OW18931   5.837   1.548   3.353
 6011SOL    HW118932   5.824   1.592   3.442
 6011SOL    HW218933   5.905   1.599   3.300
 6012SOL     OW18934   6.517   1.133   5.492
 6012SOL    HW118935   6.602   1.178   5.518
 6012SOL    HW218936   6.477   1.087   5.571
 6013SOL     OW18937   5.928   1.667   2.687
 6013SOL    HW118938   6.023   1.692   2.667
 6013SOL    HW218939   5.907   1.579   2.645
 6014SOL     OW18940   4.084   3.812   4.458
 6014SOL    HW118941   4.128   3.874   4.523
 6014SOL    HW218942   4.022   3.864   4.399
 6015SOL     OW18943   6.821   0.241   3.515
 6015SOL    HW118944   6.921   0.242   3.524
 6015SOL    HW218945   6.781   0.188   3.589
 6016SOL     OW18946   4.225   2.020   3.951
 6016SOL    HW118947   4.320   2.030   3.979
 6016SOL    HW218948   4.176   2.106   3.964
 6017SOL     OW18949   1.289   2.449   5.204
 6017SOL    HW118950   1.346   2.443   5.122
 6017SOL    HW218951   1.273   2.545   5.226
 6018SOL     OW18952   2.414   1.104   3.811
 6018SOL    HW118953   2.389   1.197   3.785
 6018SOL    HW218954   2.393   1.041   3.737
 6019SOL     OW18955   6.663   2.995   6.481
 6019SOL    HW118956   6.645   2.899   6.463
 6019SOL    HW218957   6.756   3.006   6.516
 6020SOL     OW18958   0.561   5.426   4.806
 6020SOL    HW118959   0.528   5.402   4.897
 6020SOL    HW218960   0.581   5.343   4.755
 6021SOL     OW18961   5.168   0.237   4.061
 6021SOL    HW118962   5.245   0.210   4.118
 6021SOL    HW218963   5.169   0.337   4.048
 6022SOL     OW18964   6.549   3.524   1.522
 6022SOL    HW118965   6.512   3.586   1.454
 6022SOL    HW218966   6.548   3.568   1.612
 6023SOL     OW18967   3.957   0.682   3.199
 6023SOL    HW118968   4.034   0.619   3.206
 6023SOL    HW218969   3.965   0.753   3.269
 6024SOL     OW18970   0.402   6.550   6.842
 6024SOL    HW118971   0.360   6.466   6.807
 6024SOL    HW218972   0.351   6.629   6.807
 6025SOL     OW18973   3.393   0.366   5.628
 6025SOL    HW118974   3.428   0.394   5.539
 6025SOL    HW218975   3.345   0.279   5.620
 6026SOL     OW18976   5.268   6.385   3.611
 6026SOL    HW118977   5.326   6.434   3.676
 6026SOL    HW218978   5.195   6.338   3.661
 6027SOL     OW18979   6.129   4.157   5.827
 6027SOL    HW118980   6.174   4.246   5.824
 6027SOL    HW218981   6.171   4.100   5.897
 6028SOL     OW18982   6.298   5.331   6.395
 6028SOL    HW118983   6.217   5.307   6.342
 6028SOL    HW218984   6.300   5.278   6.480
 6029SOL     OW18985   2.504   1.513   2.172
 6029SOL    HW118986   2.551   1.489   2.257
 6029SOL    HW218987   2.527   1.607   2.147
 6030SOL     OW18988   5.885   2.849   4.996
 6030SOL    HW118989   5.850   2.898   4.916
 6030SOL    HW218990   5.983   2.835   4.986
 6031SOL     OW18991   0.178   0.510   3.777
 6031SOL    HW118992   0.121   0.591   3.791
 6031SOL    HW218993   0.128   0.429   3.806
 6032SOL     OW18994   3.204   0.152   2.821
 6032SOL    HW118995   3.129   0.204   2.780
 6032SOL    HW218996   3.168   0.067   2.860
 6033SOL     OW18997   0.660   1.622   2.667
 6033SOL    HW118998   0.676   1.556   2.740
 6033SOL    HW218999   0.741   1.627   2.609
 6034SOL     OW19000   0.922   0.468   0.928
 6034SOL    HW119001   0.886   0.484   1.020
 6034SOL    HW219002   1.015   0.501   0.921
 6035SOL     OW19003   2.213   1.383   2.677
 6035SOL    HW119004   2.120   1.352   2.694
 6035SOL    HW219005   2.216   1.483   2.678
 6036SOL     OW19006   0.300   3.482   0.265
 6036SOL    HW119007   0.292   3.423   0.185
 6036SOL    HW219008   0.217   3.474   0.321
 6037SOL     OW19009   4.553   0.365   6.860
 6037SOL    HW119010   4.543   0.464   6.874
 6037SOL    HW219011   4.624   0.330   6.921
 6038SOL     OW19012   2.691   1.560   0.140
 6038SOL    HW119013   2.663   1.485   0.079
 6038SOL    HW219014   2.779   1.537   0.182
 6039SOL     OW19015   3.513   2.937   4.328
 6039SOL    HW119016   3.430   2.927   4.274
 6039SOL    HW219017   3.491   2.973   4.419
 6040SOL     OW19018   6.784   0.817   0.790
 6040SOL    HW119019   6.780   0.755   0.712
 6040SOL    HW219020   6.807   0.909   0.759
 6041SOL     OW19021   0.720   3.322   4.481
 6041SOL    HW119022   0.639   3.378   4.496
 6041SOL    HW219023   0.762   3.346   4.394
 6042SOL     OW19024   3.004   5.908   2.832
 6042SOL    HW119025   3.083   5.955   2.793
 6042SOL    HW219026   3.026   5.876   2.924
 6043SOL     OW19027   2.220   4.756   1.175
 6043SOL    HW119028   2.284   4.789   1.243
 6043SOL    HW219029   2.137   4.723   1.221
 6044SOL     OW19030   6.537   3.978   6.884
 6044SOL    HW119031   6.442   3.946   6.884
 6044SOL    HW219032   6.577   3.963   6.793
 6045SOL     OW19033   4.702   1.393   4.191
 6045SOL    HW119034   4.745   1.312   4.153
 6045SOL    HW219035   4.652   1.368   4.275
 6046SOL     OW19036   3.325   3.528   2.699
 6046SOL    HW119037   3.355   3.490   2.786
 6046SOL    HW219038   3.363   3.619   2.687
 6047SOL     OW19039   0.216   1.506   0.665
 6047SOL    HW119040   0.166   1.438   0.720
 6047SOL    HW219041   0.309   1.514   0.699
 6048SOL     OW19042   6.139   5.779   3.825
 6048SOL    HW119043   6.200   5.700   3.829
 6048SOL    HW219044   6.190   5.859   3.792
 6049SOL     OW19045   5.346   5.044   0.007
 6049SOL    HW119046   5.384   4.994   0.085
 6049SOL    HW219047   5.418   5.058   6.959
 6050SOL     OW19048   1.982   5.314   3.286
 6050SOL    HW119049   1.886   5.294   3.265
 6050SOL    HW219050   1.989   5.406   3.322
 6051SOL     OW19051   0.307   1.706   2.890
 6051SOL    HW119052   0.318   1.683   2.793
 6051SOL    HW219053   0.363   1.645   2.945
 6052SOL     OW19054   5.074   5.955   6.740
 6052SOL    HW119055   5.142   5.996   6.679
 6052SOL    HW219056   5.002   6.021   6.759
 6053SOL     OW19057   3.745   1.816   5.674
 6053SOL    HW119058   3.806   1.874   5.619
 6053SOL    HW219059   3.681   1.770   5.614
 6054SOL     OW19060   4.397   3.534   6.509
 6054SOL    HW119061   4.481   3.549   6.457
 6054SOL    HW219062   4.325   3.593   6.473
 6055SOL     OW19063   3.037   4.736   1.511
 6055SOL    HW119064   2.971   4.675   1.554
 6055SOL    HW219065   3.002   4.766   1.422
 6056SOL     OW19066   5.386   6.266   3.012
 6056SOL    HW119067   5.461   6.211   2.974
 6056SOL    HW219068   5.339   6.314   2.938
 6057SOL     OW19069   5.690   1.014   4.187
 6057SOL    HW119070   5.658   1.089   4.244
 6057SOL    HW219071   5.661   1.028   4.092
 6058SOL     OW19072   6.799   3.128   6.270
 6058SOL    HW119073   6.725   3.094   6.327
 6058SOL    HW219074   6.806   3.074   6.187
 6059SOL     OW19075   4.323   2.121   6.300
 6059SOL    HW119076   4.339   2.065   6.381
 6059SOL    HW219077   4.375   2.085   6.223
 6060SOL     OW19078   2.579   2.142   1.158
 6060SOL    HW119079   2.659   2.144   1.099
 6060SOL    HW219080   2.498   2.117   1.105
 6061SOL     OW19081   2.271   4.744   6.518
 6061SOL    HW119082   2.237   4.706   6.604
 6061SOL    HW219083   2.233   4.691   6.442
 6062SOL     OW19084   1.981   2.484   5.196
 6062SOL    HW119085   1.931   2.537   5.264
 6062SOL    HW219086   1.921   2.463   5.119
 6063SOL     OW19087   4.644   3.796   6.209
 6063SOL    HW119088   4.719   3.853   6.175
 6063SOL    HW219089   4.576   3.783   6.137
 6064SOL     OW19090   5.827   5.952   7.014
 6064SOL    HW119091   5.776   6.016   0.052
 6064SOL    HW219092   5.893   6.002   6.959
 6065SOL     OW19093   1.591   5.589   1.511
 6065SOL    HW119094   1.516   5.531   1.476
 6065SOL    HW219095   1.593   5.674   1.459
 6066SOL     OW19096   5.138   5.736   2.866
 6066SOL    HW119097   5.108   5.814   2.811
 6066SOL    HW219098   5.105   5.652   2.825
 6067SOL     OW19099   6.624   4.727   5.361
 6067SOL    HW119100   6.638   4.812   5.410
 6067SOL    HW219101   6.580   4.660   5.421
 6068SOL     OW19102   4.820   1.962   3.516
 6068SOL    HW119103   4.865   1.874   3.502
 6068SOL    HW219104   4.862   2.030   3.455
 6069SOL     OW19105   1.115   5.187   5.622
 6069SOL    HW119106   1.096   5.176   5.720
 6069SOL    HW219107   1.076   5.273   5.591
 6070SOL     OW19108   2.421   0.670   1.381
 6070SOL    HW119109   2.333   0.719   1.384
 6070SOL    HW219110   2.430   0.623   1.293
 6071SOL     OW19111   6.465   6.832   6.543
 6071SOL    HW119112   6.508   6.757   6.492
 6071SOL    HW219113   6.369   6.810   6.558
 6072SOL     OW19114   0.390   2.776   0.029
 6072SOL    HW119115   0.327   2.851   0.009
 6072SOL    HW219116   0.480   2.798   7.012
 6073SOL     OW19117   4.567   4.301   7.011
 6073SOL    HW119118   4.550   4.399   7.001
 6073SOL    HW219119   4.581   4.260   6.922
 6074SOL     OW19120   1.503   6.098   2.302
 6074SOL    HW119121   1.450   6.040   2.363
 6074SOL    HW219122   1.526   6.184   2.349
 6075SOL     OW19123   6.739   6.661   6.869
 6075SOL    HW119124   6.708   6.721   6.942
 6075SOL    HW219125   6.748   6.713   6.784
 6076SOL     OW19126   0.078   6.406   3.222
 6076SOL    HW119127   0.153   6.467   3.199
 6076SOL    HW219128   0.023   6.389   3.140
 6077SOL     OW19129   5.053   6.495   2.636
 6077SOL    HW119130   5.044   6.550   2.553
 6077SOL    HW219131   5.015   6.547   2.713
 6078SOL     OW19132   5.754   4.215   0.384
 6078SOL    HW119133   5.673   4.252   0.338
 6078SOL    HW219134   5.768   4.264   0.470
 6079SOL     OW19135   3.508   1.864   0.099
 6079SOL    HW119136   3.419   1.858   0.144
 6079SOL    HW219137   3.576   1.813   0.151
 6080SOL     OW19138   6.036   3.374   5.584
 6080SOL    HW119139   5.971   3.314   5.538
 6080SOL    HW219140   6.129   3.355   5.551
 6081SOL     OW19141   2.320   4.161   4.139
 6081SOL    HW119142   2.371   4.227   4.194
 6081SOL    HW219143   2.363   4.153   4.048
 6082SOL     OW19144   4.109   1.210   1.096
 6082SOL    HW119145   4.085   1.216   1.193
 6082SOL    HW219146   4.201   1.248   1.082
 6083SOL     OW19147   4.580   0.998   5.456
 6083SOL    HW119148   4.562   0.939   5.377
 6083SOL    HW219149   4.647   1.069   5.429
 6084SOL     OW19150   6.457   4.579   3.440
 6084SOL    HW119151   6.407   4.605   3.357
 6084SOL    HW219152   6.412   4.618   3.520
 6085SOL     OW19153   0.776   6.314   1.041
 6085SOL    HW119154   0.850   6.366   1.083
 6085SOL    HW219155   0.801   6.293   0.946
 6086SOL     OW19156   4.916   3.241   0.266
 6086SOL    HW119157   4.843   3.294   0.309
 6086SOL    HW219158   4.978   3.206   0.337
 6087SOL     OW19159   4.113   0.996   6.899
 6087SOL    HW119160   4.164   1.080   6.916
 6087SOL    HW219161   4.019   1.007   6.931
 6088SOL     OW19162   4.190   6.233   2.436
 6088SOL    HW119163   4.231   6.233   2.345
 6088SOL    HW219164   4.097   6.271   2.430
 6089SOL     OW19165   6.308   5.343   2.961
 6089SOL    HW119166   6.405   5.360   2.980
 6089SOL    HW219167   6.254   5.419   2.997
 6090SOL     OW19168   3.916   5.780   4.498
 6090SOL    HW119169   3.960   5.867   4.477
 6090SOL    HW219170   3.927   5.718   4.420
 6091SOL     OW19171   0.348   2.732   2.097
 6091SOL    HW119172   0.439   2.696   2.119
 6091SOL    HW219173   0.343   2.829   2.121
 6092SOL     OW19174   2.004   6.827   1.040
 6092SOL    HW119175   2.021   6.905   0.980
 6092SOL    HW219176   1.995   6.743   0.985
 6093SOL     OW19177   3.694   3.232   2.298
 6093SOL    HW119178   3.627   3.232   2.372
 6093SOL    HW219179   3.747   3.317   2.301
 6094SOL     OW19180   0.242   0.167   5.759
 6094SOL    HW119181   0.329   0.123   5.783
 6094SOL    HW219182   0.258   0.235   5.687
 6095SOL     OW19183   5.547   5.046   2.159
 6095SOL    HW119184   5.511   5.079   2.072
 6095SOL    HW219185   5.483   4.980   2.198
 6096SOL     OW19186   4.896   6.359   2.945
 6096SOL    HW119187   4.910   6.366   3.044
 6096SOL    HW219188   4.909   6.448   2.903
 6097SOL     OW19189   2.092   5.309   1.034
 6097SOL    HW119190   2.079   5.404   1.064
 6097SOL    HW219191   2.183   5.298   0.995
 6098SOL     OW19192   5.896   1.517   5.500
 6098SOL    HW119193   5.911   1.533   5.402
 6098SOL    HW219194   5.850   1.429   5.512
 6099SOL     OW19195   3.420   0.074   5.459
 6099SOL    HW119196   3.414   0.111   5.366
 6099SOL    HW219197   3.345   0.110   5.514
 6100SOL     OW19198   0.159   5.424   5.997
 6100SOL    HW119199   0.253   5.453   5.978
 6100SOL    HW219200   0.152   5.325   5.983
 6101SOL     OW19201   1.088   2.664   0.609
 6101SOL    HW119202   1.134   2.718   0.679
 6101SOL    HW219203   0.989   2.680   0.613
 6102SOL     OW19204   2.602   0.347   2.915
 6102SOL    HW119205   2.673   0.409   2.948
 6102SOL    HW219206   2.579   0.281   2.987
 6103SOL     OW19207   5.690   0.403   2.740
 6103SOL    HW119208   5.777   0.353   2.747
 6103SOL    HW219209   5.699   0.491   2.787
 6104SOL     OW19210   6.883   0.726   5.074
 6104SOL    HW119211   6.891   0.654   5.142
 6104SOL    HW219212   6.792   0.722   5.031
 6105SOL     OW19213   3.933   4.934   6.733
 6105SOL    HW119214   3.912   4.837   6.744
 6105SOL    HW219215   3.918   4.981   6.820
 6106SOL     OW19216   6.475   3.870   5.271
 6106SOL    HW119217   6.472   3.837   5.365
 6106SOL    HW219218   6.475   3.792   5.208
 6107SOL     OW19219   6.492   4.531   5.039
 6107SOL    HW119220   6.538   4.469   4.975
 6107SOL    HW219221   6.413   4.573   4.994
 6108SOL     OW19222   3.114   0.302   6.049
 6108SOL    HW119223   3.121   0.282   6.147
 6108SOL    HW219224   3.131   0.399   6.033
 6109SOL     OW19225   6.516   6.210   3.818
 6109SOL    HW119226   6.487   6.219   3.722
 6109SOL    HW219227   6.614   6.227   3.824
 6110SOL     OW19228   0.908   1.944   4.088
 6110SOL    HW119229   0.865   1.897   4.165
 6110SOL    HW219230   0.838   1.989   4.033
 6111SOL     OW19231   2.974   3.037   1.239
 6111SOL    HW119232   2.955   3.131   1.210
 6111SOL    HW219233   3.042   2.997   1.178
 6112SOL     OW19234   4.837   6.245   4.078
 6112SOL    HW119235   4.823   6.229   3.980
 6112SOL    HW219236   4.755   6.216   4.129
 6113SOL     OW19237   3.488   5.249   1.257
 6113SOL    HW119238   3.510   5.184   1.184
 6113SOL    HW219239   3.563   5.315   1.266
 6114SOL     OW19240   4.919   3.743   1.465
 6114SOL    HW119241   4.907   3.678   1.391
 6114SOL    HW219242   4.926   3.836   1.428
 6115SOL     OW19243   6.413   1.044   4.639
 6115SOL    HW119244   6.378   0.964   4.590
 6115SOL    HW219245   6.413   1.123   4.578
 6116SOL     OW19246   6.163   2.463   0.566
 6116SOL    HW119247   6.259   2.439   0.574
 6116SOL    HW219248   6.154   2.549   0.515
 6117SOL     OW19249   3.235   2.411   1.139
 6117SOL    HW119250   3.175   2.338   1.169
 6117SOL    HW219251   3.180   2.488   1.106
 6118SOL     OW19252   6.015   0.321   1.570
 6118SOL    HW119253   6.102   0.277   1.593
 6118SOL    HW219254   6.032   0.397   1.508
 6119SOL     OW19255   0.478   1.105   6.092
 6119SOL    HW119256   0.495   1.105   6.190
 6119SOL    HW219257   0.400   1.164   6.071
 6120SOL     OW19258   3.077   1.418   3.441
 6120SOL    HW119259   3.040   1.473   3.367
 6120SOL    HW219260   3.094   1.476   3.521
 6121SOL     OW19261   3.498   0.895   5.362
 6121SOL    HW119262   3.590   0.868   5.332
 6121SOL    HW219263   3.436   0.818   5.350
 6122SOL     OW19264   4.546   4.529   4.812
 6122SOL    HW119265   4.573   4.434   4.800
 6122SOL    HW219266   4.484   4.537   4.891
 6123SOL     OW19267   6.498   1.542   5.244
 6123SOL    HW119268   6.429   1.512   5.309
 6123SOL    HW219269   6.453   1.577   5.162
 6124SOL     OW19270   1.973   6.068   3.705
 6124SOL    HW119271   1.992   6.081   3.802
 6124SOL    HW219272   1.918   5.986   3.692
 6125SOL     OW19273   2.935   0.917   5.785
 6125SOL    HW119274   2.890   1.005   5.804
 6125SOL    HW219275   3.034   0.930   5.790
 6126SOL     OW19276   6.201   3.056   6.770
 6126SOL    HW119277   6.273   2.988   6.756
 6126SOL    HW219278   6.113   3.020   6.738
 6127SOL     OW19279   5.214   1.908   2.650
 6127SOL    HW119280   5.117   1.908   2.675
 6127SOL    HW219281   5.265   1.966   2.713
 6128SOL     OW19282   5.915   5.348   4.883
 6128SOL    HW119283   5.823   5.367   4.918
 6128SOL    HW219284   5.976   5.423   4.909
 6129SOL     OW19285   2.212   5.716   2.935
 6129SOL    HW119286   2.158   5.800   2.922
 6129SOL    HW219287   2.215   5.665   2.849
 6130SOL     OW19288   6.521   2.047   6.743
 6130SOL    HW119289   6.482   2.024   6.653
 6130SOL    HW219290   6.447   2.073   6.805
 6131SOL     OW19291   5.572   3.089   2.452
 6131SOL    HW119292   5.580   3.017   2.520
 6131SOL    HW219293   5.659   3.137   2.443
 6132SOL     OW19294   4.487   6.092   6.566
 6132SOL    HW119295   4.389   6.085   6.582
 6132SOL    HW219296   4.529   6.002   6.576
 6133SOL     OW19297   0.199   2.421   3.853
 6133SOL    HW119298   0.273   2.456   3.796
 6133SOL    HW219299   0.157   2.342   3.808
 6134SOL     OW19300   0.912   0.100   5.276
 6134SOL    HW119301   0.815   0.118   5.256
 6134SOL    HW219302   0.949   0.175   5.331
 6135SOL     OW19303   6.333   6.318   7.006
 6135SOL    HW119304   6.359   6.396   0.043
 6135SOL    HW219305   6.251   6.276   0.023
 6136SOL     OW19306   0.976   2.326   2.890
 6136SOL    HW119307   0.908   2.285   2.830
 6136SOL    HW219308   1.038   2.384   2.837
 6137SOL     OW19309   6.937   4.844   0.755
 6137SOL    HW119310   6.928   4.782   0.833
 6137SOL    HW219311   6.860   4.907   0.754
 6138SOL     OW19312   5.114   0.700   2.836
 6138SOL    HW119313   5.087   0.620   2.890
 6138SOL    HW219314   5.147   0.772   2.898
 6139SOL     OW19315   1.916   2.197   5.282
 6139SOL    HW119316   1.917   2.293   5.311
 6139SOL    HW219317   1.888   2.140   5.359
 6140SOL     OW19318   2.299   0.240   3.759
 6140SOL    HW119319   2.237   0.192   3.698
 6140SOL    HW219320   2.356   0.303   3.705
 6141SOL     OW19321   1.287   0.061   0.569
 6141SOL    HW119322   1.200   0.075   0.616
 6141SOL    HW219323   1.273   0.006   0.487
 6142SOL     OW19324   0.070   0.249   1.631
 6142SOL    HW119325   7.001   0.292   1.647
 6142SOL    HW219326   0.103   0.274   1.540
 6143SOL     OW19327   1.403   3.233   5.478
 6143SOL    HW119328   1.484   3.191   5.516
 6143SOL    HW219329   1.327   3.227   5.543
 6144SOL     OW19330   3.345   5.982   2.611
 6144SOL    HW119331   3.305   5.892   2.630
 6144SOL    HW219332   3.439   5.972   2.581
 6145SOL     OW19333   5.440   3.574   4.238
 6145SOL    HW119334   5.393   3.522   4.310
 6145SOL    HW219335   5.375   3.637   4.195
 6146SOL     OW19336   5.996   1.562   5.761
 6146SOL    HW119337   5.941   1.558   5.677
 6146SOL    HW219338   6.080   1.612   5.742
 6147SOL     OW19339   1.361   1.621   5.651
 6147SOL    HW119340   1.436   1.610   5.717
 6147SOL    HW219341   1.373   1.707   5.602
 6148SOL     OW19342   3.928   5.093   6.969
 6148SOL    HW119343   3.885   5.172   7.012
 6148SOL    HW219344   4.001   5.058   0.008
 6149SOL     OW19345   4.204   1.626   1.557
 6149SOL    HW119346   4.197   1.526   1.564
 6149SOL    HW219347   4.273   1.649   1.489
 6150SOL     OW19348   0.706   4.846   3.976
 6150SOL    HW119349   0.687   4.748   3.984
 6150SOL    HW219350   0.702   4.888   4.066
 6151SOL     OW19351   3.826   5.316   2.312
 6151SOL    HW119352   3.738   5.328   2.357
 6151SOL    HW219353   3.830   5.372   2.230
 6152SOL     OW19354   0.266   3.593   3.081
 6152SOL    HW119355   0.313   3.529   3.141
 6152SOL    HW219356   0.171   3.563   3.068
 6153SOL     OW19357   5.927   6.235   1.065
 6153SOL    HW119358   5.881   6.212   1.150
 6153SOL    HW219359   5.910   6.331   1.043
 6154SOL     OW19360   4.103   4.997   2.636
 6154SOL    HW119361   4.191   4.976   2.595
 6154SOL    HW219362   4.043   4.917   2.631
 6155SOL     OW19363   1.619   1.555   4.272
 6155SOL    HW119364   1.638   1.645   4.311
 6155SOL    HW219365   1.677   1.539   4.193
 6156SOL     OW19366   4.231   4.626   2.689
 6156SOL    HW119367   4.268   4.545   2.642
 6156SOL    HW219368   4.249   4.618   2.787
 6157SOL     OW19369   0.377   2.569   1.357
 6157SOL    HW119370   0.286   2.548   1.322
 6157SOL    HW219371   0.432   2.485   1.359
 6158SOL     OW19372   3.305   0.518   6.311
 6158SOL    HW119373   3.400   0.540   6.290
 6158SOL    HW219374   3.254   0.506   6.226
 6159SOL     OW19375   6.578   1.793   1.018
 6159SOL    HW119376   6.565   1.745   1.105
 6159SOL    HW219377   6.675   1.809   1.003
 6160SOL     OW19378   1.294   6.982   0.992
 6160SOL    HW119379   1.218   7.008   0.933
 6160SOL    HW219380   1.310   6.883   0.985
 6161SOL     OW19381   6.264   4.187   0.064
 6161SOL    HW119382   6.171   4.153   0.080
 6161SOL    HW219383   6.329   4.128   0.111
 6162SOL     OW19384   6.381   6.235   1.255
 6162SOL    HW119385   6.355   6.138   1.251
 6162SOL    HW219386   6.431   6.259   1.172
 6163SOL     OW19387   5.568   5.788   2.866
 6163SOL    HW119388   5.616   5.702   2.884
 6163SOL    HW219389   5.494   5.800   2.933
 6164SOL     OW19390   3.682   4.074   4.485
 6164SOL    HW119391   3.664   4.052   4.389
 6164SOL    HW219392   3.677   4.173   4.498
 6165SOL     OW19393   3.351   0.514   0.070
 6165SOL    HW119394   3.318   0.543   0.160
 6165SOL    HW219395   3.440   0.471   0.080
 6166SOL     OW19396   3.152   1.528   5.875
 6166SOL    HW119397   3.077   1.464   5.864
 6166SOL    HW219398   3.218   1.492   5.941
 6167SOL     OW19399   1.303   3.100   2.625
 6167SOL    HW119400   1.398   3.099   2.595
 6167SOL    HW219401   1.246   3.143   2.554
 6168SOL     OW19402   0.787   3.851   3.992
 6168SOL    HW119403   0.860   3.802   4.039
 6168SOL    HW219404   0.819   3.943   3.968
 6169SOL     OW19405   2.453   1.199   0.990
 6169SOL    HW119406   2.507   1.118   0.968
 6169SOL    HW219407   2.439   1.252   0.907
 6170SOL     OW19408   2.559   4.730   0.788
 6170SOL    HW119409   2.626   4.793   0.748
 6170SOL    HW219410   2.520   4.672   0.717
 6171SOL     OW19411   2.129   4.134   2.225
 6171SOL    HW119412   2.212   4.165   2.271
 6171SOL    HW219413   2.136   4.153   2.127
 6172SOL     OW19414   2.345   5.017   1.857
 6172SOL    HW119415   2.389   5.070   1.785
 6172SOL    HW219416   2.247   5.034   1.856
 6173SOL     OW19417   0.988   5.765   2.625
 6173SOL    HW119418   0.917   5.740   2.690
 6173SOL    HW219419   1.035   5.847   2.657
 6174SOL     OW19420   6.125   4.693   1.862
 6174SOL    HW119421   6.057   4.754   1.904
 6174SOL    HW219422   6.157   4.733   1.776
 6175SOL     OW19423   5.538   6.946   4.143
 6175SOL    HW119424   5.501   6.903   4.060
 6175SOL    HW219425   5.624   6.991   4.122
 6176SOL     OW19426   6.696   3.101   0.457
 6176SOL    HW119427   6.609   3.149   0.452
 6176SOL    HW219428   6.725   3.073   0.366
 6177SOL     OW19429   6.205   2.330   2.356
 6177SOL    HW119430   6.237   2.254   2.412
 6177SOL    HW219431   6.137   2.297   2.290
 6178SOL     OW19432   6.847   3.275   0.916
 6178SOL    HW119433   6.932   3.325   0.899
 6178SOL    HW219434   6.816   3.231   0.832
 6179SOL     OW19435   0.812   1.510   5.612
 6179SOL    HW119436   0.866   1.515   5.527
 6179SOL    HW219437   0.872   1.490   5.689
 6180SOL     OW19438   3.206   0.729   6.451
 6180SOL    HW119439   3.243   0.727   6.544
 6180SOL    HW219440   3.230   0.645   6.403
 6181SOL     OW19441   4.270   6.578   6.264
 6181SOL    HW119442   4.334   6.509   6.296
 6181SOL    HW219443   4.232   6.628   6.342
 6182SOL     OW19444   4.817   0.067   5.584
 6182SOL    HW119445   4.865   0.155   5.586
 6182SOL    HW219446   4.836   0.020   5.498
 6183SOL     OW19447   2.525   0.059   2.495
 6183SOL    HW119448   2.581   7.016   2.442
 6183SOL    HW219449   2.442   0.082   2.443
 6184SOL     OW19450   6.709   0.798   5.701
 6184SOL    HW119451   6.651   0.718   5.713
 6184SOL    HW219452   6.764   0.787   5.618
 6185SOL     OW19453   2.514   2.695   6.905
 6185SOL    HW119454   2.499   2.734   6.996
 6185SOL    HW219455   2.579   2.619   6.911
 6186SOL     OW19456   4.022   1.290   3.979
 6186SOL    HW119457   3.955   1.278   4.052
 6186SOL    HW219458   4.007   1.221   3.908
 6187SOL     OW19459   3.156   4.911   4.334
 6187SOL    HW119460   3.196   4.826   4.367
 6187SOL    HW219461   3.059   4.897   4.314
 6188SOL     OW19462   2.676   0.292   2.525
 6188SOL    HW119463   2.612   0.220   2.498
 6188SOL    HW219464   2.744   0.306   2.453
 6189SOL     OW19465   5.277   4.763   3.047
 6189SOL    HW119466   5.184   4.784   3.076
 6189SOL    HW219467   5.335   4.750   3.127
 6190SOL     OW19468   5.232   3.091   5.679
 6190SOL    HW119469   5.222   2.992   5.682
 6190SOL    HW219470   5.144   3.134   5.700
 6191SOL     OW19471   0.019   1.569   6.543
 6191SOL    HW119472   0.059   1.522   6.464
 6191SOL    HW219473   6.941   1.553   6.545
 6192SOL     OW19474   3.416   1.906   0.628
 6192SOL    HW119475   3.366   1.977   0.677
 6192SOL    HW219476   3.449   1.944   0.541
 6193SOL     OW19477   7.014   0.078   1.834
 6193SOL    HW119478   0.022   7.002   1.837
 6193SOL    HW219479   0.034   0.123   1.755
 6194SOL     OW19480   3.229   0.540   0.945
 6194SOL    HW119481   3.314   0.508   0.902
 6194SOL    HW219482   3.187   0.464   0.994
 6195SOL     OW19483   2.400   0.808   5.462
 6195SOL    HW119484   2.393   0.824   5.363
 6195SOL    HW219485   2.339   0.733   5.488
 6196SOL     OW19486   1.107   1.844   5.719
 6196SOL    HW119487   1.172   1.859   5.645
 6196SOL    HW219488   1.029   1.906   5.708
 6197SOL     OW19489   2.828   2.766   1.708
 6197SOL    HW119490   2.736   2.792   1.737
 6197SOL    HW219491   2.838   2.667   1.712
 6198SOL     OW19492   3.300   5.551   2.477
 6198SOL    HW119493   3.325   5.606   2.397
 6198SOL    HW219494   3.369   5.562   2.548
 6199SOL     OW19495   0.371   0.423   6.791
 6199SOL    HW119496   0.462   0.413   6.831
 6199SOL    HW219497   0.380   0.442   6.693
 6200SOL     OW19498   3.735   0.498   5.811
 6200SOL    HW119499   3.660   0.432   5.808
 6200SOL    HW219500   3.821   0.452   5.790
 6201SOL     OW19501   2.263   5.090   4.489
 6201SOL    HW119502   2.335   5.134   4.543
 6201SOL    HW219503   2.211   5.160   4.439
 6202SOL     OW19504   2.304   2.605   1.418
 6202SOL    HW119505   2.227   2.612   1.355
 6202SOL    HW219506   2.353   2.520   1.402
 6203SOL     OW19507   5.846   2.363   4.085
 6203SOL    HW119508   5.758   2.322   4.064
 6203SOL    HW219509   5.856   2.372   4.184
 6204SOL     OW19510   1.205   6.930   5.661
 6204SOL    HW119511   1.204   6.837   5.699
 6204SOL    HW219512   1.165   6.994   5.727
 6205SOL     OW19513   4.303   6.593   6.806
 6205SOL    HW119514   4.316   6.577   6.904
 6205SOL    HW219515   4.381   6.643   6.770
 6206SOL     OW19516   4.839   0.219   3.812
 6206SOL    HW119517   4.756   0.170   3.787
 6206SOL    HW219518   4.876   0.181   3.897
 6207SOL     OW19519   2.318   4.311   4.548
 6207SOL    HW119520   2.222   4.309   4.521
 6207SOL    HW219521   2.353   4.218   4.553
 6208SOL     OW19522   5.111   4.825   5.676
 6208SOL    HW119523   5.062   4.747   5.637
 6208SOL    HW219524   5.061   4.909   5.655
 6209SOL     OW19525   1.800   5.854   0.737
 6209SOL    HW119526   1.756   5.782   0.683
 6209SOL    HW219527   1.889   5.822   0.769
 6210SOL     OW19528   0.146   4.028   3.027
 6210SOL    HW119529   0.201   4.098   2.981
 6210SOL    HW219530   0.120   3.958   2.960
 6211SOL     OW19531   2.695   0.547   4.951
 6211SOL    HW119532   2.671   0.597   4.868
 6211SOL    HW219533   2.687   0.607   5.030
 6212SOL     OW19534   6.823   0.706   4.213
 6212SOL    HW119535   6.806   0.638   4.142
 6212SOL    HW219536   6.876   0.782   4.174
 6213SOL     OW19537   6.813   6.879   0.119
 6213SOL    HW119538   6.722   6.917   0.140
 6213SOL    HW219539   6.845   6.827   0.198
 6214SOL     OW19540   4.936   4.408   1.653
 6214SOL    HW119541   5.012   4.419   1.717
 6214SOL    HW219542   4.856   4.457   1.688
 6215SOL     OW19543   3.454   4.817   1.451
 6215SOL    HW119544   3.408   4.736   1.486
 6215SOL    HW219545   3.539   4.791   1.405
 6216SOL     OW19546   6.354   1.985   2.747
 6216SOL    HW119547   6.358   2.055   2.818
 6216SOL    HW219548   6.333   2.028   2.659
 6217SOL     OW19549   4.391   1.945   1.591
 6217SOL    HW119550   4.360   1.877   1.523
 6217SOL    HW219551   4.326   1.947   1.667
 6218SOL     OW19552   4.411   6.256   4.604
 6218SOL    HW119553   4.468   6.246   4.686
 6218SOL    HW219554   4.329   6.308   4.627
 6219SOL     OW19555   0.186   1.013   4.720
 6219SOL    HW119556   0.190   1.047   4.815
 6219SOL    HW219557   0.254   0.941   4.708
 6220SOL     OW19558   0.887   3.349   4.695
 6220SOL    HW119559   0.971   3.295   4.698
 6220SOL    HW219560   0.860   3.363   4.600
 6221SOL     OW19561   4.471   4.458   4.200
 6221SOL    HW119562   4.515   4.504   4.123
 6221SOL    HW219563   4.484   4.359   4.191
 6222SOL     OW19564   6.665   2.094   1.204
 6222SOL    HW119565   6.647   2.175   1.147
 6222SOL    HW219566   6.748   2.049   1.172
 6223SOL     OW19567   5.216   4.384   3.547
 6223SOL    HW119568   5.275   4.452   3.591
 6223SOL    HW219569   5.264   4.297   3.541
 6224SOL     OW19570   2.257   0.060   4.505
 6224SOL    HW119571   2.286   0.119   4.581
 6224SOL    HW219572   2.322   0.070   4.429
 6225SOL     OW19573   3.787   1.706   6.768
 6225SOL    HW119574   3.879   1.670   6.781
 6225SOL    HW219575   3.735   1.699   6.853
 6226SOL     OW19576   0.200   6.203   4.483
 6226SOL    HW119577   0.150   6.249   4.410
 6226SOL    HW219578   0.136   6.172   4.554
 6227SOL     OW19579   2.637   4.076   6.282
 6227SOL    HW119580   2.576   3.997   6.284
 6227SOL    HW219581   2.680   4.086   6.372
 6228SOL     OW19582   0.169   2.668   2.874
 6228SOL    HW119583   0.166   2.572   2.902
 6228SOL    HW219584   0.167   2.674   2.774
 6229SOL     OW19585   1.175   2.707   2.310
 6229SOL    HW119586   1.169   2.644   2.232
 6229SOL    HW219587   1.087   2.751   2.325
 6230SOL     OW19588   2.064   2.678   4.038
 6230SOL    HW119589   1.986   2.641   4.089
 6230SOL    HW219590   2.039   2.687   3.941
 6231SOL     OW19591   6.568   4.505   2.094
 6231SOL    HW119592   6.623   4.576   2.050
 6231SOL    HW219593   6.570   4.422   2.038
 6232SOL     OW19594   0.787   0.379   0.268
 6232SOL    HW119595   0.832   0.322   0.199
 6232SOL    HW219596   0.777   0.326   0.353
 6233SOL     OW19597   4.308   1.041   6.564
 6233SOL    HW119598   4.321   1.108   6.637
 6233SOL    HW219599   4.247   0.968   6.596
 6234SOL     OW19600   2.851   2.281   3.321
 6234SOL    HW119601   2.826   2.240   3.409
 6234SOL    HW219602   2.945   2.256   3.298
 6235SOL     OW19603   1.997   5.636   1.799
 6235SOL    HW119604   2.083   5.616   1.847
 6235SOL    HW219605   1.956   5.550   1.769
 6236SOL     OW19606   0.308   3.789   0.177
 6236SOL    HW119607   0.230   3.833   0.221
 6236SOL    HW219608   0.321   3.697   0.216
 6237SOL     OW19609   3.224   5.903   5.875
 6237SOL    HW119610   3.182   5.953   5.951
 6237SOL    HW219611   3.254   5.813   5.907
 6238SOL     OW19612   5.205   3.362   0.987
 6238SOL    HW119613   5.293   3.315   0.995
 6238SOL    HW219614   5.131   3.296   1.002
 6239SOL     OW19615   3.420   5.920   3.810
 6239SOL    HW119616   3.375   5.831   3.802
 6239SOL    HW219617   3.516   5.907   3.834
 6240SOL     OW19618   2.454   4.364   0.376
 6240SOL    HW119619   2.450   4.325   0.284
 6240SOL    HW219620   2.529   4.322   0.427
 6241SOL     OW19621   4.673   6.752   2.869
 6241SOL    HW119622   4.671   6.700   2.954
 6241SOL    HW219623   4.695   6.848   2.889
 6242SOL     OW19624   3.467   2.069   2.563
 6242SOL    HW119625   3.482   2.056   2.465
 6242SOL    HW219626   3.553   2.055   2.612
 6243SOL     OW19627   6.164   5.572   3.039
 6243SOL    HW119628   6.250   5.619   3.061
 6243SOL    HW219629   6.088   5.619   3.082
 6244SOL     OW19630   1.442   1.990   1.756
 6244SOL    HW119631   1.361   2.047   1.764
 6244SOL    HW219632   1.504   2.010   1.832
 6245SOL     OW19633   2.324   3.754   6.949
 6245SOL    HW119634   2.246   3.812   6.927
 6245SOL    HW219635   2.405   3.787   6.900
 6246SOL     OW19636   4.487   6.342   0.356
 6246SOL    HW119637   4.499   6.435   0.321
 6246SOL    HW219638   4.392   6.312   0.341
 6247SOL     OW19639   6.605   6.671   3.193
 6247SOL    HW119640   6.511   6.673   3.157
 6247SOL    HW219641   6.649   6.585   3.167
 6248SOL     OW19642   0.970   5.541   0.598
 6248SOL    HW119643   1.013   5.469   0.653
 6248SOL    HW219644   1.040   5.593   0.550
 6249SOL     OW19645   6.278   2.591   6.026
 6249SOL    HW119646   6.280   2.491   6.025
 6249SOL    HW219647   6.184   2.623   6.013
 6250SOL     OW19648   6.972   4.272   6.139
 6250SOL    HW119649   6.983   4.173   6.139
 6250SOL    HW219650   6.924   4.300   6.056
 6251SOL     OW19651   4.416   1.208   0.698
 6251SOL    HW119652   4.367   1.274   0.642
 6251SOL    HW219653   4.369   1.120   0.695
 6252SOL     OW19654   1.584   6.492   5.461
 6252SOL    HW119655   1.651   6.547   5.509
 6252SOL    HW219656   1.507   6.472   5.522
 6253SOL     OW19657   2.326   3.401   1.427
 6253SOL    HW119658   2.252   3.339   1.402
 6253SOL    HW219659   2.412   3.370   1.386
 6254SOL     OW19660   5.413   0.379   0.536
 6254SOL    HW119661   5.440   0.288   0.504
 6254SOL    HW219662   5.475   0.448   0.497
 6255SOL     OW19663   0.646   3.452   2.907
 6255SOL    HW119664   0.667   3.495   2.820
 6255SOL    HW219665   0.687   3.361   2.911
 6256SOL     OW19666   4.049   5.169   4.297
 6256SOL    HW119667   4.115   5.098   4.272
 6256SOL    HW219668   3.960   5.128   4.316
 6257SOL     OW19669   4.213   3.004   6.562
 6257SOL    HW119670   4.221   3.093   6.518
 6257SOL    HW219671   4.124   2.998   6.608
 6258SOL     OW19672   4.592   1.860   3.081
 6258SOL    HW119673   4.636   1.939   3.039
 6258SOL    HW219674   4.529   1.892   3.152
 6259SOL     OW19675   3.391   2.353   1.740
 6259SOL    HW119676   3.396   2.281   1.671
 6259SOL    HW219677   3.481   2.367   1.781
 6260SOL     OW19678   3.612   4.554   1.480
 6260SOL    HW119679   3.672   4.495   1.535
 6260SOL    HW219680   3.517   4.539   1.507
 6261SOL     OW19681   4.914   6.537   6.080
 6261SOL    HW119682   4.855   6.461   6.052
 6261SOL    HW219683   4.858   6.609   6.120
 6262SOL     OW19684   6.913   5.902   5.504
 6262SOL    HW119685   6.904   5.805   5.484
 6262SOL    HW219686   7.006   5.932   5.484
 6263SOL     OW19687   6.486   0.331   1.446
 6263SOL    HW119688   6.420   0.392   1.403
 6263SOL    HW219689   6.577   0.350   1.410
 6264SOL     OW19690   2.602   1.461   0.587
 6264SOL    HW119691   2.600   1.426   0.493
 6264SOL    HW219692   2.664   1.538   0.593
 6265SOL     OW19693   6.479   3.601   0.349
 6265SOL    HW119694   6.463   3.700   0.350
 6265SOL    HW219695   6.392   3.554   0.336
 6266SOL     OW19696   2.541   6.795   2.721
 6266SOL    HW119697   2.541   6.894   2.737
 6266SOL    HW219698   2.623   6.769   2.669
 6267SOL     OW19699   3.014   6.429   6.943
 6267SOL    HW119700   2.986   6.387   6.856
 6267SOL    HW219701   3.059   6.361   7.000
 6268SOL     OW19702   2.340   6.368   2.172
 6268SOL    HW119703   2.255   6.318   2.183
 6268SOL    HW219704   2.416   6.304   2.163
 6269SOL     OW19705   6.696   4.325   6.551
 6269SOL    HW119706   6.599   4.329   6.577
 6269SOL    HW219707   6.711   4.383   6.471
 6270SOL     OW19708   0.894   1.286   4.129
 6270SOL    HW119709   0.914   1.376   4.168
 6270SOL    HW219710   0.962   1.264   4.059
 6271SOL     OW19711   5.664   1.670   1.117
 6271SOL    HW119712   5.637   1.598   1.054
 6271SOL    HW219713   5.753   1.648   1.158
 6272SOL     OW19714   2.615   2.498   3.975
 6272SOL    HW119715   2.595   2.566   4.046
 6272SOL    HW219716   2.539   2.434   3.968
 6273SOL     OW19717   3.577   1.565   2.771
 6273SOL    HW119718   3.545   1.556   2.677
 6273SOL    HW219719   3.649   1.498   2.788
 6274SOL     OW19720   2.764   5.321   6.802
 6274SOL    HW119721   2.799   5.278   6.885
 6274SOL    HW219722   2.841   5.351   6.745
 6275SOL     OW19723   3.448   0.999   4.792
 6275SOL    HW119724   3.471   0.942   4.713
 6275SOL    HW219725   3.419   0.941   4.868
 6276SOL     OW19726   0.785   5.234   3.352
 6276SOL    HW119727   0.883   5.240   3.368
 6276SOL    HW219728   0.741   5.194   3.432
 6277SOL     OW19729   6.249   3.522   3.902
 6277SOL    HW119730   6.328   3.469   3.934
 6277SOL    HW219731   6.202   3.471   3.829
 6278SOL     OW19732   5.085   1.184   3.490
 6278SOL    HW119733   5.164   1.181   3.551
 6278SOL    HW219734   5.017   1.118   3.521
 6279SOL     OW19735   3.809   1.532   5.728
 6279SOL    HW119736   3.824   1.624   5.693
 6279SOL    HW219737   3.712   1.519   5.750
 6280SOL     OW19738   1.437   5.257   5.678
 6280SOL    HW119739   1.408   5.340   5.632
 6280SOL    HW219740   1.423   5.266   5.777
 6281SOL     OW19741   3.571   6.205   4.936
 6281SOL    HW119742   3.660   6.251   4.935
 6281SOL    HW219743   3.502   6.263   4.894
 6282SOL     OW19744   0.751   6.495   4.784
 6282SOL    HW119745   0.693   6.434   4.729
 6282SOL    HW219746   0.794   6.442   4.857
 6283SOL     OW19747   1.045   2.945   4.955
 6283SOL    HW119748   1.061   2.851   4.986
 6283SOL    HW219749   0.986   2.944   4.874
 6284SOL     OW19750   2.243   4.837   0.002
 6284SOL    HW119751   2.337   4.806   0.020
 6284SOL    HW219752   2.225   4.832   6.924
 6285SOL     OW19753   2.083   3.883   2.289
 6285SOL    HW119754   2.048   3.892   2.382
 6285SOL    HW219755   2.101   3.974   2.252
 6286SOL     OW19756   0.048   6.354   4.313
 6286SOL    HW119757   0.070   6.441   4.269
 6286SOL    HW219758   6.969   6.341   4.313
 6287SOL     OW19759   3.374   4.948   3.126
 6287SOL    HW119760   3.383   4.890   3.045
 6287SOL    HW219761   3.462   4.987   3.150
 6288SOL     OW19762   0.119   3.804   0.840
 6288SOL    HW119763   0.036   3.838   0.885
 6288SOL    HW219764   0.169   3.744   0.902
 6289SOL     OW19765   0.300   6.904   2.741
 6289SOL    HW119766   0.266   6.936   2.652
 6289SOL    HW219767   0.227   6.853   2.788
 6290SOL     OW19768   5.475   3.647   3.933
 6290SOL    HW119769   5.486   3.650   3.834
 6290SOL    HW219770   5.521   3.725   3.974
 6291SOL     OW19771   3.229   4.102   3.363
 6291SOL    HW119772   3.254   4.175   3.427
 6291SOL    HW219773   3.264   4.125   3.271
 6292SOL     OW19774   6.795   0.978   1.490
 6292SOL    HW119775   6.696   0.986   1.479
 6292SOL    HW219776   6.840   1.007   1.405
 6293SOL     OW19777   5.554   4.499   5.753
 6293SOL    HW119778   5.457   4.517   5.766
 6293SOL    HW219779   5.603   4.512   5.839
 6294SOL     OW19780   2.983   6.413   1.339
 6294SOL    HW119781   2.995   6.497   1.285
 6294SOL    HW219782   3.055   6.348   1.315
 6295SOL     OW19783   6.343   5.724   6.026
 6295SOL    HW119784   6.346   5.649   6.091
 6295SOL    HW219785   6.426   5.779   6.035
 6296SOL     OW19786   6.239   1.893   3.461
 6296SOL    HW119787   6.321   1.867   3.512
 6296SOL    HW219788   6.265   1.954   3.386
 6297SOL     OW19789   5.338   1.724   5.747
 6297SOL    HW119790   5.249   1.679   5.733
 6297SOL    HW219791   5.375   1.752   5.659
 6298SOL     OW19792   6.258   2.399   4.206
 6298SOL    HW119793   6.323   2.456   4.157
 6298SOL    HW219794   6.184   2.456   4.242
 6299SOL     OW19795   0.470   2.257   0.248
 6299SOL    HW119796   0.409   2.188   0.210
 6299SOL    HW219797   0.565   2.228   0.235
 6300SOL     OW19798   5.308   1.492   3.570
 6300SOL    HW119799   5.245   1.460   3.499
 6300SOL    HW219800   5.274   1.464   3.659
 6301SOL     OW19801   3.288   0.292   1.338
 6301SOL    HW119802   3.249   0.382   1.360
 6301SOL    HW219803   3.366   0.304   1.276
 6302SOL     OW19804   6.609   0.137   3.088
 6302SOL    HW119805   6.706   0.146   3.111
 6302SOL    HW219806   6.592   0.045   3.052
 6303SOL     OW19807   2.459   5.198   4.637
 6303SOL    HW119808   2.548   5.217   4.595
 6303SOL    HW219809   2.416   5.284   4.664
 6304SOL     OW19810   4.257   0.844   4.683
 6304SOL    HW119811   4.244   0.858   4.781
 6304SOL    HW219812   4.350   0.870   4.657
 6305SOL     OW19813   5.178   0.157   3.129
 6305SOL    HW119814   5.246   0.154   3.203
 6305SOL    HW219815   5.136   0.067   3.120
 6306SOL     OW19816   6.281   3.010   4.111
 6306SOL    HW119817   6.276   3.019   4.012
 6306SOL    HW219818   6.377   3.016   4.140
 6307SOL     OW19819   2.129   4.680   0.186
 6307SOL    HW119820   2.115   4.583   0.165
 6307SOL    HW219821   2.161   4.728   0.105
 6308SOL     OW19822   3.815   2.454   6.276
 6308SOL    HW119823   3.811   2.355   6.266
 6308SOL    HW219824   3.729   2.495   6.245
 6309SOL     OW19825   6.216   2.399   5.343
 6309SOL    HW119826   6.256   2.452   5.418
 6309SOL    HW219827   6.165   2.460   5.282
 6310SOL     OW19828   6.809   5.690   4.882
 6310SOL    HW119829   6.857   5.719   4.799
 6310SOL    HW219830   6.801   5.590   4.882
 6311SOL     OW19831   6.497   0.036   4.787
 6311SOL    HW119832   6.397   0.040   4.780
 6311SOL    HW219833   6.537   0.120   4.750
 6312SOL     OW19834   5.898   4.110   5.708
 6312SOL    HW119835   5.838   4.175   5.662
 6312SOL    HW219836   5.987   4.153   5.726
 6313SOL     OW19837   2.415   5.694   3.911
 6313SOL    HW119838   2.415   5.731   3.819
 6313SOL    HW219839   2.490   5.627   3.921
 6314SOL     OW19840   1.395   0.501   3.022
 6314SOL    HW119841   1.489   0.474   3.000
 6314SOL    HW219842   1.351   0.427   3.072
 6315SOL     OW19843   1.761   3.690   0.333
 6315SOL    HW119844   1.689   3.656   0.273
 6315SOL    HW219845   1.719   3.733   0.414
 6316SOL     OW19846   4.369   1.232   4.890
 6316SOL    HW119847   4.316   1.153   4.920
 6316SOL    HW219848   4.360   1.244   4.791
 6317SOL     OW19849   6.735   5.682   4.265
 6317SOL    HW119850   6.727   5.678   4.365
 6317SOL    HW219851   6.704   5.771   4.232
 6318SOL     OW19852   1.565   2.870   3.700
 6318SOL    HW119853   1.495   2.801   3.683
 6318SOL    HW219854   1.549   2.914   3.788
 6319SOL     OW19855   1.117   2.130   3.273
 6319SOL    HW119856   1.071   2.092   3.193
 6319SOL    HW219857   1.135   2.228   3.257
 6320SOL     OW19858   0.368   2.496   2.746
 6320SOL    HW119859   0.303   2.559   2.703
 6320SOL    HW219860   0.402   2.431   2.678
 6321SOL     OW19861   2.208   3.948   5.819
 6321SOL    HW119862   2.235   4.012   5.746
 6321SOL    HW219863   2.256   3.861   5.805
 6322SOL     OW19864   2.445   6.802   7.008
 6322SOL    HW119865   2.395   6.847   0.062
 6322SOL    HW219866   2.543   6.812   0.003
 6323SOL     OW19867   4.504   1.478   1.800
 6323SOL    HW119868   4.498   1.409   1.871
 6323SOL    HW219869   4.415   1.524   1.789
 6324SOL     OW19870   3.241   1.940   1.007
 6324SOL    HW119871   3.153   1.935   0.959
 6324SOL    HW219872   3.225   1.942   1.106
 6325SOL     OW19873   1.809   3.318   3.280
 6325SOL    HW119874   1.850   3.354   3.363
 6325SOL    HW219875   1.790   3.394   3.216
 6326SOL     OW19876   4.696   6.542   1.514
 6326SOL    HW119877   4.695   6.543   1.614
 6326SOL    HW219878   4.603   6.533   1.480
 6327SOL     OW19879   3.671   5.415   5.189
 6327SOL    HW119880   3.655   5.323   5.225
 6327SOL    HW219881   3.769   5.434   5.187
 6328SOL     OW19882   3.351   4.234   0.393
 6328SOL    HW119883   3.333   4.305   0.461
 6328SOL    HW219884   3.343   4.144   0.435
 6329SOL     OW19885   0.879   2.332   3.153
 6329SOL    HW119886   0.821   2.252   3.172
 6329SOL    HW219887   0.860   2.365   3.061
 6330SOL     OW19888   3.573   0.339   0.093
 6330SOL    HW119889   3.633   0.332   0.173
 6330SOL    HW219890   3.535   0.249   0.072
 6331SOL     OW19891   5.263   2.691   1.335
 6331SOL    HW119892   5.199   2.618   1.313
 6331SOL    HW219893   5.249   2.721   1.429
 6332SOL     OW19894   4.333   6.326   1.947
 6332SOL    HW119895   4.266   6.316   1.873
 6332SOL    HW219896   4.286   6.338   2.034
 6333SOL     OW19897   2.277   5.512   2.346
 6333SOL    HW119898   2.235   5.467   2.267
 6333SOL    HW219899   2.277   5.449   2.424
 6334SOL     OW19900   2.098   0.464   1.900
 6334SOL    HW119901   2.072   0.525   1.825
 6334SOL    HW219902   2.122   0.519   1.980
 6335SOL     OW19903   6.300   1.166   0.203
 6335SOL    HW119904   6.348   1.122   0.279
 6335SOL    HW219905   6.214   1.204   0.236
 6336SOL     OW19906   1.612   2.491   5.293
 6336SOL    HW119907   1.579   2.411   5.244
 6336SOL    HW219908   1.688   2.465   5.352
 6337SOL     OW19909   0.657   4.487   5.056
 6337SOL    HW119910   0.570   4.507   5.102
 6337SOL    HW219911   0.671   4.552   4.981
 6338SOL     OW19912   3.604   0.849   4.398
 6338SOL    HW119913   3.656   0.920   4.444
 6338SOL    HW219914   3.547   0.890   4.327
 6339SOL     OW19915   6.472   2.781   4.404
 6339SOL    HW119916   6.547   2.718   4.385
 6339SOL    HW219917   6.507   2.874   4.411
 6340SOL     OW19918   3.054   5.421   3.487
 6340SOL    HW119919   3.094   5.421   3.578
 6340SOL    HW219920   2.956   5.442   3.493
 6341SOL     OW19921   5.989   5.005   2.223
 6341SOL    HW119922   5.949   4.917   2.249
 6341SOL    HW219923   5.948   5.078   2.278
 6342SOL     OW19924   1.003   3.406   0.438
 6342SOL    HW119925   1.006   3.426   0.340
 6342SOL    HW219926   0.967   3.485   0.488
 6343SOL     OW19927   3.813   1.889   0.039
 6343SOL    HW119928   3.780   1.947   6.984
 6343SOL    HW219929   3.779   1.926   0.126
 6344SOL     OW19930   5.922   5.061   4.304
 6344SOL    HW119931   5.840   5.043   4.357
 6344SOL    HW219932   5.952   4.976   4.260
 6345SOL     OW19933   2.328   1.954   1.393
 6345SOL    HW119934   2.231   1.977   1.389
 6345SOL    HW219935   2.338   1.858   1.421
 6346SOL     OW19936   0.441   4.910   4.217
 6346SOL    HW119937   0.432   4.819   4.258
 6346SOL    HW219938   0.538   4.936   4.215
 6347SOL     OW19939   2.855   0.447   0.437
 6347SOL    HW119940   2.841   0.430   0.534
 6347SOL    HW219941   2.799   0.525   0.408
 6348SOL     OW19942   0.100   2.252   4.435
 6348SOL    HW119943   0.157   2.319   4.481
 6348SOL    HW219944   0.136   2.235   4.343
 6349SOL     OW19945   0.623   0.845   0.392
 6349SOL    HW119946   0.535   0.810   0.427
 6349SOL    HW219947   0.606   0.925   0.335
 6350SOL     OW19948   6.978   5.536   3.078
 6350SOL    HW119949   6.890   5.536   3.030
 6350SOL    HW219950   7.016   5.444   3.078
 6351SOL     OW19951   0.363   2.273   2.963
 6351SOL    HW119952   0.453   2.253   3.003
 6351SOL    HW219953   0.373   2.343   2.893
 6352SOL     OW19954   6.278   4.208   2.901
 6352SOL    HW119955   6.274   4.221   2.802
 6352SOL    HW219956   6.307   4.115   2.922
 6353SOL     OW19957   6.669   0.186   2.123
 6353SOL    HW119958   6.704   0.126   2.051
 6353SOL    HW219959   6.741   0.205   2.189
 6354SOL     OW19960   6.951   0.331   5.039
 6354SOL    HW119961   6.975   0.238   5.066
 6354SOL    HW219962   6.916   0.331   4.946
 6355SOL     OW19963   1.069   1.422   1.212
 6355SOL    HW119964   1.102   1.461   1.298
 6355SOL    HW219965   1.108   1.330   1.200
 6356SOL     OW19966   3.485   3.898   1.499
 6356SOL    HW119967   3.426   3.936   1.570
 6356SOL    HW219968   3.578   3.933   1.512
 6357SOL     OW19969   5.026   1.464   1.049
 6357SOL    HW119970   5.114   1.471   1.003
 6357SOL    HW219971   5.024   1.381   1.105
 6358SOL     OW19972   1.065   2.872   5.297
 6358SOL    HW119973   1.081   2.808   5.222
 6358SOL    HW219974   1.152   2.912   5.326
 6359SOL     OW19975   6.964   0.505   6.330
 6359SOL    HW119976   6.876   0.521   6.376
 6359SOL    HW219977   0.016   0.552   6.381
 6360SOL     OW19978   1.851   4.614   3.987
 6360SOL    HW119979   1.809   4.526   4.011
 6360SOL    HW219980   1.832   4.680   4.060
 6361SOL     OW19981   2.954   6.036   5.244
 6361SOL    HW119982   3.003   5.950   5.262
 6361SOL    HW219983   2.858   6.024   5.269
 6362SOL     OW19984   6.882   4.595   5.486
 6362SOL    HW119985   6.798   4.648   5.478
 6362SOL    HW219986   6.958   4.645   5.444
 6363SOL     OW19987   0.792   5.688   3.496
 6363SOL    HW119988   0.707   5.733   3.471
 6363SOL    HW219989   0.853   5.685   3.417
 6364SOL     OW19990   2.720   1.578   6.721
 6364SOL    HW119991   2.792   1.530   6.771
 6364SOL    HW219992   2.743   1.578   6.623
 6365SOL     OW19993   3.868   5.505   2.130
 6365SOL    HW119994   3.799   5.514   2.058
 6365SOL    HW219995   3.958   5.528   2.094
 6366SOL     OW19996   0.730   3.879   5.321
 6366SOL    HW119997   0.729   3.955   5.387
 6366SOL    HW219998   0.729   3.916   5.228
 6367SOL     OW19999   5.525   5.432   2.206
 6367SOL    HW120000   5.566   5.438   2.297
 6367SOL    HW220001   5.523   5.523   2.164
 6368SOL     OW20002   2.892   1.383   2.353
 6368SOL    HW120003   2.897   1.387   2.254
 6368SOL    HW220004   2.983   1.363   2.390
 6369SOL     OW20005   2.201   5.979   4.828
 6369SOL    HW120006   2.208   5.880   4.815
 6369SOL    HW220007   2.221   6.002   4.923
 6370SOL     OW20008   5.395   2.312   2.060
 6370SOL    HW120009   5.377   2.323   1.962
 6370SOL    HW220010   5.451   2.389   2.092
 6371SOL     OW20011   4.436   1.369   3.486
 6371SOL    HW120012   4.506   1.298   3.496
 6371SOL    HW220013   4.444   1.435   3.561
 6372SOL     OW20014   2.913   0.316   2.752
 6372SOL    HW120015   2.896   0.223   2.786
 6372SOL    HW220016   2.843   0.341   2.686
 6373SOL     OW20017   3.531   4.403   0.229
 6373SOL    HW120018   3.468   4.343   0.279
 6373SOL    HW220019   3.585   4.349   0.165
 6374SOL     OW20020   2.856   3.379   4.886
 6374SOL    HW120021   2.856   3.442   4.964
 6374SOL    HW220022   2.773   3.324   4.888
 6375SOL     OW20023   1.969   5.944   2.133
 6375SOL    HW120024   1.897   5.918   2.198
 6375SOL    HW220025   1.948   5.907   2.043
 6376SOL     OW20026   1.169   1.385   5.363
 6376SOL    HW120027   1.139   1.469   5.406
 6376SOL    HW220028   1.165   1.395   5.263
 6377SOL     OW20029   0.506   2.741   3.618
 6377SOL    HW120030   0.602   2.749   3.589
 6377SOL    HW220031   0.473   2.830   3.650
 6378SOL     OW20032   3.704   5.153   3.774
 6378SOL    HW120033   3.723   5.159   3.676
 6378SOL    HW220034   3.774   5.096   3.818
 6379SOL     OW20035   2.476   4.268   1.736
 6379SOL    HW120036   2.445   4.324   1.659
 6379SOL    HW220037   2.453   4.172   1.719
 6380SOL     OW20038   1.061   0.407   6.196
 6380SOL    HW120039   0.980   0.402   6.138
 6380SOL    HW220040   1.063   0.328   6.258
 6381SOL     OW20041   3.636   3.476   3.201
 6381SOL    HW120042   3.721   3.424   3.204
 6381SOL    HW220043   3.560   3.415   3.175
 6382SOL     OW20044   1.182   4.378   5.204
 6382SOL    HW120045   1.128   4.449   5.158
 6382SOL    HW220046   1.157   4.374   5.300
 6383SOL     OW20047   3.715   1.812   3.951
 6383SOL    HW120048   3.660   1.869   4.012
 6383SOL    HW220049   3.681   1.819   3.858
 6384SOL     OW20050   6.706   4.677   1.930
 6384SOL    HW120051   6.784   4.614   1.933
 6384SOL    HW220052   6.739   4.771   1.937
 6385SOL     OW20053   1.000   5.809   5.416
 6385SOL    HW120054   1.097   5.785   5.413
 6385SOL    HW220055   0.982   5.883   5.352
 6386SOL     OW20056   2.020   5.561   3.034
 6386SOL    HW120057   2.108   5.607   3.040
 6386SOL    HW220058   1.947   5.627   3.054
 6387SOL     OW20059   5.943   0.822   5.137
 6387SOL    HW120060   5.885   0.749   5.172
 6387SOL    HW220061   5.898   0.867   5.060
 6388SOL     OW20062   2.034   4.970   2.178
 6388SOL    HW120063   2.133   4.966   2.188
 6388SOL    HW220064   1.995   5.023   2.253
 6389SOL     OW20065   1.454   3.744   1.034
 6389SOL    HW120066   1.505   3.673   1.083
 6389SOL    HW220067   1.437   3.713   0.940
 6390SOL     OW20068   0.495   3.101   4.814
 6390SOL    HW120069   0.561   3.093   4.889
 6390SOL    HW220070   0.544   3.114   4.728
 6391SOL     OW20071   4.048   0.291   0.552
 6391SOL    HW120072   3.995   0.368   0.588
 6391SOL    HW220073   4.144   0.318   0.542
 6392SOL     OW20074   1.192   6.020   4.454
 6392SOL    HW120075   1.279   6.069   4.442
 6392SOL    HW220076   1.158   5.992   4.364
 6393SOL     OW20077   4.799   0.993   6.721
 6393SOL    HW120078   4.886   0.972   6.766
 6393SOL    HW220079   4.798   0.951   6.631
 6394SOL     OW20080   3.627   5.722   1.960
 6394SOL    HW120081   3.691   5.702   1.886
 6394SOL    HW220082   3.570   5.641   1.978
 6395SOL     OW20083   5.884   1.547   0.162
 6395SOL    HW120084   5.848   1.634   0.193
 6395SOL    HW220085   5.977   1.535   0.194
 6396SOL     OW20086   6.783   2.099   6.722
 6396SOL    HW120087   6.825   2.075   6.634
 6396SOL    HW220088   6.688   2.068   6.722
 6397SOL     OW20089   6.874   0.278   0.580
 6397SOL    HW120090   6.825   0.209   0.527
 6397SOL    HW220091   6.971   0.256   0.582
 6398SOL     OW20092   4.660   1.269   1.694
 6398SOL    HW120093   4.597   1.341   1.723
 6398SOL    HW220094   4.754   1.302   1.704
 6399SOL     OW20095   1.213   6.686   6.516
 6399SOL    HW120096   1.223   6.594   6.553
 6399SOL    HW220097   1.297   6.713   6.469
 6400SOL     OW20098   3.342   4.976   4.721
 6400SOL    HW120099   3.308   5.007   4.632
 6400SOL    HW220100   3.265   4.947   4.777
 6401SOL     OW20101   6.964   5.025   5.580
 6401SOL    HW120102   0.037   4.989   5.566
 6401SOL    HW220103   6.964   5.084   5.660
 6402SOL     OW20104   2.082   3.604   2.831
 6402SOL    HW120105   2.091   3.506   2.814
 6402SOL    HW220106   1.986   3.627   2.848
 6403SOL     OW20107   0.142   6.258   1.770
 6403SOL    HW120108   0.195   6.341   1.756
 6403SOL    HW220109   0.172   6.187   1.706
 6404SOL     OW20110   4.624   0.509   2.534
 6404SOL    HW120111   4.601   0.576   2.463
 6404SOL    HW220112   4.595   0.418   2.505
 6405SOL     OW20113   3.699   6.782   1.778
 6405SOL    HW120114   3.785   6.760   1.732
 6405SOL    HW220115   3.657   6.861   1.733
 6406SOL     OW20116   2.290   2.257   3.416
 6406SOL    HW120117   2.296   2.158   3.419
 6406SOL    HW220118   2.215   2.287   3.475
 6407SOL     OW20119   5.093   6.437   6.972
 6407SOL    HW120120   5.087   6.406   6.877
 6407SOL    HW220121   5.189   6.438   7.001
 6408SOL     OW20122   6.345   2.464   1.099
 6408SOL    HW120123   6.334   2.418   1.187
 6408SOL    HW220124   6.273   2.533   1.088
 6409SOL     OW20125   1.076   5.082   1.623
 6409SOL    HW120126   1.030   4.997   1.649
 6409SOL    HW220127   1.134   5.113   1.698
 6410SOL     OW20128   6.856   7.005   1.154
 6410SOL    HW120129   6.788   6.936   1.179
 6410SOL    HW220130   6.891   0.029   1.236
 6411SOL     OW20131   1.857   1.894   3.135
 6411SOL    HW120132   1.918   1.902   3.056
 6411SOL    HW220133   1.810   1.806   3.132
 6412SOL     OW20134   5.735   2.352   5.104
 6412SOL    HW120135   5.782   2.303   5.177
 6412SOL    HW220136   5.743   2.450   5.118
 6413SOL     OW20137   0.437   5.323   0.646
 6413SOL    HW120138   0.433   5.388   0.722
 6413SOL    HW220139   0.362   5.258   0.654
 6414SOL     OW20140   6.466   0.323   3.619
 6414SOL    HW120141   6.413   0.314   3.703
 6414SOL    HW220142   6.564   0.317   3.640
 6415SOL     OW20143   1.294   1.802   2.206
 6415SOL    HW120144   1.207   1.840   2.175
 6415SOL    HW220145   1.336   1.750   2.132
 6416SOL     OW20146   3.154   6.166   6.714
 6416SOL    HW120147   3.244   6.209   6.712
 6416SOL    HW220148   3.083   6.236   6.714
 6417SOL     OW20149   6.890   6.096   4.457
 6417SOL    HW120150   6.846   6.183   4.434
 6417SOL    HW220151   6.906   6.044   4.373
 6418SOL     OW20152   6.661   5.078   2.371
 6418SOL    HW120153   6.574   5.036   2.398
 6418SOL    HW220154   6.709   5.018   2.308
 6419SOL     OW20155   2.893   2.366   0.505
 6419SOL    HW120156   2.968   2.419   0.467
 6419SOL    HW220157   2.866   2.405   0.594
 6420SOL     OW20158   0.816   1.959   0.256
 6420SOL    HW120159   0.864   1.933   0.339
 6420SOL    HW220160   0.794   1.877   0.203
 6421SOL     OW20161   5.821   1.577   0.507
 6421SOL    HW120162   5.805   1.675   0.513
 6421SOL    HW220163   5.853   1.542   0.595
 6422SOL     OW20164   5.274   2.430   3.049
 6422SOL    HW120165   5.271   2.331   3.060
 6422SOL    HW220166   5.339   2.455   2.977
 6423SOL     OW20167   5.404   3.720   0.723
 6423SOL    HW120168   5.385   3.682   0.632
 6423SOL    HW220169   5.394   3.819   0.720
 6424SOL     OW20170   6.278   3.660   5.124
 6424SOL    HW120171   6.248   3.755   5.109
 6424SOL    HW220172   6.378   3.656   5.117
 6425SOL     OW20173   1.044   5.353   0.781
 6425SOL    HW120174   0.990   5.289   0.836
 6425SOL    HW220175   1.122   5.385   0.836
 6426SOL     OW20176   6.510   3.578   3.409
 6426SOL    HW120177   6.459   3.637   3.471
 6426SOL    HW220178   6.485   3.600   3.314
 6427SOL     OW20179   1.157   3.664   5.937
 6427SOL    HW120180   1.062   3.695   5.933
 6427SOL    HW220181   1.161   3.566   5.919
 6428SOL     OW20182   6.336   3.962   5.594
 6428SOL    HW120183   6.279   3.884   5.617
 6428SOL    HW220184   6.284   4.026   5.537
 6429SOL     OW20185   1.204   0.616   5.244
 6429SOL    HW120186   1.300   0.636   5.224
 6429SOL    HW220187   1.169   0.680   5.312
 6430SOL     OW20188   6.425   3.301   6.980
 6430SOL    HW120189   6.494   3.232   6.955
 6430SOL    HW220190   6.340   3.255   7.005
 6431SOL     OW20191   5.562   1.387   2.165
 6431SOL    HW120192   5.541   1.289   2.164
 6431SOL    HW220193   5.572   1.418   2.260
 6432SOL     OW20194   6.558   3.891   0.771
 6432SOL    HW120195   6.649   3.902   0.811
 6432SOL    HW220196   6.564   3.898   0.671
 6433SOL     OW20197   2.134   3.249   1.668
 6433SOL    HW120198   2.084   3.232   1.583
 6433SOL    HW220199   2.229   3.219   1.656
 6434SOL     OW20200   1.939   6.109   0.758
 6434SOL    HW120201   1.968   6.138   0.849
 6434SOL    HW220202   1.890   6.022   0.765
 6435SOL     OW20203   6.137   3.516   0.629
 6435SOL    HW120204   6.233   3.509   0.604
 6435SOL    HW220205   6.124   3.493   0.725
 6436SOL     OW20206   2.979   2.332   0.940
 6436SOL    HW120207   2.913   2.397   0.901
 6436SOL    HW220208   3.062   2.330   0.883
 6437SOL     OW20209   6.956   1.054   2.000
 6437SOL    HW120210   6.962   1.012   2.090
 6437SOL    HW220211   7.016   1.005   1.936
 6438SOL     OW20212   0.625   3.767   4.220
 6438SOL    HW120213   0.660   3.784   4.128
 6438SOL    HW220214   0.674   3.825   4.285
 6439SOL     OW20215   0.114   6.194   2.588
 6439SOL    HW120216   0.075   6.107   2.557
 6439SOL    HW220217   0.146   6.246   2.509
 6440SOL     OW20218   0.706   0.454   2.252
 6440SOL    HW120219   0.704   0.483   2.156
 6440SOL    HW220220   0.622   0.405   2.273
 6441SOL     OW20221   5.251   2.164   3.092
 6441SOL    HW120222   5.315   2.100   3.134
 6441SOL    HW220223   5.158   2.130   3.102
 6442SOL     OW20224   1.400   2.002   3.629
 6442SOL    HW120225   1.407   2.034   3.724
 6442SOL    HW220226   1.305   1.976   3.609
 6443SOL     OW20227   2.447   0.747   0.958
 6443SOL    HW120228   2.439   0.706   1.049
 6443SOL    HW220229   2.544   0.760   0.936
 6444SOL     OW20230   0.749   1.288   2.578
 6444SOL    HW120231   0.688   1.265   2.502
 6444SOL    HW220232   0.696   1.327   2.653
 6445SOL     OW20233   3.442   4.318   6.240
 6445SOL    HW120234   3.383   4.249   6.198
 6445SOL    HW220235   3.419   4.408   6.204
 6446SOL     OW20236   0.430   1.099   1.339
 6446SOL    HW120237   0.496   1.144   1.279
 6446SOL    HW220238   0.352   1.159   1.356
 6447SOL     OW20239   1.812   1.167   3.300
 6447SOL    HW120240   1.846   1.139   3.389
 6447SOL    HW220241   1.748   1.243   3.311
 6448SOL     OW20242   6.243   2.091   2.081
 6448SOL    HW120243   6.182   2.140   2.143
 6448SOL    HW220244   6.237   2.131   1.989
 6449SOL     OW20245   4.843   2.436   0.365
 6449SOL    HW120246   4.833   2.529   0.400
 6449SOL    HW220247   4.932   2.400   0.393
 6450SOL     OW20248   6.579   2.473   0.333
 6450SOL    HW120249   6.505   2.515   0.279
 6450SOL    HW220250   6.603   2.385   0.293
 6451SOL     OW20251   2.970   6.412   4.743
 6451SOL    HW120252   3.046   6.374   4.795
 6451SOL    HW220253   2.886   6.405   4.796
 6452SOL     OW20254   3.736   6.062   4.649
 6452SOL    HW120255   3.641   6.034   4.662
 6452SOL    HW220256   3.775   6.013   4.572
 6453SOL     OW20257   2.528   5.100   6.670
 6453SOL    HW120258   2.583   5.182   6.685
 6453SOL    HW220259   2.562   5.027   6.730
 6454SOL     OW20260   3.661   0.864   5.065
 6454SOL    HW120261   3.748   0.832   5.103
 6454SOL    HW220262   3.668   0.960   5.039
 6455SOL     OW20263   5.989   3.400   0.130
 6455SOL    HW120264   5.966   3.333   0.059
 6455SOL    HW220265   5.977   3.492   0.094
 6456SOL     OW20266   6.499   1.860   4.259
 6456SOL    HW120267   6.543   1.941   4.298
 6456SOL    HW220268   6.409   1.886   4.224
 6457SOL     OW20269   5.705   3.040   1.632
 6457SOL    HW120270   5.720   2.943   1.617
 6457SOL    HW220271   5.708   3.060   1.730
 6458SOL     OW20272   1.468   5.727   3.638
 6458SOL    HW120273   1.542   5.741   3.704
 6458SOL    HW220274   1.455   5.629   3.624
 6459SOL     OW20275   5.747   4.082   6.871
 6459SOL    HW120276   5.814   4.024   6.918
 6459SOL    HW220277   5.774   4.178   6.879
 6460SOL     OW20278   3.846   5.027   1.867
 6460SOL    HW120279   3.875   4.940   1.907
 6460SOL    HW220280   3.908   5.051   1.792
 6461SOL     OW20281   3.105   5.708   4.206
 6461SOL    HW120282   3.128   5.795   4.250
 6461SOL    HW220283   3.187   5.652   4.197
 6462SOL     OW20284   1.723   4.287   2.599
 6462SOL    HW120285   1.730   4.218   2.671
 6462SOL    HW220286   1.809   4.339   2.595
 6463SOL     OW20287   2.025   3.186   5.771
 6463SOL    HW120288   1.987   3.278   5.780
 6463SOL    HW220289   1.978   3.137   5.699
 6464SOL     OW20290   0.731   5.053   1.903
 6464SOL    HW120291   0.710   5.012   1.815
 6464SOL    HW220292   0.651   5.104   1.936
 6465SOL     OW20293   6.575   0.060   3.361
 6465SOL    HW120294   6.598   0.104   3.275
 6465SOL    HW220295   6.626   0.103   3.435
 6466SOL     OW20296   6.262   2.883   4.670
 6466SOL    HW120297   6.300   2.972   4.646
 6466SOL    HW220298   6.228   2.838   4.587
 6467SOL     OW20299   3.958   0.205   6.090
 6467SOL    HW120300   3.924   0.222   6.183
 6467SOL    HW220301   4.056   0.226   6.086
 6468SOL     OW20302   6.212   4.620   2.518
 6468SOL    HW120303   6.300   4.665   2.537
 6468SOL    HW220304   6.138   4.683   2.540
 6469SOL     OW20305   6.064   2.400   5.970
 6469SOL    HW120306   6.001   2.471   6.002
 6469SOL    HW220307   6.135   2.385   6.038
 6470SOL     OW20308   6.496   6.553   4.826
 6470SOL    HW120309   6.437   6.492   4.879
 6470SOL    HW220310   6.446   6.589   4.747
 6471SOL     OW20311   6.728   6.993   4.963
 6471SOL    HW120312   6.730   0.025   5.048
 6471SOL    HW220313   6.636   6.994   4.925
 6472SOL     OW20314   1.541   6.929   2.099
 6472SOL    HW120315   1.498   7.017   2.080
 6472SOL    HW220316   1.548   6.877   2.013
 6473SOL     OW20317   2.225   1.626   5.594
 6473SOL    HW120318   2.269   1.674   5.518
 6473SOL    HW220319   2.223   1.528   5.575
 6474SOL     OW20320   1.972   3.131   6.866
 6474SOL    HW120321   1.897   3.140   6.932
 6474SOL    HW220322   2.014   3.041   6.876
 6475SOL     OW20323   4.054   5.402   3.679
 6475SOL    HW120324   4.029   5.444   3.766
 6475SOL    HW220325   4.016   5.310   3.674
 6476SOL     OW20326   4.812   6.059   2.970
 6476SOL    HW120327   4.848   6.033   2.880
 6476SOL    HW220328   4.810   6.158   2.978
 6477SOL     OW20329   6.468   5.962   0.327
 6477SOL    HW120330   6.424   5.918   0.405
 6477SOL    HW220331   6.514   5.893   0.271
 6478SOL     OW20332   4.181   6.104   1.102
 6478SOL    HW120333   4.264   6.110   1.047
 6478SOL    HW220334   4.205   6.078   1.195
 6479SOL     OW20335   3.099   5.693   2.589
 6479SOL    HW120336   3.043   5.729   2.514
 6479SOL    HW220337   3.163   5.626   2.554
 6480SOL     OW20338   2.287   1.030   0.758
 6480SOL    HW120339   2.288   1.087   0.676
 6480SOL    HW220340   2.214   1.060   0.819
 6481SOL     OW20341   4.653   0.723   1.018
 6481SOL    HW120342   4.676   0.770   0.933
 6481SOL    HW220343   4.556   0.701   1.019
 6482SOL     OW20344   7.011   0.571   5.570
 6482SOL    HW120345   0.009   0.603   5.663
 6482SOL    HW220346   6.955   0.488   5.574
 6483SOL     OW20347   1.303   5.452   1.337
 6483SOL    HW120348   1.223   5.423   1.285
 6483SOL    HW220349   1.278   5.468   1.432
 6484SOL     OW20350   4.510   0.316   3.153
 6484SOL    HW120351   4.453   0.305   3.235
 6484SOL    HW220352   4.454   0.301   3.071
 6485SOL     OW20353   6.556   2.569   2.008
 6485SOL    HW120354   6.510   2.648   2.048
 6485SOL    HW220355   6.520   2.485   2.048
 6486SOL     OW20356   1.316   2.992   3.094
 6486SOL    HW120357   1.312   2.935   3.011
 6486SOL    HW220358   1.353   2.939   3.169
 6487SOL     OW20359   6.075   5.618   3.346
 6487SOL    HW120360   6.032   5.569   3.422
 6487SOL    HW220361   6.013   5.619   3.268
 6488SOL     OW20362   3.360   5.230   4.236
 6488SOL    HW120363   3.429   5.289   4.194
 6488SOL    HW220364   3.369   5.234   4.336
 6489SOL     OW20365   3.011   0.925   6.381
 6489SOL    HW120366   3.020   0.996   6.311
 6489SOL    HW220367   3.067   0.846   6.355
 6490SOL     OW20368   4.499   0.842   0.035
 6490SOL    HW120369   4.559   0.779   7.007
 6490SOL    HW220370   4.547   0.882   0.113
 6491SOL     OW20371   4.810   1.062   5.732
 6491SOL    HW120372   4.736   1.091   5.672
 6491SOL    HW220373   4.846   1.142   5.780
 6492SOL     OW20374   5.674   5.119   6.044
 6492SOL    HW120375   5.733   5.043   6.015
 6492SOL    HW220376   5.578   5.092   6.037
 6493SOL     OW20377   6.892   6.682   5.451
 6493SOL    HW120378   6.918   6.703   5.546
 6493SOL    HW220379   6.821   6.745   5.421
 6494SOL     OW20380   0.217   2.892   3.262
 6494SOL    HW120381   0.298   2.942   3.292
 6494SOL    HW220382   0.229   2.863   3.167
 6495SOL     OW20383   5.590   4.465   2.216
 6495SOL    HW120384   5.590   4.541   2.280
 6495SOL    HW220385   5.514   4.474   2.152
 6496SOL     OW20386   0.113   6.445   3.701
 6496SOL    HW120387   0.103   6.500   3.618
 6496SOL    HW220388   0.159   6.359   3.677
 6497SOL     OW20389   1.156   0.201   1.500
 6497SOL    HW120390   1.199   0.183   1.589
 6497SOL    HW220391   1.222   0.183   1.427
 6498SOL     OW20392   1.215   3.896   4.399
 6498SOL    HW120393   1.125   3.909   4.441
 6498SOL    HW220394   1.263   3.823   4.447
 6499SOL     OW20395   6.247   1.272   2.961
 6499SOL    HW120396   6.174   1.231   2.906
 6499SOL    HW220397   6.244   1.371   2.951
 6500SOL     OW20398   5.665   4.766   1.980
 6500SOL    HW120399   5.595   4.697   1.996
 6500SOL    HW220400   5.752   4.736   2.020
 6501SOL     OW20401   6.432   4.333   0.654
 6501SOL    HW120402   6.388   4.311   0.567
 6501SOL    HW220403   6.362   4.346   0.724
 6502SOL     OW20404   0.392   5.514   1.820
 6502SOL    HW120405   0.416   5.529   1.724
 6502SOL    HW220406   0.472   5.533   1.878
 6503SOL     OW20407   3.941   0.319   3.941
 6503SOL    HW120408   3.902   0.263   4.014
 6503SOL    HW220409   3.878   0.322   3.863
 6504SOL     OW20410   2.222   2.518   0.150
 6504SOL    HW120411   2.167   2.567   0.218
 6504SOL    HW220412   2.195   2.547   0.058
 6505SOL     OW20413   5.444   5.180   0.650
 6505SOL    HW120414   5.483   5.173   0.742
 6505SOL    HW220415   5.499   5.243   0.595
 6506SOL     OW20416   2.097   1.407   1.896
 6506SOL    HW120417   2.143   1.482   1.943
 6506SOL    HW220418   2.110   1.322   1.947
 6507SOL     OW20419   2.920   0.689   1.462
 6507SOL    HW120420   2.983   0.751   1.508
 6507SOL    HW220421   2.859   0.741   1.403
 6508SOL     OW20422   1.046   3.066   1.695
 6508SOL    HW120423   1.113   3.031   1.628
 6508SOL    HW220424   1.093   3.091   1.779
 6509SOL     OW20425   1.556   2.996   3.980
 6509SOL    HW120426   1.619   3.045   4.041
 6509SOL    HW220427   1.474   2.970   4.032
 6510SOL     OW20428   6.245   4.136   6.379
 6510SOL    HW120429   6.265   4.225   6.338
 6510SOL    HW220430   6.292   4.064   6.326
 6511SOL     OW20431   6.505   6.778   6.123
 6511SOL    HW120432   6.569   6.705   6.146
 6511SOL    HW220433   6.550   6.844   6.063
 6512SOL     OW20434   5.381   6.570   4.620
 6512SOL    HW120435   5.302   6.513   4.642
 6512SOL    HW220436   5.450   6.560   4.691
 6513SOL     OW20437   1.279   6.873   3.571
 6513SOL    HW120438   1.256   6.813   3.647
 6513SOL    HW220439   1.218   6.853   3.493
 6514SOL     OW20440   2.631   0.752   4.070
 6514SOL    HW120441   2.704   0.738   4.004
 6514SOL    HW220442   2.667   0.743   4.162
 6515SOL     OW20443   1.394   1.136   3.432
 6515SOL    HW120444   1.444   1.083   3.364
 6515SOL    HW220445   1.445   1.135   3.518
 6516SOL     OW20446   2.185   1.340   5.934
 6516SOL    HW120447   2.234   1.416   5.890
 6516SOL    HW220448   2.089   1.343   5.905
 6517SOL     OW20449   2.767   2.165   0.980
 6517SOL    HW120450   2.795   2.072   0.957
 6517SOL    HW220451   2.835   2.230   0.948
 6518SOL     OW20452   5.650   6.037   1.251
 6518SOL    HW120453   5.687   6.064   1.341
 6518SOL    HW220454   5.720   5.988   1.199
 6519SOL     OW20455   0.253   2.003   3.796
 6519SOL    HW120456   0.316   2.079   3.784
 6519SOL    HW220457   0.260   1.941   3.718
 6520SOL     OW20458   5.912   5.398   0.938
 6520SOL    HW120459   5.967   5.471   0.898
 6520SOL    HW220460   5.815   5.422   0.933
 6521SOL     OW20461   1.454   2.383   5.906
 6521SOL    HW120462   1.415   2.307   5.853
 6521SOL    HW220463   1.533   2.421   5.857
 6522SOL     OW20464   2.621   4.554   4.245
 6522SOL    HW120465   2.667   4.551   4.156
 6522SOL    HW220466   2.627   4.646   4.283
 6523SOL     OW20467   2.471   2.405   0.794
 6523SOL    HW120468   2.489   2.482   0.733
 6523SOL    HW220469   2.495   2.431   0.888
 6524SOL     OW20470   3.896   2.410   5.465
 6524SOL    HW120471   3.918   2.488   5.523
 6524SOL    HW220472   3.824   2.356   5.509
 6525SOL     OW20473   0.366   2.312   4.549
 6525SOL    HW120474   0.361   2.212   4.546
 6525SOL    HW220475   0.458   2.342   4.526
 6526SOL     OW20476   1.499   5.734   3.120
 6526SOL    HW120477   1.522   5.740   3.217
 6526SOL    HW220478   1.583   5.743   3.065
 6527SOL     OW20479   2.035   1.238   4.861
 6527SOL    HW120480   1.982   1.173   4.807
 6527SOL    HW220481   2.021   1.221   4.958
 6528SOL     OW20482   6.963   0.720   2.945
 6528SOL    HW120483   6.936   0.719   3.041
 6528SOL    HW220484   6.976   0.626   2.913
 6529SOL     OW20485   5.823   3.204   2.424
 6529SOL    HW120486   5.905   3.239   2.470
 6529SOL    HW220487   5.831   3.220   2.325
 6530SOL     OW20488   0.212   0.988   0.402
 6530SOL    HW120489   0.165   1.000   0.489
 6530SOL    HW220490   0.290   1.051   0.398
 6531SOL     OW20491   5.086   2.161   5.727
 6531SOL    HW120492   5.017   2.093   5.705
 6531SOL    HW220493   5.157   2.119   5.785
 6532SOL     OW20494   1.449   1.430   6.513
 6532SOL    HW120495   1.377   1.475   6.565
 6532SOL    HW220496   1.484   1.352   6.566
 6533SOL     OW20497   5.157   0.344   0.395
 6533SOL    HW120498   5.148   0.299   0.307
 6533SOL    HW220499   5.253   0.360   0.415
 6534SOL     OW20500   4.034   2.622   6.713
 6534SOL    HW120501   4.111   2.629   6.776
 6534SOL    HW220502   4.067   2.635   6.619
 6535SOL     OW20503   1.956   2.924   5.053
 6535SOL    HW120504   2.002   2.906   5.140
 6535SOL    HW220505   1.968   2.846   4.992
 6536SOL     OW20506   0.459   1.516   0.748
 6536SOL    HW120507   0.544   1.477   0.711
 6536SOL    HW220508   0.479   1.604   0.790
 6537SOL     OW20509   0.278   0.717   6.463
 6537SOL    HW120510   0.289   0.814   6.488
 6537SOL    HW220511   0.218   0.672   6.529
 6538SOL     OW20512   3.007   2.501   5.671
 6538SOL    HW120513   3.004   2.556   5.588
 6538SOL    HW220514   2.925   2.520   5.726
 6539SOL     OW20515   3.376   1.670   6.958
 6539SOL    HW120516   3.311   1.704   0.006
 6539SOL    HW220517   3.466   1.662   7.001
 6540SOL     OW20518   4.161   2.029   3.164
 6540SOL    HW120519   4.218   2.078   3.098
 6540SOL    HW220520   4.184   1.932   3.163
 6541SOL     OW20521   3.034   2.005   5.214
 6541SOL    HW120522   3.034   2.100   5.244
 6541SOL    HW220523   2.997   1.947   5.286
 6542SOL     OW20524   4.491   4.701   3.133
 6542SOL    HW120525   4.559   4.675   3.065
 6542SOL    HW220526   4.475   4.800   3.129
 6543SOL     OW20527   1.487   6.657   6.443
 6543SOL    HW120528   1.541   6.661   6.527
 6543SOL    HW220529   1.505   6.570   6.397
 6544SOL     OW20530   0.712   4.917   2.684
 6544SOL    HW120531   0.746   5.011   2.679
 6544SOL    HW220532   0.789   4.854   2.687
 6545SOL     OW20533   6.189   2.428   6.431
 6545SOL    HW120534   6.186   2.393   6.525
 6545SOL    HW220535   6.099   2.416   6.388
 6546SOL     OW20536   3.020   4.769   6.422
 6546SOL    HW120537   3.077   4.737   6.347
 6546SOL    HW220538   2.928   4.730   6.413
 6547SOL     OW20539   4.008   1.263   6.082
 6547SOL    HW120540   4.107   1.258   6.094
 6547SOL    HW220541   3.986   1.261   5.984
 6548SOL     OW20542   5.005   3.655   5.546
 6548SOL    HW120543   4.922   3.634   5.598
 6548SOL    HW220544   5.070   3.702   5.605
 6549SOL     OW20545   2.495   2.353   2.116
 6549SOL    HW120546   2.481   2.417   2.041
 6549SOL    HW220547   2.568   2.289   2.093
 6550SOL     OW20548   1.079   6.023   2.330
 6550SOL    HW120549   1.133   5.995   2.251
 6550SOL    HW220550   0.999   5.964   2.338
 6551SOL     OW20551   3.108   5.444   2.223
 6551SOL    HW120552   3.097   5.429   2.322
 6551SOL    HW220553   3.020   5.467   2.182
 6552SOL     OW20554   4.427   4.824   5.575
 6552SOL    HW120555   4.471   4.780   5.497
 6552SOL    HW220556   4.494   4.879   5.625
 6553SOL     OW20557   6.703   3.418   3.152
 6553SOL    HW120558   6.644   3.471   3.091
 6553SOL    HW220559   6.714   3.466   3.239
 6554SOL     OW20560   6.383   3.127   4.626
 6554SOL    HW120561   6.452   3.154   4.693
 6554SOL    HW220562   6.398   3.175   4.540
 6555SOL     OW20563   0.639   1.554   1.747
 6555SOL    HW120564   0.558   1.612   1.746
 6555SOL    HW220565   0.624   1.475   1.687
 6556SOL     OW20566   3.391   0.031   3.198
 6556SOL    HW120567   3.467   0.047   3.261
 6556SOL    HW220568   3.415   0.067   3.108
 6557SOL     OW20569   5.265   6.107   0.395
 6557SOL    HW120570   5.189   6.044   0.413
 6557SOL    HW220571   5.252   6.151   0.306
 6558SOL     OW20572   6.280   6.876   6.261
 6558SOL    HW120573   6.267   6.858   6.359
 6558SOL    HW220574   6.352   6.816   6.226
 6559SOL     OW20575   2.958   3.816   0.880
 6559SOL    HW120576   3.002   3.898   0.917
 6559SOL    HW220577   3.027   3.750   0.853
 6560SOL     OW20578   4.806   1.768   0.844
 6560SOL    HW120579   4.749   1.828   0.788
 6560SOL    HW220580   4.749   1.722   0.913
 6561SOL     OW20581   3.569   3.249   4.506
 6561SOL    HW120582   3.587   3.330   4.449
 6561SOL    HW220583   3.653   3.221   4.552
 6562SOL     OW20584   0.206   4.352   5.069
 6562SOL    HW120585   0.108   4.336   5.055
 6562SOL    HW220586   0.252   4.264   5.083
 6563SOL     OW20587   0.944   6.288   2.389
 6563SOL    HW120588   1.003   6.211   2.363
 6563SOL    HW220589   0.873   6.300   2.321
 6564SOL     OW20590   1.920   5.175   2.982
 6564SOL    HW120591   1.869   5.105   3.032
 6564SOL    HW220592   2.017   5.168   3.004
 6565SOL     OW20593   6.836   3.317   5.308
 6565SOL    HW120594   6.841   3.341   5.405
 6565SOL    HW220595   6.929   3.316   5.269
 6566SOL     OW20596   4.133   1.232   0.777
 6566SOL    HW120597   4.182   1.297   0.835
 6566SOL    HW220598   4.046   1.208   0.820
 6567SOL     OW20599   6.856   2.532   0.824
 6567SOL    HW120600   6.923   2.584   0.772
 6567SOL    HW220601   6.769   2.532   0.774
 6568SOL     OW20602   5.279   3.442   1.439
 6568SOL    HW120603   5.273   3.431   1.538
 6568SOL    HW220604   5.363   3.489   1.415
 6569SOL     OW20605   1.207   4.038   5.523
 6569SOL    HW120606   1.262   3.961   5.556
 6569SOL    HW220607   1.238   4.122   5.568
 6570SOL     OW20608   0.277   3.937   2.161
 6570SOL    HW120609   0.212   3.990   2.214
 6570SOL    HW220610   0.234   3.852   2.131
 6571SOL     OW20611   2.049   5.077   4.188
 6571SOL    HW120612   2.066   5.163   4.236
 6571SOL    HW220613   1.976   5.090   4.121
 6572SOL     OW20614   1.563   3.780   5.239
 6572SOL    HW120615   1.497   3.705   5.249
 6572SOL    HW220616   1.521   3.854   5.186
 6573SOL     OW20617   1.516   2.188   1.337
 6573SOL    HW120618   1.499   2.215   1.242
 6573SOL    HW220619   1.435   2.209   1.392
 6574SOL     OW20620   2.088   4.767   4.457
 6574SOL    HW120621   2.142   4.716   4.390
 6574SOL    HW220622   2.118   4.862   4.458
 6575SOL     OW20623   1.593   1.515   2.585
 6575SOL    HW120624   1.520   1.475   2.640
 6575SOL    HW220625   1.664   1.551   2.645
 6576SOL     OW20626   0.592   5.375   4.243
 6576SOL    HW120627   0.501   5.350   4.212
 6576SOL    HW220628   0.620   5.460   4.200
 6577SOL     OW20629   0.642   3.904   5.797
 6577SOL    HW120630   0.681   3.814   5.777
 6577SOL    HW220631   0.656   3.926   5.894
 6578SOL     OW20632   6.084   6.013   4.022
 6578SOL    HW120633   6.096   5.917   3.997
 6578SOL    HW220634   6.162   6.066   3.988
 6579SOL     OW20635   0.056   3.809   3.801
 6579SOL    HW120636   0.030   3.766   3.888
 6579SOL    HW220637   0.093   3.900   3.819
 6580SOL     OW20638   5.922   2.381   0.675
 6580SOL    HW120639   5.846   2.423   0.626
 6580SOL    HW220640   6.008   2.400   0.628
 6581SOL     OW20641   2.636   2.114   5.437
 6581SOL    HW120642   2.687   2.108   5.523
 6581SOL    HW220643   2.538   2.116   5.457
 6582SOL     OW20644   6.076   0.464   2.773
 6582SOL    HW120645   5.993   0.415   2.749
 6582SOL    HW220646   6.141   0.459   2.698
 6583SOL     OW20647   6.264   0.691   6.203
 6583SOL    HW120648   6.258   0.720   6.107
 6583SOL    HW220649   6.332   0.619   6.212
 6584SOL     OW20650   6.070   2.218   0.370
 6584SOL    HW120651   5.987   2.249   0.416
 6584SOL    HW220652   6.150   2.257   0.416
 6585SOL     OW20653   2.300   0.665   2.749
 6585SOL    HW120654   2.382   0.608   2.755
 6585SOL    HW220655   2.308   0.727   2.671
 6586SOL     OW20656   5.650   0.922   6.744
 6586SOL    HW120657   5.721   0.852   6.742
 6586SOL    HW220658   5.636   0.952   6.839
 6587SOL     OW20659   1.467   5.620   1.907
 6587SOL    HW120660   1.478   5.708   1.954
 6587SOL    HW220661   1.550   5.565   1.919
 6588SOL     OW20662   3.568   3.340   0.335
 6588SOL    HW120663   3.547   3.271   0.404
 6588SOL    HW220664   3.605   3.422   0.380
 6589SOL     OW20665   4.858   1.691   5.986
 6589SOL    HW120666   4.919   1.646   6.051
 6589SOL    HW220667   4.910   1.757   5.932
 6590SOL     OW20668   6.548   1.845   5.494
 6590SOL    HW120669   6.462   1.800   5.470
 6590SOL    HW220670   6.625   1.798   5.450
 6591SOL     OW20671   4.890   0.377   2.610
 6591SOL    HW120672   4.902   0.342   2.518
 6591SOL    HW220673   4.805   0.429   2.616
 6592SOL     OW20674   5.595   4.863   5.475
 6592SOL    HW120675   5.571   4.902   5.564
 6592SOL    HW220676   5.525   4.887   5.408
 6593SOL     OW20677   5.561   0.986   2.836
 6593SOL    HW120678   5.569   0.931   2.920
 6593SOL    HW220679   5.466   1.010   2.821
 6594SOL     OW20680   5.487   0.689   6.758
 6594SOL    HW120681   5.547   0.625   6.710
 6594SOL    HW220682   5.496   0.780   6.717
 6595SOL     OW20683   3.773   2.980   5.993
 6595SOL    HW120684   3.695   2.950   6.046
 6595SOL    HW220685   3.752   3.067   5.948
 6596SOL     OW20686   2.310   5.380   4.780
 6596SOL    HW120687   2.227   5.428   4.749
 6596SOL    HW220688   2.284   5.311   4.848
 6597SOL     OW20689   0.172   4.450   0.192
 6597SOL    HW120690   0.175   4.452   0.092
 6597SOL    HW220691   0.105   4.382   0.222
 6598SOL     OW20692   3.159   6.187   4.050
 6598SOL    HW120693   3.177   6.253   4.123
 6598SOL    HW220694   3.201   6.099   4.072
 6599SOL     OW20695   4.245   3.578   6.061
 6599SOL    HW120696   4.180   3.622   5.998
 6599SOL    HW220697   4.218   3.483   6.077
 6600SOL     OW20698   4.346   4.811   4.929
 6600SOL    HW120699   4.333   4.713   4.945
 6600SOL    HW220700   4.441   4.829   4.906
 6601SOL     OW20701   1.135   1.028   2.369
 6601SOL    HW120702   1.140   1.029   2.469
 6601SOL    HW220703   1.202   1.092   2.331
 6602SOL     OW20704   5.693   1.375   1.215
 6602SOL    HW120705   5.695   1.404   1.311
 6602SOL    HW220706   5.750   1.294   1.203
 6603SOL     OW20707   3.040   2.212   1.218
 6603SOL    HW120708   3.012   2.224   1.122
 6603SOL    HW220709   3.100   2.133   1.225
 6604SOL     OW20710   4.354   5.199   5.194
 6604SOL    HW120711   4.305   5.123   5.151
 6604SOL    HW220712   4.333   5.283   5.145
 6605SOL     OW20713   4.988   5.832   1.070
 6605SOL    HW120714   4.952   5.874   0.987
 6605SOL    HW220715   5.013   5.904   1.136
 6606SOL     OW20716   0.610   3.018   2.979
 6606SOL    HW120717   0.620   2.931   3.027
 6606SOL    HW220718   0.525   3.062   3.007
 6607SOL     OW20719   2.121   3.704   2.581
 6607SOL    HW120720   2.209   3.738   2.549
 6607SOL    HW220721   2.132   3.659   2.669
 6608SOL     OW20722   5.371   4.583   4.556
 6608SOL    HW120723   5.440   4.547   4.493
 6608SOL    HW220724   5.344   4.510   4.619
 6609SOL     OW20725   5.568   2.242   6.695
 6609SOL    HW120726   5.497   2.259   6.627
 6609SOL    HW220727   5.546   2.158   6.745
 6610SOL     OW20728   4.234   1.410   0.586
 6610SOL    HW120729   4.201   1.344   0.653
 6610SOL    HW220730   4.197   1.500   0.608
 6611SOL     OW20731   5.648   3.022   2.154
 6611SOL    HW120732   5.610   2.983   2.238
 6611SOL    HW220733   5.714   3.093   2.178
 6612SOL     OW20734   0.665   5.574   6.425
 6612SOL    HW120735   0.752   5.565   6.473
 6612SOL    HW220736   0.591   5.587   6.491
 6613SOL     OW20737   6.051   5.072   0.590
 6613SOL    HW120738   6.003   5.102   0.507
 6613SOL    HW220739   6.103   4.989   0.571
 6614SOL     OW20740   5.860   4.168   6.342
 6614SOL    HW120741   5.883   4.219   6.259
 6614SOL    HW220742   5.810   4.227   6.405
 6615SOL     OW20743   0.215   3.673   4.658
 6615SOL    HW120744   0.312   3.661   4.636
 6615SOL    HW220745   0.188   3.604   4.725
 6616SOL     OW20746   5.010   1.516   4.008
 6616SOL    HW120747   4.981   1.611   3.996
 6616SOL    HW220748   4.949   1.456   3.956
 6617SOL     OW20749   3.922   0.754   4.198
 6617SOL    HW120750   3.919   0.709   4.109
 6617SOL    HW220751   3.858   0.830   4.198
 6618SOL     OW20752   0.401   4.582   1.233
 6618SOL    HW120753   0.414   4.494   1.189
 6618SOL    HW220754   0.338   4.638   1.179
 6619SOL     OW20755   6.095   5.893   2.516
 6619SOL    HW120756   6.132   5.976   2.559
 6619SOL    HW220757   6.046   5.839   2.585
 6620SOL     OW20758   4.878   3.332   5.399
 6620SOL    HW120759   4.948   3.271   5.435
 6620SOL    HW220760   4.864   3.313   5.302
 6621SOL     OW20761   3.764   3.326   1.472
 6621SOL    HW120762   3.737   3.325   1.568
 6621SOL    HW220763   3.822   3.247   1.452
 6622SOL     OW20764   5.999   5.361   0.075
 6622SOL    HW120765   6.018   5.374   6.998
 6622SOL    HW220766   5.920   5.415   0.102
 6623SOL     OW20767   2.912   3.738   2.817
 6623SOL    HW120768   2.850   3.670   2.855
 6623SOL    HW220769   2.920   3.725   2.718
 6624SOL     OW20770   4.491   5.070   4.199
 6624SOL    HW120771   4.553   4.994   4.182
 6624SOL    HW220772   4.519   5.120   4.280
 6625SOL     OW20773   5.230   6.578   0.265
 6625SOL    HW120774   5.295   6.598   0.191
 6625SOL    HW220775   5.239   6.648   0.336
 6626SOL     OW20776   2.439   5.340   4.275
 6626SOL    HW120777   2.518   5.303   4.325
 6626SOL    HW220778   2.453   5.325   4.177
 6627SOL     OW20779   0.337   0.808   1.434
 6627SOL    HW120780   0.417   0.789   1.376
 6627SOL    HW220781   0.286   0.885   1.395
 6628SOL     OW20782   3.826   6.120   4.087
 6628SOL    HW120783   3.730   6.134   4.065
 6628SOL    HW220784   3.842   6.023   4.105
 6629SOL     OW20785   2.736   4.732   0.235
 6629SOL    HW120786   2.767   4.646   0.275
 6629SOL    HW220787   2.720   4.799   0.307
 6630SOL     OW20788   3.191   1.193   6.075
 6630SOL    HW120789   3.162   1.210   6.169
 6630SOL    HW220790   3.198   1.094   6.060
 6631SOL     OW20791   3.630   6.925   2.053
 6631SOL    HW120792   3.675   6.987   2.118
 6631SOL    HW220793   3.695   6.900   1.981
 6632SOL     OW20794   5.846   3.261   1.641
 6632SOL    HW120795   5.766   3.201   1.640
 6632SOL    HW220796   5.899   3.247   1.558
 6633SOL     OW20797   1.170   6.053   3.225
 6633SOL    HW120798   1.084   6.078   3.270
 6633SOL    HW220799   1.233   6.014   3.292
 6634SOL     OW20800   6.177   2.195   5.054
 6634SOL    HW120801   6.140   2.270   4.998
 6634SOL    HW220802   6.102   2.142   5.092
 6635SOL     OW20803   4.007   5.126   3.609
 6635SOL    HW120804   4.008   5.033   3.645
 6635SOL    HW220805   3.949   5.129   3.527
 6636SOL     OW20806   1.922   3.336   2.490
 6636SOL    HW120807   1.836   3.388   2.490
 6636SOL    HW220808   1.997   3.395   2.460
 6637SOL     OW20809   7.014   2.893   0.124
 6637SOL    HW120810   0.038   2.856   0.042
 6637SOL    HW220811   7.017   2.825   0.197
 6638SOL     OW20812   1.864   0.627   6.743
 6638SOL    HW120813   1.905   0.536   6.746
 6638SOL    HW220814   1.861   0.659   6.648
 6639SOL     OW20815   3.856   5.214   6.049
 6639SOL    HW120816   3.863   5.301   6.000
 6639SOL    HW220817   3.948   5.181   6.071
 6640SOL     OW20818   5.353   3.718   3.173
 6640SOL    HW120819   5.320   3.641   3.229
 6640SOL    HW220820   5.275   3.763   3.130
 6641SOL     OW20821   2.631   5.290   6.363
 6641SOL    HW120822   2.663   5.349   6.289
 6641SOL    HW220823   2.648   5.334   6.451
 6642SOL     OW20824   6.427   6.563   5.885
 6642SOL    HW120825   6.378   6.630   5.941
 6642SOL    HW220826   6.489   6.611   5.823
 6643SOL     OW20827   4.257   5.699   0.391
 6643SOL    HW120828   4.297   5.775   0.442
 6643SOL    HW220829   4.300   5.613   0.420
 6644SOL     OW20830   1.034   3.607   2.154
 6644SOL    HW120831   1.066   3.518   2.185
 6644SOL    HW220832   1.022   3.606   2.055
 6645SOL     OW20833   0.230   4.968   5.537
 6645SOL    HW120834   0.255   4.917   5.619
 6645SOL    HW220835   0.284   5.052   5.533
 6646SOL     OW20836   1.929   5.230   3.932
 6646SOL    HW120837   1.961   5.137   3.914
 6646SOL    HW220838   1.995   5.296   3.895
 6647SOL     OW20839   4.243   1.641   1.829
 6647SOL    HW120840   4.231   1.740   1.838
 6647SOL    HW220841   4.220   1.614   1.735
 6648SOL     OW20842   3.495   5.489   1.973
 6648SOL    HW120843   3.449   5.450   2.053
 6648SOL    HW220844   3.453   5.452   1.890
 6649SOL     OW20845   4.049   2.035   5.516
 6649SOL    HW120846   4.086   1.954   5.563
 6649SOL    HW220847   3.974   2.007   5.456
 6650SOL     OW20848   3.469   1.362   4.241
 6650SOL    HW120849   3.525   1.303   4.183
 6650SOL    HW220850   3.374   1.330   4.237
 6651SOL     OW20851   0.841   1.463   1.048
 6651SOL    HW120852   0.858   1.489   0.953
 6651SOL    HW220853   0.925   1.426   1.088
 6652SOL     OW20854   0.499   5.264   3.593
 6652SOL    HW120855   0.512   5.165   3.597
 6652SOL    HW220856   0.469   5.290   3.501
 6653SOL     OW20857   3.702   4.100   3.913
 6653SOL    HW120858   3.614   4.103   3.865
 6653SOL    HW220859   3.690   4.052   4.000
 6654SOL     OW20860   1.266   3.316   1.736
 6654SOL    HW120861   1.336   3.252   1.703
 6654SOL    HW220862   1.237   3.375   1.662
 6655SOL     OW20863   1.222   1.417   6.892
 6655SOL    HW120864   1.315   1.410   6.928
 6655SOL    HW220865   1.221   1.476   6.812
 6656SOL     OW20866   6.392   1.785   1.809
 6656SOL    HW120867   6.418   1.823   1.720
 6656SOL    HW220868   6.293   1.796   1.822
 6657SOL     OW20869   3.658   4.791   5.506
 6657SOL    HW120870   3.757   4.789   5.491
 6657SOL    HW220871   3.611   4.756   5.425
 6658SOL     OW20872   6.208   6.918   5.405
 6658SOL    HW120873   6.130   6.938   5.346
 6658SOL    HW220874   6.248   6.830   5.380
 6659SOL     OW20875   2.335   2.995   0.468
 6659SOL    HW120876   2.321   3.040   0.380
 6659SOL    HW220877   2.410   3.039   0.517
 6660SOL     OW20878   0.197   6.698   2.914
 6660SOL    HW120879   0.258   6.620   2.926
 6660SOL    HW220880   0.102   6.666   2.912
 6661SOL     OW20881   6.741   0.308   3.783
 6661SOL    HW120882   6.839   0.287   3.793
 6661SOL    HW220883   6.725   0.403   3.808
 6662SOL     OW20884   1.411   3.274   5.901
 6662SOL    HW120885   1.400   3.182   5.862
 6662SOL    HW220886   1.384   3.273   5.997
 6663SOL     OW20887   0.653   5.419   2.124
 6663SOL    HW120888   0.748   5.387   2.126
 6663SOL    HW220889   0.609   5.400   2.211
 6664SOL     OW20890   6.784   1.975   1.843
 6664SOL    HW120891   6.825   1.970   1.752
 6664SOL    HW220892   6.746   1.886   1.869
 6665SOL     OW20893   1.999   6.497   3.519
 6665SOL    HW120894   2.045   6.484   3.607
 6665SOL    HW220895   1.961   6.589   3.514
 6666SOL     OW20896   6.008   0.583   0.421
 6666SOL    HW120897   6.073   0.525   0.371
 6666SOL    HW220898   5.978   0.657   0.361
 6667SOL     OW20899   5.550   5.295   5.331
 6667SOL    HW120900   5.469   5.304   5.273
 6667SOL    HW220901   5.627   5.341   5.288
 6668SOL     OW20902   6.456   6.255   0.989
 6668SOL    HW120903   6.357   6.265   0.990
 6668SOL    HW220904   6.481   6.167   0.950
 6669SOL     OW20905   0.678   4.585   3.350
 6669SOL    HW120906   0.606   4.521   3.322
 6669SOL    HW220907   0.670   4.602   3.448
 6670SOL     OW20908   5.442   4.777   0.461
 6670SOL    HW120909   5.405   4.817   0.544
 6670SOL    HW220910   5.486   4.690   0.483
 6671SOL     OW20911   1.020   2.360   5.202
 6671SOL    HW120912   1.118   2.376   5.216
 6671SOL    HW220913   0.977   2.338   5.290
 6672SOL     OW20914   6.932   1.508   5.095
 6672SOL    HW120915   0.002   1.466   5.082
 6672SOL    HW220916   6.907   1.504   5.191
 6673SOL     OW20917   3.402   6.068   1.752
 6673SOL    HW120918   3.344   5.991   1.779
 6673SOL    HW220919   3.497   6.049   1.779
 6674SOL     OW20920   0.629   5.863   4.961
 6674SOL    HW120921   0.687   5.798   4.913
 6674SOL    HW220922   0.686   5.929   5.010
 6675SOL     OW20923   6.344   6.436   6.274
 6675SOL    HW120924   6.371   6.372   6.202
 6675SOL    HW220925   6.297   6.387   6.348
 6676SOL     OW20926   0.292   1.402   0.986
 6676SOL    HW120927   0.258   1.349   1.064
 6676SOL    HW220928   0.319   1.493   1.018
 6677SOL     OW20929   0.647   4.907   0.509
 6677SOL    HW120930   0.615   4.938   0.419
 6677SOL    HW220931   0.569   4.899   0.571
 6678SOL     OW20932   0.551   3.837   3.845
 6678SOL    HW120933   0.474   3.835   3.908
 6678SOL    HW220934   0.636   3.825   3.897
 6679SOL     OW20935   2.244   1.324   4.639
 6679SOL    HW120936   2.169   1.272   4.680
 6679SOL    HW220937   2.219   1.352   4.546
 6680SOL     OW20938   2.946   0.680   6.879
 6680SOL    HW120939   3.037   0.651   6.909
 6680SOL    HW220940   2.926   0.638   6.790
 6681SOL     OW20941   6.079   5.242   6.265
 6681SOL    HW120942   6.057   5.152   6.301
 6681SOL    HW220943   6.068   5.242   6.165
 6682SOL     OW20944   6.038   4.824   2.538
 6682SOL    HW120945   6.094   4.895   2.582
 6682SOL    HW220946   5.942   4.836   2.564
 6683SOL     OW20947   5.463   3.086   4.084
 6683SOL    HW120948   5.491   3.178   4.111
 6683SOL    HW220949   5.456   3.028   4.165
 6684SOL     OW20950   1.646   0.813   1.842
 6684SOL    HW120951   1.642   0.880   1.916
 6684SOL    HW220952   1.577   0.835   1.773
 6685SOL     OW20953   6.148   2.737   6.898
 6685SOL    HW120954   6.082   2.677   6.852
 6685SOL    HW220955   6.104   2.824   6.920
 6686SOL     OW20956   4.977   4.397   3.901
 6686SOL    HW120957   5.054   4.423   3.959
 6686SOL    HW220958   4.934   4.480   3.865
 6687SOL     OW20959   0.305   6.998   6.880
 6687SOL    HW120960   0.284   0.042   6.806
 6687SOL    HW220961   0.270   6.907   6.856
 6688SOL     OW20962   0.294   4.671   2.818
 6688SOL    HW120963   0.334   4.696   2.906
 6688SOL    HW220964   0.350   4.599   2.776
 6689SOL     OW20965   5.862   3.761   0.143
 6689SOL    HW120966   5.958   3.788   0.144
 6689SOL    HW220967   5.811   3.814   0.211
 6690SOL     OW20968   0.341   1.281   0.567
 6690SOL    HW120969   0.357   1.241   0.657
 6690SOL    HW220970   0.276   1.357   0.575
 6691SOL     OW20971   1.100   5.383   1.198
 6691SOL    HW120972   1.024   5.444   1.179
 6691SOL    HW220973   1.070   5.310   1.259
 6692SOL     OW20974   5.083   3.404   6.454
 6692SOL    HW120975   5.149   3.357   6.397
 6692SOL    HW220976   5.115   3.406   6.549
 6693SOL     OW20977   3.937   3.316   6.141
 6693SOL    HW120978   3.904   3.292   6.049
 6693SOL    HW220979   3.952   3.232   6.194
 6694SOL     OW20980   2.985   5.657   6.886
 6694SOL    HW120981   2.905   5.667   6.826
 6694SOL    HW220982   3.053   5.599   6.842
 6695SOL     OW20983   1.841   1.675   0.052
 6695SOL    HW120984   1.902   1.604   0.086
 6695SOL    HW220985   1.890   1.732   7.006
 6696SOL     OW20986   1.594   2.109   0.995
 6696SOL    HW120987   1.588   2.057   0.910
 6696SOL    HW220988   1.503   2.113   1.038
 6697SOL     OW20989   5.380   3.568   4.786
 6697SOL    HW120990   5.303   3.593   4.727
 6697SOL    HW220991   5.466   3.597   4.742
 6698SOL     OW20992   2.443   4.477   5.995
 6698SOL    HW120993   2.480   4.472   6.088
 6698SOL    HW220994   2.401   4.389   5.972
 6699SOL     OW20995   1.995   3.333   6.697
 6699SOL    HW120996   1.926   3.396   6.732
 6699SOL    HW220997   1.998   3.252   6.756
 6700SOL     OW20998   0.296   6.119   6.021
 6700SOL    HW120999   0.308   6.043   5.957
 6700SOL    HW221000   0.220   6.100   6.082
 6701SOL     OW21001   1.766   2.257   6.788
 6701SOL    HW121002   1.736   2.343   6.829
 6701SOL    HW221003   1.866   2.254   6.785
 6702SOL     OW21004   3.338   3.092   0.982
 6702SOL    HW121005   3.426   3.049   0.965
 6702SOL    HW221006   3.353   3.187   1.012
 6703SOL     OW21007   0.601   2.004   0.459
 6703SOL    HW121008   0.629   2.090   0.503
 6703SOL    HW221009   0.629   2.006   0.363
 6704SOL     OW21010   5.306   3.615   2.545
 6704SOL    HW121011   5.382   3.554   2.567
 6704SOL    HW221012   5.266   3.589   2.458
 6705SOL     OW21013   5.073   2.457   0.955
 6705SOL    HW121014   5.025   2.540   0.984
 6705SOL    HW221015   5.040   2.379   1.008
 6706SOL     OW21016   1.547   6.621   6.872
 6706SOL    HW121017   1.580   6.619   6.778
 6706SOL    HW221018   1.468   6.681   6.878
 6707SOL     OW21019   1.051   5.211   3.389
 6707SOL    HW121020   1.041   5.133   3.451
 6707SOL    HW221021   1.140   5.255   3.404
 6708SOL     OW21022   2.130   5.928   1.142
 6708SOL    HW121023   2.211   5.985   1.153
 6708SOL    HW221024   2.090   5.909   1.232
 6709SOL     OW21025   5.160   1.873   3.683
 6709SOL    HW121026   5.104   1.790   3.679
 6709SOL    HW221027   5.106   1.948   3.721
 6710SOL     OW21028   2.597   2.649   0.621
 6710SOL    HW121029   2.690   2.685   0.630
 6710SOL    HW221030   2.590   2.598   0.535
 6711SOL     OW21031   5.787   3.392   6.307
 6711SOL    HW121032   5.717   3.439   6.362
 6711SOL    HW221033   5.765   3.402   6.210
 6712SOL     OW21034   3.071   6.606   0.464
 6712SOL    HW121035   3.084   6.510   0.487
 6712SOL    HW221036   3.158   6.646   0.436
 6713SOL     OW21037   0.480   2.569   2.999
 6713SOL    HW121038   0.415   2.593   2.926
 6713SOL    HW221039   0.429   2.540   3.080
 6714SOL     OW21040   6.887   1.156   5.001
 6714SOL    HW121041   6.854   1.114   4.917
 6714SOL    HW221042   6.852   1.104   5.079
 6715SOL     OW21043   5.296   2.722   1.072
 6715SOL    HW121044   5.277   2.731   1.170
 6715SOL    HW221045   5.268   2.631   1.040
 6716SOL     OW21046   3.566   6.061   0.945
 6716SOL    HW121047   3.541   6.029   1.036
 6716SOL    HW221048   3.586   5.982   0.887
 6717SOL     OW21049   3.847   1.052   6.998
 6717SOL    HW121050   3.757   1.097   6.991
 6717SOL    HW221051   3.863   1.026   0.073
 6718SOL     OW21052   4.265   0.526   6.609
 6718SOL    HW121053   4.339   0.593   6.613
 6718SOL    HW221054   4.296   0.440   6.650
 6719SOL     OW21055   1.109   1.936   5.045
 6719SOL    HW121056   1.182   1.922   4.979
 6719SOL    HW221057   1.044   2.002   5.009
 6720SOL     OW21058   1.343   4.546   0.409
 6720SOL    HW121059   1.254   4.593   0.408
 6720SOL    HW221060   1.410   4.604   0.455
 6721SOL     OW21061   6.426   6.298   2.781
 6721SOL    HW121062   6.431   6.212   2.730
 6721SOL    HW221063   6.492   6.295   2.856
 6722SOL     OW21064   3.927   4.650   6.828
 6722SOL    HW121065   3.847   4.596   6.855
 6722SOL    HW221066   4.000   4.637   6.896
 6723SOL     OW21067   3.707   1.964   2.686
 6723SOL    HW121068   3.639   1.901   2.725
 6723SOL    HW221069   3.756   2.010   2.761
 6724SOL     OW21070   3.323   4.544   5.881
 6724SOL    HW121071   3.348   4.546   5.785
 6724SOL    HW221072   3.280   4.630   5.906
 6725SOL     OW21073   0.624   6.138   1.495
 6725SOL    HW121074   0.671   6.151   1.408
 6725SOL    HW221075   0.670   6.191   1.566
 6726SOL     OW21076   2.282   2.741   1.647
 6726SOL    HW121077   2.298   2.840   1.640
 6726SOL    HW221078   2.301   2.698   1.558
 6727SOL     OW21079   2.927   3.828   1.365
 6727SOL    HW121080   2.955   3.860   1.455
 6727SOL    HW221081   3.006   3.831   1.303
 6728SOL     OW21082   3.886   1.475   3.767
 6728SOL    HW121083   3.968   1.471   3.708
 6728SOL    HW221084   3.838   1.388   3.762
 6729SOL     OW21085   4.059   5.858   3.389
 6729SOL    HW121086   4.030   5.792   3.321
 6729SOL    HW221087   4.082   5.811   3.474
 6730SOL     OW21088   1.046   6.716   2.690
 6730SOL    HW121089   1.089   6.693   2.602
 6730SOL    HW221090   0.961   6.663   2.700
 6731SOL     OW21091   1.868   3.902   1.163
 6731SOL    HW121092   1.911   3.970   1.104
 6731SOL    HW221093   1.896   3.918   1.258
 6732SOL     OW21094   3.465   5.859   0.465
 6732SOL    HW121095   3.478   5.958   0.473
 6732SOL    HW221096   3.402   5.827   0.536
 6733SOL     OW21097   6.394   6.034   4.173
 6733SOL    HW121098   6.340   6.058   4.254
 6733SOL    HW221099   6.363   6.089   4.095
 6734SOL     OW21100   2.641   3.656   6.825
 6734SOL    HW121101   2.602   3.614   6.907
 6734SOL    HW221102   2.570   3.662   6.754
 6735SOL     OW21103   0.466   6.696   5.754
 6735SOL    HW121104   0.444   6.628   5.684
 6735SOL    HW221105   0.561   6.684   5.784
 6736SOL     OW21106   1.951   4.379   1.625
 6736SOL    HW121107   2.035   4.422   1.659
 6736SOL    HW221108   1.872   4.429   1.660
 6737SOL     OW21109   1.622   0.408   1.486
 6737SOL    HW121110   1.574   0.402   1.398
 6737SOL    HW221111   1.718   0.433   1.470
 6738SOL     OW21112   4.935   1.602   0.654
 6738SOL    HW121113   5.030   1.572   0.649
 6738SOL    HW221114   4.927   1.679   0.717
 6739SOL     OW21115   3.831   5.424   5.858
 6739SOL    HW121116   3.820   5.518   5.890
 6739SOL    HW221117   3.786   5.413   5.770
 6740SOL     OW21118   5.530   2.295   5.610
 6740SOL    HW121119   5.616   2.293   5.559
 6740SOL    HW221120   5.541   2.351   5.692
 6741SOL     OW21121   0.495   1.083   5.740
 6741SOL    HW121122   0.581   1.116   5.778
 6741SOL    HW221123   0.497   0.984   5.734
 6742SOL     OW21124   6.026   5.925   5.281
 6742SOL    HW121125   6.102   5.972   5.327
 6742SOL    HW221126   6.052   5.903   5.187
 6743SOL     OW21127   5.846   1.895   0.721
 6743SOL    HW121128   5.940   1.929   0.713
 6743SOL    HW221129   5.808   1.924   0.809
 6744SOL     OW21130   4.329   0.751   3.940
 6744SOL    HW121131   4.278   0.837   3.936
 6744SOL    HW221132   4.295   0.696   4.016
 6745SOL     OW21133   1.089   3.770   2.994
 6745SOL    HW121134   1.140   3.790   3.077
 6745SOL    HW221135   1.008   3.715   3.017
 6746SOL     OW21136   6.139   0.255   0.158
 6746SOL    HW121137   6.153   0.156   0.159
 6746SOL    HW221138   6.187   0.298   0.234
 6747SOL     OW21139   5.034   5.422   6.193
 6747SOL    HW121140   5.003   5.393   6.283
 6747SOL    HW221141   5.118   5.475   6.202
 6748SOL     OW21142   6.544   6.621   2.531
 6748SOL    HW121143   6.493   6.621   2.618
 6748SOL    HW221144   6.639   6.594   2.548
 6749SOL     OW21145   2.815   5.091   0.912
 6749SOL    HW121146   2.896   5.097   0.971
 6749SOL    HW221147   2.743   5.041   0.959
 6750SOL     OW21148   2.139   3.296   5.191
 6750SOL    HW121149   2.223   3.281   5.243
 6750SOL    HW221150   2.162   3.326   5.099
 6751SOL     OW21151   4.758   2.489   5.546
 6751SOL    HW121152   4.792   2.506   5.639
 6751SOL    HW221153   4.661   2.467   5.550
 6752SOL     OW21154   6.388   1.063   0.441
 6752SOL    HW121155   6.352   0.970   0.431
 6752SOL    HW221156   6.470   1.061   0.498
 6753SOL     OW21157   5.840   0.441   6.154
 6753SOL    HW121158   5.873   0.525   6.110
 6753SOL    HW221159   5.757   0.461   6.205
 6754SOL     OW21160   4.075   1.541   6.755
 6754SOL    HW121161   4.157   1.598   6.754
 6754SOL    HW221162   4.070   1.488   6.670
 6755SOL     OW21163   5.214   1.495   2.802
 6755SOL    HW121164   5.161   1.413   2.784
 6755SOL    HW221165   5.165   1.555   2.865
 6756SOL     OW21166   4.375   4.918   2.937
 6756SOL    HW121167   4.340   4.997   2.987
 6756SOL    HW221168   4.466   4.939   2.901
 6757SOL     OW21169   6.198   3.907   1.457
 6757SOL    HW121170   6.131   3.958   1.511
 6757SOL    HW221171   6.175   3.915   1.360
 6758SOL     OW21172   6.774   2.124   2.717
 6758SOL    HW121173   6.868   2.147   2.743
 6758SOL    HW221174   6.720   2.207   2.706
 6759SOL     OW21175   0.264   5.489   4.140
 6759SOL    HW121176   0.167   5.500   4.118
 6759SOL    HW221177   0.317   5.561   4.095
 6760SOL     OW21178   0.603   3.687   5.495
 6760SOL    HW121179   0.661   3.754   5.448
 6760SOL    HW221180   0.638   3.671   5.587
 6761SOL     OW21181   6.380   2.877   6.688
 6761SOL    HW121182   6.326   2.796   6.667
 6761SOL    HW221183   6.475   2.862   6.659
 6762SOL     OW21184   0.026   2.001   4.466
 6762SOL    HW121185   0.021   2.100   4.462
 6762SOL    HW221186   0.018   1.963   4.373
 6763SOL     OW21187   5.405   6.409   5.570
 6763SOL    HW121188   5.503   6.426   5.572
 6763SOL    HW221189   5.385   6.325   5.621
 6764SOL     OW21190   2.064   3.888   6.928
 6764SOL    HW121191   2.074   3.987   6.930
 6764SOL    HW221192   1.990   3.860   6.990
 6765SOL     OW21193   4.840   5.509   1.818
 6765SOL    HW121194   4.883   5.576   1.878
 6765SOL    HW221195   4.884   5.420   1.830
 6766SOL     OW21196   2.731   2.285   5.250
 6766SOL    HW121197   2.693   2.219   5.314
 6766SOL    HW221198   2.828   2.300   5.271
 6767SOL     OW21199   0.631   2.762   6.226
 6767SOL    HW121200   0.549   2.731   6.274
 6767SOL    HW221201   0.701   2.789   6.292
 6768SOL     OW21202   6.411   0.549   5.841
 6768SOL    HW121203   6.321   0.560   5.799
 6768SOL    HW221204   6.456   0.468   5.803
 6769SOL     OW21205   1.129   2.145   6.394
 6769SOL    HW121206   1.043   2.104   6.422
 6769SOL    HW221207   1.197   2.133   6.466
 6770SOL     OW21208   0.345   2.263   3.471
 6770SOL    HW121209   0.310   2.217   3.552
 6770SOL    HW221210   0.377   2.195   3.405
 6771SOL     OW21211   5.419   2.285   1.793
 6771SOL    HW121212   5.383   2.192   1.788
 6771SOL    HW221213   5.389   2.337   1.714
 6772SOL     OW21214   1.642   6.743   1.884
 6772SOL    HW121215   1.575   6.685   1.838
 6772SOL    HW221216   1.699   6.688   1.944
 6773SOL     OW21217   1.696   1.473   3.100
 6773SOL    HW121218   1.635   1.434   3.169
 6773SOL    HW221219   1.682   1.572   3.095
 6774SOL     OW21220   3.560   1.035   5.609
 6774SOL    HW121221   3.512   0.948   5.594
 6774SOL    HW221222   3.574   1.081   5.521
 6775SOL     OW21223   1.606   2.860   5.192
 6775SOL    HW121224   1.655   2.947   5.197
 6775SOL    HW221225   1.589   2.837   5.096
 6776SOL     OW21226   3.329   3.370   3.869
 6776SOL    HW121227   3.388   3.449   3.856
 6776SOL    HW221228   3.249   3.377   3.810
 6777SOL     OW21229   6.877   0.347   5.602
 6777SOL    HW121230   6.816   0.292   5.545
 6777SOL    HW221231   6.838   0.358   5.693
 6778SOL     OW21232   6.105   6.046   1.655
 6778SOL    HW121233   6.057   6.013   1.736
 6778SOL    HW221234   6.099   5.978   1.582
 6779SOL     OW21235   5.867   3.181   5.476
 6779SOL    HW121236   5.871   3.129   5.391
 6779SOL    HW221237   5.774   3.179   5.513
 6780SOL     OW21238   4.711   0.689   2.332
 6780SOL    HW121239   4.700   0.633   2.250
 6780SOL    HW221240   4.801   0.732   2.331
 6781SOL     OW21241   5.390   4.004   3.195
 6781SOL    HW121242   5.433   3.913   3.197
 6781SOL    HW221243   5.302   3.998   3.147
 6782SOL     OW21244   6.635   1.853   2.663
 6782SOL    HW121245   6.676   1.944   2.654
 6782SOL    HW221246   6.555   1.859   2.722
 6783SOL     OW21247   0.641   6.782   6.465
 6783SOL    HW121248   0.668   6.687   6.481
 6783SOL    HW221249   0.688   6.842   6.530
 6784SOL     OW21250   1.457   4.794   6.443
 6784SOL    HW121251   1.474   4.703   6.481
 6784SOL    HW221252   1.513   4.807   6.362
 6785SOL     OW21253   5.558   4.291   1.136
 6785SOL    HW121254   5.539   4.255   1.045
 6785SOL    HW221255   5.657   4.301   1.148
 6786SOL     OW21256   6.448   1.291   6.477
 6786SOL    HW121257   6.360   1.313   6.519
 6786SOL    HW221258   6.514   1.267   6.548
 6787SOL     OW21259   4.257   2.421   1.579
 6787SOL    HW121260   4.159   2.427   1.561
 6787SOL    HW221261   4.308   2.459   1.502
 6788SOL     OW21262   1.519   4.510   1.385
 6788SOL    HW121263   1.470   4.592   1.414
 6788SOL    HW221264   1.475   4.473   1.303
 6789SOL     OW21265   5.643   2.616   2.620
 6789SOL    HW121266   5.596   2.670   2.690
 6789SOL    HW221267   5.736   2.649   2.610
 6790SOL     OW21268   0.910   6.094   7.014
 6790SOL    HW121269   0.944   6.170   0.050
 6790SOL    HW221270   0.987   6.046   6.972
 6791SOL     OW21271   2.111   6.514   3.779
 6791SOL    HW121272   2.140   6.593   3.832
 6791SOL    HW221273   2.067   6.448   3.839
 6792SOL     OW21274   3.139   5.980   0.267
 6792SOL    HW121275   3.111   5.949   0.176
 6792SOL    HW221276   3.195   6.063   0.258
 6793SOL     OW21277   1.756   3.008   5.860
 6793SOL    HW121278   1.772   3.049   5.950
 6793SOL    HW221279   1.837   2.956   5.832
 6794SOL     OW21280   4.459   2.343   3.926
 6794SOL    HW121281   4.399   2.375   3.999
 6794SOL    HW221282   4.554   2.341   3.960
 6795SOL     OW21283   1.024   0.110   2.471
 6795SOL    HW121284   1.028   0.054   2.388
 6795SOL    HW221285   1.031   0.052   2.551
 6796SOL     OW21286   5.980   2.219   2.176
 6796SOL    HW121287   5.980   2.131   2.224
 6796SOL    HW221288   5.964   2.204   2.079
 6797SOL     OW21289   1.805   4.269   0.594
 6797SOL    HW121290   1.840   4.260   0.501
 6797SOL    HW221291   1.880   4.255   0.659
 6798SOL     OW21292   5.381   2.104   1.444
 6798SOL    HW121293   5.289   2.090   1.481
 6798SOL    HW221294   5.401   2.202   1.442
 6799SOL     OW21295   4.171   6.414   2.628
 6799SOL    HW121296   4.174   6.353   2.548
 6799SOL    HW221297   4.188   6.361   2.711
 6800SOL     OW21298   6.744   2.725   2.492
 6800SOL    HW121299   6.809   2.695   2.423
 6800SOL    HW221300   6.791   2.775   2.563
 6801SOL     OW21301   2.011   5.124   5.315
 6801SOL    HW121302   2.008   5.154   5.410
 6801SOL    HW221303   2.106   5.106   5.288
 6802SOL     OW21304   2.334   4.292   2.327
 6802SOL    HW121305   2.429   4.264   2.315
 6802SOL    HW221306   2.326   4.391   2.318
 6803SOL     OW21307   6.398   5.433   6.058
 6803SOL    HW121308   6.462   5.489   6.005
 6803SOL    HW221309   6.354   5.367   5.998
 6804SOL     OW21310   3.149   6.048   1.417
 6804SOL    HW121311   3.172   5.951   1.414
 6804SOL    HW221312   3.082   6.064   1.489
 6805SOL     OW21313   0.163   4.094   4.281
 6805SOL    HW121314   0.089   4.030   4.262
 6805SOL    HW221315   0.247   4.061   4.238
 6806SOL     OW21316   5.687   3.409   2.037
 6806SOL    HW121317   5.714   3.419   1.941
 6806SOL    HW221318   5.685   3.498   2.081
 6807SOL     OW21319   3.929   3.522   2.597
 6807SOL    HW121320   3.982   3.451   2.551
 6807SOL    HW221321   3.971   3.541   2.686
 6808SOL     OW21322   2.384   6.411   4.211
 6808SOL    HW121323   2.455   6.419   4.142
 6808SOL    HW221324   2.362   6.502   4.247
 6809SOL     OW21325   6.417   2.407   0.580
 6809SOL    HW121326   6.475   2.409   0.498
 6809SOL    HW221327   6.457   2.464   0.651
 6810SOL     OW21328   3.200   6.976   4.945
 6810SOL    HW121329   3.240   7.016   4.863
 6810SOL    HW221330   3.137   6.902   4.920
 6811SOL     OW21331   6.658   2.143   1.498
 6811SOL    HW121332   6.670   2.242   1.508
 6811SOL    HW221333   6.673   2.117   1.403
 6812SOL     OW21334   3.467   4.654   5.341
 6812SOL    HW121335   3.378   4.643   5.385
 6812SOL    HW221336   3.461   4.724   5.270
 6813SOL     OW21337   0.171   3.491   1.511
 6813SOL    HW121338   0.170   3.393   1.532
 6813SOL    HW221339   0.079   3.528   1.520
 6814SOL     OW21340   5.094   2.097   1.486
 6814SOL    HW121341   5.081   2.160   1.562
 6814SOL    HW221342   5.033   2.018   1.498
 6815SOL     OW21343   2.011   6.147   1.011
 6815SOL    HW121344   2.030   6.063   1.062
 6815SOL    HW221345   1.983   6.219   1.076
 6816SOL     OW21346   5.601   0.261   3.446
 6816SOL    HW121347   5.609   0.358   3.424
 6816SOL    HW221348   5.675   0.210   3.402
 6817SOL     OW21349   6.162   1.008   1.149
 6817SOL    HW121350   6.168   0.977   1.054
 6817SOL    HW221351   6.077   0.973   1.190
 6818SOL     OW21352   6.927   6.775   5.757
 6818SOL    HW121353   6.979   6.698   5.794
 6818SOL    HW221354   6.982   6.858   5.764
 6819SOL     OW21355   6.347   3.841   0.383
 6819SOL    HW121356   6.263   3.796   0.353
 6819SOL    HW221357   6.328   3.897   0.463
 6820SOL     OW21358   2.369   4.345   1.088
 6820SOL    HW121359   2.270   4.347   1.083
 6820SOL    HW221360   2.405   4.438   1.085
 6821SOL     OW21361   2.292   3.693   5.769
 6821SOL    HW121362   2.243   3.606   5.784
 6821SOL    HW221363   2.308   3.706   5.672
 6822SOL     OW21364   0.443   4.394   4.842
 6822SOL    HW121365   0.466   4.410   4.938
 6822SOL    HW221366   0.423   4.298   4.827
 6823SOL     OW21367   6.696   3.141   5.615
 6823SOL    HW121368   6.774   3.090   5.578
 6823SOL    HW221369   6.613   3.085   5.609
 6824SOL     OW21370   1.369   0.570   3.885
 6824SOL    HW121371   1.358   0.541   3.980
 6824SOL    HW221372   1.294   0.532   3.830
 6825SOL     OW21373   4.872   5.274   1.449
 6825SOL    HW121374   4.958   5.248   1.493
 6825SOL    HW221375   4.891   5.340   1.376
 6826SOL     OW21376   5.738   0.767   4.319
 6826SOL    HW121377   5.659   0.740   4.264
 6826SOL    HW221378   5.769   0.857   4.289
 6827SOL     OW21379   5.339   5.067   5.504
 6827SOL    HW121380   5.246   5.083   5.470
 6827SOL    HW221381   5.399   5.047   5.427
 6828SOL     OW21382   2.469   2.335   2.419
 6828SOL    HW121383   2.526   2.253   2.420
 6828SOL    HW221384   2.456   2.366   2.325
 6829SOL     OW21385   5.899   6.416   4.983
 6829SOL    HW121386   5.856   6.400   5.071
 6829SOL    HW221387   5.963   6.341   4.963
 6830SOL     OW21388   3.937   6.565   3.563
 6830SOL    HW121389   4.011   6.571   3.495
 6830SOL    HW221390   3.849   6.557   3.516
 6831SOL     OW21391   2.036   0.431   6.847
 6831SOL    HW121392   1.972   0.374   6.898
 6831SOL    HW221393   2.095   0.374   6.791
 6832SOL     OW21394   3.775   3.713   0.694
 6832SOL    HW121395   3.699   3.748   0.748
 6832SOL    HW221396   3.797   3.620   0.722
 6833SOL     OW21397   4.110   5.261   0.610
 6833SOL    HW121398   4.102   5.328   0.685
 6833SOL    HW221399   4.149   5.306   0.530
 6834SOL     OW21400   6.602   5.717   5.092
 6834SOL    HW121401   6.683   5.696   5.037
 6834SOL    HW221402   6.571   5.634   5.138
 6835SOL     OW21403   3.774   0.485   2.864
 6835SOL    HW121404   3.811   0.575   2.889
 6835SOL    HW221405   3.757   0.432   2.947
 6836SOL     OW21406   0.780   4.438   6.606
 6836SOL    HW121407   0.835   4.364   6.645
 6836SOL    HW221408   0.741   4.493   6.680
 6837SOL     OW21409   5.826   2.342   1.535
 6837SOL    HW121410   5.791   2.320   1.444
 6837SOL    HW221411   5.875   2.263   1.572
 6838SOL     OW21412   2.108   4.890   6.780
 6838SOL    HW121413   2.017   4.890   6.738
 6838SOL    HW221414   2.157   4.973   6.753
 6839SOL     OW21415   6.559   2.500   5.461
 6839SOL    HW121416   6.655   2.526   5.467
 6839SOL    HW221417   6.501   2.581   5.474
 6840SOL     OW21418   3.099   0.392   4.482
 6840SOL    HW121419   3.115   0.467   4.417
 6840SOL    HW221420   3.139   0.308   4.446
 6841SOL     OW21421   4.817   6.038   0.612
 6841SOL    HW121422   4.759   5.995   0.542
 6841SOL    HW221423   4.760   6.094   0.673
 6842SOL     OW21424   0.136   3.180   3.006
 6842SOL    HW121425   0.231   3.168   3.035
 6842SOL    HW221426   0.109   3.275   3.019
 6843SOL     OW21427   4.426   3.165   1.714
 6843SOL    HW121428   4.480   3.139   1.794
 6843SOL    HW221429   4.358   3.095   1.695
 6844SOL     OW21430   3.065   6.384   3.872
 6844SOL    HW121431   2.967   6.402   3.862
 6844SOL    HW221432   3.077   6.296   3.919
 6845SOL     OW21433   4.119   4.210   0.082
 6845SOL    HW121434   4.062   4.290   0.063
 6845SOL    HW221435   4.078   4.157   0.156
 6846SOL     OW21436   3.463   3.364   4.139
 6846SOL    HW121437   3.480   3.279   4.090
 6846SOL    HW221438   3.447   3.438   4.074
 6847SOL     OW21439   5.140   3.595   0.892
 6847SOL    HW121440   5.182   3.517   0.938
 6847SOL    HW221441   5.129   3.670   0.958
 6848SOL     OW21442   1.105   6.293   4.707
 6848SOL    HW121443   1.046   6.212   4.703
 6848SOL    HW221444   1.183   6.279   4.647
 6849SOL     OW21445   2.439   0.536   4.497
 6849SOL    HW121446   2.357   0.480   4.494
 6849SOL    HW221447   2.415   0.628   4.529
 6850SOL     OW21448   6.813   2.134   2.059
 6850SOL    HW121449   6.744   2.136   2.132
 6850SOL    HW221450   6.788   2.064   1.992
 6851SOL     OW21451   2.282   5.555   1.042
 6851SOL    HW121452   2.315   5.461   1.054
 6851SOL    HW221453   2.312   5.610   1.120
 6852SOL     OW21454   4.707   4.641   2.720
 6852SOL    HW121455   4.657   4.607   2.800
 6852SOL    HW221456   4.642   4.674   2.652
 6853SOL     OW21457   5.912   4.478   4.198
 6853SOL    HW121458   5.911   4.548   4.270
 6853SOL    HW221459   5.937   4.389   4.238
 6854SOL     OW21460   6.404   0.820   6.733
 6854SOL    HW121461   6.418   0.728   6.697
 6854SOL    HW221462   6.326   0.862   6.686
 6855SOL     OW21463   2.862   6.811   2.966
 6855SOL    HW121464   2.860   6.719   2.927
 6855SOL    HW221465   2.770   6.839   2.992
 6856SOL     OW21466   1.027   5.140   5.881
 6856SOL    HW121467   0.977   5.068   5.928
 6856SOL    HW221468   1.109   5.164   5.933
 6857SOL     OW21469   4.601   1.224   6.559
 6857SOL    HW121470   4.597   1.130   6.527
 6857SOL    HW221471   4.688   1.241   6.606
 6858SOL     OW21472   3.289   3.067   6.480
 6858SOL    HW121473   3.264   3.160   6.455
 6858SOL    HW221474   3.231   3.002   6.430
 6859SOL     OW21475   4.379   6.803   1.366
 6859SOL    HW121476   4.400   6.889   1.412
 6859SOL    HW221477   4.464   6.761   1.334
 6860SOL     OW21478   4.731   3.393   0.058
 6860SOL    HW121479   4.717   3.491   0.068
 6860SOL    HW221480   4.648   3.344   0.085
 6861SOL     OW21481   6.272   3.738   0.042
 6861SOL    HW121482   6.196   3.673   0.033
 6861SOL    HW221483   6.308   3.759   6.972
 6862SOL     OW21484   2.820   4.720   4.464
 6862SOL    HW121485   2.819   4.736   4.563
 6862SOL    HW221486   2.797   4.624   4.446
 6863SOL     OW21487   1.012   3.812   4.130
 6863SOL    HW121488   1.004   3.752   4.210
 6863SOL    HW221489   1.064   3.894   4.154
 6864SOL     OW21490   3.001   5.517   6.058
 6864SOL    HW121491   3.052   5.486   6.139
 6864SOL    HW221492   3.022   5.457   5.981
 6865SOL     OW21493   0.873   2.481   5.637
 6865SOL    HW121494   0.889   2.397   5.585
 6865SOL    HW221495   0.797   2.467   5.701
 6866SOL     OW21496   0.343   4.159   2.846
 6866SOL    HW121497   0.298   4.109   2.772
 6866SOL    HW221498   0.382   4.244   2.811
 6867SOL     OW21499   2.779   5.472   3.513
 6867SOL    HW121500   2.724   5.505   3.435
 6867SOL    HW221501   2.734   5.393   3.554
 6868SOL     OW21502   2.020   5.613   5.203
 6868SOL    HW121503   2.107   5.564   5.212
 6868SOL    HW221504   1.944   5.550   5.222
 6869SOL     OW21505   0.268   2.649   4.032
 6869SOL    HW121506   0.209   2.592   4.089
 6869SOL    HW221507   0.336   2.591   3.987
 6870SOL     OW21508   4.795   4.047   3.128
 6870SOL    HW121509   4.784   4.072   3.032
 6870SOL    HW221510   4.858   3.970   3.135
 6871SOL     OW21511   4.164   6.084   2.019
 6871SOL    HW121512   4.258   6.074   2.050
 6871SOL    HW221513   4.119   5.994   2.022
 6872SOL     OW21514   3.109   4.052   0.944
 6872SOL    HW121515   3.063   4.136   0.971
 6872SOL    HW221516   3.187   4.036   1.004
 6873SOL     OW21517   4.633   4.559   5.165
 6873SOL    HW121518   4.703   4.620   5.128
 6873SOL    HW221519   4.658   4.532   5.258
 6874SOL     OW21520   1.368   1.401   6.228
 6874SOL    HW121521   1.415   1.422   6.314
 6874SOL    HW221522   1.320   1.314   6.237
 6875SOL     OW21523   3.639   6.616   5.043
 6875SOL    HW121524   3.627   6.621   5.143
 6875SOL    HW221525   3.670   6.525   5.018
 6876SOL     OW21526   2.817   6.650   4.894
 6876SOL    HW121527   2.791   6.738   4.854
 6876SOL    HW221528   2.752   6.580   4.866
 6877SOL     OW21529   2.232   4.217   0.736
 6877SOL    HW121530   2.137   4.195   0.715
 6877SOL    HW221531   2.284   4.132   0.748
 6878SOL     OW21532   2.201   1.617   5.016
 6878SOL    HW121533   2.186   1.630   5.114
 6878SOL    HW221534   2.179   1.702   4.967
 6879SOL     OW21535   6.316   1.429   5.811
 6879SOL    HW121536   6.343   1.349   5.864
 6879SOL    HW221537   6.229   1.412   5.765
 6880SOL     OW21538   1.087   4.909   4.538
 6880SOL    HW121539   1.010   4.861   4.497
 6880SOL    HW221540   1.171   4.856   4.524
 6881SOL     OW21541   4.989   6.229   1.464
 6881SOL    HW121542   4.899   6.204   1.430
 6881SOL    HW221543   4.998   6.329   1.464
 6882SOL     OW21544   2.638   5.637   5.235
 6882SOL    HW121545   2.552   5.655   5.187
 6882SOL    HW221546   2.670   5.722   5.278
 6883SOL     OW21547   2.643   6.861   2.374
 6883SOL    HW121548   2.673   6.786   2.434
 6883SOL    HW221549   2.581   6.825   2.305
 6884SOL     OW21550   1.668   5.026   3.038
 6884SOL    HW121551   1.618   5.030   3.124
 6884SOL    HW221552   1.620   5.080   2.969
 6885SOL     OW21553   4.360   4.671   4.648
 6885SOL    HW121554   4.314   4.686   4.736
 6885SOL    HW221555   4.402   4.580   4.648
 6886SOL     OW21556   5.243   6.705   1.133
 6886SOL    HW121557   5.145   6.721   1.118
 6886SOL    HW221558   5.295   6.773   1.081
 6887SOL     OW21559   6.934   0.966   4.788
 6887SOL    HW121560   6.866   0.895   4.769
 6887SOL    HW221561   7.015   0.951   4.732
 6888SOL     OW21562   6.791   6.608   3.799
 6888SOL    HW121563   6.700   6.630   3.765
 6888SOL    HW221564   6.819   6.675   3.867
 6889SOL     OW21565   1.933   4.034   6.454
 6889SOL    HW121566   1.951   4.131   6.469
 6889SOL    HW221567   1.960   4.009   6.361
 6890SOL     OW21568   1.278   0.530   1.385
 6890SOL    HW121569   1.189   0.488   1.367
 6890SOL    HW221570   1.290   0.544   1.483
 6891SOL     OW21571   5.317   5.424   5.649
 6891SOL    HW121572   5.241   5.384   5.598
 6891SOL    HW221573   5.286   5.508   5.694
 6892SOL     OW21574   2.777   1.947   3.993
 6892SOL    HW121575   2.819   2.028   4.034
 6892SOL    HW221576   2.741   1.888   4.066
 6893SOL     OW21577   5.068   0.005   1.001
 6893SOL    HW121578   5.044   6.940   1.049
 6893SOL    HW221579   5.002   0.076   1.026
 6894SOL     OW21580   5.545   4.299   5.596
 6894SOL    HW121581   5.558   4.388   5.639
 6894SOL    HW221582   5.632   4.266   5.559
 6895SOL     OW21583   4.926   5.040   4.214
 6895SOL    HW121584   4.931   4.959   4.154
 6895SOL    HW221585   4.911   5.010   4.308
 6896SOL     OW21586   4.946   1.912   2.158
 6896SOL    HW121587   4.882   1.956   2.095
 6896SOL    HW221588   4.921   1.934   2.252
 6897SOL     OW21589   4.354   1.434   1.254
 6897SOL    HW121590   4.451   1.422   1.232
 6897SOL    HW221591   4.322   1.354   1.305
 6898SOL     OW21592   4.214   1.360   1.589
 6898SOL    HW121593   4.253   1.322   1.505
 6898SOL    HW221594   4.240   1.304   1.666
 6899SOL     OW21595   5.257   4.538   5.827
 6899SOL    HW121596   5.205   4.562   5.909
 6899SOL    HW221597   5.197   4.491   5.762
 6900SOL     OW21598   4.038   0.545   5.869
 6900SOL    HW121599   4.102   0.616   5.838
 6900SOL    HW221600   3.971   0.585   5.931
 6901SOL     OW21601   1.300   0.857   6.962
 6901SOL    HW121602   1.293   0.898   6.871
 6901SOL    HW221603   1.347   0.920   0.003
 6902SOL     OW21604   6.303   4.939   2.836
 6902SOL    HW121605   6.278   4.923   2.931
 6902SOL    HW221606   6.356   4.861   2.801
 6903SOL     OW21607   6.324   4.624   6.805
 6903SOL    HW121608   6.293   4.543   6.855
 6903SOL    HW221609   6.418   4.645   6.831
 6904SOL     OW21610   0.712   1.110   2.346
 6904SOL    HW121611   0.661   1.046   2.404
 6904SOL    HW221612   0.727   1.069   2.256
 6905SOL     OW21613   3.620   5.208   0.661
 6905SOL    HW121614   3.644   5.304   0.671
 6905SOL    HW221615   3.521   5.199   0.655
 6906SOL     OW21616   5.970   6.399   2.582
 6906SOL    HW121617   5.907   6.337   2.626
 6906SOL    HW221618   5.920   6.457   2.517
 6907SOL     OW21619   3.794   1.039   1.771
 6907SOL    HW121620   3.730   0.983   1.719
 6907SOL    HW221621   3.847   1.097   1.709
 6908SOL     OW21622   5.337   6.901   0.060
 6908SOL    HW121623   5.332   6.965   0.137
 6908SOL    HW221624   5.245   6.873   0.035
 6909SOL     OW21625   2.610   2.284   7.018
 6909SOL    HW121626   2.565   2.324   6.938
 6909SOL    HW221627   2.707   2.309   7.018
 6910SOL     OW21628   4.161   0.913   0.723
 6910SOL    HW121629   4.201   0.905   0.814
 6910SOL    HW221630   4.095   0.987   0.722
 6911SOL     OW21631   3.748   6.402   5.604
 6911SOL    HW121632   3.698   6.485   5.626
 6911SOL    HW221633   3.688   6.323   5.617
 6912SOL     OW21634   3.246   5.831   1.748
 6912SOL    HW121635   3.163   5.869   1.708
 6912SOL    HW221636   3.228   5.804   1.843
 6913SOL     OW21637   3.780   5.675   5.969
 6913SOL    HW121638   3.689   5.669   6.011
 6913SOL    HW221639   3.838   5.736   6.022
 6914SOL     OW21640   0.087   5.393   6.785
 6914SOL    HW121641   0.129   5.363   6.871
 6914SOL    HW221642   0.089   5.493   6.781
 6915SOL     OW21643   0.791   6.951   6.588
 6915SOL    HW121644   0.816   6.984   6.679
 6915SOL    HW221645   0.799   0.006   6.523
 6916SOL     OW21646   6.186   0.590   6.651
 6916SOL    HW121647   6.281   0.559   6.656
 6916SOL    HW221648   6.139   0.568   6.736
 6917SOL     OW21649   4.222   5.870   6.249
 6917SOL    HW121650   4.180   5.907   6.332
 6917SOL    HW221651   4.153   5.862   6.177
 6918SOL     OW21652   1.732   2.478   3.907
 6918SOL    HW121653   1.732   2.557   3.845
 6918SOL    HW221654   1.768   2.506   3.996
 6919SOL     OW21655   1.974   5.800   3.488
 6919SOL    HW121656   2.046   5.820   3.554
 6919SOL    HW221657   1.970   5.702   3.473
 6920SOL     OW21658   5.662   5.796   4.162
 6920SOL    HW121659   5.748   5.801   4.213
 6920SOL    HW221660   5.660   5.868   4.093
 6921SOL     OW21661   1.851   4.875   2.622
 6921SOL    HW121662   1.785   4.947   2.602
 6921SOL    HW221663   1.840   4.844   2.717
 6922SOL     OW21664   1.697   6.343   1.559
 6922SOL    HW121665   1.653   6.264   1.601
 6922SOL    HW221666   1.789   6.317   1.528
 6923SOL     OW21667   5.067   5.617   4.721
 6923SOL    HW121668   5.142   5.579   4.776
 6923SOL    HW221669   5.103   5.651   4.634
 6924SOL     OW21670   5.592   5.783   2.592
 6924SOL    HW121671   5.661   5.855   2.580
 6924SOL    HW221672   5.576   5.768   2.689
 6925SOL     OW21673   4.316   5.591   2.053
 6925SOL    HW121674   4.270   5.522   1.996
 6925SOL    HW221675   4.249   5.661   2.079
 6926SOL     OW21676   2.643   4.134   5.555
 6926SOL    HW121677   2.726   4.079   5.550
 6926SOL    HW221678   2.592   4.127   5.469
 6927SOL     OW21679   4.170   3.728   0.567
 6927SOL    HW121680   4.082   3.735   0.615
 6927SOL    HW221681   4.203   3.820   0.545
 6928SOL     OW21682   6.728   0.471   6.745
 6928SOL    HW121683   6.788   0.525   6.803
 6928SOL    HW221684   6.647   0.443   6.798
 6929SOL     OW21685   3.782   6.236   1.048
 6929SOL    HW121686   3.755   6.328   1.018
 6929SOL    HW221687   3.717   6.169   1.012
 6930SOL     OW21688   0.115   0.789   3.318
 6930SOL    HW121689   0.061   0.729   3.259
 6930SOL    HW221690   0.209   0.791   3.286
 6931SOL     OW21691   2.496   0.012   1.349
 6931SOL    HW121692   2.453   0.046   1.266
 6931SOL    HW221693   2.562   6.961   1.326
 6932SOL     OW21694   3.246   2.934   0.434
 6932SOL    HW121695   3.194   3.010   0.395
 6932SOL    HW221696   3.188   2.853   0.437
 6933SOL     OW21697   2.882   6.344   5.079
 6933SOL    HW121698   2.833   6.327   5.164
 6933SOL    HW221699   2.970   6.386   5.100
 6934SOL     OW21700   5.228   4.953   6.709
 6934SOL    HW121701   5.318   4.909   6.717
 6934SOL    HW221702   5.159   4.893   6.750
 6935SOL     OW21703   4.377   5.470   3.296
 6935SOL    HW121704   4.405   5.537   3.365
 6935SOL    HW221705   4.458   5.424   3.259
 6936SOL     OW21706   1.254   4.594   0.710
 6936SOL    HW121707   1.232   4.543   0.627
 6936SOL    HW221708   1.347   4.632   0.702
 6937SOL     OW21709   4.242   6.052   6.665
 6937SOL    HW121710   4.213   6.000   6.584
 6937SOL    HW221711   4.208   6.007   6.747
 6938SOL     OW21712   6.311   1.970   5.275
 6938SOL    HW121713   6.272   1.906   5.209
 6938SOL    HW221714   6.277   1.948   5.367
 6939SOL     OW21715   6.446   4.641   1.769
 6939SOL    HW121716   6.373   4.579   1.739
 6939SOL    HW221717   6.524   4.588   1.802
 6940SOL     OW21718   3.958   0.595   3.980
 6940SOL    HW121719   3.970   0.496   3.970
 6940SOL    HW221720   4.011   0.642   3.909
 6941SOL     OW21721   3.587   2.883   5.021
 6941SOL    HW121722   3.490   2.863   5.034
 6941SOL    HW221723   3.637   2.860   5.105
 6942SOL     OW21724   6.396   1.462   6.199
 6942SOL    HW121725   6.346   1.444   6.284
 6942SOL    HW221726   6.382   1.386   6.135
 6943SOL     OW21727   5.967   4.078   0.046
 6943SOL    HW121728   5.926   4.131   0.119
 6943SOL    HW221729   6.015   3.999   0.084
 6944SOL     OW21730   2.165   0.106   0.150
 6944SOL    HW121731   2.100   0.179   0.131
 6944SOL    HW221732   2.258   0.141   0.141
 6945SOL     OW21733   3.676   1.643   7.001
 6945SOL    HW121734   3.739   1.710   0.021
 6945SOL    HW221735   3.697   1.552   0.015
 6946SOL     OW21736   6.172   3.897   2.476
 6946SOL    HW121737   6.119   3.959   2.419
 6946SOL    HW221738   6.141   3.803   2.462
 6947SOL     OW21739   3.671   6.763   0.992
 6947SOL    HW121740   3.675   6.788   0.895
 6947SOL    HW221741   3.661   6.846   1.047
 6948SOL     OW21742   3.503   1.738   6.044
 6948SOL    HW121743   3.556   1.765   5.963
 6948SOL    HW221744   3.438   1.811   6.066
 6949SOL     OW21745   5.227   0.038   2.621
 6949SOL    HW121746   5.152   7.018   2.567
 6949SOL    HW221747   5.218   0.138   2.622
 6950SOL     OW21748   3.341   1.754   3.286
 6950SOL    HW121749   3.312   1.823   3.220
 6950SOL    HW221750   3.274   1.748   3.360
 6951SOL     OW21751   4.422   3.693   5.743
 6951SOL    HW121752   4.424   3.595   5.765
 6951SOL    HW221753   4.426   3.704   5.644
 6952SOL     OW21754   0.489   3.546   6.421
 6952SOL    HW121755   0.408   3.567   6.365
 6952SOL    HW221756   0.571   3.574   6.371
 6953SOL     OW21757   5.879   2.573   4.815
 6953SOL    HW121758   5.798   2.629   4.833
 6953SOL    HW221759   5.854   2.476   4.816
 6954SOL     OW21760   0.062   4.652   1.844
 6954SOL    HW121761   0.024   4.584   1.780
 6954SOL    HW221762   0.071   4.611   1.935
 6955SOL     OW21763   0.442   0.750   3.655
 6955SOL    HW121764   0.434   0.658   3.617
 6955SOL    HW221765   0.380   0.812   3.605
 6956SOL     OW21766   3.621   4.152   1.486
 6956SOL    HW121767   3.653   4.243   1.459
 6956SOL    HW221768   3.696   4.103   1.530
 6957SOL     OW21769   1.632   4.466   0.892
 6957SOL    HW121770   1.630   4.381   0.944
 6957SOL    HW221771   1.723   4.507   0.901
 6958SOL     OW21772   1.867   3.411   5.762
 6958SOL    HW121773   1.816   3.391   5.846
 6958SOL    HW221774   1.812   3.386   5.683
 6959SOL     OW21775   4.002   1.055   5.051
 6959SOL    HW121776   3.971   1.134   4.999
 6959SOL    HW221777   3.931   1.030   5.118
 6960SOL     OW21778   1.219   5.815   6.505
 6960SOL    HW121779   1.145   5.855   6.559
 6960SOL    HW221780   1.303   5.868   6.518
 6961SOL     OW21781   5.886   0.707   3.811
 6961SOL    HW121782   5.901   0.652   3.893
 6961SOL    HW221783   5.870   0.647   3.732
 6962SOL     OW21784   3.457   3.358   1.052
 6962SOL    HW121785   3.487   3.347   1.147
 6962SOL    HW221786   3.522   3.417   1.004
 6963SOL     OW21787   6.263   6.265   1.735
 6963SOL    HW121788   6.318   6.278   1.653
 6963SOL    HW221789   6.195   6.194   1.719
 6964SOL     OW21790   3.891   5.109   5.799
 6964SOL    HW121791   3.865   5.124   5.895
 6964SOL    HW221792   3.868   5.190   5.745
 6965SOL     OW21793   6.405   0.982   6.027
 6965SOL    HW121794   6.324   0.924   6.020
 6965SOL    HW221795   6.432   0.992   6.122
 6966SOL     OW21796   4.385   2.282   3.671
 6966SOL    HW121797   4.423   2.193   3.645
 6966SOL    HW221798   4.406   2.301   3.767
 6967SOL     OW21799   2.920   3.151   6.415
 6967SOL    HW121800   2.854   3.160   6.490
 6967SOL    HW221801   2.900   3.069   6.362
 6968SOL     OW21802   3.603   0.840   3.128
 6968SOL    HW121803   3.621   0.932   3.164
 6968SOL    HW221804   3.583   0.778   3.203
 6969SOL     OW21805   3.675   3.297   1.718
 6969SOL    HW121806   3.576   3.282   1.725
 6969SOL    HW221807   3.718   3.276   1.805
 6970SOL     OW21808   5.030   4.480   0.232
 6970SOL    HW121809   5.033   4.579   0.244
 6970SOL    HW221810   4.991   4.437   0.313
 6971SOL     OW21811   5.935   1.572   2.264
 6971SOL    HW121812   5.872   1.648   2.274
 6971SOL    HW221813   5.945   1.549   2.167
 6972SOL     OW21814   5.101   5.948   4.593
 6972SOL    HW121815   5.085   5.991   4.504
 6972SOL    HW221816   5.028   5.973   4.656
 6973SOL     OW21817   1.500   4.319   2.911
 6973SOL    HW121818   1.431   4.344   2.843
 6973SOL    HW221819   1.585   4.368   2.894
 6974SOL     OW21820   2.898   3.817   5.088
 6974SOL    HW121821   2.904   3.887   5.017
 6974SOL    HW221822   2.980   3.760   5.085
 6975SOL     OW21823   1.933   6.632   6.666
 6975SOL    HW121824   1.912   6.692   6.743
 6975SOL    HW221825   1.980   6.550   6.699
 6976SOL     OW21826   1.177   6.147   1.334
 6976SOL    HW121827   1.218   6.114   1.249
 6976SOL    HW221828   1.146   6.069   1.389
 6977SOL     OW21829   5.645   2.547   0.899
 6977SOL    HW121830   5.643   2.647   0.897
 6977SOL    HW221831   5.552   2.512   0.889
 6978SOL     OW21832   4.750   2.590   3.359
 6978SOL    HW121833   4.809   2.669   3.377
 6978SOL    HW221834   4.755   2.527   3.437
 6979SOL     OW21835   6.999   3.671   4.489
 6979SOL    HW121836   7.004   3.770   4.503
 6979SOL    HW221837   0.055   3.626   4.536
 6980SOL     OW21838   4.647   2.016   4.701
 6980SOL    HW121839   4.612   2.021   4.795
 6980SOL    HW221840   4.657   1.920   4.675
 6981SOL     OW21841   3.183   3.500   6.218
 6981SOL    HW121842   3.116   3.557   6.171
 6981SOL    HW221843   3.269   3.549   6.225
 6982SOL     OW21844   1.161   0.057   5.004
 6982SOL    HW121845   1.145   0.115   4.924
 6982SOL    HW221846   1.102   6.997   5.001
 6983SOL     OW21847   6.198   0.985   2.740
 6983SOL    HW121848   6.272   1.051   2.728
 6983SOL    HW221849   6.114   1.033   2.764
 6984SOL     OW21850   2.164   1.111   6.543
 6984SOL    HW121851   2.109   1.045   6.594
 6984SOL    HW221852   2.163   1.088   6.446
 6985SOL     OW21853   4.500   0.033   4.020
 6985SOL    HW121854   4.530   6.986   4.087
 6985SOL    HW221855   4.549   0.119   4.035
 6986SOL     OW21856   2.343   6.154   5.190
 6986SOL    HW121857   2.291   6.068   5.190
 6986SOL    HW221858   2.299   6.220   5.250
 6987SOL     OW21859   6.742   3.402   6.260
 6987SOL    HW121860   6.659   3.432   6.306
 6987SOL    HW221861   6.750   3.302   6.267
 6988SOL     OW21862   5.415   1.814   6.852
 6988SOL    HW121863   5.321   1.821   6.818
 6988SOL    HW221864   5.421   1.855   6.943
 6989SOL     OW21865   1.946   3.682   4.562
 6989SOL    HW121866   1.974   3.598   4.607
 6989SOL    HW221867   1.893   3.661   4.480
 6990SOL     OW21868   4.177   3.543   1.909
 6990SOL    HW121869   4.203   3.615   1.845
 6990SOL    HW221870   4.211   3.455   1.877
 6991SOL     OW21871   4.556   4.554   5.438
 6991SOL    HW121872   4.529   4.539   5.533
 6991SOL    HW221873   4.656   4.551   5.431
 6992SOL     OW21874   6.617   6.698   5.101
 6992SOL    HW121875   6.646   6.730   5.191
 6992SOL    HW221876   6.519   6.715   5.090
 6993SOL     OW21877   0.565   0.426   3.029
 6993SOL    HW121878   0.501   0.471   2.968
 6993SOL    HW221879   0.655   0.469   3.020
 6994SOL     OW21880   1.991   2.121   0.368
 6994SOL    HW121881   2.016   2.048   0.304
 6994SOL    HW221882   1.897   2.108   0.398
 6995SOL     OW21883   1.136   5.586   3.527
 6995SOL    HW121884   1.189   5.510   3.488
 6995SOL    HW221885   1.120   5.569   3.624
 6996SOL     OW21886   1.667   6.941   5.020
 6996SOL    HW121887   1.683   6.968   4.925
 6996SOL    HW221888   1.577   6.974   5.049
 6997SOL     OW21889   4.380   4.949   4.512
 6997SOL    HW121890   4.327   4.924   4.431
 6997SOL    HW221891   4.320   4.949   4.592
 6998SOL     OW21892   2.849   1.889   2.052
 6998SOL    HW121893   2.780   1.897   1.980
 6998SOL    HW221894   2.913   1.965   2.046
 6999SOL     OW21895   5.590   1.985   0.018
 6999SOL    HW121896   5.558   2.056   0.081
 6999SOL    HW221897   5.655   2.025   6.974
 7000SOL     OW21898   6.777   0.009   1.945
 7000SOL    HW121899   6.729   6.999   1.863
 7000SOL    HW221900   6.868   0.043   1.921
 7001SOL     OW21901   2.506   1.509   6.871
 7001SOL    HW121902   2.578   1.566   6.832
 7001SOL    HW221903   2.545   1.447   6.939
 7002SOL     OW21904   2.719   5.429   1.380
 7002SOL    HW121905   2.789   5.479   1.430
 7002SOL    HW221906   2.739   5.331   1.383
 7003SOL     OW21907   1.696   6.311   5.976
 7003SOL    HW121908   1.729   6.217   5.975
 7003SOL    HW221909   1.604   6.315   5.937
 7004SOL     OW21910   2.209   3.859   6.626
 7004SOL    HW121911   2.184   3.949   6.661
 7004SOL    HW221912   2.203   3.860   6.526
 7005SOL     OW21913   6.139   0.611   5.740
 7005SOL    HW121914   6.147   0.699   5.692
 7005SOL    HW221915   6.074   0.553   5.691
 7006SOL     OW21916   5.017   5.565   3.941
 7006SOL    HW121917   4.993   5.519   3.855
 7006SOL    HW221918   5.091   5.630   3.925
 7007SOL     OW21919   5.659   4.917   1.494
 7007SOL    HW121920   5.622   5.005   1.466
 7007SOL    HW221921   5.659   4.911   1.594
 7008SOL     OW21922   0.805   6.321   3.861
 7008SOL    HW121923   0.895   6.315   3.905
 7008SOL    HW221924   0.739   6.267   3.913
 7009SOL     OW21925   0.083   4.269   1.147
 7009SOL    HW121926   0.132   4.189   1.111
 7009SOL    HW221927   0.077   4.339   1.076
 7010SOL     OW21928   4.912   4.064   5.939
 7010SOL    HW121929   4.995   4.082   5.992
 7010SOL    HW221930   4.832   4.074   5.997
 7011SOL     OW21931   1.142   0.129   5.823
 7011SOL    HW121932   1.043   0.115   5.814
 7011SOL    HW221933   1.171   0.200   5.758
 7012SOL     OW21934   0.475   0.546   1.864
 7012SOL    HW121935   0.413   0.469   1.850
 7012SOL    HW221936   0.421   0.631   1.868
 7013SOL     OW21937   6.176   2.148   1.302
 7013SOL    HW121938   6.264   2.194   1.311
 7013SOL    HW221939   6.111   2.209   1.258
 7014SOL     OW21940   2.340   5.186   0.902
 7014SOL    HW121941   2.274   5.232   0.841
 7014SOL    HW221942   2.321   5.088   0.904
 7015SOL     OW21943   4.583   2.217   2.180
 7015SOL    HW121944   4.501   2.170   2.147
 7015SOL    HW221945   4.558   2.308   2.214
 7016SOL     OW21946   5.148   4.709   0.499
 7016SOL    HW121947   5.109   4.689   0.410
 7016SOL    HW221948   5.236   4.755   0.488
 7017SOL     OW21949   5.286   2.244   5.336
 7017SOL    HW121950   5.356   2.173   5.346
 7017SOL    HW221951   5.196   2.205   5.351
 7018SOL     OW21952   0.795   4.010   3.051
 7018SOL    HW121953   0.836   4.043   2.966
 7018SOL    HW221954   0.696   4.023   3.049
 7019SOL     OW21955   6.764   6.189   2.577
 7019SOL    HW121956   6.794   6.107   2.530
 7019SOL    HW221957   6.704   6.242   2.517
 7020SOL     OW21958   6.847   5.736   6.939
 7020SOL    HW121959   6.922   5.719   7.003
 7020SOL    HW221960   6.789   5.809   6.975
 7021SOL     OW21961   3.180   6.743   5.576
 7021SOL    HW121962   3.086   6.774   5.589
 7021SOL    HW221963   3.195   6.721   5.479
 7022SOL     OW21964   3.626   4.770   5.774
 7022SOL    HW121965   3.583   4.681   5.766
 7022SOL    HW221966   3.627   4.815   5.685
 7023SOL     OW21967   4.783   5.369   2.097
 7023SOL    HW121968   4.835   5.447   2.133
 7023SOL    HW221969   4.803   5.357   2.000
 7024SOL     OW21970   6.265   0.128   2.223
 7024SOL    HW121971   6.331   0.203   2.221
 7024SOL    HW221972   6.312   0.041   2.207
 7025SOL     OW21973   2.970   0.239   1.471
 7025SOL    HW121974   3.056   0.226   1.421
 7025SOL    HW221975   2.900   0.276   1.408
 7026SOL     OW21976   4.641   2.637   0.701
 7026SOL    HW121977   4.681   2.678   0.619
 7026SOL    HW221978   4.617   2.708   0.766
 7027SOL     OW21979   5.808   5.683   4.945
 7027SOL    HW121980   5.799   5.740   5.027
 7027SOL    HW221981   5.901   5.647   4.940
 7028SOL     OW21982   3.126   0.941   4.569
 7028SOL    HW121983   3.137   0.979   4.661
 7028SOL    HW221984   3.033   0.957   4.537
 7029SOL     OW21985   3.675   6.950   3.961
 7029SOL    HW121986   3.718   6.938   4.050
 7029SOL    HW221987   3.580   6.918   3.965
 7030SOL     OW21988   1.243   3.938   4.010
 7030SOL    HW121989   1.287   3.855   4.044
 7030SOL    HW221990   1.213   3.993   4.087
 7031SOL     OW21991   1.930   0.938   4.120
 7031SOL    HW121992   1.860   0.869   4.136
 7031SOL    HW221993   2.015   0.892   4.093
 7032SOL     OW21994   5.964   2.205   3.606
 7032SOL    HW121995   6.025   2.280   3.583
 7032SOL    HW221996   5.891   2.238   3.665
 7033SOL     OW21997   0.150   1.120   5.001
 7033SOL    HW121998   0.063   1.159   4.971
 7033SOL    HW221999   0.136   1.024   5.025
 7034SOL     OW22000   7.016   5.030   3.882
 7034SOL    HW122001   6.929   4.981   3.888
 7034SOL    HW222002   0.032   5.022   3.789
 7035SOL     OW22003   6.923   4.841   1.226
 7035SOL    HW122004   6.892   4.800   1.312
 7035SOL    HW222005   6.880   4.931   1.214
 7036SOL     OW22006   6.550   5.525   0.415
 7036SOL    HW122007   6.553   5.478   0.327
 7036SOL    HW222008   6.619   5.486   0.476
 7037SOL     OW22009   1.339   0.277   6.460
 7037SOL    HW122010   1.293   0.326   6.534
 7037SOL    HW222011   1.415   0.332   6.425
 7038SOL     OW22012   2.278   2.730   4.458
 7038SOL    HW122013   2.338   2.759   4.533
 7038SOL    HW222014   2.328   2.669   4.396
 7039SOL     OW22015   3.951   1.961   6.404
 7039SOL    HW122016   3.921   2.051   6.434
 7039SOL    HW222017   3.878   1.895   6.420
 7040SOL     OW22018   6.452   1.936   6.492
 7040SOL    HW122019   6.374   1.884   6.457
 7040SOL    HW222020   6.518   1.951   6.419
 7041SOL     OW22021   2.162   1.366   3.507
 7041SOL    HW122022   2.136   1.293   3.444
 7041SOL    HW222023   2.132   1.454   3.471
 7042SOL     OW22024   2.056   1.124   0.016
 7042SOL    HW122025   1.989   1.050   0.018
 7042SOL    HW222026   2.130   1.101   6.974
 7043SOL     OW22027   1.704   2.831   1.245
 7043SOL    HW122028   1.745   2.780   1.169
 7043SOL    HW222029   1.707   2.776   1.328
 7044SOL     OW22030   0.313   5.945   0.713
 7044SOL    HW122031   0.364   5.909   0.634
 7044SOL    HW222032   0.222   5.904   0.714
 7045SOL     OW22033   0.360   4.851   0.157
 7045SOL    HW122034   0.396   4.763   0.190
 7045SOL    HW222035   0.266   4.863   0.189
 7046SOL     OW22036   2.573   2.203   3.637
 7046SOL    HW122037   2.666   2.165   3.641
 7046SOL    HW222038   2.517   2.161   3.708
 7047SOL     OW22039   1.248   6.750   3.319
 7047SOL    HW122040   1.240   6.822   3.249
 7047SOL    HW222041   1.321   6.687   3.294
 7048SOL     OW22042   0.283   5.606   6.834
 7048SOL    HW122043   0.335   5.681   6.874
 7048SOL    HW222044   0.323   5.581   6.746
 7049SOL     OW22045   2.470   1.374   6.600
 7049SOL    HW122046   2.471   1.446   6.670
 7049SOL    HW222047   2.561   1.365   6.560
 7050SOL     OW22048   3.372   3.410   5.727
 7050SOL    HW122049   3.468   3.398   5.750
 7050SOL    HW222050   3.359   3.399   5.629
 7051SOL     OW22051   5.841   5.905   2.285
 7051SOL    HW122052   5.863   5.824   2.340
 7051SOL    HW222053   5.744   5.904   2.262
 7052SOL     OW22054   6.393   0.730   4.808
 7052SOL    HW122055   6.320   0.761   4.869
 7052SOL    HW222056   6.465   0.799   4.804
 7053SOL     OW22057   6.319   3.390   6.454
 7053SOL    HW122058   6.338   3.304   6.503
 7053SOL    HW222059   6.220   3.397   6.439
 7054SOL     OW22060   5.929   2.355   2.639
 7054SOL    HW122061   5.891   2.325   2.552
 7054SOL    HW222062   5.994   2.430   2.623
 7055SOL     OW22063   4.148   1.625   3.407
 7055SOL    HW122064   4.241   1.655   3.429
 7055SOL    HW222065   4.084   1.699   3.426
 7056SOL     OW22066   4.836   5.659   4.856
 7056SOL    HW122067   4.760   5.645   4.792
 7056SOL    HW222068   4.921   5.668   4.806
 7057SOL     OW22069   5.969   6.398   2.906
 7057SOL    HW122070   6.050   6.341   2.905
 7057SOL    HW222071   5.946   6.422   3.001
 7058SOL     OW22072   6.893   3.879   4.806
 7058SOL    HW122073   6.927   3.879   4.712
 7058SOL    HW222074   6.947   3.942   4.861
 7059SOL     OW22075   1.484   0.487   1.956
 7059SOL    HW122076   1.579   0.516   1.952
 7059SOL    HW222077   1.424   0.564   1.934
 7060SOL     OW22078   4.130   0.132   1.281
 7060SOL    HW122079   4.185   0.135   1.365
 7060SOL    HW222080   4.153   0.210   1.223
 7061SOL     OW22081   0.944   1.498   2.841
 7061SOL    HW122082   0.884   1.418   2.845
 7061SOL    HW222083   0.917   1.563   2.912
 7062SOL     OW22084   6.492   1.252   5.899
 7062SOL    HW122085   6.526   1.183   5.835
 7062SOL    HW222086   6.565   1.315   5.923
 7063SOL     OW22087   1.963   6.423   1.848
 7063SOL    HW122088   2.017   6.431   1.765
 7063SOL    HW222089   1.922   6.332   1.853
 7064SOL     OW22090   3.388   2.906   0.649
 7064SOL    HW122091   3.389   2.980   0.715
 7064SOL    HW222092   3.346   2.938   0.564
 7065SOL     OW22093   3.380   3.498   2.416
 7065SOL    HW122094   3.313   3.465   2.482
 7065SOL    HW222095   3.463   3.527   2.465
 7066SOL     OW22096   2.472   4.749   1.776
 7066SOL    HW122097   2.406   4.822   1.793
 7066SOL    HW222098   2.563   4.788   1.763
 7067SOL     OW22099   0.966   3.987   4.779
 7067SOL    HW122100   0.867   3.998   4.790
 7067SOL    HW222101   1.014   4.035   4.852
 7068SOL     OW22102   1.013   1.107   2.916
 7068SOL    HW122103   0.933   1.161   2.942
 7068SOL    HW222104   1.005   1.015   2.953
 7069SOL     OW22105   1.731   4.377   5.236
 7069SOL    HW122106   1.830   4.371   5.237
 7069SOL    HW222107   1.701   4.420   5.150
 7070SOL     OW22108   5.684   5.540   2.914
 7070SOL    HW122109   5.680   5.494   2.825
 7070SOL    HW222110   5.662   5.474   2.986
 7071SOL     OW22111   1.699   6.705   5.597
 7071SOL    HW122112   1.787   6.694   5.643
 7071SOL    HW222113   1.688   6.800   5.568
 7072SOL     OW22114   0.115   0.225   6.486
 7072SOL    HW122115   0.050   0.272   6.545
 7072SOL    HW222116   0.075   0.213   6.395
 7073SOL     OW22117   2.075   2.633   6.964
 7073SOL    HW122118   2.080   2.595   6.872
 7073SOL    HW222119   2.138   2.710   6.972
 7074SOL     OW22120   3.820   1.294   6.569
 7074SOL    HW122121   3.829   1.287   6.668
 7074SOL    HW222122   3.742   1.238   6.538
 7075SOL     OW22123   0.959   6.076   3.407
 7075SOL    HW122124   0.965   5.995   3.464
 7075SOL    HW222125   0.974   6.158   3.463
 7076SOL     OW22126   2.814   1.203   6.090
 7076SOL    HW122127   2.775   1.121   6.131
 7076SOL    HW222128   2.874   1.248   6.156
 7077SOL     OW22129   1.149   5.606   6.353
 7077SOL    HW122130   1.168   5.688   6.406
 7077SOL    HW222131   1.102   5.539   6.410
 7078SOL     OW22132   0.226   0.556   1.493
 7078SOL    HW122133   0.152   0.581   1.556
 7078SOL    HW222134   0.276   0.639   1.467
 7079SOL     OW22135   4.897   6.535   4.466
 7079SOL    HW122136   4.919   6.441   4.440
 7079SOL    HW222137   4.826   6.571   4.405
 7080SOL     OW22138   5.972   0.506   3.995
 7080SOL    HW122139   5.908   0.441   3.954
 7080SOL    HW222140   6.066   0.476   3.978
 7081SOL     OW22141   4.658   0.884   4.478
 7081SOL    HW122142   4.651   0.811   4.409
 7081SOL    HW222143   4.566   0.911   4.507
 7082SOL     OW22144   5.902   1.077   0.286
 7082SOL    HW122145   5.803   1.080   0.267
 7082SOL    HW222146   5.917   1.079   0.385
 7083SOL     OW22147   4.036   0.387   5.295
 7083SOL    HW122148   4.010   0.385   5.391
 7083SOL    HW222149   4.109   0.321   5.279
 7084SOL     OW22150   6.197   5.766   0.085
 7084SOL    HW122151   6.217   5.862   0.104
 7084SOL    HW222152   6.183   5.718   0.171
 7085SOL     OW22153   5.145   1.733   1.427
 7085SOL    HW122154   5.071   1.713   1.362
 7085SOL    HW222155   5.208   1.799   1.387
 7086SOL     OW22156   1.564   0.835   5.961
 7086SOL    HW122157   1.658   0.799   5.960
 7086SOL    HW222158   1.567   0.934   5.955
 7087SOL     OW22159   2.348   2.672   4.735
 7087SOL    HW122160   2.369   2.667   4.833
 7087SOL    HW222161   2.337   2.767   4.708
 7088SOL     OW22162   6.973   1.519   4.362
 7088SOL    HW122163   7.013   1.485   4.277
 7088SOL    HW222164   6.916   1.447   4.403
 7089SOL     OW22165   3.081   1.782   1.957
 7089SOL    HW122166   2.992   1.820   1.983
 7089SOL    HW222167   3.068   1.704   1.896
 7090SOL     OW22168   3.185   0.638   5.053
 7090SOL    HW122169   3.112   0.573   5.031
 7090SOL    HW222170   3.232   0.664   4.969
 7091SOL     OW22171   6.501   5.299   6.681
 7091SOL    HW122172   6.576   5.330   6.623
 7091SOL    HW222173   6.475   5.373   6.743
 7092SOL     OW22174   3.667   2.509   0.447
 7092SOL    HW122175   3.717   2.443   0.503
 7092SOL    HW222176   3.618   2.572   0.506
 7093SOL     OW22177   3.823   3.259   5.887
 7093SOL    HW122178   3.762   3.337   5.879
 7093SOL    HW222179   3.881   3.253   5.806
 7094SOL     OW22180   5.955   0.968   6.629
 7094SOL    HW122181   5.936   0.925   6.541
 7094SOL    HW222182   5.882   1.032   6.652
 7095SOL     OW22183   0.910   4.143   1.118
 7095SOL    HW122184   0.895   4.240   1.099
 7095SOL    HW222185   1.006   4.128   1.141
 7096SOL     OW22186   3.675   0.025   3.261
 7096SOL    HW122187   3.641   0.025   3.167
 7096SOL    HW222188   3.682   6.950   3.294
 7097SOL     OW22189   1.533   1.252   1.627
 7097SOL    HW122190   1.585   1.254   1.712
 7097SOL    HW222191   1.580   1.308   1.558
 7098SOL     OW22192   1.448   0.741   6.584
 7098SOL    HW122193   1.523   0.749   6.649
 7098SOL    HW222194   1.361   0.742   6.633
 7099SOL     OW22195   6.794   1.665   4.934
 7099SOL    HW122196   6.866   1.617   4.985
 7099SOL    HW222197   6.742   1.599   4.880
 7100SOL     OW22198   5.454   1.771   0.836
 7100SOL    HW122199   5.531   1.742   0.893
 7100SOL    HW222200   5.483   1.845   0.776
 7101SOL     OW22201   1.719   0.752   4.718
 7101SOL    HW122202   1.640   0.729   4.661
 7101SOL    HW222203   1.772   0.669   4.735
 7102SOL     OW22204   4.442   2.560   0.144
 7102SOL    HW122205   4.542   2.559   0.143
 7102SOL    HW222206   4.409   2.652   0.122
 7103SOL     OW22207   2.200   6.969   6.435
 7103SOL    HW122208   2.163   6.881   6.464
 7103SOL    HW222209   2.162   6.994   6.346
 7104SOL     OW22210   0.334   3.657   1.303
 7104SOL    HW122211   0.291   3.581   1.353
 7104SOL    HW222212   0.405   3.698   1.360
 7105SOL     OW22213   1.993   2.703   4.875
 7105SOL    HW122214   1.982   2.774   4.806
 7105SOL    HW222215   2.090   2.682   4.886
 7106SOL     OW22216   3.086   2.844   5.288
 7106SOL    HW122217   3.082   2.927   5.232
 7106SOL    HW222218   2.994   2.817   5.316
 7107SOL     OW22219   2.263   1.459   0.145
 7107SOL    HW122220   2.307   1.525   0.207
 7107SOL    HW222221   2.174   1.434   0.182
 7108SOL     OW22222   4.498   6.654   2.547
 7108SOL    HW122223   4.590   6.677   2.579
 7108SOL    HW222224   4.432   6.678   2.618
 7109SOL     OW22225   4.735   5.899   6.904
 7109SOL    HW122226   4.791   5.838   6.960
 7109SOL    HW222227   4.642   5.864   6.900
 7110SOL     OW22228   3.705   4.929   4.094
 7110SOL    HW122229   3.746   4.909   4.183
 7110SOL    HW222230   3.606   4.935   4.103
 7111SOL     OW22231   1.087   3.038   3.241
 7111SOL    HW122232   1.113   3.050   3.337
 7111SOL    HW222233   1.164   3.063   3.182
 7112SOL     OW22234   1.782   6.301   2.811
 7112SOL    HW122235   1.693   6.271   2.844
 7112SOL    HW222236   1.852   6.235   2.840
 7113SOL     OW22237   3.572   4.040   5.798
 7113SOL    HW122238   3.492   4.050   5.857
 7113SOL    HW222239   3.593   4.128   5.754
 7114SOL     OW22240   3.766   6.568   1.139
 7114SOL    HW122241   3.865   6.560   1.140
 7114SOL    HW222242   3.739   6.653   1.093
 7115SOL     OW22243   3.986   2.331   1.519
 7115SOL    HW122244   3.959   2.349   1.614
 7115SOL    HW222245   3.959   2.409   1.462
 7116SOL     OW22246   6.109   4.060   3.667
 7116SOL    HW122247   6.150   4.142   3.707
 7116SOL    HW222248   6.027   4.035   3.719
 7117SOL     OW22249   5.412   6.951   2.428
 7117SOL    HW122250   5.500   6.969   2.471
 7117SOL    HW222251   5.338   6.983   2.488
 7118SOL     OW22252   6.632   3.353   3.778
 7118SOL    HW122253   6.713   3.329   3.724
 7118SOL    HW222254   6.623   3.452   3.781
 7119SOL     OW22255   0.696   2.193   2.377
 7119SOL    HW122256   0.759   2.264   2.345
 7119SOL    HW222257   0.611   2.197   2.324
 7120SOL     OW22258   4.539   6.127   4.099
 7120SOL    HW122259   4.491   6.215   4.091
 7120SOL    HW222260   4.603   6.117   4.023
 7121SOL     OW22261   1.923   6.438   1.205
 7121SOL    HW122262   1.835   6.455   1.250
 7121SOL    HW222263   1.959   6.524   1.168
 7122SOL     OW22264   0.346   6.161   0.288
 7122SOL    HW122265   0.274   6.231   0.290
 7122SOL    HW222266   0.315   6.080   0.337
 7123SOL     OW22267   3.309   4.782   0.855
 7123SOL    HW122268   3.229   4.783   0.916
 7123SOL    HW222269   3.393   4.780   0.909
 7124SOL     OW22270   0.265   5.223   6.620
 7124SOL    HW122271   0.195   5.266   6.678
 7124SOL    HW222272   0.228   5.139   6.581
 7125SOL     OW22273   1.254   5.632   3.046
 7125SOL    HW122274   1.348   5.657   3.072
 7125SOL    HW222275   1.241   5.534   3.062
 7126SOL     OW22276   1.725   4.295   1.299
 7126SOL    HW122277   1.678   4.233   1.361
 7126SOL    HW222278   1.722   4.388   1.335
 7127SOL     OW22279   2.190   0.325   4.923
 7127SOL    HW122280   2.163   0.419   4.903
 7127SOL    HW222281   2.220   0.319   5.018
 7128SOL     OW22282   3.081   3.355   2.724
 7128SOL    HW122283   3.157   3.421   2.719
 7128SOL    HW222284   3.016   3.374   2.650
 7129SOL     OW22285   3.311   1.431   0.727
 7129SOL    HW122286   3.362   1.497   0.672
 7129SOL    HW222287   3.339   1.339   0.704
 7130SOL     OW22288   1.669   0.460   2.936
 7130SOL    HW122289   1.702   0.369   2.910
 7130SOL    HW222290   1.743   0.511   2.979
 7131SOL     OW22291   2.879   1.140   3.316
 7131SOL    HW122292   2.857   1.050   3.353
 7131SOL    HW222293   2.869   1.209   3.388
 7132SOL     OW22294   2.893   3.651   2.267
 7132SOL    HW122295   2.865   3.705   2.188
 7132SOL    HW222296   2.899   3.555   2.243
 7133SOL     OW22297   6.410   3.965   1.607
 7133SOL    HW122298   6.454   3.891   1.657
 7133SOL    HW222299   6.349   3.926   1.537
 7134SOL     OW22300   4.448   4.516   2.518
 7134SOL    HW122301   4.485   4.460   2.443
 7134SOL    HW222302   4.489   4.607   2.514
 7135SOL     OW22303   6.848   1.921   5.471
 7135SOL    HW122304   6.815   1.843   5.419
 7135SOL    HW222305   6.872   1.892   5.564
 7136SOL     OW22306   1.752   1.854   6.350
 7136SOL    HW122307   1.847   1.843   6.380
 7136SOL    HW222308   1.731   1.784   6.281
 7137SOL     OW22309   5.337   1.762   4.974
 7137SOL    HW122310   5.242   1.753   4.946
 7137SOL    HW222311   5.395   1.707   4.915
 7138SOL     OW22312   1.977   1.755   6.486
 7138SOL    HW122313   2.021   1.718   6.404
 7138SOL    HW222314   1.904   1.693   6.515
 7139SOL     OW22315   1.937   1.599   0.354
 7139SOL    HW122316   1.901   1.692   0.361
 7139SOL    HW222317   2.037   1.601   0.366
 7140SOL     OW22318   6.824   4.555   4.300
 7140SOL    HW122319   6.902   4.504   4.263
 7140SOL    HW222320   6.752   4.562   4.231
 7141SOL     OW22321   0.878   0.191   2.137
 7141SOL    HW122322   0.812   0.208   2.210
 7141SOL    HW222323   0.889   0.274   2.082
 7142SOL     OW22324   3.739   6.604   3.975
 7142SOL    HW122325   3.832   6.578   3.949
 7142SOL    HW222326   3.684   6.615   3.893
 7143SOL     OW22327   1.784   2.695   3.701
 7143SOL    HW122328   1.773   2.653   3.611
 7143SOL    HW222329   1.713   2.763   3.715
 7144SOL     OW22330   1.649   3.686   3.574
 7144SOL    HW122331   1.690   3.645   3.493
 7144SOL    HW222332   1.667   3.629   3.654
 7145SOL     OW22333   3.611   5.562   6.944
 7145SOL    HW122334   3.583   5.639   6.887
 7145SOL    HW222335   3.609   5.589   0.020
 7146SOL     OW22336   3.694   4.949   1.353
 7146SOL    HW122337   3.772   4.895   1.384
 7146SOL    HW222338   3.683   5.030   1.412
 7147SOL     OW22339   0.652   1.313   3.512
 7147SOL    HW122340   0.739   1.354   3.485
 7147SOL    HW222341   0.593   1.304   3.431
 7148SOL     OW22342   6.915   2.181   0.667
 7148SOL    HW122343   6.886   2.116   0.596
 7148SOL    HW222344   6.847   2.183   0.740
 7149SOL     OW22345   1.242   0.765   4.844
 7149SOL    HW122346   1.308   0.834   4.873
 7149SOL    HW222347   1.168   0.808   4.794
 7150SOL     OW22348   6.020   2.850   5.758
 7150SOL    HW122349   6.074   2.886   5.834
 7150SOL    HW222350   5.925   2.883   5.766
 7151SOL     OW22351   1.288   0.297   0.423
 7151SOL    HW122352   1.274   0.249   0.336
 7151SOL    HW222353   1.287   0.232   0.498
 7152SOL     OW22354   0.920   2.467   4.934
 7152SOL    HW122355   0.951   2.432   5.023
 7152SOL    HW222356   0.834   2.421   4.909
 7153SOL     OW22357   4.677   2.107   3.001
 7153SOL    HW122358   4.592   2.139   3.042
 7153SOL    HW222359   4.740   2.184   2.992
 7154SOL     OW22360   3.413   6.731   4.401
 7154SOL    HW122361   3.388   6.703   4.308
 7154SOL    HW222362   3.361   6.813   4.427
 7155SOL     OW22363   2.546   1.436   4.137
 7155SOL    HW122364   2.463   1.452   4.191
 7155SOL    HW222365   2.626   1.445   4.196
 7156SOL     OW22366   2.284   5.507   5.227
 7156SOL    HW122367   2.288   5.430   5.163
 7156SOL    HW222368   2.320   5.589   5.184
 7157SOL     OW22369   5.651   4.434   0.122
 7157SOL    HW122370   5.652   4.478   0.032
 7157SOL    HW222371   5.556   4.413   0.147
 7158SOL     OW22372   3.621   0.427   3.114
 7158SOL    HW122373   3.534   0.428   3.064
 7158SOL    HW222374   3.615   0.488   3.193
 7159SOL     OW22375   1.375   6.120   6.996
 7159SOL    HW122376   1.441   6.053   0.010
 7159SOL    HW222377   1.416   6.211   6.998
 7160SOL     OW22378   0.150   0.360   2.274
 7160SOL    HW122379   0.067   0.407   2.302
 7160SOL    HW222380   0.160   0.366   2.175
 7161SOL     OW22381   3.211   4.091   4.805
 7161SOL    HW122382   3.139   4.156   4.780
 7161SOL    HW222383   3.206   4.072   4.903
 7162SOL     OW22384   3.438   4.984   4.106
 7162SOL    HW122385   3.356   4.945   4.062
 7162SOL    HW222386   3.413   5.065   4.158
 7163SOL     OW22387   1.042   6.308   3.980
 7163SOL    HW122388   1.105   6.234   3.956
 7163SOL    HW222389   1.082   6.396   3.954
 7164SOL     OW22390   3.707   1.551   4.242
 7164SOL    HW122391   3.751   1.545   4.153
 7164SOL    HW222392   3.609   1.533   4.232
 7165SOL     OW22393   4.335   5.129   1.906
 7165SOL    HW122394   4.239   5.157   1.904
 7165SOL    HW222395   4.384   5.168   1.829
 7166SOL     OW22396   3.265   6.432   2.620
 7166SOL    HW122397   3.166   6.433   2.605
 7166SOL    HW222398   3.306   6.515   2.582
 7167SOL     OW22399   5.693   3.220   0.194
 7167SOL    HW122400   5.597   3.226   0.222
 7167SOL    HW222401   5.750   3.205   0.275
 7168SOL     OW22402   6.682   1.174   4.382
 7168SOL    HW122403   6.745   1.182   4.305
 7168SOL    HW222404   6.724   1.213   4.464
 7169SOL     OW22405   2.680   2.927   6.884
 7169SOL    HW122406   2.625   2.846   6.866
 7169SOL    HW222407   2.704   2.929   6.981
 7170SOL     OW22408   4.796   4.005   4.460
 7170SOL    HW122409   4.777   3.908   4.448
 7170SOL    HW222410   4.893   4.018   4.481
 7171SOL     OW22411   3.727   3.719   5.341
 7171SOL    HW122412   3.681   3.663   5.409
 7171SOL    HW222413   3.678   3.805   5.329
 7172SOL     OW22414   6.014   5.825   0.983
 7172SOL    HW122415   5.968   5.891   0.923
 7172SOL    HW222416   6.111   5.818   0.957
 7173SOL     OW22417   6.936   6.522   4.537
 7173SOL    HW122418   6.871   6.574   4.483
 7173SOL    HW222419   6.994   6.467   4.476
 7174SOL     OW22420   1.195   6.532   6.138
 7174SOL    HW122421   1.125   6.567   6.201
 7174SOL    HW222422   1.284   6.571   6.162
 7175SOL     OW22423   6.159   3.732   5.581
 7175SOL    HW122424   6.085   3.738   5.514
 7175SOL    HW222425   6.121   3.729   5.673
 7176SOL     OW22426   1.147   3.636   1.008
 7176SOL    HW122427   1.077   3.628   0.937
 7176SOL    HW222428   1.238   3.641   0.966
 7177SOL     OW22429   0.745   5.305   1.421
 7177SOL    HW122430   0.765   5.399   1.448
 7177SOL    HW222431   0.648   5.296   1.400
 7178SOL     OW22432   6.432   0.555   6.702
 7178SOL    HW122433   6.438   0.469   6.652
 7178SOL    HW222434   6.467   0.542   6.794
 7179SOL     OW22435   0.724   3.634   5.720
 7179SOL    HW122436   0.816   3.628   5.682
 7179SOL    HW222437   0.705   3.553   5.775
 7180SOL     OW22438   6.954   0.676   1.912
 7180SOL    HW122439   6.991   0.687   2.004
 7180SOL    HW222440   6.869   0.623   1.916
 7181SOL     OW22441   5.347   6.043   2.641
 7181SOL    HW122442   5.397   5.974   2.590
 7181SOL    HW222443   5.273   6.080   2.584
 7182SOL     OW22444   4.087   3.754   5.903
 7182SOL    HW122445   4.001   3.788   5.942
 7182SOL    HW222446   4.109   3.805   5.820
 7183SOL     OW22447   2.400   2.746   3.073
 7183SOL    HW122448   2.456   2.677   3.027
 7183SOL    HW222449   2.386   2.824   3.012
 7184SOL     OW22450   2.264   5.357   3.239
 7184SOL    HW122451   2.166   5.335   3.238
 7184SOL    HW222452   2.276   5.455   3.222
 7185SOL     OW22453   5.649   2.142   6.411
 7185SOL    HW122454   5.740   2.124   6.373
 7185SOL    HW222455   5.654   2.138   6.511
 7186SOL     OW22456   1.256   6.655   4.466
 7186SOL    HW122457   1.307   6.692   4.543
 7186SOL    HW222458   1.250   6.723   4.394
 7187SOL     OW22459   1.731   5.062   1.125
 7187SOL    HW122460   1.703   5.157   1.108
 7187SOL    HW222461   1.831   5.057   1.127
 7188SOL     OW22462   4.791   0.434   1.458
 7188SOL    HW122463   4.805   0.470   1.550
 7188SOL    HW222464   4.788   0.334   1.461
 7189SOL     OW22465   5.802   1.054   5.706
 7189SOL    HW122466   5.788   1.125   5.775
 7189SOL    HW222467   5.767   0.966   5.741
 7190SOL     OW22468   4.707   5.111   2.201
 7190SOL    HW122469   4.740   5.192   2.151
 7190SOL    HW222470   4.699   5.133   2.298
 7191SOL     OW22471   0.683   3.425   1.462
 7191SOL    HW122472   0.712   3.348   1.520
 7191SOL    HW222473   0.763   3.468   1.421
 7192SOL     OW22474   2.813   4.448   6.022
 7192SOL    HW122475   2.748   4.387   5.977
 7192SOL    HW222476   2.895   4.396   6.048
 7193SOL     OW22477   5.821   2.266   4.847
 7193SOL    HW122478   5.864   2.176   4.853
 7193SOL    HW222479   5.785   2.292   4.937
 7194SOL     OW22480   3.325   0.500   1.997
 7194SOL    HW122481   3.307   0.401   1.998
 7194SOL    HW222482   3.300   0.538   2.086
 7195SOL     OW22483   0.321   0.049   2.971
 7195SOL    HW122484   0.420   0.055   2.985
 7195SOL    HW222485   0.301   7.014   2.890
 7196SOL     OW22486   3.774   4.076   1.798
 7196SOL    HW122487   3.815   4.054   1.710
 7196SOL    HW222488   3.692   4.132   1.784
 7197SOL     OW22489   2.145   1.276   4.001
 7197SOL    HW122490   2.239   1.296   4.028
 7197SOL    HW222491   2.099   1.227   4.076
 7198SOL     OW22492   0.002   0.018   5.857
 7198SOL    HW122493   0.070   0.083   5.821
 7198SOL    HW222494   0.039   6.994   5.939
 7199SOL     OW22495   6.092   5.818   1.875
 7199SOL    HW122496   6.173   5.798   1.930
 7199SOL    HW222497   6.014   5.768   1.913
 7200SOL     OW22498   1.147   1.875   2.746
 7200SOL    HW122499   1.239   1.900   2.715
 7200SOL    HW222500   1.080   1.921   2.689
 7201SOL     OW22501   1.449   4.777   3.451
 7201SOL    HW122502   1.544   4.788   3.481
 7201SOL    HW222503   1.391   4.840   3.502
 7202SOL     OW22504   2.338   6.867   6.137
 7202SOL    HW122505   2.314   6.893   6.230
 7202SOL    HW222506   2.256   6.864   6.080
 7203SOL     OW22507   5.597   0.310   0.277
 7203SOL    HW122508   5.527   0.377   0.297
 7203SOL    HW222509   5.675   0.323   0.339
 7204SOL     OW22510   0.205   3.330   2.373
 7204SOL    HW122511   0.158   3.385   2.442
 7204SOL    HW222512   0.273   3.271   2.418
 7205SOL     OW22513   1.000   4.196   1.581
 7205SOL    HW122514   0.980   4.275   1.638
 7205SOL    HW222515   1.076   4.145   1.621
 7206SOL     OW22516   6.507   0.663   1.621
 7206SOL    HW122517   6.439   0.630   1.688
 7206SOL    HW222518   6.461   0.714   1.550
 7207SOL     OW22519   3.888   0.290   1.256
 7207SOL    HW122520   3.976   0.242   1.267
 7207SOL    HW222521   3.825   0.259   1.327
 7208SOL     OW22522   2.535   0.062   5.068
 7208SOL    HW122523   2.571   0.153   5.049
 7208SOL    HW222524   2.468   0.068   5.143
 7209SOL     OW22525   2.653   3.659   5.476
 7209SOL    HW122526   2.704   3.688   5.557
 7209SOL    HW222527   2.653   3.734   5.409
 7210SOL     OW22528   4.470   0.652   4.387
 7210SOL    HW122529   4.441   0.705   4.307
 7210SOL    HW222530   4.402   0.582   4.406
 7211SOL     OW22531   0.644   5.413   2.707
 7211SOL    HW122532   0.697   5.380   2.785
 7211SOL    HW222533   0.551   5.379   2.714
 7212SOL     OW22534   5.842   6.561   3.092
 7212SOL    HW122535   5.820   6.659   3.091
 7212SOL    HW222536   5.924   6.546   3.147
 7213SOL     OW22537   5.401   6.174   5.700
 7213SOL    HW122538   5.368   6.216   5.785
 7213SOL    HW222539   5.478   6.115   5.720
 7214SOL     OW22540   1.290   5.028   6.227
 7214SOL    HW122541   1.293   5.007   6.325
 7214SOL    HW222542   1.358   4.971   6.179
 7215SOL     OW22543   1.229   3.042   1.041
 7215SOL    HW122544   1.292   2.966   1.053
 7215SOL    HW222545   1.244   3.109   1.114
 7216SOL     OW22546   2.567   1.637   2.716
 7216SOL    HW122547   2.642   1.577   2.742
 7216SOL    HW222548   2.586   1.730   2.748
 7217SOL     OW22549   0.760   3.832   1.956
 7217SOL    HW122550   0.769   3.800   2.051
 7217SOL    HW222551   0.834   3.794   1.901
 7218SOL     OW22552   6.286   2.852   3.443
 7218SOL    HW122553   6.323   2.779   3.501
 7218SOL    HW222554   6.288   2.938   3.493
 7219SOL     OW22555   2.194   1.404   1.620
 7219SOL    HW122556   2.138   1.353   1.555
 7219SOL    HW222557   2.146   1.409   1.708
 7220SOL     OW22558   6.813   1.407   3.071
 7220SOL    HW122559   6.819   1.362   3.160
 7220SOL    HW222560   6.841   1.503   3.080
 7221SOL     OW22561   6.613   3.988   4.833
 7221SOL    HW122562   6.664   4.043   4.767
 7221SOL    HW222563   6.673   3.960   4.907
 7222SOL     OW22564   6.554   6.912   2.946
 7222SOL    HW122565   6.501   6.846   2.999
 7222SOL    HW222566   6.503   6.936   2.863
 7223SOL     OW22567   4.646   1.285   4.454
 7223SOL    HW122568   4.704   1.304   4.534
 7223SOL    HW222569   4.557   1.329   4.466
 7224SOL     OW22570   5.530   1.592   3.253
 7224SOL    HW122571   5.629   1.601   3.252
 7224SOL    HW222572   5.505   1.500   3.220
 7225SOL     OW22573   2.750   0.475   1.582
 7225SOL    HW122574   2.724   0.440   1.492
 7225SOL    HW222575   2.819   0.547   1.571
 7226SOL     OW22576   5.892   6.578   5.438
 7226SOL    HW122577   5.823   6.636   5.394
 7226SOL    HW222578   5.939   6.630   5.509
 7227SOL     OW22579   0.719   2.890   5.541
 7227SOL    HW122580   0.773   2.815   5.581
 7227SOL    HW222581   0.781   2.963   5.511
 7228SOL     OW22582   1.494   0.193   2.898
 7228SOL    HW122583   1.413   0.192   2.839
 7228SOL    HW222584   1.536   0.284   2.895
 7229SOL     OW22585   6.398   6.935   3.545
 7229SOL    HW122586   6.318   6.971   3.594
 7229SOL    HW222587   6.436   7.007   3.486
 7230SOL     OW22588   6.207   5.331   0.827
 7230SOL    HW122589   6.139   5.268   0.865
 7230SOL    HW222590   6.162   5.418   0.804
 7231SOL     OW22591   6.168   0.624   6.968
 7231SOL    HW122592   6.211   0.706   6.929
 7231SOL    HW222593   6.131   0.646   0.038
 7232SOL     OW22594   3.231   3.922   0.728
 7232SOL    HW122595   3.182   3.978   0.796
 7232SOL    HW222596   3.207   3.826   0.742
 7233SOL     OW22597   1.109   1.612   6.430
 7233SOL    HW122598   1.125   1.644   6.337
 7233SOL    HW222599   1.072   1.687   6.485
 7234SOL     OW22600   5.341   2.431   4.145
 7234SOL    HW122601   5.319   2.514   4.197
 7234SOL    HW222602   5.313   2.443   4.050
 7235SOL     OW22603   5.809   2.459   4.356
 7235SOL    HW122604   5.766   2.369   4.369
 7235SOL    HW222605   5.821   2.503   4.444
 7236SOL     OW22606   1.071   1.810   3.241
 7236SOL    HW122607   1.124   1.840   3.162
 7236SOL    HW222608   1.133   1.787   3.316
 7237SOL     OW22609   5.784   5.448   5.240
 7237SOL    HW122610   5.851   5.396   5.292
 7237SOL    HW222611   5.810   5.544   5.238
 7238SOL     OW22612   1.446   0.240   2.386
 7238SOL    HW122613   1.421   0.144   2.374
 7238SOL    HW222614   1.367   0.298   2.365
 7239SOL     OW22615   4.723   1.668   1.967
 7239SOL    HW122616   4.761   1.725   1.895
 7239SOL    HW222617   4.659   1.722   2.022
 7240SOL     OW22618   3.173   3.073   3.824
 7240SOL    HW122619   3.152   3.091   3.920
 7240SOL    HW222620   3.246   3.004   3.818
 7241SOL     OW22621   4.242   0.198   5.233
 7241SOL    HW122622   4.221   0.138   5.156
 7241SOL    HW222623   4.232   0.148   5.318
 7242SOL     OW22624   6.151   5.970   0.361
 7242SOL    HW122625   6.211   5.891   0.353
 7242SOL    HW222626   6.108   5.970   0.451
 7243SOL     OW22627   0.913   5.715   1.009
 7243SOL    HW122628   0.841   5.782   0.992
 7243SOL    HW222629   0.999   5.749   0.973
 7244SOL     OW22630   5.167   1.840   1.705
 7244SOL    HW122631   5.135   1.781   1.779
 7244SOL    HW222632   5.164   1.790   1.619
 7245SOL     OW22633   6.065   1.705   3.303
 7245SOL    HW122634   6.095   1.688   3.209
 7245SOL    HW222635   6.128   1.767   3.348
 7246SOL     OW22636   0.549   5.542   5.538
 7246SOL    HW122637   0.574   5.636   5.517
 7246SOL    HW222638   0.576   5.520   5.632
 7247SOL     OW22639   3.875   5.686   3.855
 7247SOL    HW122640   3.815   5.766   3.852
 7247SOL    HW222641   3.820   5.604   3.872
 7248SOL     OW22642   3.068   0.908   4.862
 7248SOL    HW122643   3.050   0.810   4.853
 7248SOL    HW222644   3.127   0.924   4.941
 7249SOL     OW22645   5.070   2.461   6.168
 7249SOL    HW122646   5.028   2.545   6.135
 7249SOL    HW222647   5.006   2.385   6.157
 7250SOL     OW22648   3.295   2.959   0.100
 7250SOL    HW122649   3.382   2.999   0.130
 7250SOL    HW222650   3.247   3.023   0.040
 7251SOL     OW22651   6.097   1.330   5.706
 7251SOL    HW122652   6.049   1.417   5.713
 7251SOL    HW222653   6.100   1.301   5.610
 7252SOL     OW22654   4.502   3.434   5.361
 7252SOL    HW122655   4.563   3.499   5.316
 7252SOL    HW222656   4.551   3.350   5.381
 7253SOL     OW22657   4.971   5.097   6.640
 7253SOL    HW122658   4.953   5.000   6.621
 7253SOL    HW222659   5.055   5.104   6.695
 7254SOL     OW22660   5.400   5.892   4.997
 7254SOL    HW122661   5.300   5.887   5.003
 7254SOL    HW222662   5.426   5.938   4.913
 7255SOL     OW22663   3.521   3.623   3.421
 7255SOL    HW122664   3.433   3.660   3.392
 7255SOL    HW222665   3.549   3.550   3.358
 7256SOL     OW22666   3.387   5.788   3.476
 7256SOL    HW122667   3.294   5.815   3.501
 7256SOL    HW222668   3.420   5.720   3.542
 7257SOL     OW22669   6.049   5.315   2.578
 7257SOL    HW122670   6.009   5.289   2.666
 7257SOL    HW222671   6.133   5.367   2.594
 7258SOL     OW22672   2.857   0.678   6.390
 7258SOL    HW122673   2.868   0.777   6.386
 7258SOL    HW222674   2.808   0.646   6.309
 7259SOL     OW22675   3.300   4.019   5.984
 7259SOL    HW122676   3.299   4.119   5.988
 7259SOL    HW222677   3.275   3.989   5.892
 7260SOL     OW22678   4.407   2.210   2.443
 7260SOL    HW122679   4.399   2.120   2.487
 7260SOL    HW222680   4.327   2.225   2.385
 7261SOL     OW22681   2.446   4.813   1.420
 7261SOL    HW122682   2.386   4.758   1.478
 7261SOL    HW222683   2.541   4.796   1.443
 7262SOL     OW22684   5.741   0.088   4.560
 7262SOL    HW122685   5.739   0.178   4.605
 7262SOL    HW222686   5.662   0.080   4.498
 7263SOL     OW22687   5.197   4.816   1.322
 7263SOL    HW122688   5.231   4.731   1.360
 7263SOL    HW222689   5.101   4.829   1.350
 7264SOL     OW22690   0.172   7.013   4.550
 7264SOL    HW122691   0.116   6.972   4.623
 7264SOL    HW222692   0.268   7.011   4.577
 7265SOL     OW22693   4.484   2.967   6.600
 7265SOL    HW122694   4.393   2.992   6.568
 7265SOL    HW222695   4.487   2.967   6.700
 7266SOL     OW22696   4.233   1.328   2.998
 7266SOL    HW122697   4.212   1.305   3.093
 7266SOL    HW222698   4.233   1.427   2.987
 7267SOL     OW22699   4.945   2.055   3.870
 7267SOL    HW122700   4.915   2.111   3.793
 7267SOL    HW222701   4.954   2.112   3.952
 7268SOL     OW22702   4.177   6.216   0.003
 7268SOL    HW122703   4.202   6.275   0.080
 7268SOL    HW222704   4.226   6.247   6.941
 7269SOL     OW22705   1.686   6.922   3.209
 7269SOL    HW122706   1.609   6.946   3.149
 7269SOL    HW222707   1.655   6.925   3.305
 7270SOL     OW22708   3.317   2.538   1.509
 7270SOL    HW122709   3.380   2.485   1.453
 7270SOL    HW222710   3.269   2.478   1.572
 7271SOL     OW22711   5.080   5.917   3.799
 7271SOL    HW122712   5.063   6.014   3.811
 7271SOL    HW222713   5.138   5.883   3.873
 7272SOL     OW22714   5.759   1.160   1.835
 7272SOL    HW122715   5.739   1.062   1.842
 7272SOL    HW222716   5.675   1.212   1.852
 7273SOL     OW22717   6.173   5.186   4.535
 7273SOL    HW122718   6.120   5.111   4.495
 7273SOL    HW222719   6.195   5.253   4.464
 7274SOL     OW22720   5.807   4.859   3.921
 7274SOL    HW122721   5.734   4.901   3.975
 7274SOL    HW222722   5.790   4.761   3.911
 7275SOL     OW22723   5.869   0.044   2.171
 7275SOL    HW122724   5.896   0.126   2.120
 7275SOL    HW222725   5.770   0.046   2.186
 7276SOL     OW22726   4.262   1.587   2.920
 7276SOL    HW122727   4.197   1.657   2.889
 7276SOL    HW222728   4.351   1.604   2.877
 7277SOL     OW22729   5.867   2.571   3.836
 7277SOL    HW122730   5.932   2.557   3.911
 7277SOL    HW222731   5.824   2.660   3.844
 7278SOL     OW22732   3.863   1.550   3.118
 7278SOL    HW122733   3.858   1.632   3.061
 7278SOL    HW222734   3.899   1.474   3.063
 7279SOL     OW22735   3.647   3.657   1.797
 7279SOL    HW122736   3.668   3.573   1.847
 7279SOL    HW222737   3.576   3.708   1.844
 7280SOL     OW22738   6.588   1.424   5.652
 7280SOL    HW122739   6.659   1.354   5.661
 7280SOL    HW222740   6.525   1.418   5.729
 7281SOL     OW22741   3.694   6.770   3.666
 7281SOL    HW122742   3.775   6.720   3.634
 7281SOL    HW222743   3.718   6.867   3.679
 7282SOL     OW22744   0.883   3.528   1.355
 7282SOL    HW122745   0.911   3.624   1.358
 7282SOL    HW222746   0.938   3.479   1.287
 7283SOL     OW22747   2.751   6.250   2.847
 7283SOL    HW122748   2.827   6.205   2.895
 7283SOL    HW222749   2.669   6.243   2.903
 7284SOL     OW22750   0.819   0.488   3.850
 7284SOL    HW122751   0.811   0.565   3.913
 7284SOL    HW222752   0.729   0.443   3.842
 7285SOL     OW22753   4.867   2.506   1.858
 7285SOL    HW122754   4.844   2.603   1.849
 7285SOL    HW222755   4.839   2.457   1.776
 7286SOL     OW22756   6.738   1.470   4.750
 7286SOL    HW122757   6.660   1.420   4.787
 7286SOL    HW222758   6.706   1.536   4.682
 7287SOL     OW22759   3.555   1.309   4.505
 7287SOL    HW122760   3.510   1.237   4.559
 7287SOL    HW222761   3.505   1.321   4.419
 7288SOL     OW22762   3.058   1.725   1.442
 7288SOL    HW122763   2.998   1.804   1.434
 7288SOL    HW222764   3.009   1.643   1.413
 7289SOL     OW22765   6.574   2.903   1.114
 7289SOL    HW122766   6.612   2.864   1.198
 7289SOL    HW222767   6.623   2.988   1.093
 7290SOL     OW22768   3.310   2.069   4.970
 7290SOL    HW122769   3.280   2.150   5.021
 7290SOL    HW222770   3.230   2.011   4.951
 7291SOL     OW22771   1.042   1.127   0.455
 7291SOL    HW122772   1.093   1.089   0.378
 7291SOL    HW222773   1.103   1.186   0.509
 7292SOL     OW22774   3.504   1.303   2.381
 7292SOL    HW122775   3.487   1.384   2.436
 7292SOL    HW222776   3.580   1.321   2.318
 7293SOL     OW22777   6.185   1.365   4.339
 7293SOL    HW122778   6.162   1.268   4.334
 7293SOL    HW222779   6.115   1.418   4.291
 7294SOL     OW22780   2.313   1.344   2.408
 7294SOL    HW122781   2.312   1.265   2.347
 7294SOL    HW222782   2.314   1.314   2.503
 7295SOL     OW22783   5.415   4.264   1.376
 7295SOL    HW122784   5.318   4.287   1.374
 7295SOL    HW222785   5.459   4.297   1.293
 7296SOL     OW22786   3.034   0.566   2.805
 7296SOL    HW122787   3.094   0.591   2.729
 7296SOL    HW222788   3.011   0.469   2.799
 7297SOL     OW22789   4.490   0.518   0.129
 7297SOL    HW122790   4.467   0.566   0.044
 7297SOL    HW222791   4.430   0.439   0.139
 7298SOL     OW22792   3.909   4.554   0.875
 7298SOL    HW122793   3.930   4.596   0.786
 7298SOL    HW222794   3.885   4.458   0.861
 7299SOL     OW22795   7.000   3.155   0.144
 7299SOL    HW122796   0.056   3.182   0.203
 7299SOL    HW222797   7.002   3.056   0.130
 7300SOL     OW22798   0.543   4.305   2.322
 7300SOL    HW122799   0.514   4.298   2.227
 7300SOL    HW222800   0.621   4.367   2.329
 7301SOL     OW22801   3.536   2.109   0.459
 7301SOL    HW122802   3.508   2.146   0.371
 7301SOL    HW222803   3.612   2.045   0.446
 7302SOL     OW22804   5.804   1.613   6.890
 7302SOL    HW122805   5.795   1.631   6.988
 7302SOL    HW222806   5.833   1.696   6.843
 7303SOL     OW22807   3.989   2.554   1.065
 7303SOL    HW122808   3.975   2.645   1.028
 7303SOL    HW222809   3.943   2.486   1.007
 7304SOL     OW22810   3.454   0.381   0.578
 7304SOL    HW122811   3.455   0.299   0.519
 7304SOL    HW222812   3.487   0.356   0.669
 7305SOL     OW22813   6.796   0.024   6.406
 7305SOL    HW122814   6.798   6.947   6.430
 7305SOL    HW222815   6.879   0.049   6.357
 7306SOL     OW22816   1.917   3.530   1.183
 7306SOL    HW122817   1.939   3.592   1.258
 7306SOL    HW222818   1.857   3.577   1.118
 7307SOL     OW22819   4.630   6.463   1.172
 7307SOL    HW122820   4.572   6.418   1.104
 7307SOL    HW222821   4.630   6.409   1.257
 7308SOL     OW22822   3.579   2.076   2.948
 7308SOL    HW122823   3.671   2.084   2.909
 7308SOL    HW222824   3.543   1.985   2.927
 7309SOL     OW22825   2.374   5.202   3.435
 7309SOL    HW122826   2.310   5.125   3.443
 7309SOL    HW222827   2.340   5.267   3.367
 7310SOL     OW22828   5.258   2.836   0.183
 7310SOL    HW122829   5.189   2.764   0.176
 7310SOL    HW222830   5.249   2.898   0.106
 7311SOL     OW22831   1.293   6.666   5.725
 7311SOL    HW122832   1.381   6.623   5.747
 7311SOL    HW222833   1.241   6.606   5.664
 7312SOL     OW22834   5.712   2.029   4.395
 7312SOL    HW122835   5.749   1.990   4.311
 7312SOL    HW222836   5.668   2.117   4.375
 7313SOL     OW22837   3.340   1.252   3.412
 7313SOL    HW122838   3.245   1.271   3.389
 7313SOL    HW222839   3.392   1.236   3.328
 7314SOL     OW22840   2.505   5.522   4.930
 7314SOL    HW122841   2.559   5.462   4.989
 7314SOL    HW222842   2.435   5.469   4.883
 7315SOL     OW22843   2.555   4.890   2.319
 7315SOL    HW122844   2.516   4.884   2.411
 7315SOL    HW222845   2.655   4.888   2.325
 7316SOL     OW22846   3.401   1.065   2.427
 7316SOL    HW122847   3.436   1.152   2.392
 7316SOL    HW222848   3.428   1.056   2.523
 7317SOL     OW22849   5.771   1.469   1.496
 7317SOL    HW122850   5.799   1.547   1.551
 7317SOL    HW222851   5.799   1.384   1.541
 7318SOL     OW22852   5.154   6.826   1.687
 7318SOL    HW122853   5.078   6.833   1.751
 7318SOL    HW222854   5.229   6.885   1.718
 7319SOL     OW22855   4.584   5.285   5.986
 7319SOL    HW122856   4.618   5.342   5.911
 7319SOL    HW222857   4.485   5.291   5.989
 7320SOL     OW22858   1.988   3.210   0.560
 7320SOL    HW122859   1.899   3.195   0.601
 7320SOL    HW222860   1.993   3.303   0.524
 7321SOL     OW22861   2.298   2.087   5.123
 7321SOL    HW122862   2.384   2.103   5.073
 7321SOL    HW222863   2.257   2.175   5.146
 7322SOL     OW22864   2.520   1.974   3.861
 7322SOL    HW122865   2.472   1.985   3.948
 7322SOL    HW222866   2.618   1.978   3.876
 7323SOL     OW22867   2.165   2.015   6.933
 7323SOL    HW122868   2.251   2.020   6.880
 7323SOL    HW222869   2.097   1.965   6.880
 7324SOL     OW22870   5.630   4.040   5.093
 7324SOL    HW122871   5.556   4.042   5.026
 7324SOL    HW222872   5.712   4.002   5.051
 7325SOL     OW22873   3.326   0.877   6.811
 7325SOL    HW122874   3.381   0.925   6.880
 7325SOL    HW222875   3.264   0.942   6.767
 7326SOL     OW22876   3.685   6.484   0.230
 7326SOL    HW122877   3.631   6.568   0.226
 7326SOL    HW222878   3.757   6.487   0.161
 7327SOL     OW22879   1.735   4.604   3.183
 7327SOL    HW122880   1.644   4.645   3.179
 7327SOL    HW222881   1.770   4.592   3.090
 7328SOL     OW22882   3.857   5.547   6.722
 7328SOL    HW122883   3.887   5.453   6.705
 7328SOL    HW222884   3.758   5.548   6.739
 7329SOL     OW22885   2.781   3.939   6.568
 7329SOL    HW122886   2.860   3.894   6.608
 7329SOL    HW222887   2.708   3.872   6.554
 7330SOL     OW22888   2.432   3.509   1.647
 7330SOL    HW122889   2.373   3.481   1.722
 7330SOL    HW222890   2.402   3.464   1.563
 7331SOL     OW22891   5.302   1.730   2.444
 7331SOL    HW122892   5.386   1.776   2.414
 7331SOL    HW222893   5.267   1.774   2.527
 7332SOL     OW22894   1.567   0.050   4.773
 7332SOL    HW122895   1.492   0.012   4.827
 7332SOL    HW222896   1.551   0.147   4.756
 7333SOL     OW22897   6.269   1.566   2.079
 7333SOL    HW122898   6.291   1.647   2.133
 7333SOL    HW222899   6.170   1.549   2.084
 7334SOL     OW22900   1.045   5.039   5.118
 7334SOL    HW122901   1.019   5.135   5.117
 7334SOL    HW222902   1.120   5.026   5.184
 7335SOL     OW22903   6.377   2.729   1.699
 7335SOL    HW122904   6.472   2.701   1.714
 7335SOL    HW222905   6.317   2.671   1.755
 7336SOL     OW22906   2.821   0.082   1.107
 7336SOL    HW122907   2.792   0.062   1.013
 7336SOL    HW222908   2.804   0.002   1.164
 7337SOL     OW22909   2.973   1.435   1.879
 7337SOL    HW122910   3.005   1.504   1.815
 7337SOL    HW222911   3.051   1.388   1.921
 7338SOL     OW22912   5.349   2.408   0.190
 7338SOL    HW122913   5.328   2.426   0.094
 7338SOL    HW222914   5.422   2.469   0.221
 7339SOL     OW22915   6.821   6.756   3.565
 7339SOL    HW122916   6.907   6.759   3.513
 7339SOL    HW222917   6.828   6.688   3.637
 7340SOL     OW22918   3.251   0.079   0.227
 7340SOL    HW122919   3.182   0.138   0.268
 7340SOL    HW222920   3.272   0.111   0.135
 7341SOL     OW22921   6.037   5.266   3.057
 7341SOL    HW122922   5.980   5.280   2.976
 7341SOL    HW222923   6.133   5.270   3.031
 7342SOL     OW22924   0.092   4.811   6.617
 7342SOL    HW122925   0.012   4.849   6.664
 7342SOL    HW222926   0.104   4.857   6.529
 7343SOL     OW22927   0.358   1.757   3.293
 7343SOL    HW122928   0.350   1.662   3.324
 7343SOL    HW222929   0.453   1.787   3.302
 7344SOL     OW22930   1.674   1.522   5.736
 7344SOL    HW122931   1.734   1.570   5.673
 7344SOL    HW222932   1.634   1.586   5.801
 7345SOL     OW22933   1.251   6.745   6.974
 7345SOL    HW122934   1.224   6.760   6.879
 7345SOL    HW222935   1.231   6.650   6.999
 7346SOL     OW22936   3.608   5.527   2.807
 7346SOL    HW122937   3.545   5.483   2.872
 7346SOL    HW222938   3.666   5.592   2.855
 7347SOL     OW22939   5.722   2.777   3.453
 7347SOL    HW122940   5.740   2.702   3.516
 7347SOL    HW222941   5.809   2.811   3.416
 7348SOL     OW22942   5.504   0.454   6.233
 7348SOL    HW122943   5.413   0.494   6.246
 7348SOL    HW222944   5.507   0.406   6.145
 7349SOL     OW22945   3.824   2.093   1.132
 7349SOL    HW122946   3.859   2.006   1.169
 7349SOL    HW222947   3.875   2.169   1.173
 7350SOL     OW22948   1.495   1.726   2.457
 7350SOL    HW122949   1.462   1.793   2.524
 7350SOL    HW222950   1.539   1.650   2.504
 7351SOL     OW22951   6.039   5.087   0.130
 7351SOL    HW122952   6.019   5.181   0.100
 7351SOL    HW222953   5.965   5.027   0.102
 7352SOL     OW22954   6.754   1.454   2.804
 7352SOL    HW122955   6.771   1.407   2.891
 7352SOL    HW222956   6.786   1.548   2.810
 7353SOL     OW22957   5.640   1.548   4.504
 7353SOL    HW122958   5.692   1.591   4.430
 7353SOL    HW222959   5.691   1.471   4.540
 7354SOL     OW22960   5.643   4.636   5.224
 7354SOL    HW122961   5.665   4.731   5.245
 7354SOL    HW222962   5.727   4.582   5.221
 7355SOL     OW22963   6.866   5.835   0.278
 7355SOL    HW122964   6.912   5.748   0.298
 7355SOL    HW222965   6.775   5.817   0.242
 7356SOL     OW22966   6.912   2.083   6.430
 7356SOL    HW122967   6.937   2.028   6.350
 7356SOL    HW222968   6.834   2.142   6.406
 7357SOL     OW22969   1.089   0.601   1.150
 7357SOL    HW122970   1.078   0.517   1.204
 7357SOL    HW222971   1.130   0.672   1.207
 7358SOL     OW22972   3.394   1.426   3.682
 7358SOL    HW122973   3.302   1.463   3.688
 7358SOL    HW222974   3.392   1.339   3.634
 7359SOL     OW22975   3.326   3.748   4.240
 7359SOL    HW122976   3.287   3.681   4.304
 7359SOL    HW222977   3.288   3.838   4.260
 7360SOL     OW22978   1.710   4.474   5.606
 7360SOL    HW122979   1.639   4.470   5.677
 7360SOL    HW222980   1.680   4.533   5.532
 7361SOL     OW22981   4.762   0.129   1.581
 7361SOL    HW122982   4.803   0.090   1.498
 7361SOL    HW222983   4.724   0.055   1.637
 7362SOL     OW22984   1.309   5.139   0.145
 7362SOL    HW122985   1.301   5.142   0.045
 7362SOL    HW222986   1.403   5.158   0.172
 7363SOL     OW22987   4.884   2.024   6.053
 7363SOL    HW122988   4.921   1.960   5.985
 7363SOL    HW222989   4.890   1.983   6.144
 7364SOL     OW22990   5.307   6.711   0.491
 7364SOL    HW122991   5.252   6.686   0.571
 7364SOL    HW222992   5.303   6.810   0.477
 7365SOL     OW22993   5.287   0.302   1.869
 7365SOL    HW122994   5.294   0.370   1.796
 7365SOL    HW222995   5.247   0.343   1.950
 7366SOL     OW22996   3.141   6.622   0.758
 7366SOL    HW122997   3.103   6.534   0.787
 7366SOL    HW222998   3.115   6.639   0.663
 7367SOL     OW22999   4.653   2.743   5.870
 7367SOL    HW123000   4.621   2.748   5.964
 7367SOL    HW223001   4.588   2.793   5.811
 7368SOL     OW23002   3.311   2.869   5.082
 7368SOL    HW123003   3.236   2.934   5.072
 7368SOL    HW223004   3.281   2.778   5.054
 7369SOL     OW23005   0.142   6.548   6.367
 7369SOL    HW123006   0.236   6.534   6.398
 7369SOL    HW223007   0.141   6.619   6.297
 7370SOL     OW23008   0.235   5.678   1.014
 7370SOL    HW123009   0.230   5.633   1.103
 7370SOL    HW223010   0.143   5.681   0.974
 7371SOL     OW23011   2.224   4.969   3.488
 7371SOL    HW123012   2.213   4.885   3.541
 7371SOL    HW223013   2.158   4.970   3.413
 7372SOL     OW23014   2.115   6.904   5.118
 7372SOL    HW123015   2.046   6.856   5.173
 7372SOL    HW223016   2.070   6.967   5.055
 7373SOL     OW23017   3.848   1.629   0.786
 7373SOL    HW123018   3.901   1.652   0.867
 7373SOL    HW223019   3.764   1.683   0.785
 7374SOL     OW23020   2.606   3.627   0.600
 7374SOL    HW123021   2.594   3.665   0.692
 7374SOL    HW223022   2.555   3.541   0.593
 7375SOL     OW23023   2.021   5.594   2.580
 7375SOL    HW123024   2.083   5.527   2.621
 7375SOL    HW223025   2.074   5.672   2.546
 7376SOL     OW23026   3.584   4.666   0.291
 7376SOL    HW123027   3.535   4.716   0.219
 7376SOL    HW223028   3.581   4.568   0.270
 7377SOL     OW23029   5.085   5.704   1.571
 7377SOL    HW123030   5.050   5.637   1.636
 7377SOL    HW223031   5.081   5.796   1.612
 7378SOL     OW23032   0.763   1.402   6.447
 7378SOL    HW123033   0.861   1.393   6.459
 7378SOL    HW223034   0.737   1.499   6.456
 7379SOL     OW23035   4.705   1.101   0.209
 7379SOL    HW123036   4.785   1.050   0.177
 7379SOL    HW223037   4.688   1.080   0.305
 7380SOL     OW23038   0.832   3.362   6.763
 7380SOL    HW123039   0.868   3.435   6.705
 7380SOL    HW223040   0.735   3.348   6.743
 7381SOL     OW23041   5.643   2.952   0.703
 7381SOL    HW123042   5.627   2.928   0.607
 7381SOL    HW223043   5.731   2.998   0.711
 7382SOL     OW23044   0.795   5.454   3.611
 7382SOL    HW123045   0.776   5.397   3.532
 7382SOL    HW223046   0.815   5.548   3.581
 7383SOL     OW23047   1.838   4.775   2.103
 7383SOL    HW123048   1.907   4.822   2.158
 7383SOL    HW223049   1.864   4.679   2.093
 7384SOL     OW23050   5.620   0.676   1.709
 7384SOL    HW123051   5.680   0.667   1.630
 7384SOL    HW223052   5.564   0.759   1.699
 7385SOL     OW23053   5.086   0.010   2.369
 7385SOL    HW123054   4.990   0.009   2.396
 7385SOL    HW223055   5.099   6.973   2.288
 7386SOL     OW23056   6.031   1.762   5.339
 7386SOL    HW123057   5.999   1.831   5.403
 7386SOL    HW223058   6.130   1.755   5.342
 7387SOL     OW23059   5.162   5.476   4.419
 7387SOL    HW123060   5.240   5.468   4.357
 7387SOL    HW223061   5.166   5.402   4.486
 7388SOL     OW23062   5.166   3.623   4.629
 7388SOL    HW123063   5.150   3.705   4.684
 7388SOL    HW223064   5.080   3.574   4.615
 7389SOL     OW23065   2.180   3.465   5.840
 7389SOL    HW123066   2.106   3.454   5.774
 7389SOL    HW223067   2.248   3.393   5.827
 7390SOL     OW23068   4.640   5.918   0.429
 7390SOL    HW123069   4.652   5.939   0.332
 7390SOL    HW223070   4.554   5.957   0.461
 7391SOL     OW23071   0.176   5.217   0.817
 7391SOL    HW123072   0.171   5.277   0.897
 7391SOL    HW223073   0.125   5.259   0.741
 7392SOL     OW23074   0.959   4.417   1.757
 7392SOL    HW123075   0.961   4.509   1.796
 7392SOL    HW223076   0.872   4.373   1.779
 7393SOL     OW23077   1.375   3.833   0.640
 7393SOL    HW123078   1.379   3.916   0.697
 7393SOL    HW223079   1.299   3.840   0.576
 7394SOL     OW23080   3.122   4.197   6.660
 7394SOL    HW123081   3.078   4.274   6.707
 7394SOL    HW223082   3.219   4.216   6.648
 7395SOL     OW23083   2.502   6.711   0.713
 7395SOL    HW123084   2.439   6.752   0.779
 7395SOL    HW223085   2.588   6.688   0.759
 7396SOL     OW23086   6.845   6.673   2.322
 7396SOL    HW123087   6.786   6.753   2.335
 7396SOL    HW223088   6.872   6.667   2.226
 7397SOL     OW23089   5.450   4.346   4.088
 7397SOL    HW123090   5.536   4.393   4.066
 7397SOL    HW223091   5.468   4.276   4.157
 7398SOL     OW23092   4.148   5.994   3.077
 7398SOL    HW123093   4.158   5.909   3.129
 7398SOL    HW223094   4.209   5.992   2.998
 7399SOL     OW23095   4.916   6.268   4.457
 7399SOL    HW123096   4.998   6.222   4.423
 7399SOL    HW223097   4.842   6.258   4.390
 7400SOL     OW23098   2.597   4.328   6.909
 7400SOL    HW123099   2.660   4.398   6.876
 7400SOL    HW223100   2.612   4.243   6.859
 7401SOL     OW23101   6.533   2.767   4.048
 7401SOL    HW123102   6.509   2.831   4.122
 7401SOL    HW223103   6.632   2.756   4.044
 7402SOL     OW23104   1.597   6.325   5.243
 7402SOL    HW123105   1.501   6.320   5.217
 7402SOL    HW223106   1.608   6.388   5.319
 7403SOL     OW23107   2.323   3.014   1.577
 7403SOL    HW123108   2.385   2.999   1.500
 7403SOL    HW223109   2.362   3.081   1.640
 7404SOL     OW23110   1.605   2.833   2.632
 7404SOL    HW123111   1.693   2.791   2.609
 7404SOL    HW223112   1.602   2.926   2.597
 7405SOL     OW23113   3.315   5.364   5.763
 7405SOL    HW123114   3.401   5.321   5.736
 7405SOL    HW223115   3.240   5.327   5.709
 7406SOL     OW23116   5.876   5.892   2.818
 7406SOL    HW123117   5.820   5.810   2.835
 7406SOL    HW223118   5.857   5.927   2.726
 7407SOL     OW23119   3.980   1.695   5.947
 7407SOL    HW123120   4.056   1.640   5.983
 7407SOL    HW223121   3.929   1.642   5.880
 7408SOL     OW23122   0.768   3.193   4.928
 7408SOL    HW123123   0.808   3.237   4.848
 7408SOL    HW223124   0.755   3.260   5.001
 7409SOL     OW23125   1.990   0.016   4.494
 7409SOL    HW123126   1.954   6.961   4.440
 7409SOL    HW223127   2.090   0.010   4.498
 7410SOL     OW23128   4.176   5.446   5.707
 7410SOL    HW123129   4.106   5.398   5.654
 7410SOL    HW223130   4.189   5.400   5.795
 7411SOL     OW23131   5.982   3.541   5.811
 7411SOL    HW123132   6.071   3.534   5.857
 7411SOL    HW223133   5.984   3.490   5.726
 7412SOL     OW23134   1.196   0.452   0.121
 7412SOL    HW123135   1.209   0.353   0.120
 7412SOL    HW223136   1.219   0.488   0.211
 7413SOL     OW23137   6.305   3.649   3.166
 7413SOL    HW123138   6.233   3.712   3.198
 7413SOL    HW223139   6.322   3.665   3.069
 7414SOL     OW23140   0.201   5.502   2.044
 7414SOL    HW123141   0.273   5.527   1.979
 7414SOL    HW223142   0.113   5.500   1.997
 7415SOL     OW23143   2.665   1.528   3.296
 7415SOL    HW123144   2.628   1.522   3.204
 7415SOL    HW223145   2.606   1.478   3.359
 7416SOL     OW23146   6.370   0.706   2.461
 7416SOL    HW123147   6.298   0.771   2.436
 7416SOL    HW223148   6.373   0.696   2.561
 7417SOL     OW23149   0.407   5.490   1.509
 7417SOL    HW123150   0.412   5.399   1.466
 7417SOL    HW223151   0.483   5.546   1.476
 7418SOL     OW23152   2.457   3.589   1.014
 7418SOL    HW123153   2.507   3.503   1.021
 7418SOL    HW223154   2.502   3.659   1.068
 7419SOL     OW23155   5.990   1.974   5.494
 7419SOL    HW123156   6.057   2.036   5.533
 7419SOL    HW223157   5.904   2.023   5.479
 7420SOL     OW23158   0.577   6.538   1.668
 7420SOL    HW123159   0.641   6.461   1.673
 7420SOL    HW223160   0.612   6.614   1.723
 7421SOL     OW23161   4.564   2.241   0.882
 7421SOL    HW123162   4.565   2.175   0.958
 7421SOL    HW223163   4.656   2.274   0.866
 7422SOL     OW23164   1.724   1.830   0.290
 7422SOL    HW123165   1.692   1.762   0.356
 7422SOL    HW223166   1.738   1.787   0.201
 7423SOL     OW23167   3.002   4.043   0.324
 7423SOL    HW123168   3.082   3.983   0.321
 7423SOL    HW223169   3.007   4.102   0.405
 7424SOL     OW23170   5.692   6.645   3.930
 7424SOL    HW123171   5.662   6.704   3.855
 7424SOL    HW223172   5.783   6.673   3.960
 7425SOL     OW23173   3.925   0.201   5.145
 7425SOL    HW123174   3.932   0.213   5.046
 7425SOL    HW223175   3.965   0.281   5.191
 7426SOL     OW23176   0.079   0.513   6.627
 7426SOL    HW123177   7.006   0.475   6.633
 7426SOL    HW223178   0.096   0.569   6.708
 7427SOL     OW23179   5.353   5.293   6.173
 7427SOL    HW123180   5.260   5.272   6.205
 7427SOL    HW223181   5.357   5.389   6.144
 7428SOL     OW23182   5.653   1.703   5.244
 7428SOL    HW123183   5.660   1.617   5.295
 7428SOL    HW223184   5.651   1.684   5.146
 7429SOL     OW23185   5.693   6.381   3.244
 7429SOL    HW123186   5.706   6.306   3.179
 7429SOL    HW223187   5.714   6.468   3.199
 7430SOL     OW23188   0.774   3.984   4.342
 7430SOL    HW123189   0.787   4.054   4.273
 7430SOL    HW223190   0.857   3.974   4.397
 7431SOL     OW23191   6.840   3.700   2.973
 7431SOL    HW123192   6.780   3.758   3.028
 7431SOL    HW223193   6.800   3.686   2.883
 7432SOL     OW23194   1.958   6.307   5.545
 7432SOL    HW123195   1.923   6.346   5.630
 7432SOL    HW223196   2.027   6.237   5.567
 7433SOL     OW23197   0.613   6.905   0.733
 7433SOL    HW123198   0.571   6.951   0.812
 7433SOL    HW223199   0.545   6.844   0.692
 7434SOL     OW23200   4.527   6.726   0.602
 7434SOL    HW123201   4.551   6.629   0.607
 7434SOL    HW223202   4.537   6.767   0.693
 7435SOL     OW23203   0.870   4.630   6.851
 7435SOL    HW123204   0.926   4.704   6.813
 7435SOL    HW223205   0.919   4.586   6.926
 7436SOL     OW23206   5.220   3.805   6.894
 7436SOL    HW123207   5.267   3.763   6.816
 7436SOL    HW223208   5.151   3.741   6.928
 7437SOL     OW23209   6.662   6.723   5.825
 7437SOL    HW123210   6.753   6.761   5.807
 7437SOL    HW223211   6.603   6.796   5.860
 7438SOL     OW23212   6.858   4.365   0.659
 7438SOL    HW123213   6.809   4.279   0.647
 7438SOL    HW223214   6.956   4.351   0.643
 7439SOL     OW23215   1.543   6.262   2.944
 7439SOL    HW123216   1.505   6.353   2.928
 7439SOL    HW223217   1.548   6.246   3.042
 7440SOL     OW23218   1.471   0.972   4.574
 7440SOL    HW123219   1.525   0.979   4.490
 7440SOL    HW223220   1.428   0.881   4.578
 7441SOL     OW23221   0.383   0.451   3.993
 7441SOL    HW123222   0.306   0.454   3.929
 7441SOL    HW223223   0.408   0.544   4.019
 7442SOL     OW23224   2.015   1.110   0.367
 7442SOL    HW123225   1.917   1.108   0.386
 7442SOL    HW223226   2.039   1.034   0.307
 7443SOL     OW23227   6.071   1.564   1.753
 7443SOL    HW123228   6.104   1.477   1.716
 7443SOL    HW223229   6.133   1.637   1.725
 7444SOL     OW23230   1.853   3.119   4.918
 7444SOL    HW123231   1.895   3.209   4.917
 7444SOL    HW223232   1.904   3.059   4.980
 7445SOL     OW23233   5.632   2.956   2.682
 7445SOL    HW123234   5.702   3.009   2.729
 7445SOL    HW223235   5.611   2.874   2.736
 7446SOL     OW23236   4.609   4.340   2.676
 7446SOL    HW123237   4.542   4.405   2.642
 7446SOL    HW223238   4.662   4.382   2.750
 7447SOL     OW23239   1.435   2.967   6.424
 7447SOL    HW123240   1.453   3.007   6.334
 7447SOL    HW223241   1.336   2.958   6.438
 7448SOL     OW23242   0.141   1.180   5.375
 7448SOL    HW123243   0.152   1.259   5.315
 7448SOL    HW223244   0.220   1.172   5.436
 7449SOL     OW23245   3.211   1.171   2.643
 7449SOL    HW123246   3.266   1.095   2.679
 7449SOL    HW223247   3.225   1.252   2.699
 7450SOL     OW23248   3.867   2.057   2.105
 7450SOL    HW123249   3.900   2.019   2.018
 7450SOL    HW223250   3.785   2.112   2.089
 7451SOL     OW23251   0.946   0.738   1.996
 7451SOL    HW123252   0.962   0.807   1.926
 7451SOL    HW223253   0.855   0.698   1.984
 7452SOL     OW23254   1.751   5.373   3.048
 7452SOL    HW123255   1.797   5.284   3.048
 7452SOL    HW223256   1.819   5.446   3.044
 7453SOL     OW23257   6.426   4.654   4.730
 7453SOL    HW123258   6.504   4.686   4.675
 7453SOL    HW223259   6.431   4.555   4.741
 7454SOL     OW23260   2.914   2.218   0.140
 7454SOL    HW123261   2.841   2.151   0.127
 7454SOL    HW223262   2.978   2.184   0.209
 7455SOL     OW23263   5.340   0.028   1.064
 7455SOL    HW123264   5.388   6.979   1.011
 7455SOL    HW223265   5.243   0.029   1.038
 7456SOL     OW23266   1.609   3.320   6.633
 7456SOL    HW123267   1.649   3.412   6.632
 7456SOL    HW223268   1.531   3.317   6.695
 7457SOL     OW23269   0.191   6.774   5.791
 7457SOL    HW123270   0.129   6.697   5.809
 7457SOL    HW223271   0.285   6.746   5.807
 7458SOL     OW23272   2.965   0.355   1.903
 7458SOL    HW123273   2.867   0.366   1.885
 7458SOL    HW223274   3.010   0.319   1.821
 7459SOL     OW23275   4.042   5.692   3.162
 7459SOL    HW123276   4.045   5.702   3.063
 7459SOL    HW223277   3.964   5.635   3.188
 7460SOL     OW23278   1.035   5.364   6.458
 7460SOL    HW123279   1.012   5.379   6.554
 7460SOL    HW223280   1.095   5.284   6.450
 7461SOL     OW23281   3.450   1.595   4.068
 7461SOL    HW123282   3.446   1.573   4.166
 7461SOL    HW223283   3.447   1.695   4.057
 7462SOL     OW23284   1.298   2.278   4.165
 7462SOL    HW123285   1.365   2.316   4.100
 7462SOL    HW223286   1.347   2.235   4.241
 7463SOL     OW23287   3.926   3.851   2.468
 7463SOL    HW123288   3.874   3.834   2.552
 7463SOL    HW223289   3.885   3.928   2.419
 7464SOL     OW23290   4.756   5.667   0.454
 7464SOL    HW123291   4.721   5.760   0.467
 7464SOL    HW223292   4.753   5.618   0.540
 7465SOL     OW23293   2.808   1.493   2.835
 7465SOL    HW123294   2.817   1.427   2.761
 7465SOL    HW223295   2.890   1.550   2.840
 7466SOL     OW23296   0.054   6.536   0.763
 7466SOL    HW123297   0.086   6.444   0.744
 7466SOL    HW223298   0.112   6.578   0.832
 7467SOL     OW23299   4.427   2.539   0.918
 7467SOL    HW123300   4.427   2.460   0.857
 7467SOL    HW223301   4.432   2.507   1.013
 7468SOL     OW23302   4.924   4.847   4.440
 7468SOL    HW123303   4.845   4.874   4.495
 7468SOL    HW223304   5.001   4.828   4.500
 7469SOL     OW23305   5.240   1.948   0.988
 7469SOL    HW123306   5.279   1.876   0.930
 7469SOL    HW223307   5.186   2.010   0.931
 7470SOL     OW23308   0.764   3.553   3.330
 7470SOL    HW123309   0.814   3.601   3.402
 7470SOL    HW223310   0.700   3.488   3.371
 7471SOL     OW23311   6.766   4.154   5.650
 7471SOL    HW123312   6.814   4.229   5.606
 7471SOL    HW223313   6.830   4.102   5.706
 7472SOL     OW23314   4.665   5.859   2.751
 7472SOL    HW123315   4.616   5.814   2.826
 7472SOL    HW223316   4.676   5.796   2.674
 7473SOL     OW23317   1.570   2.010   6.105
 7473SOL    HW123318   1.535   2.087   6.158
 7473SOL    HW223319   1.541   1.925   6.148
 7474SOL     OW23320   2.605   1.150   2.167
 7474SOL    HW123321   2.518   1.150   2.118
 7474SOL    HW223322   2.668   1.213   2.124
 7475SOL     OW23323   5.272   0.974   6.274
 7475SOL    HW123324   5.241   0.957   6.368
 7475SOL    HW223325   5.198   0.951   6.211
 7476SOL     OW23326   1.577   6.541   4.573
 7476SOL    HW123327   1.647   6.472   4.591
 7476SOL    HW223328   1.609   6.604   4.502
 7477SOL     OW23329   4.709   4.365   4.974
 7477SOL    HW123330   4.781   4.426   4.943
 7477SOL    HW223331   4.653   4.411   5.043
 7478SOL     OW23332   0.160   4.734   1.155
 7478SOL    HW123333   0.095   4.796   1.199
 7478SOL    HW223334   0.115   4.647   1.135
 7479SOL     OW23335   3.612   0.046   4.818
 7479SOL    HW123336   3.676   0.031   4.893
 7479SOL    HW223337   3.663   0.069   4.735
 7480SOL     OW23338   5.741   5.138   6.973
 7480SOL    HW123339   5.776   5.092   6.892
 7480SOL    HW223340   5.708   5.229   6.948
 7481SOL     OW23341   5.888   6.217   0.681
 7481SOL    HW123342   5.940   6.280   0.739
 7481SOL    HW223343   5.804   6.263   0.651
 7482SOL     OW23344   4.841   0.358   5.135
 7482SOL    HW123345   4.887   0.270   5.132
 7482SOL    HW223346   4.844   0.401   5.044
 7483SOL     OW23347   3.794   0.023   6.832
 7483SOL    HW123348   3.761   0.088   6.764
 7483SOL    HW223349   3.810   0.069   6.919
 7484SOL     OW23350   3.207   6.390   0.944
 7484SOL    HW123351   3.298   6.367   0.909
 7484SOL    HW223352   3.215   6.440   1.029
 7485SOL     OW23353   1.235   0.075   5.276
 7485SOL    HW123354   1.170   0.053   5.204
 7485SOL    HW223355   1.227   0.172   5.300
 7486SOL     OW23356   1.719   2.343   4.902
 7486SOL    HW123357   1.793   2.278   4.922
 7486SOL    HW223358   1.641   2.322   4.960
 7487SOL     OW23359   2.321   5.849   2.649
 7487SOL    HW123360   2.369   5.847   2.561
 7487SOL    HW223361   2.230   5.887   2.636
 7488SOL     OW23362   4.410   2.138   4.640
 7488SOL    HW123363   4.508   2.160   4.647
 7488SOL    HW223364   4.372   2.128   4.732
 7489SOL     OW23365   1.159   3.372   3.498
 7489SOL    HW123366   1.256   3.376   3.474
 7489SOL    HW223367   1.118   3.462   3.487
 7490SOL     OW23368   5.650   0.669   2.420
 7490SOL    HW123369   5.620   0.699   2.511
 7490SOL    HW223370   5.620   0.576   2.404
 7491SOL     OW23371   1.224   0.290   0.997
 7491SOL    HW123372   1.301   0.245   1.041
 7491SOL    HW223373   1.139   0.266   1.043
 7492SOL     OW23374   1.338   2.475   2.962
 7492SOL    HW123375   1.365   2.459   2.867
 7492SOL    HW223376   1.364   2.567   2.988
 7493SOL     OW23377   5.913   4.342   6.886
 7493SOL    HW123378   5.921   4.441   6.885
 7493SOL    HW223379   5.943   4.306   6.974
 7494SOL     OW23380   5.140   2.213   1.241
 7494SOL    HW123381   5.072   2.186   1.173
 7494SOL    HW223382   5.130   2.158   1.323
 7495SOL     OW23383   1.501   1.758   3.724
 7495SOL    HW123384   1.432   1.687   3.707
 7495SOL    HW223385   1.471   1.844   3.685
 7496SOL     OW23386   0.251   4.869   5.990
 7496SOL    HW123387   0.298   4.881   6.078
 7496SOL    HW223388   0.225   4.773   5.979
 7497SOL     OW23389   0.520   4.094   3.070
 7497SOL    HW123390   0.516   3.995   3.076
 7497SOL    HW223391   0.482   4.123   2.981
 7498SOL     OW23392   4.994   1.805   3.967
 7498SOL    HW123393   4.993   1.901   3.939
 7498SOL    HW223394   4.933   1.753   3.907
 7499SOL     OW23395   3.439   5.171   3.404
 7499SOL    HW123396   3.359   5.213   3.362
 7499SOL    HW223397   3.412   5.090   3.455
 7500SOL     OW23398   4.777   3.901   1.883
 7500SOL    HW123399   4.871   3.870   1.863
 7500SOL    HW223400   4.781   3.991   1.926
 7501SOL     OW23401   1.126   4.239   3.477
 7501SOL    HW123402   1.160   4.170   3.541
 7501SOL    HW223403   1.165   4.222   3.386
 7502SOL     OW23404   1.067   1.900   4.657
 7502SOL    HW123405   1.025   1.816   4.623
 7502SOL    HW223406   1.113   1.947   4.581
 7503SOL     OW23407   2.267   2.111   0.313
 7503SOL    HW123408   2.263   2.054   0.395
 7503SOL    HW223409   2.195   2.180   0.317
 7504SOL     OW23410   5.527   5.796   5.853
 7504SOL    HW123411   5.553   5.758   5.942
 7504SOL    HW223412   5.576   5.883   5.839
 7505SOL     OW23413   1.590   1.728   3.125
 7505SOL    HW123414   1.530   1.793   3.077
 7505SOL    HW223415   1.593   1.751   3.222
 7506SOL     OW23416   3.825   0.774   2.974
 7506SOL    HW123417   3.737   0.801   3.014
 7506SOL    HW223418   3.882   0.731   3.044
 7507SOL     OW23419   1.730   6.845   5.283
 7507SOL    HW123420   1.699   6.890   5.200
 7507SOL    HW223421   1.656   6.848   5.351
 7508SOL     OW23422   4.964   6.369   3.207
 7508SOL    HW123423   5.001   6.460   3.228
 7508SOL    HW223424   5.034   6.300   3.221
 7509SOL     OW23425   2.832   4.274   6.549
 7509SOL    HW123426   2.801   4.208   6.617
 7509SOL    HW223427   2.898   4.230   6.487
 7510SOL     OW23428   4.104   3.302   4.420
 7510SOL    HW123429   4.026   3.267   4.369
 7510SOL    HW223430   4.138   3.386   4.377
 7511SOL     OW23431   1.357   1.150   2.277
 7511SOL    HW123432   1.411   1.067   2.290
 7511SOL    HW223433   1.385   1.195   2.192
 7512SOL     OW23434   2.021   2.410   2.825
 7512SOL    HW123435   1.926   2.409   2.856
 7512SOL    HW223436   2.066   2.325   2.851
 7513SOL     OW23437   2.280   2.834   6.920
 7513SOL    HW123438   2.361   2.789   6.882
 7513SOL    HW223439   2.297   2.859   7.015
 7514SOL     OW23440   2.980   5.295   2.975
 7514SOL    HW123441   2.910   5.226   2.958
 7514SOL    HW223442   3.068   5.264   2.937
 7515SOL     OW23443   0.188   4.796   3.197
 7515SOL    HW123444   0.267   4.814   3.256
 7515SOL    HW223445   0.105   4.830   3.241
 7516SOL     OW23446   1.724   3.646   1.462
 7516SOL    HW123447   1.808   3.689   1.428
 7516SOL    HW223448   1.746   3.587   1.539
 7517SOL     OW23449   1.584   5.115   2.095
 7517SOL    HW123450   1.593   5.072   2.004
 7517SOL    HW223451   1.531   5.199   2.087
 7518SOL     OW23452   5.099   3.852   2.284
 7518SOL    HW123453   5.092   3.753   2.292
 7518SOL    HW223454   5.013   3.889   2.248
 7519SOL     OW23455   2.092   0.872   4.960
 7519SOL    HW123456   2.018   0.822   5.005
 7519SOL    HW223457   2.057   0.917   4.878
 7520SOL     OW23458   1.864   0.290   4.097
 7520SOL    HW123459   1.963   0.300   4.099
 7520SOL    HW223460   1.841   0.199   4.062
 7521SOL     OW23461   4.052   2.471   5.977
 7521SOL    HW123462   4.063   2.562   5.936
 7521SOL    HW223463   3.956   2.445   5.976
 7522SOL     OW23464   1.838   6.382   2.235
 7522SOL    HW123465   1.799   6.321   2.304
 7522SOL    HW223466   1.903   6.444   2.279
 7523SOL     OW23467   6.708   6.301   6.103
 7523SOL    HW123468   6.608   6.297   6.104
 7523SOL    HW223469   6.744   6.274   6.192
 7524SOL     OW23470   6.425   1.651   5.960
 7524SOL    HW123471   6.510   1.670   5.911
 7524SOL    HW223472   6.388   1.564   5.929
 7525SOL     OW23473   0.094   6.938   0.372
 7525SOL    HW123474   0.133   6.904   0.458
 7525SOL    HW223475   0.082   0.017   0.378
 7526SOL     OW23476   4.109   3.269   5.382
 7526SOL    HW123477   4.028   3.304   5.334
 7526SOL    HW223478   4.089   3.178   5.418
 7527SOL     OW23479   2.575   6.634   1.416
 7527SOL    HW123480   2.581   6.538   1.444
 7527SOL    HW223481   2.626   6.647   1.330
 7528SOL     OW23482   6.380   2.575   0.158
 7528SOL    HW123483   6.342   2.536   0.074
 7528SOL    HW223484   6.307   2.615   0.212
 7529SOL     OW23485   1.541   6.953   4.203
 7529SOL    HW123486   1.498   0.020   4.224
 7529SOL    HW223487   1.638   6.957   4.225
 7530SOL     OW23488   0.305   3.117   2.736
 7530SOL    HW123489   0.324   3.157   2.825
 7530SOL    HW223490   0.367   3.040   2.719
 7531SOL     OW23491   1.605   2.700   4.171
 7531SOL    HW123492   1.534   2.634   4.149
 7531SOL    HW223493   1.565   2.777   4.221
 7532SOL     OW23494   4.577   4.365   2.278
 7532SOL    HW123495   4.618   4.288   2.327
 7532SOL    HW223496   4.523   4.330   2.201
 7533SOL     OW23497   3.584   6.680   5.312
 7533SOL    HW123498   3.605   6.585   5.332
 7533SOL    HW223499   3.569   6.730   5.398
 7534SOL     OW23500   4.279   6.353   4.170
 7534SOL    HW123501   4.333   6.380   4.091
 7534SOL    HW223502   4.221   6.429   4.199
 7535SOL     OW23503   3.027   4.662   6.684
 7535SOL    HW123504   2.972   4.579   6.698
 7535SOL    HW223505   3.004   4.702   6.595
 7536SOL     OW23506   4.302   5.086   6.926
 7536SOL    HW123507   4.314   5.180   6.893
 7536SOL    HW223508   4.281   5.026   6.849
 7537SOL     OW23509   2.411   4.548   4.713
 7537SOL    HW123510   2.388   4.464   4.665
 7537SOL    HW223511   2.460   4.610   4.651
 7538SOL     OW23512   3.391   4.289   5.511
 7538SOL    HW123513   3.392   4.305   5.412
 7538SOL    HW223514   3.299   4.261   5.539
 7539SOL     OW23515   0.922   2.938   4.718
 7539SOL    HW123516   0.997   2.911   4.658
 7539SOL    HW223517   0.910   3.038   4.714
 7540SOL     OW23518   2.814   1.055   0.214
 7540SOL    HW123519   2.817   0.956   0.207
 7540SOL    HW223520   2.746   1.082   0.282
 7541SOL     OW23521   0.467   1.804   6.034
 7541SOL    HW123522   0.514   1.795   6.122
 7541SOL    HW223523   0.517   1.752   5.964
 7542SOL     OW23524   1.846   0.498   4.745
 7542SOL    HW123525   1.867   0.479   4.841
 7542SOL    HW223526   1.848   0.412   4.693
 7543SOL     OW23527   2.722   2.511   1.709
 7543SOL    HW123528   2.636   2.515   1.760
 7543SOL    HW223529   2.792   2.465   1.763
 7544SOL     OW23530   1.336   2.005   2.396
 7544SOL    HW123531   1.353   1.945   2.318
 7544SOL    HW223532   1.315   2.097   2.364
 7545SOL     OW23533   4.257   0.286   4.012
 7545SOL    HW123534   4.171   0.335   4.007
 7545SOL    HW223535   4.246   0.204   4.068
 7546SOL     OW23536   5.026   6.932   4.978
 7546SOL    HW123537   5.007   6.839   5.010
 7546SOL    HW223538   5.050   6.990   5.056
 7547SOL     OW23539   2.378   6.333   0.392
 7547SOL    HW123540   2.385   6.314   0.490
 7547SOL    HW223541   2.440   6.408   0.369
 7548SOL     OW23542   2.641   4.002   0.790
 7548SOL    HW123543   2.722   3.994   0.731
 7548SOL    HW223544   2.616   3.912   0.825
 7549SOL     OW23545   6.072   0.060   2.660
 7549SOL    HW123546   6.034   0.141   2.705
 7549SOL    HW223547   6.058   0.067   2.561
 7550SOL     OW23548   1.143   5.704   0.450
 7550SOL    HW123549   1.103   5.755   0.373
 7550SOL    HW223550   1.207   5.635   0.415
 7551SOL     OW23551   4.969   3.728   6.138
 7551SOL    HW123552   5.068   3.714   6.143
 7551SOL    HW223553   4.931   3.671   6.065
 7552SOL     OW23554   3.668   5.938   4.388
 7552SOL    HW123555   3.645   6.023   4.341
 7552SOL    HW223556   3.766   5.919   4.378
 7553SOL     OW23557   4.482   4.024   6.026
 7553SOL    HW123558   4.442   4.061   5.942
 7553SOL    HW223559   4.557   3.962   6.002
 7554SOL     OW23560   6.881   1.383   0.574
 7554SOL    HW123561   6.805   1.448   0.577
 7554SOL    HW223562   6.927   1.379   0.663
 7555SOL     OW23563   2.134   6.725   6.500
 7555SOL    HW123564   2.201   6.666   6.545
 7555SOL    HW223565   2.044   6.709   6.539
 7556SOL     OW23566   7.019   3.556   2.699
 7556SOL    HW123567   6.978   3.538   2.788
 7556SOL    HW223568   0.042   3.472   2.665
 7557SOL     OW23569   4.515   4.120   0.897
 7557SOL    HW123570   4.433   4.124   0.839
 7557SOL    HW223571   4.585   4.066   0.850
 7558SOL     OW23572   1.662   3.549   3.794
 7558SOL    HW123573   1.622   3.518   3.880
 7558SOL    HW223574   1.719   3.475   3.755
 7559SOL     OW23575   0.790   5.044   0.183
 7559SOL    HW123576   0.872   5.092   0.215
 7559SOL    HW223577   0.763   5.079   0.094
 7560SOL     OW23578   4.274   0.039   6.252
 7560SOL    HW123579   4.216   6.986   6.289
 7560SOL    HW223580   4.345   7.018   6.194
 7561SOL     OW23581   1.629   2.785   0.275
 7561SOL    HW123582   1.558   2.810   0.340
 7561SOL    HW223583   1.605   2.700   0.229
 7562SOL     OW23584   4.641   6.641   4.789
 7562SOL    HW123585   4.693   6.666   4.870
 7562SOL    HW223586   4.549   6.679   4.795
 7563SOL     OW23587   1.997   1.710   3.830
 7563SOL    HW123588   1.990   1.615   3.800
 7563SOL    HW223589   2.086   1.724   3.873
 7564SOL     OW23590   6.385   5.587   4.189
 7564SOL    HW123591   6.401   5.656   4.119
 7564SOL    HW223592   6.383   5.632   4.279
 7565SOL     OW23593   5.148   5.138   6.305
 7565SOL    HW123594   5.064   5.096   6.271
 7565SOL    HW223595   5.214   5.066   6.328
 7566SOL     OW23596   1.726   5.431   3.822
 7566SOL    HW123597   1.655   5.449   3.891
 7566SOL    HW223598   1.777   5.349   3.848
 7567SOL     OW23599   2.996   3.935   6.754
 7567SOL    HW123600   3.052   4.013   6.728
 7567SOL    HW223601   2.938   3.960   6.831
 7568SOL     OW23602   4.193   4.708   3.810
 7568SOL    HW123603   4.238   4.630   3.767
 7568SOL    HW223604   4.211   4.707   3.908
 7569SOL     OW23605   3.913   0.060   2.866
 7569SOL    HW123606   3.877   0.121   2.937
 7569SOL    HW223607   3.837   0.010   2.824
 7570SOL     OW23608   5.893   5.173   5.178
 7570SOL    HW123609   5.873   5.094   5.236
 7570SOL    HW223610   5.815   5.192   5.119
 7571SOL     OW23611   6.611   4.388   0.072
 7571SOL    HW123612   6.635   4.400   0.168
 7571SOL    HW223613   6.626   4.293   0.045
 7572SOL     OW23614   6.008   1.436   3.795
 7572SOL    HW123615   5.998   1.336   3.803
 7572SOL    HW223616   5.917   1.478   3.800
 7573SOL     OW23617   2.929   5.134   3.966
 7573SOL    HW123618   2.984   5.158   4.047
 7573SOL    HW223619   2.931   5.210   3.901
 7574SOL     OW23620   4.175   6.050   1.378
 7574SOL    HW123621   4.099   6.110   1.403
 7574SOL    HW223622   4.226   6.025   1.460
 7575SOL     OW23623   4.905   3.373   4.085
 7575SOL    HW123624   4.913   3.281   4.122
 7575SOL    HW223625   4.879   3.368   3.989
 7576SOL     OW23626   0.228   4.530   1.558
 7576SOL    HW123627   0.275   4.550   1.643
 7576SOL    HW223628   0.175   4.446   1.568
 7577SOL     OW23629   3.859   1.600   4.006
 7577SOL    HW123630   3.809   1.685   3.988
 7577SOL    HW223631   3.880   1.555   3.920
 7578SOL     OW23632   2.214   5.695   5.425
 7578SOL    HW123633   2.199   5.643   5.510
 7578SOL    HW223634   2.249   5.634   5.355
 7579SOL     OW23635   4.351   2.153   4.376
 7579SOL    HW123636   4.357   2.147   4.475
 7579SOL    HW223637   4.270   2.205   4.350
 7580SOL     OW23638   1.682   3.338   2.102
 7580SOL    HW123639   1.582   3.349   2.098
 7580SOL    HW223640   1.724   3.426   2.123
 7581SOL     OW23641   5.820   1.100   1.187
 7581SOL    HW123642   5.735   1.076   1.234
 7581SOL    HW223643   5.884   1.141   1.252
 7582SOL     OW23644   3.948   3.088   1.399
 7582SOL    HW123645   4.001   3.007   1.423
 7582SOL    HW223646   3.990   3.133   1.320
 7583SOL     OW23647   6.268   4.034   3.439
 7583SOL    HW123648   6.231   4.079   3.520
 7583SOL    HW223649   6.212   4.058   3.359
 7584SOL     OW23650   2.067   2.424   2.157
 7584SOL    HW123651   2.039   2.330   2.141
 7584SOL    HW223652   2.070   2.473   2.069
 7585SOL     OW23653   2.912   4.190   0.570
 7585SOL    HW123654   2.912   4.101   0.617
 7585SOL    HW223655   2.967   4.255   0.623
 7586SOL     OW23656   1.444   2.756   3.268
 7586SOL    HW123657   1.454   2.698   3.349
 7586SOL    HW223658   1.361   2.731   3.219
 7587SOL     OW23659   3.079   0.565   5.503
 7587SOL    HW123660   2.990   0.594   5.538
 7587SOL    HW223661   3.149   0.582   5.572
 7588SOL     OW23662   0.365   4.897   1.035
 7588SOL    HW123663   0.304   4.834   1.083
 7588SOL    HW223664   0.320   4.931   0.952
 7589SOL     OW23665   4.582   5.680   5.934
 7589SOL    HW123666   4.575   5.595   5.882
 7589SOL    HW223667   4.495   5.697   5.982
 7590SOL     OW23668   2.627   0.916   5.003
 7590SOL    HW123669   2.678   0.853   5.062
 7590SOL    HW223670   2.689   0.960   4.938
 7591SOL     OW23671   6.535   5.787   6.278
 7591SOL    HW123672   6.619   5.783   6.332
 7591SOL    HW223673   6.474   5.713   6.307
 7592SOL     OW23674   4.481   4.786   6.072
 7592SOL    HW123675   4.543   4.712   6.045
 7592SOL    HW223676   4.500   4.867   6.016
 7593SOL     OW23677   6.600   4.749   6.966
 7593SOL    HW123678   6.623   4.684   6.894
 7593SOL    HW223679   6.652   4.728   0.028
 7594SOL     OW23680   1.042   0.129   4.387
 7594SOL    HW123681   0.965   0.184   4.354
 7594SOL    HW223682   1.125   0.184   4.384
 7595SOL     OW23683   0.276   3.937   6.513
 7595SOL    HW123684   0.289   3.868   6.442
 7595SOL    HW223685   0.325   3.910   6.596
 7596SOL     OW23686   5.294   5.254   2.144
 7596SOL    HW123687   5.375   5.297   2.185
 7596SOL    HW223688   5.220   5.252   2.211
 7597SOL     OW23689   2.209   4.399   2.566
 7597SOL    HW123690   2.112   4.413   2.544
 7597SOL    HW223691   2.254   4.356   2.488
 7598SOL     OW23692   6.812   1.359   2.539
 7598SOL    HW123693   6.733   1.392   2.488
 7598SOL    HW223694   6.826   1.416   2.620
 7599SOL     OW23695   5.422   4.086   2.006
 7599SOL    HW123696   5.397   4.029   2.084
 7599SOL    HW223697   5.421   4.031   1.923
 7600SOL     OW23698   2.422   2.199   2.777
 7600SOL    HW123699   2.502   2.197   2.837
 7600SOL    HW223700   2.419   2.286   2.728
 7601SOL     OW23701   1.994   0.789   5.578
 7601SOL    HW123702   2.045   0.719   5.628
 7601SOL    HW223703   1.952   0.748   5.497
 7602SOL     OW23704   1.937   3.073   5.275
 7602SOL    HW123705   1.889   3.070   5.187
 7602SOL    HW223706   2.003   3.148   5.274
 7603SOL     OW23707   6.375   1.376   2.402
 7603SOL    HW123708   6.398   1.467   2.438
 7603SOL    HW223709   6.309   1.386   2.327
 7604SOL     OW23710   5.765   5.578   6.573
 7604SOL    HW123711   5.772   5.669   6.616
 7604SOL    HW223712   5.857   5.546   6.550
 7605SOL     OW23713   5.131   3.418   5.591
 7605SOL    HW123714   5.086   3.458   5.511
 7605SOL    HW223715   5.222   3.460   5.602
 7606SOL     OW23716   5.537   1.309   3.844
 7606SOL    HW123717   5.537   1.338   3.748
 7606SOL    HW223718   5.482   1.373   3.898
 7607SOL     OW23719   4.971   6.156   5.974
 7607SOL    HW123720   5.047   6.125   5.916
 7607SOL    HW223721   4.999   6.153   6.070
 7608SOL     OW23722   3.800   3.392   4.881
 7608SOL    HW123723   3.703   3.415   4.865
 7608SOL    HW223724   3.855   3.425   4.805
 7609SOL     OW23725   1.358   2.817   2.865
 7609SOL    HW123726   1.449   2.806   2.824
 7609SOL    HW223727   1.300   2.870   2.804
 7610SOL     OW23728   5.642   0.127   2.487
 7610SOL    HW123729   5.726   0.180   2.470
 7610SOL    HW223730   5.574   0.186   2.529
 7611SOL     OW23731   1.257   1.555   1.854
 7611SOL    HW123732   1.312   1.558   1.937
 7611SOL    HW223733   1.160   1.550   1.877
 7612SOL     OW23734   3.629   1.127   2.813
 7612SOL    HW123735   3.592   1.216   2.839
 7612SOL    HW223736   3.666   1.133   2.720
 7613SOL     OW23737   6.553   0.727   2.230
 7613SOL    HW123738   6.644   0.692   2.210
 7613SOL    HW223739   6.522   0.691   2.319
 7614SOL     OW23740   4.376   0.934   0.551
 7614SOL    HW123741   4.339   0.954   0.461
 7614SOL    HW223742   4.301   0.905   0.612
 7615SOL     OW23743   4.335   4.324   5.908
 7615SOL    HW123744   4.252   4.378   5.924
 7615SOL    HW223745   4.398   4.335   5.985
 7616SOL     OW23746   7.002   6.168   3.647
 7616SOL    HW123747   6.997   6.076   3.686
 7616SOL    HW223748   0.078   6.193   3.633
 7617SOL     OW23749   4.190   5.373   3.110
 7617SOL    HW123750   4.207   5.414   3.200
 7617SOL    HW223751   4.226   5.433   3.039
 7618SOL     OW23752   3.341   1.590   0.403
 7618SOL    HW123753   3.292   1.506   0.426
 7618SOL    HW223754   3.290   1.640   0.333
 7619SOL     OW23755   5.761   3.658   5.763
 7619SOL    HW123756   5.856   3.629   5.773
 7619SOL    HW223757   5.706   3.582   5.728
 7620SOL     OW23758   2.639   5.724   2.110
 7620SOL    HW123759   2.586   5.676   2.179
 7620SOL    HW223760   2.580   5.745   2.031
 7621SOL     OW23761   2.754   3.145   1.440
 7621SOL    HW123762   2.846   3.117   1.415
 7621SOL    HW223763   2.692   3.067   1.434
 7622SOL     OW23764   5.122   2.142   0.792
 7622SOL    HW123765   5.029   2.151   0.755
 7622SOL    HW223766   5.174   2.225   0.773
 7623SOL     OW23767   0.024   6.934   4.767
 7623SOL    HW123768   6.960   6.895   4.805
 7623SOL    HW223769   0.096   6.933   4.837
 7624SOL     OW23770   6.979   1.382   4.807
 7624SOL    HW123771   6.986   1.344   4.900
 7624SOL    HW223772   6.888   1.420   4.793
 7625SOL     OW23773   2.073   4.687   0.435
 7625SOL    HW123774   2.152   4.712   0.492
 7625SOL    HW223775   2.102   4.679   0.340
 7626SOL     OW23776   2.679   3.848   5.264
 7626SOL    HW123777   2.749   3.848   5.192
 7626SOL    HW223778   2.595   3.889   5.229
 7627SOL     OW23779   6.941   0.525   0.148
 7627SOL    HW123780   6.883   0.545   0.069
 7627SOL    HW223781   0.016   0.535   0.122
 7628SOL     OW23782   4.162   1.743   0.336
 7628SOL    HW123783   4.137   1.689   0.416
 7628SOL    HW223784   4.136   1.839   0.350
 7629SOL     OW23785   6.287   5.430   2.693
 7629SOL    HW123786   6.285   5.528   2.673
 7629SOL    HW223787   6.297   5.416   2.791
 7630SOL     OW23788   5.609   1.526   1.937
 7630SOL    HW123789   5.636   1.481   2.022
 7630SOL    HW223790   5.509   1.522   1.928
 7631SOL     OW23791   0.981   0.318   3.987
 7631SOL    HW123792   0.915   0.337   3.914
 7631SOL    HW223793   1.064   0.279   3.947
 7632SOL     OW23794   4.813   0.748   4.660
 7632SOL    HW123795   4.760   0.747   4.744
 7632SOL    HW223796   4.759   0.786   4.586
 7633SOL     OW23797   5.749   3.427   6.055
 7633SOL    HW123798   5.776   3.389   5.966
 7633SOL    HW223799   5.664   3.479   6.044
 7634SOL     OW23800   1.010   2.472   1.806
 7634SOL    HW123801   1.018   2.485   1.905
 7634SOL    HW223802   0.913   2.465   1.781
 7635SOL     OW23803   1.891   5.006   5.787
 7635SOL    HW123804   1.917   4.910   5.772
 7635SOL    HW223805   1.806   5.026   5.738
 7636SOL     OW23806   0.890   1.476   3.453
 7636SOL    HW123807   0.946   1.489   3.535
 7636SOL    HW223808   0.907   1.550   3.389
 7637SOL     OW23809   2.918   6.112   4.160
 7637SOL    HW123810   2.892   6.164   4.242
 7637SOL    HW223811   2.993   6.159   4.114
 7638SOL     OW23812   4.770   4.786   1.909
 7638SOL    HW123813   4.685   4.836   1.891
 7638SOL    HW223814   4.819   4.831   1.983
 7639SOL     OW23815   0.777   2.047   4.483
 7639SOL    HW123816   0.870   2.067   4.513
 7639SOL    HW223817   0.779   1.973   4.416
 7640SOL     OW23818   1.987   2.801   6.102
 7640SOL    HW123819   2.024   2.888   6.070
 7640SOL    HW223820   1.895   2.814   6.137
 7641SOL     OW23821   5.751   3.477   1.744
 7641SOL    HW123822   5.790   3.554   1.693
 7641SOL    HW223823   5.792   3.391   1.711
 7642SOL     OW23824   0.777   2.667   2.898
 7642SOL    HW123825   0.717   2.711   2.965
 7642SOL    HW223826   0.743   2.685   2.806
 7643SOL     OW23827   5.452   3.681   3.659
 7643SOL    HW123828   5.477   3.645   3.569
 7643SOL    HW223829   5.357   3.711   3.658
 7644SOL     OW23830   6.383   2.350   3.533
 7644SOL    HW123831   6.461   2.302   3.573
 7644SOL    HW223832   6.378   2.330   3.435
 7645SOL     OW23833   4.212   3.083   0.657
 7645SOL    HW123834   4.197   3.029   0.574
 7645SOL    HW223835   4.164   3.171   0.648
 7646SOL     OW23836   0.786   0.685   2.395
 7646SOL    HW123837   0.839   0.745   2.336
 7646SOL    HW223838   0.771   0.597   2.350
 7647SOL     OW23839   2.464   4.260   0.113
 7647SOL    HW123840   2.527   4.281   0.038
 7647SOL    HW223841   2.386   4.209   0.077
 7648SOL     OW23842   2.471   0.485   3.729
 7648SOL    HW123843   2.561   0.468   3.771
 7648SOL    HW223844   2.480   0.555   3.659
 7649SOL     OW23845   3.801   2.003   0.863
 7649SOL    HW123846   3.718   2.017   0.810
 7649SOL    HW223847   3.785   2.028   0.958
 7650SOL     OW23848   0.110   4.749   0.586
 7650SOL    HW123849   0.032   4.770   0.646
 7650SOL    HW223850   0.147   4.835   0.550
 7651SOL     OW23851   5.659   1.893   5.784
 7651SOL    HW123852   5.619   1.813   5.829
 7651SOL    HW223853   5.586   1.953   5.752
 7652SOL     OW23854   0.590   2.895   2.361
 7652SOL    HW123855   0.529   2.817   2.367
 7652SOL    HW223856   0.667   2.873   2.301
 7653SOL     OW23857   4.770   2.542   1.447
 7653SOL    HW123858   4.819   2.607   1.505
 7653SOL    HW223859   4.760   2.580   1.356
 7654SOL     OW23860   5.508   4.014   5.368
 7654SOL    HW123861   5.450   4.094   5.380
 7654SOL    HW223862   5.524   3.998   5.271
 7655SOL     OW23863   5.249   4.919   6.451
 7655SOL    HW123864   5.348   4.933   6.439
 7655SOL    HW223865   5.226   4.928   6.548
 7656SOL     OW23866   0.143   0.589   5.342
 7656SOL    HW123867   0.102   0.584   5.433
 7656SOL    HW223868   0.234   0.548   5.345
 7657SOL     OW23869   3.489   2.090   3.476
 7657SOL    HW123870   3.511   1.993   3.474
 7657SOL    HW223871   3.485   2.126   3.383
 7658SOL     OW23872   4.382   1.025   5.886
 7658SOL    HW123873   4.302   1.085   5.882
 7658SOL    HW223874   4.429   1.037   5.974
 7659SOL     OW23875   5.022   6.271   6.299
 7659SOL    HW123876   4.930   6.307   6.286
 7659SOL    HW223877   5.021   6.205   6.374
 7660SOL     OW23878   5.452   5.124   3.823
 7660SOL    HW123879   5.418   5.088   3.736
 7660SOL    HW223880   5.491   5.215   3.809
 7661SOL     OW23881   5.907   3.183   3.647
 7661SOL    HW123882   5.830   3.127   3.679
 7661SOL    HW223883   5.881   3.230   3.562
 7662SOL     OW23884   5.942   5.456   3.521
 7662SOL    HW123885   5.918   5.423   3.430
 7662SOL    HW223886   5.859   5.478   3.572
 7663SOL     OW23887   0.990   6.681   6.677
 7663SOL    HW123888   1.077   6.707   6.636
 7663SOL    HW223889   0.921   6.751   6.658
 7664SOL     OW23890   4.783   4.926   4.798
 7664SOL    HW123891   4.773   4.916   4.699
 7664SOL    HW223892   4.818   4.841   4.837
 7665SOL     OW23893   2.088   5.525   3.413
 7665SOL    HW123894   2.150   5.603   3.420
 7665SOL    HW223895   2.104   5.462   3.489
 7666SOL     OW23896   2.006   0.309   2.729
 7666SOL    HW123897   2.060   0.225   2.725
 7666SOL    HW223898   2.068   0.387   2.740
 7667SOL     OW23899   5.514   0.089   5.423
 7667SOL    HW123900   5.415   0.097   5.410
 7667SOL    HW223901   5.534   0.069   5.519
 7668SOL     OW23902   3.191   3.084   2.751
 7668SOL    HW123903   3.174   3.034   2.666
 7668SOL    HW223904   3.146   3.173   2.747
 7669SOL     OW23905   4.954   6.664   5.041
 7669SOL    HW123906   5.020   6.621   4.979
 7669SOL    HW223907   4.968   6.629   5.134
 7670SOL     OW23908   1.638   5.855   1.622
 7670SOL    HW123909   1.665   5.880   1.530
 7670SOL    HW223910   1.631   5.755   1.629
 7671SOL     OW23911   4.578   2.642   4.778
 7671SOL    HW123912   4.558   2.733   4.814
 7671SOL    HW223913   4.515   2.576   4.818
 7672SOL     OW23914   5.507   6.757   1.879
 7672SOL    HW123915   5.464   6.695   1.944
 7672SOL    HW223916   5.457   6.843   1.876
 7673SOL     OW23917   2.076   3.824   0.320
 7673SOL    HW123918   2.069   3.914   0.278
 7673SOL    HW223919   1.987   3.796   0.355
 7674SOL     OW23920   6.341   1.415   5.462
 7674SOL    HW123921   6.266   1.356   5.433
 7674SOL    HW223922   6.383   1.377   5.544
 7675SOL     OW23923   5.541   0.011   3.203
 7675SOL    HW123924   5.482   6.998   3.130
 7675SOL    HW223925   5.502   0.094   3.243
 7676SOL     OW23926   2.283   0.093   1.055
 7676SOL    HW123927   2.228   0.132   1.129
 7676SOL    HW223928   2.327   0.167   1.003
 7677SOL     OW23929   1.703   2.559   2.599
 7677SOL    HW123930   1.693   2.579   2.502
 7677SOL    HW223931   1.777   2.615   2.637
 7678SOL     OW23932   4.794   6.885   5.802
 7678SOL    HW123933   4.803   6.955   5.731
 7678SOL    HW223934   4.761   6.800   5.760
 7679SOL     OW23935   1.748   4.791   4.697
 7679SOL    HW123936   1.684   4.722   4.731
 7679SOL    HW223937   1.840   4.754   4.695
 7680SOL     OW23938   4.277   0.426   0.543
 7680SOL    HW123939   4.264   0.514   0.590
 7680SOL    HW223940   4.372   0.419   0.513
 7681SOL     OW23941   4.155   2.503   5.685
 7681SOL    HW123942   4.083   2.488   5.753
 7681SOL    HW223943   4.154   2.429   5.618
 7682SOL     OW23944   3.132   1.168   0.253
 7682SOL    HW123945   3.180   1.223   0.184
 7682SOL    HW223946   3.041   1.144   0.219
 7683SOL     OW23947   6.865   3.265   2.999
 7683SOL    HW123948   6.848   3.170   2.973
 7683SOL    HW223949   6.794   3.296   3.062
 7684SOL     OW23950   3.902   1.884   6.124
 7684SOL    HW123951   3.930   1.884   6.220
 7684SOL    HW223952   3.925   1.796   6.082
 7685SOL     OW23953   4.650   4.783   1.328
 7685SOL    HW123954   4.577   4.822   1.272
 7685SOL    HW223955   4.656   4.685   1.312
 7686SOL     OW23956   2.130   0.656   2.116
 7686SOL    HW123957   2.216   0.694   2.082
 7686SOL    HW223958   2.056   0.722   2.100
 7687SOL     OW23959   4.889   4.287   5.338
 7687SOL    HW123960   4.872   4.378   5.375
 7687SOL    HW223961   4.804   4.235   5.336
 7688SOL     OW23962   6.869   0.685   3.721
 7688SOL    HW123963   6.780   0.725   3.742
 7688SOL    HW223964   6.859   0.619   3.646
 7689SOL     OW23965   3.225   0.001   5.218
 7689SOL    HW123966   3.219   6.929   5.257
 7689SOL    HW223967   3.240   7.015   5.120
 7690SOL     OW23968   1.054   5.418   2.975
 7690SOL    HW123969   0.987   5.391   2.905
 7690SOL    HW223970   1.011   5.480   3.041
 7691SOL     OW23971   6.638   3.411   5.541
 7691SOL    HW123972   6.554   3.428   5.592
 7691SOL    HW223973   6.654   3.313   5.536
 7692SOL     OW23974   1.450   6.242   1.352
 7692SOL    HW123975   1.353   6.224   1.368
 7692SOL    HW223976   1.476   6.205   1.263
 7693SOL     OW23977   4.629   0.946   0.431
 7693SOL    HW123978   4.540   0.941   0.477
 7693SOL    HW223979   4.646   0.861   0.381
 7694SOL     OW23980   5.401   5.537   3.864
 7694SOL    HW123981   5.333   5.474   3.901
 7694SOL    HW223982   5.473   5.551   3.931
 7695SOL     OW23983   5.031   6.970   6.144
 7695SOL    HW123984   4.976   6.896   6.183
 7695SOL    HW223985   5.080   6.936   6.064
 7696SOL     OW23986   1.074   3.986   5.271
 7696SOL    HW123987   1.133   4.031   5.204
 7696SOL    HW223988   1.109   4.005   5.363
 7697SOL     OW23989   4.372   0.598   2.498
 7697SOL    HW123990   4.449   0.555   2.546
 7697SOL    HW223991   4.292   0.539   2.505
 7698SOL     OW23992   0.187   1.898   6.281
 7698SOL    HW123993   0.107   1.950   6.252
 7698SOL    HW223994   0.270   1.951   6.264
 7699SOL     OW23995   3.322   3.261   1.453
 7699SOL    HW123996   3.290   3.166   1.448
 7699SOL    HW223997   3.247   3.323   1.430
 7700SOL     OW23998   5.196   0.891   5.199
 7700SOL    HW123999   5.255   0.812   5.218
 7700SOL    HW224000   5.246   0.956   5.141
 7701SOL     OW24001   6.456   2.371   5.110
 7701SOL    HW124002   6.423   2.423   5.031
 7701SOL    HW224003   6.555   2.381   5.117
 7702SOL     OW24004   1.400   6.382   6.948
 7702SOL    HW124005   1.469   6.454   6.947
 7702SOL    HW224006   1.321   6.412   6.893
 7703SOL     OW24007   0.904   2.394   0.048
 7703SOL    HW124008   0.941   2.417   0.139
 7703SOL    HW224009   0.897   2.477   7.013
 7704SOL     OW24010   3.868   4.069   1.540
 7704SOL    HW124011   3.931   4.139   1.507
 7704SOL    HW224012   3.883   3.984   1.489
 7705SOL     OW24013   4.168   3.455   4.818
 7705SOL    HW124014   4.255   3.466   4.772
 7705SOL    HW224015   4.101   3.518   4.779
 7706SOL     OW24016   5.087   1.620   5.723
 7706SOL    HW124017   5.055   1.607   5.817
 7706SOL    HW224018   5.102   1.532   5.680
 7707SOL     OW24019   0.291   4.835   6.284
 7707SOL    HW124020   0.210   4.776   6.289
 7707SOL    HW224021   0.371   4.786   6.319
 7708SOL     OW24022   4.395   1.624   5.086
 7708SOL    HW124023   4.349   1.682   5.018
 7708SOL    HW224024   4.335   1.549   5.113
 7709SOL     OW24025   3.892   2.513   1.358
 7709SOL    HW124026   3.865   2.524   1.262
 7709SOL    HW224027   3.854   2.588   1.412
 7710SOL     OW24028   3.510   1.565   6.731
 7710SOL    HW124029   3.591   1.622   6.748
 7710SOL    HW224030   3.434   1.599   6.786
 7711SOL     OW24031   4.671   6.383   4.728
 7711SOL    HW124032   4.696   6.391   4.631
 7711SOL    HW224033   4.633   6.470   4.760
 7712SOL     OW24034   6.313   4.477   6.025
 7712SOL    HW124035   6.229   4.477   5.971
 7712SOL    HW224036   6.345   4.383   6.036
 7713SOL     OW24037   0.607   4.926   6.466
 7713SOL    HW124038   0.574   5.020   6.468
 7713SOL    HW224039   0.585   4.880   6.552
 7714SOL     OW24040   5.761   4.851   5.020
 7714SOL    HW124041   5.796   4.891   5.104
 7714SOL    HW224042   5.662   4.864   5.015
 7715SOL     OW24043   3.656   1.976   1.466
 7715SOL    HW124044   3.664   1.995   1.564
 7715SOL    HW224045   3.624   2.058   1.419
 7716SOL     OW24046   3.840   2.148   4.439
 7716SOL    HW124047   3.764   2.140   4.374
 7716SOL    HW224048   3.897   2.067   4.435
 7717SOL     OW24049   2.891   6.667   0.221
 7717SOL    HW124050   2.933   6.624   0.301
 7717SOL    HW224051   2.882   6.600   0.148
 7718SOL     OW24052   1.513   6.243   3.242
 7718SOL    HW124053   1.593   6.247   3.301
 7718SOL    HW224054   1.430   6.240   3.298
 7719SOL     OW24055   5.546   2.639   5.483
 7719SOL    HW124056   5.637   2.605   5.462
 7719SOL    HW224057   5.478   2.589   5.430
 7720SOL     OW24058   4.870   6.536   1.803
 7720SOL    HW124059   4.967   6.562   1.794
 7720SOL    HW224060   4.862   6.436   1.800
 7721SOL     OW24061   0.469   5.091   3.282
 7721SOL    HW124062   0.423   5.179   3.297
 7721SOL    HW224063   0.559   5.093   3.326
 7722SOL     OW24064   0.347   5.797   3.776
 7722SOL    HW124065   0.389   5.751   3.698
 7722SOL    HW224066   0.247   5.792   3.767
 7723SOL     OW24067   0.148   2.131   6.080
 7723SOL    HW124068   0.242   2.130   6.115
 7723SOL    HW224069   0.133   2.051   6.023
 7724SOL     OW24070   2.890   6.008   6.731
 7724SOL    HW124071   2.817   6.059   6.777
 7724SOL    HW224072   2.979   6.036   6.768
 7725SOL     OW24073   5.337   4.120   3.439
 7725SOL    HW124074   5.410   4.073   3.489
 7725SOL    HW224075   5.331   4.083   3.346
 7726SOL     OW24076   5.163   5.573   3.662
 7726SOL    HW124077   5.224   5.650   3.646
 7726SOL    HW224078   5.070   5.598   3.635
 7727SOL     OW24079   5.973   3.557   2.190
 7727SOL    HW124080   6.008   3.553   2.096
 7727SOL    HW224081   5.887   3.608   2.191
 7728SOL     OW24082   2.182   3.076   2.989
 7728SOL    HW124083   2.139   3.165   2.976
 7728SOL    HW224084   2.147   3.033   3.072
 7729SOL     OW24085   5.498   1.456   6.112
 7729SOL    HW124086   5.566   1.383   6.115
 7729SOL    HW224087   5.424   1.430   6.049
 7730SOL     OW24088   4.488   6.076   3.118
 7730SOL    HW124089   4.514   6.088   3.214
 7730SOL    HW224090   4.460   5.982   3.102
 7731SOL     OW24091   5.828   1.664   4.290
 7731SOL    HW124092   5.838   1.724   4.211
 7731SOL    HW224093   5.876   1.704   4.368
 7732SOL     OW24094   4.395   4.697   0.935
 7732SOL    HW124095   4.309   4.647   0.943
 7732SOL    HW224096   4.418   4.710   0.838
 7733SOL     OW24097   3.565   5.737   1.379
 7733SOL    HW124098   3.636   5.799   1.412
 7733SOL    HW224099   3.532   5.682   1.455
 7734SOL     OW24100   1.219   3.128   1.919
 7734SOL    HW124101   1.300   3.124   1.977
 7734SOL    HW224102   1.218   3.214   1.868
 7735SOL     OW24103   5.957   3.976   0.597
 7735SOL    HW124104   5.999   3.886   0.612
 7735SOL    HW224105   5.862   3.973   0.627
 7736SOL     OW24106   5.718   4.545   6.630
 7736SOL    HW124107   5.648   4.559   6.700
 7736SOL    HW224108   5.721   4.448   6.605
 7737SOL     OW24109   4.862   2.435   0.110
 7737SOL    HW124110   4.863   2.415   0.208
 7737SOL    HW224111   4.931   2.379   0.064
 7738SOL     OW24112   1.796   4.996   6.416
 7738SOL    HW124113   1.865   5.068   6.414
 7738SOL    HW224114   1.710   5.034   6.450
 7739SOL     OW24115   5.992   4.228   2.166
 7739SOL    HW124116   5.901   4.237   2.127
 7739SOL    HW224117   6.060   4.264   2.102
 7740SOL     OW24118   6.637   5.895   3.447
 7740SOL    HW124119   6.675   5.874   3.538
 7740SOL    HW224120   6.625   5.810   3.396
 7741SOL     OW24121   2.875   5.118   3.603
 7741SOL    HW124122   2.839   5.182   3.672
 7741SOL    HW224123   2.854   5.025   3.631
 7742SOL     OW24124   0.085   0.497   4.578
 7742SOL    HW124125   0.152   0.496   4.652
 7742SOL    HW224126   0.064   0.591   4.553
 7743SOL     OW24127   4.926   3.233   2.043
 7743SOL    HW124128   4.854   3.165   2.032
 7743SOL    HW224129   4.987   3.231   1.963
 7744SOL     OW24130   0.128   6.684   4.515
 7744SOL    HW124131   0.054   6.632   4.558
 7744SOL    HW224132   0.152   6.763   4.572
 7745SOL     OW24133   6.023   2.570   5.722
 7745SOL    HW124134   6.024   2.664   5.754
 7745SOL    HW224135   6.032   2.508   5.800
 7746SOL     OW24136   2.267   0.805   6.685
 7746SOL    HW124137   2.313   0.791   6.597
 7746SOL    HW224138   2.171   0.825   6.670
 7747SOL     OW24139   5.022   5.449   0.476
 7747SOL    HW124140   5.028   5.545   0.503
 7747SOL    HW224141   5.110   5.404   0.491
 7748SOL     OW24142   1.653   3.706   6.936
 7748SOL    HW124143   1.571   3.650   6.930
 7748SOL    HW224144   1.645   3.784   6.874
 7749SOL     OW24145   5.832   3.287   5.803
 7749SOL    HW124146   5.915   3.254   5.758
 7749SOL    HW224147   5.758   3.294   5.736
 7750SOL     OW24148   4.281   5.770   2.772
 7750SOL    HW124149   4.281   5.869   2.757
 7750SOL    HW224150   4.278   5.723   2.684
 7751SOL     OW24151   0.962   2.581   1.537
 7751SOL    HW124152   1.010   2.551   1.620
 7751SOL    HW224153   0.979   2.514   1.464
 7752SOL     OW24154   2.763   0.954   2.632
 7752SOL    HW124155   2.703   0.910   2.699
 7752SOL    HW224156   2.708   1.002   2.564
 7753SOL     OW24157   4.363   0.440   5.166
 7753SOL    HW124158   4.392   0.477   5.078
 7753SOL    HW224159   4.345   0.342   5.157
 7754SOL     OW24160   4.790   6.069   1.163
 7754SOL    HW124161   4.742   6.116   1.237
 7754SOL    HW224162   4.885   6.054   1.189
 7755SOL     OW24163   1.096   3.360   6.071
 7755SOL    HW124164   1.152   3.406   6.139
 7755SOL    HW224165   1.058   3.276   6.109
 7756SOL     OW24166   1.500   3.613   2.363
 7756SOL    HW124167   1.420   3.673   2.355
 7756SOL    HW224168   1.582   3.669   2.373
 7757SOL     OW24169   0.998   4.200   0.151
 7757SOL    HW124170   0.900   4.208   0.168
 7757SOL    HW224171   1.037   4.291   0.133
 7758SOL     OW24172   0.100   0.871   5.078
 7758SOL    HW124173   0.095   0.891   5.176
 7758SOL    HW224174   0.035   0.798   5.056
 7759SOL     OW24175   3.438   1.344   2.872
 7759SOL    HW124176   3.475   1.436   2.884
 7759SOL    HW224177   3.339   1.350   2.855
 7760SOL     OW24178   5.362   3.021   0.447
 7760SOL    HW124179   5.373   3.067   0.536
 7760SOL    HW224180   5.424   2.943   0.443
 7761SOL     OW24181   5.111   5.523   2.707
 7761SOL    HW124182   5.057   5.553   2.629
 7761SOL    HW224183   5.122   5.424   2.703
 7762SOL     OW24184   4.479   1.891   0.571
 7762SOL    HW124185   4.479   1.797   0.536
 7762SOL    HW224186   4.506   1.954   0.499
 7763SOL     OW24187   1.818   0.738   3.272
 7763SOL    HW124188   1.776   0.793   3.201
 7763SOL    HW224189   1.793   0.774   3.362
 7764SOL     OW24190   3.774   4.496   5.536
 7764SOL    HW124191   3.776   4.575   5.598
 7764SOL    HW224192   3.862   4.489   5.488
 7765SOL     OW24193   6.283   4.237   4.591
 7765SOL    HW124194   6.243   4.149   4.613
 7765SOL    HW224195   6.213   4.308   4.594
 7766SOL     OW24196   6.818   2.604   6.000
 7766SOL    HW124197   6.735   2.551   6.017
 7766SOL    HW224198   6.891   2.542   5.969
 7767SOL     OW24199   4.158   0.521   3.619
 7767SOL    HW124200   4.117   0.493   3.532
 7767SOL    HW224201   4.164   0.442   3.680
 7768SOL     OW24202   3.383   5.585   3.726
 7768SOL    HW124203   3.454   5.557   3.661
 7768SOL    HW224204   3.310   5.516   3.726
 7769SOL     OW24205   3.450   2.031   5.981
 7769SOL    HW124206   3.418   2.108   5.927
 7769SOL    HW224207   3.524   1.984   5.933
 7770SOL     OW24208   1.461   3.055   3.505
 7770SOL    HW124209   1.502   2.975   3.549
 7770SOL    HW224210   1.523   3.133   3.514
 7771SOL     OW24211   0.893   3.729   5.125
 7771SOL    HW124212   0.826   3.802   5.109
 7771SOL    HW224213   0.949   3.753   5.204
 7772SOL     OW24214   5.068   5.564   1.950
 7772SOL    HW124215   5.158   5.519   1.945
 7772SOL    HW224216   5.076   5.658   1.919
 7773SOL     OW24217   3.058   6.616   6.245
 7773SOL    HW124218   3.080   6.676   6.168
 7773SOL    HW224219   2.978   6.560   6.222
 7774SOL     OW24220   5.199   0.903   3.007
 7774SOL    HW124221   5.236   0.979   2.953
 7774SOL    HW224222   5.199   0.928   3.104
 7775SOL     OW24223   3.828   1.859   1.307
 7775SOL    HW124224   3.756   1.895   1.366
 7775SOL    HW224225   3.901   1.821   1.364
 7776SOL     OW24226   2.746   1.804   3.758
 7776SOL    HW124227   2.767   1.872   3.829
 7776SOL    HW224228   2.647   1.803   3.742
 7777SOL     OW24229   5.054   4.812   3.185
 7777SOL    HW124230   4.958   4.805   3.214
 7777SOL    HW224231   5.110   4.751   3.241
 7778SOL     OW24232   0.639   3.036   1.703
 7778SOL    HW124233   0.545   3.036   1.668
 7778SOL    HW224234   0.679   2.946   1.691
 7779SOL     OW24235   2.649   0.902   3.633
 7779SOL    HW124236   2.627   0.999   3.621
 7779SOL    HW224237   2.570   0.847   3.604
 7780SOL     OW24238   6.389   5.793   4.042
 7780SOL    HW124239   6.422   5.837   3.958
 7780SOL    HW224240   6.346   5.862   4.101
 7781SOL     OW24241   3.230   2.744   1.324
 7781SOL    HW124242   3.276   2.672   1.376
 7781SOL    HW224243   3.143   2.709   1.288
 7782SOL     OW24244   5.144   4.994   3.627
 7782SOL    HW124245   5.150   5.053   3.707
 7782SOL    HW224246   5.172   5.045   3.546
 7783SOL     OW24247   0.642   6.560   3.834
 7783SOL    HW124248   0.697   6.478   3.853
 7783SOL    HW224249   0.622   6.608   3.919
 7784SOL     OW24250   1.031   2.996   2.087
 7784SOL    HW124251   1.021   3.011   1.989
 7784SOL    HW224252   0.950   3.030   2.134
 7785SOL     OW24253   6.371   6.892   2.703
 7785SOL    HW124254   6.443   6.921   2.640
 7785SOL    HW224255   6.304   6.837   2.653
 7786SOL     OW24256   5.756   0.620   6.473
 7786SOL    HW124257   5.855   0.610   6.483
 7786SOL    HW224258   5.709   0.552   6.529
 7787SOL     OW24259   0.995   2.215   0.786
 7787SOL    HW124260   1.066   2.147   0.806
 7787SOL    HW224261   0.950   2.241   0.871
 7788SOL     OW24262   0.757   4.442   2.119
 7788SOL    HW124263   0.746   4.344   2.103
 7788SOL    HW224264   0.773   4.459   2.216
 7789SOL     OW24265   3.675   0.342   6.846
 7789SOL    HW124266   3.696   0.432   6.807
 7789SOL    HW224267   3.658   0.352   6.944
 7790SOL     OW24268   4.148   5.108   4.749
 7790SOL    HW124269   4.247   5.100   4.751
 7790SOL    HW224270   4.121   5.183   4.689
 7791SOL     OW24271   2.098   6.789   1.530
 7791SOL    HW124272   2.196   6.797   1.510
 7791SOL    HW224273   2.084   6.723   1.604
 7792SOL     OW24274   1.435   1.581   2.063
 7792SOL    HW124275   1.424   1.539   2.153
 7792SOL    HW224276   1.528   1.617   2.054
 7793SOL     OW24277   5.449   1.379   0.763
 7793SOL    HW124278   5.403   1.301   0.806
 7793SOL    HW224279   5.524   1.410   0.823
 7794SOL     OW24280   0.945   1.642   2.593
 7794SOL    HW124281   0.950   1.629   2.692
 7794SOL    HW224282   1.031   1.682   2.560
 7795SOL     OW24283   4.706   3.767   0.810
 7795SOL    HW124284   4.627   3.780   0.870
 7795SOL    HW224285   4.755   3.684   0.838
 7796SOL     OW24286   4.076   1.139   0.413
 7796SOL    HW124287   4.032   1.116   0.500
 7796SOL    HW224288   4.065   1.237   0.396
 7797SOL     OW24289   1.323   6.101   3.003
 7797SOL    HW124290   1.259   6.096   3.080
 7797SOL    HW224291   1.397   6.164   3.027
 7798SOL     OW24292   2.135   3.283   0.806
 7798SOL    HW124293   2.095   3.245   0.723
 7798SOL    HW224294   2.066   3.286   0.879
 7799SOL     OW24295   1.929   6.156   4.416
 7799SOL    HW124296   1.975   6.125   4.500
 7799SOL    HW224297   1.989   6.219   4.367
 7800SOL     OW24298   0.682   0.631   2.013
 7800SOL    HW124299   0.628   0.601   1.934
 7800SOL    HW224300   0.623   0.682   2.076
 7801SOL     OW24301   2.584   1.998   0.666
 7801SOL    HW124302   2.630   2.033   0.585
 7801SOL    HW224303   2.537   1.912   0.643
 7802SOL     OW24304   6.704   4.859   3.669
 7802SOL    HW124305   6.715   4.845   3.767
 7802SOL    HW224306   6.609   4.842   3.643
 7803SOL     OW24307   3.133   2.362   6.241
 7803SOL    HW124308   3.197   2.396   6.173
 7803SOL    HW224309   3.172   2.282   6.287
 7804SOL     OW24310   2.884   1.051   5.542
 7804SOL    HW124311   2.880   1.076   5.639
 7804SOL    HW224312   2.976   1.018   5.520
 7805SOL     OW24313   6.831   2.194   6.985
 7805SOL    HW124314   6.910   2.143   0.000
 7805SOL    HW224315   6.813   2.167   6.891
 7806SOL     OW24316   6.082   2.468   4.959
 7806SOL    HW124317   6.073   2.485   5.057
 7806SOL    HW224318   6.014   2.522   4.909
 7807SOL     OW24319   2.174   5.872   5.182
 7807SOL    HW124320   2.121   5.812   5.241
 7807SOL    HW224321   2.118   5.950   5.154
 7808SOL     OW24322   0.082   3.026   4.551
 7808SOL    HW124323   0.156   2.988   4.606
 7808SOL    HW224324   0.090   2.995   4.457
 7809SOL     OW24325   3.046   0.720   3.087
 7809SOL    HW124326   3.020   0.705   2.992
 7809SOL    HW224327   3.120   0.787   3.091
 7810SOL     OW24328   2.889   6.826   5.862
 7810SOL    HW124329   2.790   6.813   5.870
 7810SOL    HW224330   2.932   6.814   5.951
 7811SOL     OW24331   1.131   5.194   3.108
 7811SOL    HW124332   1.099   5.209   3.202
 7811SOL    HW224333   1.106   5.272   3.052
 7812SOL     OW24334   3.095   0.275   6.331
 7812SOL    HW124335   3.175   0.263   6.390
 7812SOL    HW224336   3.028   0.333   6.378
 7813SOL     OW24337   5.908   1.035   0.556
 7813SOL    HW124338   5.887   0.938   0.555
 7813SOL    HW224339   5.829   1.086   0.590
 7814SOL     OW24340   0.275   2.253   1.819
 7814SOL    HW124341   0.363   2.228   1.858
 7814SOL    HW224342   0.224   2.170   1.795
 7815SOL     OW24343   4.739   5.914   3.796
 7815SOL    HW124344   4.755   5.835   3.854
 7815SOL    HW224345   4.771   5.894   3.703
 7816SOL     OW24346   1.501   1.371   5.269
 7816SOL    HW124347   1.464   1.328   5.351
 7816SOL    HW224348   1.533   1.300   5.206
 7817SOL     OW24349   4.546   1.190   5.704
 7817SOL    HW124350   4.519   1.150   5.792
 7817SOL    HW224351   4.528   1.124   5.631
 7818SOL     OW24352   4.297   0.889   2.994
 7818SOL    HW124353   4.277   0.955   3.067
 7818SOL    HW224354   4.214   0.871   2.942
 7819SOL     OW24355   2.546   2.533   4.568
 7819SOL    HW124356   2.516   2.617   4.611
 7819SOL    HW224357   2.500   2.522   4.480
 7820SOL     OW24358   2.178   0.661   6.926
 7820SOL    HW124359   2.231   0.699   6.849
 7820SOL    HW224360   2.092   0.624   6.891
 7821SOL     OW24361   3.332   5.797   6.496
 7821SOL    HW124362   3.289   5.828   6.580
 7821SOL    HW224363   3.262   5.777   6.427
 7822SOL     OW24364   0.719   1.253   4.469
 7822SOL    HW124365   0.674   1.202   4.543
 7822SOL    HW224366   0.766   1.189   4.409
 7823SOL     OW24367   2.054   2.524   5.624
 7823SOL    HW124368   2.074   2.575   5.541
 7823SOL    HW224369   2.085   2.429   5.614
 7824SOL     OW24370   6.128   3.924   2.757
 7824SOL    HW124371   6.033   3.949   2.738
 7824SOL    HW224372   6.175   3.902   2.671
 7825SOL     OW24373   3.042   3.136   4.032
 7825SOL    HW124374   2.951   3.098   4.049
 7825SOL    HW224375   3.083   3.163   4.119
 7826SOL     OW24376   6.167   6.453   1.278
 7826SOL    HW124377   6.226   6.374   1.288
 7826SOL    HW224378   6.093   6.448   1.345
 7827SOL     OW24379   5.073   3.794   0.681
 7827SOL    HW124380   5.034   3.874   0.727
 7827SOL    HW224381   5.087   3.721   0.748
 7828SOL     OW24382   1.163   6.092   0.368
 7828SOL    HW124383   1.100   6.068   0.442
 7828SOL    HW224384   1.227   6.161   0.401
 7829SOL     OW24385   3.115   3.843   2.984
 7829SOL    HW124386   3.042   3.818   2.920
 7829SOL    HW224387   3.075   3.863   3.074
 7830SOL     OW24388   0.069   4.561   6.754
 7830SOL    HW124389   0.072   4.495   6.679
 7830SOL    HW224390   0.055   4.653   6.718
 7831SOL     OW24391   3.398   3.234   0.143
 7831SOL    HW124392   3.458   3.260   0.219
 7831SOL    HW224393   3.322   3.299   0.138
 7832SOL     OW24394   3.798   2.532   5.718
 7832SOL    HW124395   3.760   2.472   5.788
 7832SOL    HW224396   3.814   2.623   5.756
 7833SOL     OW24397   6.040   6.934   1.978
 7833SOL    HW124398   6.099   6.989   1.919
 7833SOL    HW224399   6.033   6.976   2.068
 7834SOL     OW24400   5.105   0.929   1.687
 7834SOL    HW124401   5.048   0.908   1.767
 7834SOL    HW224402   5.046   0.944   1.607
 7835SOL     OW24403   2.452   2.014   4.312
 7835SOL    HW124404   2.443   2.048   4.219
 7835SOL    HW224405   2.461   2.091   4.375
 7836SOL     OW24406   2.639   0.251   6.850
 7836SOL    HW124407   2.626   0.295   6.939
 7836SOL    HW224408   2.564   0.187   6.834
 7837SOL     OW24409   5.491   6.201   2.141
 7837SOL    HW124410   5.520   6.295   2.156
 7837SOL    HW224411   5.458   6.190   2.048
 7838SOL     OW24412   3.217   5.420   4.034
 7838SOL    HW124413   3.308   5.407   4.073
 7838SOL    HW224414   3.148   5.384   4.097
 7839SOL     OW24415   7.007   5.655   2.815
 7839SOL    HW124416   0.039   5.729   2.770
 7839SOL    HW224417   0.034   5.628   2.899
 7840SOL     OW24418   4.035   2.923   6.052
 7840SOL    HW124419   3.941   2.948   6.027
 7840SOL    HW224420   4.057   2.833   6.014
 7841SOL     OW24421   1.110   1.573   5.737
 7841SOL    HW124422   1.099   1.673   5.736
 7841SOL    HW224423   1.200   1.550   5.702
 7842SOL     OW24424   1.786   1.021   2.428
 7842SOL    HW124425   1.736   1.101   2.461
 7842SOL    HW224426   1.754   0.940   2.478
 7843SOL     OW24427   0.187   1.956   1.770
 7843SOL    HW124428   0.097   1.921   1.745
 7843SOL    HW224429   0.202   1.944   1.868
 7844SOL     OW24430   3.445   2.140   3.171
 7844SOL    HW124431   3.507   2.144   3.093
 7844SOL    HW224432   3.354   2.169   3.142
 7845SOL     OW24433   1.290   1.045   4.145
 7845SOL    HW124434   1.292   1.141   4.171
 7845SOL    HW224435   1.310   1.036   4.048
 7846SOL     OW24436   4.932   6.613   2.887
 7846SOL    HW124437   5.007   6.624   2.952
 7846SOL    HW224438   4.845   6.634   2.932
 7847SOL     OW24439   0.794   6.520   6.227
 7847SOL    HW124440   0.879   6.565   6.253
 7847SOL    HW224441   0.799   6.492   6.131
 7848SOL     OW24442   4.461   3.766   1.260
 7848SOL    HW124443   4.467   3.667   1.249
 7848SOL    HW224444   4.485   3.791   1.354
 7849SOL     OW24445   6.164   4.534   5.346
 7849SOL    HW124446   6.197   4.628   5.342
 7849SOL    HW224447   6.217   4.477   5.284
 7850SOL     OW24448   1.293   2.825   4.893
 7850SOL    HW124449   1.267   2.905   4.947
 7850SOL    HW224450   1.393   2.815   4.895
 7851SOL     OW24451   2.953   6.621   1.065
 7851SOL    HW124452   2.935   6.679   0.985
 7851SOL    HW224453   3.052   6.610   1.075
 7852SOL     OW24454   2.562   6.395   0.842
 7852SOL    HW124455   2.552   6.464   0.914
 7852SOL    HW224456   2.510   6.423   0.761
 7853SOL     OW24457   2.247   1.519   6.921
 7853SOL    HW124458   2.239   1.493   7.017
 7853SOL    HW224459   2.344   1.530   6.897
 7854SOL     OW24460   3.929   4.102   5.013
 7854SOL    HW124461   3.969   4.182   4.969
 7854SOL    HW224462   3.829   4.107   5.008
 7855SOL     OW24463   3.045   6.773   4.906
 7855SOL    HW124464   3.120   6.715   4.936
 7855SOL    HW224465   2.958   6.725   4.918
 7856SOL     OW24466   2.672   3.074   5.583
 7856SOL    HW124467   2.670   3.102   5.487
 7856SOL    HW224468   2.599   3.009   5.601
 7857SOL     OW24469   0.358   2.908   5.124
 7857SOL    HW124470   0.271   2.945   5.156
 7857SOL    HW224471   0.430   2.932   5.190
 7858SOL     OW24472   5.276   2.647   3.283
 7858SOL    HW124473   5.374   2.668   3.279
 7858SOL    HW224474   5.253   2.583   3.210
 7859SOL     OW24475   6.500   6.929   0.136
 7859SOL    HW124476   6.533   0.002   0.127
 7859SOL    HW224477   6.479   6.892   0.045
 7860SOL     OW24478   4.719   6.228   0.768
 7860SOL    HW124479   4.775   6.249   0.848
 7860SOL    HW224480   4.715   6.309   0.708
 7861SOL     OW24481   6.479   3.557   0.042
 7861SOL    HW124482   6.410   3.619   0.078
 7861SOL    HW224483   6.438   3.468   0.024
 7862SOL     OW24484   2.831   4.516   1.607
 7862SOL    HW124485   2.850   4.527   1.704
 7862SOL    HW224486   2.788   4.427   1.591
 7863SOL     OW24487   4.260   5.856   2.305
 7863SOL    HW124488   4.325   5.932   2.312
 7863SOL    HW224489   4.289   5.782   2.365
 7864SOL     OW24490   1.828   5.913   5.381
 7864SOL    HW124491   1.744   5.871   5.347
 7864SOL    HW224492   1.819   6.012   5.378
 7865SOL     OW24493   4.512   0.485   3.516
 7865SOL    HW124494   4.467   0.512   3.601
 7865SOL    HW224495   4.606   0.457   3.534
 7866SOL     OW24496   2.803   0.362   6.078
 7866SOL    HW124497   2.775   0.273   6.041
 7866SOL    HW224498   2.867   0.348   6.153
 7867SOL     OW24499   6.983   3.191   0.506
 7867SOL    HW124500   0.025   3.143   0.444
 7867SOL    HW224501   6.888   3.167   0.484
 7868SOL     OW24502   5.396   6.823   1.380
 7868SOL    HW124503   5.423   6.780   1.294
 7868SOL    HW224504   5.443   6.778   1.456
 7869SOL     OW24505   6.149   1.789   4.432
 7869SOL    HW124506   6.158   1.847   4.351
 7869SOL    HW224507   6.238   1.780   4.477
 7870SOL     OW24508   6.361   6.968   3.221
 7870SOL    HW124509   6.431   6.992   3.288
 7870SOL    HW224510   6.330   0.030   3.174
 7871SOL     OW24511   5.567   2.727   3.204
 7871SOL    HW124512   5.589   2.811   3.153
 7871SOL    HW224513   5.609   2.731   3.295
 7872SOL     OW24514   5.594   3.868   4.066
 7872SOL    HW124515   5.580   3.965   4.087
 7872SOL    HW224516   5.690   3.853   4.040
 7873SOL     OW24517   6.991   5.817   5.034
 7873SOL    HW124518   0.038   5.771   5.092
 7873SOL    HW224519   6.930   5.749   4.994
 7874SOL     OW24520   6.135   6.596   0.143
 7874SOL    HW124521   6.230   6.566   0.143
 7874SOL    HW224522   6.085   6.549   0.215
 7875SOL     OW24523   5.896   2.457   0.315
 7875SOL    HW124524   5.989   2.490   0.296
 7875SOL    HW224525   5.839   2.533   0.347
 7876SOL     OW24526   6.755   2.225   4.934
 7876SOL    HW124527   6.672   2.235   4.879
 7876SOL    HW224528   6.748   2.143   4.991
 7877SOL     OW24529   5.894   3.664   1.626
 7877SOL    HW124530   5.938   3.653   1.537
 7877SOL    HW224531   5.946   3.727   1.682
 7878SOL     OW24532   3.443   4.078   2.105
 7878SOL    HW124533   3.411   4.158   2.156
 7878SOL    HW224534   3.483   4.012   2.169
 7879SOL     OW24535   0.133   1.810   4.971
 7879SOL    HW124536   0.133   1.883   4.903
 7879SOL    HW224537   0.047   1.812   5.022
 7880SOL     OW24538   2.007   6.378   6.758
 7880SOL    HW124539   2.083   6.316   6.738
 7880SOL    HW224540   1.922   6.326   6.766
 7881SOL     OW24541   0.439   4.668   5.553
 7881SOL    HW124542   0.532   4.664   5.517
 7881SOL    HW224543   0.423   4.758   5.593
 7882SOL     OW24544   1.483   4.819   0.863
 7882SOL    HW124545   1.462   4.762   0.783
 7882SOL    HW224546   1.485   4.915   0.836
 7883SOL     OW24547   2.727   2.337   2.547
 7883SOL    HW124548   2.789   2.325   2.469
 7883SOL    HW224549   2.648   2.391   2.518
 7884SOL     OW24550   0.342   2.194   5.518
 7884SOL    HW124551   0.295   2.119   5.473
 7884SOL    HW224552   0.284   2.232   5.590
 7885SOL     OW24553   5.555   5.103   2.724
 7885SOL    HW124554   5.581   5.195   2.694
 7885SOL    HW224555   5.637   5.047   2.733
 7886SOL     OW24556   3.766   5.060   2.665
 7886SOL    HW124557   3.709   5.140   2.683
 7886SOL    HW224558   3.730   5.010   2.586
 7887SOL     OW24559   0.394   3.005   0.539
 7887SOL    HW124560   0.328   2.931   0.527
 7887SOL    HW224561   0.403   3.056   0.454
 7888SOL     OW24562   0.497   1.856   4.930
 7888SOL    HW124563   0.484   1.803   5.014
 7888SOL    HW224564   0.586   1.833   4.890
 7889SOL     OW24565   5.712   4.816   0.335
 7889SOL    HW124566   5.616   4.844   0.333
 7889SOL    HW224567   5.758   4.851   0.254
 7890SOL     OW24568   1.224   2.709   1.709
 7890SOL    HW124569   1.281   2.640   1.667
 7890SOL    HW224570   1.231   2.702   1.809
 7891SOL     OW24571   5.909   1.027   4.565
 7891SOL    HW124572   5.827   0.972   4.576
 7891SOL    HW224573   5.990   0.970   4.576
 7892SOL     OW24574   0.754   1.830   4.318
 7892SOL    HW124575   0.661   1.794   4.307
 7892SOL    HW224576   0.807   1.766   4.374
 7893SOL     OW24577   5.559   6.048   0.623
 7893SOL    HW124578   5.566   6.109   0.544
 7893SOL    HW224579   5.587   5.956   0.596
 7894SOL     OW24580   3.173   6.821   6.670
 7894SOL    HW124581   3.162   6.748   6.603
 7894SOL    HW224582   3.259   6.869   6.655
 7895SOL     OW24583   5.355   6.669   2.610
 7895SOL    HW124584   5.354   6.661   2.510
 7895SOL    HW224585   5.328   6.762   2.635
 7896SOL     OW24586   3.413   2.261   1.002
 7896SOL    HW124587   3.494   2.318   0.989
 7896SOL    HW224588   3.338   2.316   1.039
 7897SOL     OW24589   5.058   0.663   1.179
 7897SOL    HW124590   4.983   0.598   1.162
 7897SOL    HW224591   5.142   0.612   1.196
 7898SOL     OW24592   4.220   6.647   2.933
 7898SOL    HW124593   4.276   6.602   3.003
 7898SOL    HW224594   4.169   6.722   2.974
 7899SOL     OW24595   6.182   4.540   2.808
 7899SOL    HW124596   6.227   4.588   2.733
 7899SOL    HW224597   6.248   4.479   2.852
 7900SOL     OW24598   0.514   3.844   0.695
 7900SOL    HW124599   0.566   3.895   0.763
 7900SOL    HW224600   0.515   3.747   0.719
 7901SOL     OW24601   0.161   2.352   6.252
 7901SOL    HW124602   0.155   2.265   6.202
 7901SOL    HW224603   0.069   2.384   6.273
 7902SOL     OW24604   1.460   0.420   1.201
 7902SOL    HW124605   1.399   0.465   1.266
 7902SOL    HW224606   1.438   0.323   1.196
 7903SOL     OW24607   3.320   1.971   5.387
 7903SOL    HW124608   3.313   2.068   5.365
 7903SOL    HW224609   3.234   1.926   5.365
 7904SOL     OW24610   5.218   3.354   2.950
 7904SOL    HW124611   5.147   3.406   2.997
 7904SOL    HW224612   5.223   3.383   2.855
 7905SOL     OW24613   5.971   1.993   1.123
 7905SOL    HW124614   5.979   2.092   1.115
 7905SOL    HW224615   5.882   1.964   1.086
 7906SOL     OW24616   6.972   6.319   5.760
 7906SOL    HW124617   0.033   6.322   5.702
 7906SOL    HW224618   6.953   6.224   5.787
 7907SOL     OW24619   5.331   5.783   3.058
 7907SOL    HW124620   5.284   5.735   2.985
 7907SOL    HW224621   5.265   5.827   3.119
 7908SOL     OW24622   1.832   0.132   6.302
 7908SOL    HW124623   1.828   0.185   6.386
 7908SOL    HW224624   1.784   0.045   6.315
 7909SOL     OW24625   6.846   4.351   2.449
 7909SOL    HW124626   6.885   4.259   2.455
 7909SOL    HW224627   6.869   4.402   2.532
 7910SOL     OW24628   1.216   4.282   4.731
 7910SOL    HW124629   1.148   4.320   4.669
 7910SOL    HW224630   1.172   4.223   4.798
 7911SOL     OW24631   6.142   3.598   6.116
 7911SOL    HW124632   6.179   3.620   6.206
 7911SOL    HW224633   6.052   3.640   6.106
 7912SOL     OW24634   5.488   5.672   2.089
 7912SOL    HW124635   5.497   5.769   2.115
 7912SOL    HW224636   5.553   5.652   2.015
 7913SOL     OW24637   1.587   4.122   6.820
 7913SOL    HW124638   1.651   4.066   6.767
 7913SOL    HW224639   1.582   4.087   6.913
 7914SOL     OW24640   1.375   0.257   4.907
 7914SOL    HW124641   1.411   0.349   4.919
 7914SOL    HW224642   1.390   0.203   4.990
 7915SOL     OW24643   3.068   6.407   1.914
 7915SOL    HW124644   3.153   6.455   1.891
 7915SOL    HW224645   3.040   6.350   1.836
 7916SOL     OW24646   2.244   0.676   3.509
 7916SOL    HW124647   2.148   0.651   3.494
 7916SOL    HW224648   2.292   0.675   3.421
 7917SOL     OW24649   4.939   1.955   2.712
 7917SOL    HW124650   4.866   2.023   2.715
 7917SOL    HW224651   4.916   1.877   2.770
 7918SOL     OW24652   1.398   2.427   2.664
 7918SOL    HW124653   1.387   2.522   2.635
 7918SOL    HW224654   1.493   2.398   2.649
 7919SOL     OW24655   1.013   0.377   5.198
 7919SOL    HW124656   0.970   0.292   5.167
 7919SOL    HW224657   1.081   0.407   5.131
 7920SOL     OW24658   5.253   0.035   1.329
 7920SOL    HW124659   5.269   0.050   1.231
 7920SOL    HW224660   5.303   6.973   1.358
 7921SOL     OW24661   6.444   3.500   0.608
 7921SOL    HW124662   6.484   3.408   0.607
 7921SOL    HW224663   6.471   3.549   0.526
 7922SOL     OW24664   2.004   6.224   3.450
 7922SOL    HW124665   2.044   6.172   3.526
 7922SOL    HW224666   1.962   6.307   3.485
 7923SOL     OW24667   5.124   0.420   0.981
 7923SOL    HW124668   5.111   0.406   1.079
 7923SOL    HW224669   5.035   0.419   0.936
 7924SOL     OW24670   5.692   6.189   0.176
 7924SOL    HW124671   5.626   6.130   0.130
 7924SOL    HW224672   5.658   6.283   0.178
 7925SOL     OW24673   1.963   4.787   6.112
 7925SOL    HW124674   1.968   4.790   6.212
 7925SOL    HW224675   2.026   4.854   6.074
 7926SOL     OW24676   4.500   5.729   6.904
 7926SOL    HW124677   4.480   5.706   6.999
 7926SOL    HW224678   4.419   5.769   6.862
 7927SOL     OW24679   5.010   0.221   3.603
 7927SOL    HW124680   4.949   0.247   3.678
 7927SOL    HW224681   5.082   0.161   3.638
 7928SOL     OW24682   6.079   2.190   4.175
 7928SOL    HW124683   6.008   2.225   4.114
 7928SOL    HW224684   6.156   2.253   4.176
 7929SOL     OW24685   4.591   3.911   5.451
 7929SOL    HW124686   4.498   3.945   5.461
 7929SOL    HW224687   4.589   3.817   5.417
 7930SOL     OW24688   3.754   5.672   0.889
 7930SOL    HW124689   3.850   5.683   0.862
 7930SOL    HW224690   3.745   5.686   0.987
 7931SOL     OW24691   5.061   0.584   0.468
 7931SOL    HW124692   5.070   0.495   0.424
 7931SOL    HW224693   4.993   0.577   0.542
 7932SOL     OW24694   0.947   3.888   0.799
 7932SOL    HW124695   0.958   3.790   0.780
 7932SOL    HW224696   0.850   3.912   0.794
 7933SOL     OW24697   1.427   1.111   6.916
 7933SOL    HW124698   1.379   1.109   6.829
 7933SOL    HW224699   1.445   1.206   6.942
 7934SOL     OW24700   6.720   5.363   0.591
 7934SOL    HW124701   6.756   5.435   0.651
 7934SOL    HW224702   6.626   5.342   0.618
 7935SOL     OW24703   6.172   3.529   3.499
 7935SOL    HW124704   6.223   3.444   3.485
 7935SOL    HW224705   6.235   3.606   3.502
 7936SOL     OW24706   2.214   5.914   3.194
 7936SOL    HW124707   2.209   6.007   3.231
 7936SOL    HW224708   2.282   5.911   3.121
 7937SOL     OW24709   3.625   0.957   1.262
 7937SOL    HW124710   3.610   1.051   1.233
 7937SOL    HW224711   3.548   0.926   1.318
 7938SOL     OW24712   2.110   6.706   3.127
 7938SOL    HW124713   2.085   6.620   3.083
 7938SOL    HW224714   2.032   6.742   3.178
 7939SOL     OW24715   1.904   0.045   3.364
 7939SOL    HW124716   1.851   7.015   3.433
 7939SOL    HW224717   1.996   0.007   3.359
 7940SOL     OW24718   6.916   1.835   5.128
 7940SOL    HW124719   6.875   1.765   5.070
 7940SOL    HW224720   6.845   1.893   5.167
 7941SOL     OW24721   2.782   0.380   1.109
 7941SOL    HW124722   2.861   0.436   1.135
 7941SOL    HW224723   2.814   0.300   1.058
 7942SOL     OW24724   1.250   3.871   1.679
 7942SOL    HW124725   1.288   3.948   1.731
 7942SOL    HW224726   1.324   3.825   1.630
 7943SOL     OW24727   1.955   5.752   6.872
 7943SOL    HW124728   2.003   5.696   6.804
 7943SOL    HW224729   1.875   5.795   6.829
 7944SOL     OW24730   1.448   2.150   0.686
 7944SOL    HW124731   1.520   2.081   0.682
 7944SOL    HW224732   1.477   2.232   0.635
 7945SOL     OW24733   6.353   4.585   3.727
 7945SOL    HW124734   6.363   4.643   3.808
 7945SOL    HW224735   6.442   4.544   3.704
 7946SOL     OW24736   4.602   1.681   5.598
 7946SOL    HW124737   4.609   1.747   5.673
 7946SOL    HW224738   4.653   1.599   5.621
 7947SOL     OW24739   0.731   4.179   0.195
 7947SOL    HW124740   0.688   4.169   0.106
 7947SOL    HW224741   0.667   4.220   0.259
 7948SOL     OW24742   1.438   5.628   1.179
 7948SOL    HW124743   1.454   5.585   1.090
 7948SOL    HW224744   1.383   5.566   1.236
 7949SOL     OW24745   3.570   5.525   4.613
 7949SOL    HW124746   3.533   5.577   4.535
 7949SOL    HW224747   3.553   5.575   4.697
 7950SOL     OW24748   6.632   2.421   6.033
 7950SOL    HW124749   6.599   2.401   5.940
 7950SOL    HW224750   6.685   2.343   6.067
 7951SOL     OW24751   3.489   0.577   2.772
 7951SOL    HW124752   3.407   0.601   2.721
 7951SOL    HW224753   3.470   0.499   2.831
 7952SOL     OW24754   0.325   3.371   5.867
 7952SOL    HW124755   0.270   3.439   5.817
 7952SOL    HW224756   0.349   3.296   5.805
 7953SOL     OW24757   0.892   0.869   0.474
 7953SOL    HW124758   0.949   0.948   0.453
 7953SOL    HW224759   0.807   0.874   0.421
 7954SOL     OW24760   3.776   3.023   0.694
 7954SOL    HW124761   3.743   3.003   0.786
 7954SOL    HW224762   3.801   2.938   0.648
 7955SOL     OW24763   6.581   0.436   6.363
 7955SOL    HW124764   6.507   0.399   6.418
 7955SOL    HW224765   6.549   0.454   6.270
 7956SOL     OW24766   0.107   0.003   1.063
 7956SOL    HW124767   0.172   6.994   1.133
 7956SOL    HW224768   0.014   7.015   1.097
 7957SOL     OW24769   5.996   1.626   6.042
 7957SOL    HW124770   5.999   1.597   5.947
 7957SOL    HW224771   6.033   1.553   6.100
 7958SOL     OW24772   4.879   2.533   6.655
 7958SOL    HW124773   4.874   2.521   6.556
 7958SOL    HW224774   4.805   2.593   6.685
 7959SOL     OW24775   5.546   2.936   6.924
 7959SOL    HW124776   5.487   2.859   6.950
 7959SOL    HW224777   5.498   3.022   6.939
 7960SOL     OW24778   0.723   2.462   5.337
 7960SOL    HW124779   0.743   2.538   5.275
 7960SOL    HW224780   0.633   2.477   5.379
 7961SOL     OW24781   5.902   0.109   6.318
 7961SOL    HW124782   5.864   0.158   6.240
 7961SOL    HW224783   5.974   0.163   6.361
 7962SOL     OW24784   5.589   0.267   4.931
 7962SOL    HW124785   5.579   0.176   4.891
 7962SOL    HW224786   5.506   0.291   4.981
 7963SOL     OW24787   5.789   5.988   2.587
 7963SOL    HW124788   5.744   6.077   2.575
 7963SOL    HW224789   5.877   5.989   2.541
 7964SOL     OW24790   0.667   4.324   1.535
 7964SOL    HW124791   0.691   4.245   1.479
 7964SOL    HW224792   0.722   4.403   1.507
 7965SOL     OW24793   4.184   1.747   6.227
 7965SOL    HW124794   4.124   1.723   6.304
 7965SOL    HW224795   4.198   1.666   6.169
 7966SOL     OW24796   5.966   3.742   5.386
 7966SOL    HW124797   5.991   3.667   5.326
 7966SOL    HW224798   5.869   3.736   5.410
 7967SOL     OW24799   2.204   4.193   1.547
 7967SOL    HW124800   2.255   4.130   1.489
 7967SOL    HW224801   2.110   4.162   1.556
 7968SOL     OW24802   2.046   2.231   3.583
 7968SOL    HW124803   2.005   2.188   3.502
 7968SOL    HW224804   1.974   2.258   3.647
 7969SOL     OW24805   2.979   4.108   6.399
 7969SOL    HW124806   2.961   4.010   6.409
 7969SOL    HW224807   3.046   4.137   6.467
 7970SOL     OW24808   6.279   2.650   2.901
 7970SOL    HW124809   6.314   2.734   2.860
 7970SOL    HW224810   6.318   2.571   2.853
 7971SOL     OW24811   2.976   6.986   0.218
 7971SOL    HW124812   2.959   6.892   0.247
 7971SOL    HW224813   3.011   6.986   0.124
 7972SOL     OW24814   3.834   3.231   4.068
 7972SOL    HW124815   3.789   3.174   4.137
 7972SOL    HW224816   3.768   3.256   3.997
 7973SOL     OW24817   0.596   5.630   1.967
 7973SOL    HW124818   0.668   5.698   1.955
 7973SOL    HW224819   0.631   5.553   2.021
 7974SOL     OW24820   6.830   2.742   4.040
 7974SOL    HW124821   6.840   2.731   4.139
 7974SOL    HW224822   6.876   2.667   3.993
 7975SOL     OW24823   3.981   0.609   6.670
 7975SOL    HW124824   3.890   0.584   6.702
 7975SOL    HW224825   4.012   0.542   6.602
 7976SOL     OW24826   0.315   0.314   0.779
 7976SOL    HW124827   0.257   0.394   0.800
 7976SOL    HW224828   0.385   0.340   0.714
 7977SOL     OW24829   5.035   4.985   2.619
 7977SOL    HW124830   4.972   4.930   2.564
 7977SOL    HW224831   5.114   4.929   2.643
 7978SOL     OW24832   0.345   3.910   1.185
 7978SOL    HW124833   0.424   3.949   1.233
 7978SOL    HW224834   0.353   3.810   1.184
 7979SOL     OW24835   3.504   2.404   5.619
 7979SOL    HW124836   3.516   2.469   5.544
 7979SOL    HW224837   3.580   2.340   5.621
 7980SOL     OW24838   4.154   6.077   2.752
 7980SOL    HW124839   4.240   6.126   2.737
 7980SOL    HW224840   4.130   6.026   2.669
 7981SOL     OW24841   0.830   2.875   4.047
 7981SOL    HW124842   0.851   2.848   3.953
 7981SOL    HW224843   0.776   2.959   4.046
 7982SOL     OW24844   6.414   6.562   0.631
 7982SOL    HW124845   6.454   6.644   0.590
 7982SOL    HW224846   6.370   6.508   0.559
 7983SOL     OW24847   3.284   1.488   1.079
 7983SOL    HW124848   3.352   1.555   1.049
 7983SOL    HW224849   3.208   1.485   1.013
 7984SOL     OW24850   6.428   2.463   2.283
 7984SOL    HW124851   6.495   2.400   2.243
 7984SOL    HW224852   6.340   2.417   2.293
 7985SOL     OW24853   3.070   3.524   5.663
 7985SOL    HW124854   3.087   3.450   5.598
 7985SOL    HW224855   3.115   3.503   5.750
 7986SOL     OW24856   2.099   0.939   3.437
 7986SOL    HW124857   2.128   1.007   3.369
 7986SOL    HW224858   2.091   0.849   3.394
 7987SOL     OW24859   1.401   3.058   6.767
 7987SOL    HW124860   1.415   3.007   6.852
 7987SOL    HW224861   1.474   3.036   6.703
 7988SOL     OW24862   6.133   6.986   1.725
 7988SOL    HW124863   6.072   6.941   1.661
 7988SOL    HW224864   6.143   0.062   1.699
 7989SOL     OW24865   0.537   4.984   1.238
 7989SOL    HW124866   0.490   4.954   1.154
 7989SOL    HW224867   0.500   4.933   1.316
 7990SOL     OW24868   4.392   5.225   5.588
 7990SOL    HW124869   4.303   5.254   5.625
 7990SOL    HW224870   4.433   5.302   5.539
 7991SOL     OW24871   5.382   0.854   4.275
 7991SOL    HW124872   5.353   0.928   4.335
 7991SOL    HW224873   5.355   0.875   4.181
 7992SOL     OW24874   2.804   0.787   0.095
 7992SOL    HW124875   2.707   0.764   0.103
 7992SOL    HW224876   2.841   0.748   0.010
 7993SOL     OW24877   6.218   5.248   0.470
 7993SOL    HW124878   6.281   5.286   0.538
 7993SOL    HW224879   6.152   5.189   0.516
 7994SOL     OW24880   0.705   1.498   5.177
 7994SOL    HW124881   0.664   1.502   5.086
 7994SOL    HW224882   0.803   1.518   5.170
 7995SOL     OW24883   0.271   6.181   0.928
 7995SOL    HW124884   0.261   6.094   0.881
 7995SOL    HW224885   0.352   6.179   0.986
 7996SOL     OW24886   1.496   6.284   4.070
 7996SOL    HW124887   1.418   6.305   4.129
 7996SOL    HW224888   1.550   6.211   4.111
 7997SOL     OW24889   2.528   0.383   5.892
 7997SOL    HW124890   2.529   0.467   5.947
 7997SOL    HW224891   2.525   0.304   5.953
 7998SOL     OW24892   1.897   1.824   1.616
 7998SOL    HW124893   1.887   1.726   1.603
 7998SOL    HW224894   1.807   1.868   1.613
 7999SOL     OW24895   6.998   0.557   2.387
 7999SOL    HW124896   6.964   0.533   2.478
 7999SOL    HW224897   0.037   0.638   2.394
 8000SOL     OW24898   4.419   6.078   0.941
 8000SOL    HW124899   4.494   6.014   0.956
 8000SOL    HW224900   4.353   6.038   0.877
 8001SOL     OW24901   5.334   5.027   2.606
 8001SOL    HW124902   5.420   5.051   2.651
 8001SOL    HW224903   5.269   5.102   2.616
 8002SOL     OW24904   1.400   0.543   4.975
 8002SOL    HW124905   1.429   0.586   5.060
 8002SOL    HW224906   1.356   0.610   4.916
 8003SOL     OW24907   2.453   5.456   2.917
 8003SOL    HW124908   2.522   5.385   2.933
 8003SOL    HW224909   2.488   5.524   2.852
 8004SOL     OW24910   1.976   3.646   3.770
 8004SOL    HW124911   1.878   3.667   3.770
 8004SOL    HW224912   2.028   3.727   3.743
 8005SOL     OW24913   2.915   0.362   4.680
 8005SOL    HW124914   2.856   0.428   4.633
 8005SOL    HW224915   3.000   0.351   4.629
 8006SOL     OW24916   4.447   5.444   6.550
 8006SOL    HW124917   4.531   5.418   6.597
 8006SOL    HW224918   4.466   5.519   6.487
 8007SOL     OW24919   6.747   0.359   1.335
 8007SOL    HW124920   6.750   0.441   1.393
 8007SOL    HW224921   6.788   0.282   1.385
 8008SOL     OW24922   5.524   5.155   1.435
 8008SOL    HW124923   5.523   5.155   1.535
 8008SOL    HW224924   5.431   5.145   1.400
 8009SOL     OW24925   6.085   0.299   1.028
 8009SOL    HW124926   6.177   0.269   1.050
 8009SOL    HW224927   6.024   0.280   1.105
 8010SOL     OW24928   3.097   0.265   0.361
 8010SOL    HW124929   3.022   0.217   0.317
 8010SOL    HW224930   3.061   0.328   0.430
 8011SOL     OW24931   3.648   2.077   1.721
 8011SOL    HW124932   3.620   2.006   1.786
 8011SOL    HW224933   3.663   2.163   1.769
 8012SOL     OW24934   5.841   0.696   5.420
 8012SOL    HW124935   5.895   0.631   5.367
 8012SOL    HW224936   5.892   0.782   5.428
 8013SOL     OW24937   3.389   0.122   3.698
 8013SOL    HW124938   3.480   0.127   3.657
 8013SOL    HW224939   3.398   0.106   3.796
 8014SOL     OW24940   2.219   2.667   3.590
 8014SOL    HW124941   2.248   2.734   3.659
 8014SOL    HW224942   2.291   2.657   3.521
 8015SOL     OW24943   3.552   5.963   4.835
 8015SOL    HW124944   3.620   5.910   4.886
 8015SOL    HW224945   3.545   6.055   4.874
 8016SOL     OW24946   3.076   3.057   5.128
 8016SOL    HW124947   3.168   3.089   5.149
 8016SOL    HW224948   3.011   3.133   5.140
 8017SOL     OW24949   5.408   6.159   1.851
 8017SOL    HW124950   5.331   6.184   1.793
 8017SOL    HW224951   5.485   6.221   1.833
 8018SOL     OW24952   3.435   2.816   1.174
 8018SOL    HW124953   3.362   2.798   1.240
 8018SOL    HW224954   3.418   2.763   1.091
 8019SOL     OW24955   3.126   3.455   1.388
 8019SOL    HW124956   3.069   3.408   1.320
 8019SOL    HW224957   3.181   3.525   1.343
 8020SOL     OW24958   1.062   6.929   0.139
 8020SOL    HW124959   1.023   7.014   0.104
 8020SOL    HW224960   1.053   6.858   0.069
 8021SOL     OW24961   1.030   2.382   0.580
 8021SOL    HW124962   1.055   2.478   0.593
 8021SOL    HW224963   1.013   2.340   0.669
 8022SOL     OW24964   4.303   0.242   2.955
 8022SOL    HW124965   4.264   0.159   2.916
 8022SOL    HW224966   4.359   0.288   2.886
 8023SOL     OW24967   3.615   4.942   2.182
 8023SOL    HW124968   3.603   4.880   2.105
 8023SOL    HW224969   3.531   4.995   2.196
 8024SOL     OW24970   2.994   0.447   6.546
 8024SOL    HW124971   3.000   0.543   6.517
 8024SOL    HW224972   2.898   0.423   6.561
 8025SOL     OW24973   1.192   6.809   1.663
 8025SOL    HW124974   1.285   6.843   1.674
 8025SOL    HW224975   1.182   6.766   1.574
 8026SOL     OW24976   0.354   6.742   5.424
 8026SOL    HW124977   0.277   6.799   5.452
 8026SOL    HW224978   0.330   6.645   5.435
 8027SOL     OW24979   4.074   6.927   6.511
 8027SOL    HW124980   4.035   6.921   6.419
 8027SOL    HW224981   4.020   6.872   6.574
 8028SOL     OW24982   3.606   5.477   6.635
 8028SOL    HW124983   3.655   5.399   6.673
 8028SOL    HW224984   3.607   5.472   6.535
 8029SOL     OW24985   1.318   6.800   1.949
 8029SOL    HW124986   1.221   6.822   1.938
 8029SOL    HW224987   1.370   6.847   1.878
 8030SOL     OW24988   0.642   3.692   0.986
 8030SOL    HW124989   0.684   3.767   1.036
 8030SOL    HW224990   0.605   3.625   1.051
 8031SOL     OW24991   0.770   0.887   3.768
 8031SOL    HW124992   0.697   0.835   3.813
 8031SOL    HW224993   0.730   0.961   3.713
 8032SOL     OW24994   0.166   3.196   1.515
 8032SOL    HW124995   0.264   3.186   1.530
 8032SOL    HW224996   0.120   3.110   1.535
 8033SOL     OW24997   4.208   5.094   0.963
 8033SOL    HW124998   4.204   5.045   0.876
 8033SOL    HW224999   4.120   5.139   0.979
 8034SOL     OW25000   1.053   1.420   4.802
 8034SOL    HW125001   0.975   1.376   4.756
 8034SOL    HW225002   1.134   1.364   4.789
 8035SOL     OW25003   5.272   0.193   4.608
 8035SOL    HW125004   5.219   0.260   4.660
 8035SOL    HW225005   5.317   0.239   4.531
 8036SOL     OW25006   5.168   4.748   5.355
 8036SOL    HW125007   5.249   4.796   5.391
 8036SOL    HW225008   5.164   4.656   5.394
 8037SOL     OW25009   3.124   0.971   6.644
 8037SOL    HW125010   3.076   0.942   6.561
 8037SOL    HW225011   3.210   1.015   6.619
 8038SOL     OW25012   5.810   5.741   1.437
 8038SOL    HW125013   5.723   5.747   1.486
 8038SOL    HW225014   5.855   5.655   1.458
 8039SOL     OW25015   1.577   2.797   4.915
 8039SOL    HW125016   1.627   2.724   4.869
 8039SOL    HW225017   1.620   2.885   4.894
 8040SOL     OW25018   0.601   6.898   5.442
 8040SOL    HW125019   0.525   6.833   5.447
 8040SOL    HW225020   0.648   6.901   5.530
 8041SOL     OW25021   3.061   1.645   2.742
 8041SOL    HW125022   2.991   1.716   2.732
 8041SOL    HW225023   3.127   1.652   2.667
 8042SOL     OW25024   4.881   3.983   6.219
 8042SOL    HW125025   4.926   3.900   6.188
 8042SOL    HW225026   4.950   4.049   6.249
 8043SOL     OW25027   5.692   5.486   6.891
 8043SOL    HW125028   5.786   5.467   6.863
 8043SOL    HW225029   5.629   5.442   6.826
 8044SOL     OW25030   1.065   2.655   1.205
 8044SOL    HW125031   1.058   2.683   1.109
 8044SOL    HW225032   1.051   2.735   1.263
 8045SOL     OW25033   5.614   3.347   5.070
 8045SOL    HW125034   5.669   3.423   5.034
 8045SOL    HW225035   5.584   3.289   4.994
 8046SOL     OW25036   0.499   4.273   1.120
 8046SOL    HW125037   0.487   4.246   1.025
 8046SOL    HW225038   0.416   4.251   1.171
 8047SOL     OW25039   2.918   6.336   6.704
 8047SOL    HW125040   2.824   6.328   6.736
 8047SOL    HW225041   2.919   6.377   6.612
 8048SOL     OW25042   4.680   1.727   6.735
 8048SOL    HW125043   4.717   1.640   6.704
 8048SOL    HW225044   4.652   1.720   6.831
 8049SOL     OW25045   2.322   1.310   1.186
 8049SOL    HW125046   2.377   1.259   1.120
 8049SOL    HW225047   2.233   1.332   1.146
 8050SOL     OW25048   6.677   4.855   5.865
 8050SOL    HW125049   6.653   4.769   5.910
 8050SOL    HW225050   6.712   4.920   5.933
 8051SOL     OW25051   4.201   6.738   3.669
 8051SOL    HW125052   4.143   6.664   3.634
 8051SOL    HW225053   4.232   6.716   3.761
 8052SOL     OW25054   2.281   1.449   2.980
 8052SOL    HW125055   2.240   1.358   2.983
 8052SOL    HW225056   2.374   1.443   2.944
 8053SOL     OW25057   1.788   1.163   6.405
 8053SOL    HW125058   1.843   1.245   6.390
 8053SOL    HW225059   1.717   1.157   6.335
 8054SOL     OW25060   5.149   3.773   5.011
 8054SOL    HW125061   5.146   3.807   4.917
 8054SOL    HW225062   5.116   3.844   5.073
 8055SOL     OW25063   0.024   0.947   6.670
 8055SOL    HW125064   6.996   0.919   6.587
 8055SOL    HW225065   6.997   1.025   6.712
 8056SOL     OW25066   2.026   2.890   2.864
 8056SOL    HW125067   2.078   2.964   2.908
 8056SOL    HW225068   2.012   2.816   2.930
 8057SOL     OW25069   3.035   1.656   1.721
 8057SOL    HW125070   2.959   1.634   1.661
 8057SOL    HW225071   3.115   1.679   1.665
 8058SOL     OW25072   3.389   6.383   1.905
 8058SOL    HW125073   3.440   6.299   1.924
 8058SOL    HW225074   3.436   6.461   1.945
 8059SOL     OW25075   4.638   4.141   5.319
 8059SOL    HW125076   4.666   4.061   5.371
 8059SOL    HW225077   4.581   4.200   5.376
 8060SOL     OW25078   0.354   1.539   5.175
 8060SOL    HW125079   0.398   1.494   5.098
 8060SOL    HW225080   0.409   1.524   5.258
 8061SOL     OW25081   6.558   0.794   1.006
 8061SOL    HW125082   6.501   0.716   0.980
 8061SOL    HW225083   6.604   0.830   0.924
 8062SOL     OW25084   4.856   4.687   6.412
 8062SOL    HW125085   4.830   4.681   6.509
 8062SOL    HW225086   4.797   4.752   6.366
 8063SOL     OW25087   2.405   4.572   2.275
 8063SOL    HW125088   2.466   4.613   2.208
 8063SOL    HW225089   2.385   4.639   2.347
 8064SOL     OW25090   6.993   2.677   0.307
 8064SOL    HW125091   7.017   2.592   0.352
 8064SOL    HW225092   6.909   2.665   0.253
 8065SOL     OW25093   4.515   0.621   6.883
 8065SOL    HW125094   4.480   0.673   6.805
 8065SOL    HW225095   4.600   0.662   6.915
 8066SOL     OW25096   6.504   0.996   5.774
 8066SOL    HW125097   6.533   0.902   5.755
 8066SOL    HW225098   6.454   0.998   5.861
 8067SOL     OW25099   5.529   0.585   4.478
 8067SOL    HW125100   5.531   0.618   4.384
 8067SOL    HW225101   5.448   0.622   4.525
 8068SOL     OW25102   0.435   4.173   0.879
 8068SOL    HW125103   0.518   4.146   0.831
 8068SOL    HW225104   0.411   4.267   0.856
 8069SOL     OW25105   0.753   2.813   2.140
 8069SOL    HW125106   0.689   2.737   2.139
 8069SOL    HW225107   0.808   2.812   2.056
 8070SOL     OW25108   5.325   3.944   1.756
 8070SOL    HW125109   5.232   3.971   1.728
 8070SOL    HW225110   5.342   3.849   1.731
 8071SOL     OW25111   1.845   0.507   6.225
 8071SOL    HW125112   1.844   0.444   6.147
 8071SOL    HW225113   1.760   0.560   6.226
 8072SOL     OW25114   2.825   2.098   5.642
 8072SOL    HW125115   2.913   2.144   5.627
 8072SOL    HW225116   2.838   2.024   5.708
 8073SOL     OW25117   5.609   6.436   0.294
 8073SOL    HW125118   5.620   6.502   0.368
 8073SOL    HW225119   5.546   6.472   0.225
 8074SOL     OW25120   6.395   0.251   0.861
 8074SOL    HW125121   6.366   0.253   0.956
 8074SOL    HW225122   6.495   0.247   0.856
 8075SOL     OW25123   0.247   6.739   0.956
 8075SOL    HW125124   0.204   6.815   1.004
 8075SOL    HW225125   0.337   6.721   0.996
 8076SOL     OW25126   6.794   5.812   0.550
 8076SOL    HW125127   6.718   5.862   0.593
 8076SOL    HW225128   6.823   5.862   0.468
 8077SOL     OW25129   6.034   4.674   0.649
 8077SOL    HW125130   6.050   4.740   0.576
 8077SOL    HW225131   6.029   4.722   0.737
 8078SOL     OW25132   5.768   1.780   1.472
 8078SOL    HW125133   5.673   1.748   1.464
 8078SOL    HW225134   5.828   1.721   1.419
 8079SOL     OW25135   0.094   0.730   6.842
 8079SOL    HW125136   0.189   0.750   6.819
 8079SOL    HW225137   0.041   0.815   6.844
 8080SOL     OW25138   6.882   3.288   3.623
 8080SOL    HW125139   6.966   3.341   3.617
 8080SOL    HW225140   6.856   3.255   3.532
 8081SOL     OW25141   5.695   1.003   5.258
 8081SOL    HW125142   5.745   0.975   5.176
 8081SOL    HW225143   5.610   0.951   5.264
 8082SOL     OW25144   4.403   1.852   4.652
 8082SOL    HW125145   4.481   1.804   4.611
 8082SOL    HW225146   4.417   1.951   4.641
 8083SOL     OW25147   7.011   2.579   3.911
 8083SOL    HW125148   0.070   2.518   3.905
 8083SOL    HW225149   7.007   2.637   3.830
 8084SOL     OW25150   5.708   1.368   0.232
 8084SOL    HW125151   5.624   1.422   0.229
 8084SOL    HW225152   5.786   1.426   0.209
 8085SOL     OW25153   1.594   6.037   4.181
 8085SOL    HW125154   1.692   6.018   4.179
 8085SOL    HW225155   1.542   5.954   4.162
 8086SOL     OW25156   0.136   1.807   2.242
 8086SOL    HW125157   0.156   1.715   2.208
 8086SOL    HW225158   0.152   1.810   2.341
 8087SOL     OW25159   6.251   0.932   6.369
 8087SOL    HW125160   6.344   0.941   6.404
 8087SOL    HW225161   6.248   0.858   6.302
 8088SOL     OW25162   6.467   6.984   5.331
 8088SOL    HW125163   6.378   6.951   5.364
 8088SOL    HW225164   6.453   0.045   5.274
 8089SOL     OW25165   6.733   0.392   0.284
 8089SOL    HW125166   6.825   0.425   0.267
 8089SOL    HW225167   6.672   0.425   0.212
 8090SOL     OW25168   4.044   2.190   4.624
 8090SOL    HW125169   3.955   2.191   4.578
 8090SOL    HW225170   4.082   2.098   4.621
 8091SOL     OW25171   0.933   3.365   5.624
 8091SOL    HW125172   0.906   3.360   5.720
 8091SOL    HW225173   0.869   3.423   5.574
 8092SOL     OW25174   4.234   6.892   5.537
 8092SOL    HW125175   4.300   6.914   5.609
 8092SOL    HW225176   4.273   6.820   5.479
 8093SOL     OW25177   3.850   0.226   3.111
 8093SOL    HW125178   3.801   0.313   3.101
 8093SOL    HW225179   3.826   0.184   3.198
 8094SOL     OW25180   2.052   5.036   3.250
 8094SOL    HW125181   2.124   5.059   3.184
 8094SOL    HW225182   1.999   5.119   3.271
 8095SOL     OW25183   1.167   5.635   4.673
 8095SOL    HW125184   1.211   5.587   4.597
 8095SOL    HW225185   1.163   5.733   4.653
 8096SOL     OW25186   0.924   4.838   0.504
 8096SOL    HW125187   0.829   4.847   0.535
 8096SOL    HW225188   0.961   4.929   0.484
 8097SOL     OW25189   4.650   0.705   0.288
 8097SOL    HW125190   4.574   0.641   0.298
 8097SOL    HW225191   4.716   0.668   0.222
 8098SOL     OW25192   2.643   6.235   5.450
 8098SOL    HW125193   2.627   6.149   5.400
 8098SOL    HW225194   2.556   6.280   5.467
 8099SOL     OW25195   1.987   4.297   3.055
 8099SOL    HW125196   1.914   4.236   3.085
 8099SOL    HW225197   1.947   4.377   3.011
 8100SOL     OW25198   0.136   6.375   0.245
 8100SOL    HW125199   0.063   6.428   0.288
 8100SOL    HW225200   0.222   6.424   0.254
 8101SOL     OW25201   2.903   4.996   6.563
 8101SOL    HW125202   2.827   5.023   6.503
 8101SOL    HW225203   2.954   4.922   6.520
 8102SOL     OW25204   1.561   4.342   3.975
 8102SOL    HW125205   1.540   4.253   3.935
 8102SOL    HW225206   1.618   4.395   3.912
 8103SOL     OW25207   4.758   0.682   1.933
 8103SOL    HW125208   4.771   0.774   1.896
 8103SOL    HW225209   4.669   0.647   1.904
 8104SOL     OW25210   1.350   6.706   0.215
 8104SOL    HW125211   1.303   6.742   0.134
 8104SOL    HW225212   1.306   6.621   0.244
 8105SOL     OW25213   0.034   6.787   2.528
 8105SOL    HW125214   6.954   6.785   2.518
 8105SOL    HW225215   0.059   6.857   2.595
 8106SOL     OW25216   3.845   6.224   0.083
 8106SOL    HW125217   3.789   6.205   0.165
 8106SOL    HW225218   3.880   6.317   0.087
 8107SOL     OW25219   0.796   6.411   0.204
 8107SOL    HW125220   0.845   6.496   0.189
 8107SOL    HW225221   0.716   6.408   0.144
 8108SOL     OW25222   1.601   1.156   1.288
 8108SOL    HW125223   1.596   1.192   1.194
 8108SOL    HW225224   1.516   1.108   1.309
 8109SOL     OW25225   0.170   4.596   2.105
 8109SOL    HW125226   0.266   4.625   2.112
 8109SOL    HW225227   0.163   4.498   2.127
 8110SOL     OW25228   4.571   4.576   0.054
 8110SOL    HW125229   4.609   4.638   7.005
 8110SOL    HW225230   4.473   4.593   0.063
 8111SOL     OW25231   5.362   2.069   2.168
 8111SOL    HW125232   5.345   2.154   2.117
 8111SOL    HW225233   5.319   2.075   2.258
 8112SOL     OW25234   1.871   4.476   6.314
 8112SOL    HW125235   1.774   4.492   6.293
 8112SOL    HW225236   1.922   4.561   6.302
 8113SOL     OW25237   5.527   5.357   6.737
 8113SOL    HW125238   5.580   5.315   6.663
 8113SOL    HW225239   5.430   5.360   6.711
 8114SOL     OW25240   2.110   2.940   3.204
 8114SOL    HW125241   2.033   3.002   3.221
 8114SOL    HW225242   2.087   2.849   3.239
 8115SOL     OW25243   2.530   1.681   6.241
 8115SOL    HW125244   2.519   1.723   6.151
 8115SOL    HW225245   2.442   1.647   6.273
 8116SOL     OW25246   4.046   3.189   2.164
 8116SOL    HW125247   4.053   3.288   2.175
 8116SOL    HW225248   4.136   3.151   2.143
 8117SOL     OW25249   1.165   0.788   3.203
 8117SOL    HW125250   1.151   0.800   3.301
 8117SOL    HW225251   1.263   0.798   3.182
 8118SOL     OW25252   6.483   2.354   6.649
 8118SOL    HW125253   6.395   2.315   6.678
 8118SOL    HW225254   6.488   2.351   6.549
 8119SOL     OW25255   5.512   5.068   6.739
 8119SOL    HW125256   5.517   5.164   6.712
 8119SOL    HW225257   5.475   5.014   6.664
 8120SOL     OW25258   2.001   6.569   2.430
 8120SOL    HW125259   2.068   6.532   2.494
 8120SOL    HW225260   2.037   6.652   2.388
 8121SOL     OW25261   1.130   2.384   3.178
 8121SOL    HW125262   1.149   2.471   3.132
 8121SOL    HW225263   1.035   2.357   3.160
 8122SOL     OW25264   0.936   5.152   0.951
 8122SOL    HW125265   0.935   5.128   1.048
 8122SOL    HW225266   0.858   5.110   0.905
 8123SOL     OW25267   6.499   0.537   6.110
 8123SOL    HW125268   6.577   0.595   6.133
 8123SOL    HW225269   6.470   0.555   6.017
 8124SOL     OW25270   6.144   6.039   6.098
 8124SOL    HW125271   6.239   6.026   6.125
 8124SOL    HW225272   6.090   5.960   6.129
 8125SOL     OW25273   0.657   6.089   1.907
 8125SOL    HW125274   0.711   6.016   1.865
 8125SOL    HW225275   0.692   6.107   1.999
 8126SOL     OW25276   3.504   5.729   4.442
 8126SOL    HW125277   3.575   5.798   4.428
 8126SOL    HW225278   3.421   5.773   4.476
 8127SOL     OW25279   4.379   1.677   5.864
 8127SOL    HW125280   4.318   1.754   5.882
 8127SOL    HW225281   4.473   1.710   5.855
 8128SOL     OW25282   3.931   3.121   0.970
 8128SOL    HW125283   3.866   3.190   0.938
 8128SOL    HW225284   4.002   3.108   0.901
 8129SOL     OW25285   6.419   2.581   3.159
 8129SOL    HW125286   6.379   2.598   3.069
 8129SOL    HW225287   6.347   2.565   3.226
 8130SOL     OW25288   0.336   6.243   0.028
 8130SOL    HW125289   0.307   6.173   6.983
 8130SOL    HW225290   0.316   6.213   0.121
 8131SOL     OW25291   2.520   2.812   0.145
 8131SOL    HW125292   2.428   2.842   0.168
 8131SOL    HW225293   2.583   2.889   0.153
 8132SOL     OW25294   5.916   1.727   4.562
 8132SOL    HW125295   5.862   1.803   4.596
 8132SOL    HW225296   6.003   1.760   4.527
 8133SOL     OW25297   3.962   5.558   1.375
 8133SOL    HW125298   4.017   5.535   1.456
 8133SOL    HW225299   3.988   5.648   1.342
 8134SOL     OW25300   6.727   1.604   0.056
 8134SOL    HW125301   6.755   1.515   0.021
 8134SOL    HW225302   6.699   1.663   7.000
 8135SOL     OW25303   2.428   6.117   2.098
 8135SOL    HW125304   2.521   6.086   2.081
 8135SOL    HW225305   2.369   6.037   2.115
 8136SOL     OW25306   4.555   4.777   2.528
 8136SOL    HW125307   4.595   4.769   2.437
 8136SOL    HW225308   4.470   4.828   2.523
 8137SOL     OW25309   3.740   1.066   5.784
 8137SOL    HW125310   3.794   0.982   5.796
 8137SOL    HW225311   3.672   1.051   5.712
 8138SOL     OW25312   6.457   0.429   2.745
 8138SOL    HW125313   6.437   0.480   2.829
 8138SOL    HW225314   6.401   0.346   2.744
 8139SOL     OW25315   1.071   1.175   4.484
 8139SOL    HW125316   1.089   1.092   4.430
 8139SOL    HW225317   1.149   1.192   4.545
 8140SOL     OW25318   4.602   2.607   2.895
 8140SOL    HW125319   4.631   2.651   2.980
 8140SOL    HW225320   4.617   2.669   2.818
 8141SOL     OW25321   5.848   3.943   3.733
 8141SOL    HW125322   5.800   4.030   3.742
 8141SOL    HW225323   5.847   3.894   3.820
 8142SOL     OW25324   0.666   6.510   0.444
 8142SOL    HW125325   0.703   6.542   0.357
 8142SOL    HW225326   0.655   6.411   0.441
 8143SOL     OW25327   6.799   2.742   6.398
 8143SOL    HW125328   6.879   2.703   6.442
 8143SOL    HW225329   6.717   2.693   6.429
 8144SOL     OW25330   4.711   6.068   0.140
 8144SOL    HW125331   4.633   6.090   0.082
 8144SOL    HW225332   4.713   6.131   0.218
 8145SOL     OW25333   4.541   6.684   4.375
 8145SOL    HW125334   4.560   6.697   4.277
 8145SOL    HW225335   4.572   6.593   4.402
 8146SOL     OW25336   3.258   1.718   2.901
 8146SOL    HW125337   3.164   1.695   2.873
 8146SOL    HW225338   3.304   1.634   2.932
 8147SOL     OW25339   5.056   1.760   3.306
 8147SOL    HW125340   5.000   1.791   3.229
 8147SOL    HW225341   5.146   1.732   3.273
 8148SOL     OW25342   0.707   3.275   3.173
 8148SOL    HW125343   0.687   3.300   3.268
 8148SOL    HW225344   0.659   3.338   3.112
 8149SOL     OW25345   3.961   5.279   4.019
 8149SOL    HW125346   4.004   5.304   4.106
 8149SOL    HW225347   3.984   5.185   3.996
 8150SOL     OW25348   1.418   5.683   0.618
 8150SOL    HW125349   1.347   5.691   0.688
 8150SOL    HW225350   1.376   5.651   0.533
 8151SOL     OW25351   0.947   1.620   5.067
 8151SOL    HW125352   0.933   1.634   4.969
 8151SOL    HW225353   1.021   1.678   5.099
 8152SOL     OW25354   0.604   1.021   3.079
 8152SOL    HW125355   0.511   1.051   3.057
 8152SOL    HW225356   0.625   0.937   3.028
 8153SOL     OW25357   2.402   6.283   6.847
 8153SOL    HW125358   2.335   6.235   6.790
 8153SOL    HW225359   2.358   6.316   6.930
 8154SOL     OW25360   1.742   6.230   3.669
 8154SOL    HW125361   1.695   6.146   3.697
 8154SOL    HW225362   1.840   6.216   3.675
 8155SOL     OW25363   3.753   3.600   4.652
 8155SOL    HW125364   3.700   3.562   4.728
 8155SOL    HW225365   3.697   3.601   4.569
 8156SOL     OW25366   0.816   6.870   5.108
 8156SOL    HW125367   0.779   6.955   5.145
 8156SOL    HW225368   0.758   6.840   5.032
 8157SOL     OW25369   5.795   2.123   6.906
 8157SOL    HW125370   5.867   2.156   6.967
 8157SOL    HW225371   5.744   2.200   6.868
 8158SOL     OW25372   1.072   5.984   2.784
 8158SOL    HW125373   1.166   6.003   2.756
 8158SOL    HW225374   1.071   5.948   2.877
 8159SOL     OW25375   0.384   6.480   0.359
 8159SOL    HW125376   0.433   6.395   0.375
 8159SOL    HW225377   0.447   6.558   0.368
 8160SOL     OW25378   5.502   2.069   0.990
 8160SOL    HW125379   5.495   2.111   1.080
 8160SOL    HW225380   5.410   2.060   0.950
 8161SOL     OW25381   4.186   3.750   1.729
 8161SOL    HW125382   4.125   3.800   1.791
 8161SOL    HW225383   4.226   3.815   1.664
 8162SOL     OW25384   6.066   0.532   1.403
 8162SOL    HW125385   6.166   0.525   1.398
 8162SOL    HW225386   6.030   0.559   1.314
 8163SOL     OW25387   2.246   2.891   5.272
 8163SOL    HW125388   2.275   2.932   5.359
 8163SOL    HW225389   2.319   2.901   5.204
 8164SOL     OW25390   5.709   4.493   1.808
 8164SOL    HW125391   5.711   4.404   1.762
 8164SOL    HW225392   5.734   4.564   1.742
 8165SOL     OW25393   1.411   3.225   1.520
 8165SOL    HW125394   1.330   3.221   1.461
 8165SOL    HW225395   1.486   3.269   1.470
 8166SOL     OW25396   2.584   0.032   2.738
 8166SOL    HW125397   2.567   0.035   2.640
 8166SOL    HW225398   2.644   0.109   2.764
 8167SOL     OW25399   5.402   2.743   4.550
 8167SOL    HW125400   5.361   2.738   4.641
 8167SOL    HW225401   5.332   2.730   4.481
 8168SOL     OW25402   2.720   1.833   2.314
 8168SOL    HW125403   2.775   1.839   2.231
 8168SOL    HW225404   2.743   1.750   2.364
 8169SOL     OW25405   5.451   3.815   5.548
 8169SOL    HW125406   5.437   3.888   5.481
 8169SOL    HW225407   5.531   3.836   5.604
 8170SOL     OW25408   0.752   5.209   4.061
 8170SOL    HW125409   0.678   5.256   4.111
 8170SOL    HW225410   0.729   5.207   3.964
 8171SOL     OW25411   1.902   0.870   6.897
 8171SOL    HW125412   1.895   0.948   6.835
 8171SOL    HW225413   1.922   0.787   6.844
 8172SOL     OW25414   6.855   6.028   1.903
 8172SOL    HW125415   6.804   5.985   1.978
 8172SOL    HW225416   6.888   6.117   1.932
 8173SOL     OW25417   6.658   2.900   6.780
 8173SOL    HW125418   6.703   2.961   6.716
 8173SOL    HW225419   6.623   2.953   6.858
 8174SOL     OW25420   4.757   6.660   2.617
 8174SOL    HW125421   4.812   6.740   2.594
 8174SOL    HW225422   4.739   6.660   2.715
 8175SOL     OW25423   0.940   2.367   3.425
 8175SOL    HW125424   0.969   2.332   3.335
 8175SOL    HW225425   0.992   2.449   3.447
 8176SOL     OW25426   4.294   5.133   3.084
 8176SOL    HW125427   4.231   5.075   3.136
 8176SOL    HW225428   4.263   5.228   3.089
 8177SOL     OW25429   2.448   6.703   6.351
 8177SOL    HW125430   2.447   6.705   6.251
 8177SOL    HW225431   2.402   6.784   6.387
 8178SOL     OW25432   1.930   6.156   6.554
 8178SOL    HW125433   2.019   6.189   6.586
 8178SOL    HW225434   1.858   6.219   6.586
 8179SOL     OW25435   4.276   0.493   6.195
 8179SOL    HW125436   4.346   0.547   6.149
 8179SOL    HW225437   4.221   0.553   6.253
 8180SOL     OW25438   4.932   4.023   4.837
 8180SOL    HW125439   4.881   4.055   4.917
 8180SOL    HW225440   4.897   3.934   4.808
 8181SOL     OW25441   2.205   2.213   2.543
 8181SOL    HW125442   2.253   2.288   2.498
 8181SOL    HW225443   2.270   2.140   2.567
 8182SOL     OW25444   5.589   2.887   5.518
 8182SOL    HW125445   5.605   2.919   5.425
 8182SOL    HW225446   5.572   2.788   5.517
 8183SOL     OW25447   1.747   3.684   3.323
 8183SOL    HW125448   1.842   3.669   3.293
 8183SOL    HW225449   1.709   3.763   3.274
 8184SOL     OW25450   6.382   6.178   4.665
 8184SOL    HW125451   6.296   6.157   4.710
 8184SOL    HW225452   6.451   6.110   4.692
 8185SOL     OW25453   0.798   2.584   3.243
 8185SOL    HW125454   0.798   2.487   3.264
 8185SOL    HW225455   0.864   2.603   3.170
 8186SOL     OW25456   4.497   3.006   6.291
 8186SOL    HW125457   4.571   3.071   6.271
 8186SOL    HW225458   4.492   2.992   6.390
 8187SOL     OW25459   2.092   1.791   5.831
 8187SOL    HW125460   2.167   1.795   5.764
 8187SOL    HW225461   2.116   1.725   5.902
 8188SOL     OW25462   5.234   3.396   2.692
 8188SOL    HW125463   5.231   3.482   2.641
 8188SOL    HW225464   5.304   3.336   2.654
 8189SOL     OW25465   6.713   5.405   3.342
 8189SOL    HW125466   6.704   5.389   3.441
 8189SOL    HW225467   6.778   5.340   3.304
 8190SOL     OW25468   5.567   3.465   3.123
 8190SOL    HW125469   5.520   3.426   3.201
 8190SOL    HW225470   5.560   3.404   3.045
 8191SOL     OW25471   5.897   4.565   1.090
 8191SOL    HW125472   5.806   4.600   1.112
 8191SOL    HW225473   5.924   4.497   1.157
 8192SOL     OW25474   1.628   1.674   0.488
 8192SOL    HW125475   1.698   1.622   0.537
 8192SOL    HW225476   1.551   1.614   0.467
 8193SOL     OW25477   3.649   5.988   6.281
 8193SOL    HW125478   3.704   6.012   6.361
 8193SOL    HW225479   3.653   6.062   6.214
 8194SOL     OW25480   1.431   0.912   2.495
 8194SOL    HW125481   1.408   0.820   2.526
 8194SOL    HW225482   1.485   0.959   2.564
 8195SOL     OW25483   6.005   0.962   1.482
 8195SOL    HW125484   5.973   1.049   1.443
 8195SOL    HW225485   5.939   0.929   1.549
 8196SOL     OW25486   2.701   0.647   1.061
 8196SOL    HW125487   2.701   0.547   1.058
 8196SOL    HW225488   2.689   0.678   1.155
 8197SOL     OW25489   0.418   6.715   0.664
 8197SOL    HW125490   0.319   6.726   0.659
 8197SOL    HW225491   0.440   6.626   0.704
 8198SOL     OW25492   2.155   1.202   2.987
 8198SOL    HW125493   2.228   1.148   3.030
 8198SOL    HW225494   2.074   1.145   2.977
 8199SOL     OW25495   5.676   4.591   0.861
 8199SOL    HW125496   5.742   4.533   0.910
 8199SOL    HW225497   5.714   4.615   0.772
 8200SOL     OW25498   3.896   4.429   1.507
 8200SOL    HW125499   3.893   4.493   1.583
 8200SOL    HW225500   3.981   4.376   1.512
 8201SOL     OW25501   0.906   1.187   4.700
 8201SOL    HW125502   0.808   1.173   4.689
 8201SOL    HW225503   0.948   1.198   4.610
 8202SOL     OW25504   1.595   3.512   4.096
 8202SOL    HW125505   1.534   3.588   4.116
 8202SOL    HW225506   1.551   3.426   4.122
 8203SOL     OW25507   6.739   3.879   6.233
 8203SOL    HW125508   6.769   3.904   6.325
 8203SOL    HW225509   6.808   3.908   6.167
 8204SOL     OW25510   3.243   7.011   1.743
 8204SOL    HW125511   3.273   0.019   1.652
 8204SOL    HW225512   3.315   6.957   1.786
 8205SOL     OW25513   3.584   6.739   2.954
 8205SOL    HW125514   3.637   6.716   2.872
 8205SOL    HW225515   3.532   6.659   2.984
 8206SOL     OW25516   3.599   2.035   4.254
 8206SOL    HW125517   3.664   1.960   4.267
 8206SOL    HW225518   3.587   2.053   4.157
 8207SOL     OW25519   2.302   6.421   0.066
 8207SOL    HW125520   2.226   6.484   0.080
 8207SOL    HW225521   2.332   6.384   0.154
 8208SOL     OW25522   1.140   5.812   0.863
 8208SOL    HW125523   1.086   5.826   0.779
 8208SOL    HW225524   1.226   5.861   0.855
 8209SOL     OW25525   0.798   5.862   4.614
 8209SOL    HW125526   0.816   5.765   4.599
 8209SOL    HW225527   0.700   5.880   4.609
 8210SOL     OW25528   2.463   0.509   1.171
 8210SOL    HW125529   2.364   0.492   1.173
 8210SOL    HW225530   2.508   0.449   1.237
 8211SOL     OW25531   3.467   4.175   4.192
 8211SOL    HW125532   3.543   4.110   4.196
 8211SOL    HW225533   3.497   4.258   4.146
 8212SOL     OW25534   3.656   5.065   0.078
 8212SOL    HW125535   3.666   5.139   0.011
 8212SOL    HW225536   3.705   5.091   0.162
 8213SOL     OW25537   4.803   4.155   2.014
 8213SOL    HW125538   4.733   4.222   1.991
 8213SOL    HW225539   4.878   4.200   2.064
 8214SOL     OW25540   3.925   5.222   3.331
 8214SOL    HW125541   4.012   5.254   3.370
 8214SOL    HW225542   3.942   5.179   3.242
 8215SOL     OW25543   2.704   6.352   4.865
 8215SOL    HW125544   2.771   6.352   4.940
 8215SOL    HW225545   2.612   6.357   4.902
 8216SOL     OW25546   6.405   4.937   6.980
 8216SOL    HW125547   6.418   4.981   6.891
 8216SOL    HW225548   6.468   4.860   6.988
 8217SOL     OW25549   3.630   6.325   3.830
 8217SOL    HW125550   3.620   6.424   3.822
 8217SOL    HW225551   3.540   6.283   3.841
 8218SOL     OW25552   2.440   6.004   4.004
 8218SOL    HW125553   2.523   6.015   3.949
 8218SOL    HW225554   2.464   5.959   4.090
 8219SOL     OW25555   3.555   3.706   4.474
 8219SOL    HW125556   3.538   3.756   4.559
 8219SOL    HW225557   3.486   3.731   4.407
 8220SOL     OW25558   4.510   4.323   6.100
 8220SOL    HW125559   4.486   4.363   6.188
 8220SOL    HW225560   4.558   4.237   6.114
 8221SOL     OW25561   6.355   3.924   4.025
 8221SOL    HW125562   6.398   3.947   4.112
 8221SOL    HW225563   6.267   3.970   4.019
 8222SOL     OW25564   5.177   2.201   6.115
 8222SOL    HW125565   5.234   2.218   6.195
 8222SOL    HW225566   5.131   2.112   6.126
 8223SOL     OW25567   1.110   6.490   5.556
 8223SOL    HW125568   1.054   6.444   5.624
 8223SOL    HW225569   1.061   6.490   5.468
 8224SOL     OW25570   5.064   1.284   5.146
 8224SOL    HW125571   5.163   1.295   5.151
 8224SOL    HW225572   5.026   1.285   5.238
 8225SOL     OW25573   6.332   2.002   0.097
 8225SOL    HW125574   6.382   1.979   0.181
 8225SOL    HW225575   6.250   1.945   0.090
 8226SOL     OW25576   3.702   0.607   6.768
 8226SOL    HW125577   3.615   0.649   6.741
 8226SOL    HW225578   3.730   0.643   6.857
 8227SOL     OW25579   5.875   3.239   2.166
 8227SOL    HW125580   5.901   3.182   2.087
 8227SOL    HW225581   5.829   3.322   2.133
 8228SOL     OW25582   2.824   1.564   4.519
 8228SOL    HW125583   2.871   1.652   4.512
 8228SOL    HW225584   2.725   1.580   4.530
 8229SOL     OW25585   4.590   3.969   0.402
 8229SOL    HW125586   4.576   3.895   0.468
 8229SOL    HW225587   4.622   3.930   0.315
 8230SOL     OW25588   6.023   0.704   6.362
 8230SOL    HW125589   6.008   0.613   6.401
 8230SOL    HW225590   6.118   0.711   6.330
 8231SOL     OW25591   3.277   1.841   1.514
 8231SOL    HW125592   3.190   1.807   1.478
 8231SOL    HW225593   3.352   1.783   1.481
 8232SOL     OW25594   3.562   6.188   4.103
 8232SOL    HW125595   3.573   6.286   4.116
 8232SOL    HW225596   3.527   6.170   4.011
 8233SOL     OW25597   3.213   0.626   6.888
 8233SOL    HW125598   3.263   0.709   6.865
 8233SOL    HW225599   3.253   0.585   6.970
 8234SOL     OW25600   0.758   2.383   6.399
 8234SOL    HW125601   0.841   2.408   6.451
 8234SOL    HW225602   0.680   2.432   6.437
 8235SOL     OW25603   1.152   6.492   0.162
 8235SOL    HW125604   1.071   6.538   0.199
 8235SOL    HW225605   1.132   6.396   0.148
 8236SOL     OW25606   0.887   0.141   0.086
 8236SOL    HW125607   0.791   0.114   0.097
 8236SOL    HW225608   0.910   0.142   7.009
 8237SOL     OW25609   4.439   4.564   5.725
 8237SOL    HW125610   4.381   4.645   5.713
 8237SOL    HW225611   4.381   4.486   5.749
 8238SOL     OW25612   6.861   5.501   6.379
 8238SOL    HW125613   6.954   5.510   6.342
 8238SOL    HW225614   6.863   5.439   6.457
 8239SOL     OW25615   4.939   3.123   3.558
 8239SOL    HW125616   4.879   3.046   3.542
 8239SOL    HW225617   5.028   3.090   3.591
 8240SOL     OW25618   3.858   3.614   5.102
 8240SOL    HW125619   3.834   3.653   5.191
 8240SOL    HW225620   3.928   3.670   5.058
 8241SOL     OW25621   0.568   2.864   5.794
 8241SOL    HW125622   0.468   2.868   5.793
 8241SOL    HW225623   0.604   2.901   5.709
 8242SOL     OW25624   0.897   3.851   3.424
 8242SOL    HW125625   0.942   3.875   3.338
 8242SOL    HW225626   0.886   3.933   3.480
 8243SOL     OW25627   1.971   5.795   3.835
 8243SOL    HW125628   2.036   5.805   3.759
 8243SOL    HW225629   2.004   5.847   3.914
 8244SOL     OW25630   5.303   6.842   4.889
 8244SOL    HW125631   5.302   6.860   4.791
 8244SOL    HW225632   5.266   6.751   4.906
 8245SOL     OW25633   5.676   4.042   2.544
 8245SOL    HW125634   5.626   4.106   2.603
 8245SOL    HW225635   5.697   4.086   2.457
 8246SOL     OW25636   2.155   4.607   6.723
 8246SOL    HW125637   2.117   4.695   6.749
 8246SOL    HW225638   2.081   4.539   6.717
 8247SOL     OW25639   2.076   4.398   3.317
 8247SOL    HW125640   1.986   4.431   3.346
 8247SOL    HW225641   2.076   4.384   3.218
 8248SOL     OW25642   6.540   0.205   2.462
 8248SOL    HW125643   6.596   0.255   2.528
 8248SOL    HW225644   6.537   0.109   2.488
 8249SOL     OW25645   3.585   6.874   5.561
 8249SOL    HW125646   3.518   6.941   5.530
 8249SOL    HW225647   3.677   6.903   5.533
 8250SOL     OW25648   1.724   1.331   6.797
 8250SOL    HW125649   1.630   1.319   6.766
 8250SOL    HW225650   1.755   1.424   6.775
 8251SOL     OW25651   1.701   1.523   6.421
 8251SOL    HW125652   1.605   1.510   6.446
 8251SOL    HW225653   1.760   1.494   6.496
 8252SOL     OW25654   0.860   1.024   6.418
 8252SOL    HW125655   0.804   1.083   6.476
 8252SOL    HW225656   0.809   0.999   6.336
 8253SOL     OW25657   6.794   3.681   4.981
 8253SOL    HW125658   6.854   3.724   5.048
 8253SOL    HW225659   6.798   3.732   4.895
 8254SOL     OW25660   4.788   4.126   0.065
 8254SOL    HW125661   4.699   4.171   0.056
 8254SOL    HW225662   4.859   4.184   0.025
 8255SOL     OW25663   1.930   6.374   5.814
 8255SOL    HW125664   1.850   6.380   5.875
 8255SOL    HW225665   1.989   6.299   5.844
 8256SOL     OW25666   1.543   5.632   2.607
 8256SOL    HW125667   1.485   5.661   2.684
 8256SOL    HW225668   1.626   5.689   2.605
 8257SOL     OW25669   4.556   4.831   3.615
 8257SOL    HW125670   4.632   4.768   3.602
 8257SOL    HW225671   4.591   4.917   3.653
 8258SOL     OW25672   0.292   2.937   4.721
 8258SOL    HW125673   0.308   2.856   4.777
 8258SOL    HW225674   0.363   3.005   4.740
 8259SOL     OW25675   5.497   3.927   4.346
 8259SOL    HW125676   5.402   3.945   4.320
 8259SOL    HW225677   5.545   3.884   4.269
 8260SOL     OW25678   4.848   2.524   6.377
 8260SOL    HW125679   4.751   2.514   6.398
 8260SOL    HW225680   4.880   2.444   6.326
 8261SOL     OW25681   5.249   2.479   2.411
 8261SOL    HW125682   5.152   2.457   2.416
 8261SOL    HW225683   5.290   2.472   2.502
 8262SOL     OW25684   5.221   4.220   2.199
 8262SOL    HW125685   5.259   4.132   2.172
 8262SOL    HW225686   5.295   4.281   2.228
 8263SOL     OW25687   6.991   1.415   0.126
 8263SOL    HW125688   6.986   1.467   0.211
 8263SOL    HW225689   6.909   1.358   0.116
 8264SOL     OW25690   3.453   1.443   1.693
 8264SOL    HW125691   3.374   1.382   1.687
 8264SOL    HW225692   3.424   1.534   1.722
 8265SOL     OW25693   5.485   5.535   0.050
 8265SOL    HW125694   5.545   5.530   6.991
 8265SOL    HW225695   5.421   5.458   0.048
 8266SOL     OW25696   4.446   2.401   2.768
 8266SOL    HW125697   4.464   2.414   2.671
 8266SOL    HW225698   4.498   2.467   2.822
 8267SOL     OW25699   2.125   3.353   2.693
 8267SOL    HW125700   2.183   3.271   2.696
 8267SOL    HW225701   2.051   3.339   2.627
 8268SOL     OW25702   2.429   5.075   1.395
 8268SOL    HW125703   2.352   5.090   1.457
 8268SOL    HW225704   2.443   4.977   1.381
 8269SOL     OW25705   6.746   2.013   3.219
 8269SOL    HW125706   6.677   1.990   3.151
 8269SOL    HW225707   6.711   1.991   3.310
 8270SOL     OW25708   4.164   5.137   0.160
 8270SOL    HW125709   4.165   5.064   0.228
 8270SOL    HW225710   4.238   5.123   0.094
 8271SOL     OW25711   2.237   0.040   5.820
 8271SOL    HW125712   2.291   6.990   5.773
 8271SOL    HW225713   2.280   0.061   5.908
 8272SOL     OW25714   0.279   0.782   1.721
 8272SOL    HW125715   0.196   0.835   1.740
 8272SOL    HW225716   0.307   0.797   1.626
 8273SOL     OW25717   5.262   0.054   5.827
 8273SOL    HW125718   5.272   0.113   5.907
 8273SOL    HW225719   5.265   0.109   5.744
 8274SOL     OW25720   5.280   6.814   3.906
 8274SOL    HW125721   5.253   6.718   3.911
 8274SOL    HW225722   5.352   6.825   3.837
 8275SOL     OW25723   5.015   0.948   4.294
 8275SOL    HW125724   4.956   1.027   4.313
 8275SOL    HW225725   4.995   0.913   4.202
 8276SOL     OW25726   5.164   2.471   0.505
 8276SOL    HW125727   5.213   2.511   0.427
 8276SOL    HW225728   5.223   2.471   0.585
 8277SOL     OW25729   1.083   6.930   1.884
 8277SOL    HW125730   1.092   6.926   1.785
 8277SOL    HW225731   1.143   7.001   1.920
 8278SOL     OW25732   1.668   0.974   1.523
 8278SOL    HW125733   1.629   1.065   1.535
 8278SOL    HW225734   1.678   0.954   1.426
 8279SOL     OW25735   6.085   4.463   5.851
 8279SOL    HW125736   5.987   4.481   5.860
 8279SOL    HW225737   6.117   4.502   5.764
 8280SOL     OW25738   0.099   4.878   0.204
 8280SOL    HW125739   0.028   4.912   0.266
 8280SOL    HW225740   0.056   4.845   0.120
 8281SOL     OW25741   2.513   4.729   0.061
 8281SOL    HW125742   2.571   4.732   0.143
 8281SOL    HW225743   2.549   4.662   7.017
 8282SOL     OW25744   4.861   2.867   0.778
 8282SOL    HW125745   4.937   2.820   0.734
 8282SOL    HW225746   4.819   2.931   0.712
 8283SOL     OW25747   0.751   2.110   3.738
 8283SOL    HW125748   0.747   2.149   3.830
 8283SOL    HW225749   0.808   2.169   3.680
 8284SOL     OW25750   4.647   2.860   0.956
 8284SOL    HW125751   4.722   2.873   0.891
 8284SOL    HW225752   4.672   2.790   1.023
 8285SOL     OW25753   0.229   4.948   6.916
 8285SOL    HW125754   0.300   4.900   6.969
 8285SOL    HW225755   0.148   4.890   6.909
 8286SOL     OW25756   6.594   2.228   0.211
 8286SOL    HW125757   6.555   2.158   0.270
 8286SOL    HW225758   6.620   2.188   0.124
 8287SOL     OW25759   0.816   1.918   2.849
 8287SOL    HW125760   0.743   1.974   2.888
 8287SOL    HW225761   0.797   1.822   2.866
 8288SOL     OW25762   2.295   6.729   2.589
 8288SOL    HW125763   2.384   6.764   2.616
 8288SOL    HW225764   2.246   6.696   2.670
 8289SOL     OW25765   5.950   6.932   0.549
 8289SOL    HW125766   5.940   0.003   0.510
 8289SOL    HW225767   6.045   6.904   0.547
 8290SOL     OW25768   4.718   2.910   1.680
 8290SOL    HW125769   4.783   2.849   1.726
 8290SOL    HW225770   4.675   2.971   1.747
 8291SOL     OW25771   6.136   5.338   5.192
 8291SOL    HW125772   6.087   5.258   5.157
 8291SOL    HW225773   6.156   5.400   5.117
 8292SOL     OW25774   0.200   4.167   5.799
 8292SOL    HW125775   0.295   4.151   5.829
 8292SOL    HW225776   0.163   4.083   5.760
 8293SOL     OW25777   2.641   5.257   4.419
 8293SOL    HW125778   2.698   5.340   4.412
 8293SOL    HW225779   2.697   5.177   4.398
 8294SOL     OW25780   6.450   3.485   5.720
 8294SOL    HW125781   6.389   3.474   5.798
 8294SOL    HW225782   6.410   3.549   5.655
 8295SOL     OW25783   4.243   4.496   1.381
 8295SOL    HW125784   4.319   4.432   1.384
 8295SOL    HW225785   4.244   4.553   1.464
 8296SOL     OW25786   3.077   0.241   2.150
 8296SOL    HW125787   3.123   0.152   2.142
 8296SOL    HW225788   3.049   0.272   2.059
 8297SOL     OW25789   6.074   4.438   1.962
 8297SOL    HW125790   6.114   4.518   1.917
 8297SOL    HW225791   5.979   4.456   1.985
 8298SOL     OW25792   0.095   6.210   0.711
 8298SOL    HW125793   0.046   6.123   0.718
 8298SOL    HW225794   0.190   6.196   0.740
 8299SOL     OW25795   1.040   1.558   0.107
 8299SOL    HW125796   1.040   1.475   0.162
 8299SOL    HW225797   1.119   1.557   0.045
 8300SOL     OW25798   4.184   6.847   4.642
 8300SOL    HW125799   4.217   6.776   4.580
 8300SOL    HW225800   4.085   6.858   4.632
 8301SOL     OW25801   6.149   4.889   6.570
 8301SOL    HW125802   6.116   4.867   6.662
 8301SOL    HW225803   6.215   4.964   6.575
 8302SOL     OW25804   3.220   6.301   6.095
 8302SOL    HW125805   3.256   6.383   6.050
 8302SOL    HW225806   3.287   6.268   6.162
 8303SOL     OW25807   0.057   4.348   4.328
 8303SOL    HW125808   0.060   4.387   4.420
 8303SOL    HW225809   0.111   4.264   4.327
 8304SOL     OW25810   5.949   2.923   4.041
 8304SOL    HW125811   5.966   3.018   4.067
 8304SOL    HW225812   5.851   2.904   4.042
 8305SOL     OW25813   4.129   6.163   6.182
 8305SOL    HW125814   4.075   6.198   6.258
 8305SOL    HW225815   4.068   6.116   6.117
 8306SOL     OW25816   5.280   1.145   3.687
 8306SOL    HW125817   5.379   1.127   3.690
 8306SOL    HW225818   5.261   1.232   3.733
 8307SOL     OW25819   0.274   4.742   4.533
 8307SOL    HW125820   0.334   4.702   4.465
 8307SOL    HW225821   0.291   4.699   4.622
 8308SOL     OW25822   2.189   5.149   0.286
 8308SOL    HW125823   2.228   5.110   0.202
 8308SOL    HW225824   2.119   5.216   0.262
 8309SOL     OW25825   5.678   5.378   2.645
 8309SOL    HW125826   5.705   5.399   2.551
 8309SOL    HW225827   5.586   5.414   2.662
 8310SOL     OW25828   2.074   5.944   2.888
 8310SOL    HW125829   2.102   5.960   2.793
 8310SOL    HW225830   2.039   6.030   2.927
 8311SOL     OW25831   4.803   6.976   2.628
 8311SOL    HW125832   4.705   6.992   2.637
 8311SOL    HW225833   4.849   7.001   2.713
 8312SOL     OW25834   6.651   6.808   0.831
 8312SOL    HW125835   6.694   6.724   0.864
 8312SOL    HW225836   6.626   6.798   0.735
 8313SOL     OW25837   4.719   2.180   5.818
 8313SOL    HW125838   4.786   2.225   5.876
 8313SOL    HW225839   4.635   2.163   5.870
 8314SOL     OW25840   5.598   5.880   5.207
 8314SOL    HW125841   5.538   5.854   5.131
 8314SOL    HW225842   5.561   5.961   5.252
 8315SOL     OW25843   3.673   1.768   0.316
 8315SOL    HW125844   3.726   1.844   0.354
 8315SOL    HW225845   3.730   1.686   0.315
 8316SOL     OW25846   1.333   1.346   4.745
 8316SOL    HW125847   1.287   1.261   4.770
 8316SOL    HW225848   1.420   1.324   4.700
 8317SOL     OW25849   2.343   1.954   6.206
 8317SOL    HW125850   2.358   1.927   6.111
 8317SOL    HW225851   2.310   2.048   6.209
 8318SOL     OW25852   4.430   6.381   5.117
 8318SOL    HW125853   4.423   6.343   5.025
 8318SOL    HW225854   4.499   6.331   5.168
 8319SOL     OW25855   2.909   6.131   6.250
 8319SOL    HW125856   2.955   6.083   6.325
 8319SOL    HW225857   2.822   6.168   6.283
 8320SOL     OW25858   3.939   5.508   5.200
 8320SOL    HW125859   4.019   5.461   5.237
 8320SOL    HW225860   3.950   5.607   5.213
 8321SOL     OW25861   0.428   0.276   0.166
 8321SOL    HW125862   0.474   0.360   0.194
 8321SOL    HW225863   0.353   0.298   0.103
 8322SOL     OW25864   2.486   0.344   2.166
 8322SOL    HW125865   2.555   0.274   2.149
 8322SOL    HW225866   2.518   0.404   2.239
 8323SOL     OW25867   6.365   5.604   6.347
 8323SOL    HW125868   6.368   5.504   6.341
 8323SOL    HW225869   6.311   5.630   6.427
 8324SOL     OW25870   6.861   6.047   5.201
 8324SOL    HW125871   6.909   5.971   5.157
 8324SOL    HW225872   6.779   6.012   5.246
 8325SOL     OW25873   1.256   5.729   5.376
 8325SOL    HW125874   1.219   5.710   5.285
 8325SOL    HW225875   1.285   5.824   5.381
 8326SOL     OW25876   2.859   0.963   6.813
 8326SOL    HW125877   2.943   1.007   6.782
 8326SOL    HW225878   2.877   0.867   6.833
 8327SOL     OW25879   0.608   6.421   5.844
 8327SOL    HW125880   0.615   6.433   5.745
 8327SOL    HW225881   0.513   6.429   5.872
 8328SOL     OW25882   1.088   0.000   0.784
 8328SOL    HW125883   1.027   0.078   0.800
 8328SOL    HW225884   1.039   6.949   0.734
 8329SOL     OW25885   1.392   2.123   5.789
 8329SOL    HW125886   1.314   2.067   5.815
 8329SOL    HW225887   1.477   2.074   5.809
 8330SOL     OW25888   3.499   6.641   0.004
 8330SOL    HW125889   3.451   6.715   0.052
 8330SOL    HW225890   3.431   6.576   6.989
 8331SOL     OW25891   1.623   2.314   5.589
 8331SOL    HW125892   1.531   2.326   5.551
 8331SOL    HW225893   1.624   2.346   5.684
 8332SOL     OW25894   5.526   4.134   0.918
 8332SOL    HW125895   5.619   4.098   0.909
 8332SOL    HW225896   5.510   4.203   0.848
 8333SOL     OW25897   2.068   4.333   5.923
 8333SOL    HW125898   2.133   4.304   5.853
 8333SOL    HW225899   2.093   4.423   5.958
 8334SOL     OW25900   2.812   2.832   5.389
 8334SOL    HW125901   2.721   2.806   5.357
 8334SOL    HW225902   2.840   2.771   5.463
 8335SOL     OW25903   6.351   2.927   0.047
 8335SOL    HW125904   6.292   2.863   7.017
 8335SOL    HW225905   6.318   3.021   0.032
 8336SOL     OW25906   0.619   4.636   3.604
 8336SOL    HW125907   0.559   4.571   3.650
 8336SOL    HW225908   0.704   4.645   3.655
 8337SOL     OW25909   6.395   6.673   4.611
 8337SOL    HW125910   6.439   6.756   4.576
 8337SOL    HW225911   6.300   6.693   4.633
 8338SOL     OW25912   2.220   4.728   0.706
 8338SOL    HW125913   2.195   4.648   0.761
 8338SOL    HW225914   2.317   4.723   0.681
 8339SOL     OW25915   6.566   0.346   1.695
 8339SOL    HW125916   6.485   0.381   1.742
 8339SOL    HW225917   6.544   0.330   1.599
 8340SOL     OW25918   6.205   2.272   6.636
 8340SOL    HW125919   6.146   2.317   6.704
 8340SOL    HW225920   6.201   2.173   6.650
 8341SOL     OW25921   3.522   0.264   1.116
 8341SOL    HW125922   3.521   0.327   1.038
 8341SOL    HW225923   3.445   0.201   1.109
 8342SOL     OW25924   4.045   0.802   1.554
 8342SOL    HW125925   3.972   0.861   1.522
 8342SOL    HW225926   4.129   0.819   1.502
 8343SOL     OW25927   4.517   6.184   3.385
 8343SOL    HW125928   4.543   6.251   3.315
 8343SOL    HW225929   4.420   6.195   3.407
 8344SOL     OW25930   2.203   4.097   4.813
 8344SOL    HW125931   2.234   4.044   4.892
 8344SOL    HW225932   2.162   4.036   4.746
 8345SOL     OW25933   6.730   6.752   4.038
 8345SOL    HW125934   6.630   6.751   4.041
 8345SOL    HW225935   6.761   6.841   4.003
 8346SOL     OW25936   5.756   4.403   3.109
 8346SOL    HW125937   5.673   4.348   3.103
 8346SOL    HW225938   5.811   4.371   3.187
 8347SOL     OW25939   0.915   1.047   6.990
 8347SOL    HW125940   0.914   1.147   6.985
 8347SOL    HW225941   0.822   1.012   6.994
 8348SOL     OW25942   2.776   6.942   0.856
 8348SOL    HW125943   2.760   6.851   0.818
 8348SOL    HW225944   2.734   7.011   0.797
 8349SOL     OW25945   4.763   5.725   1.187
 8349SOL    HW125946   4.813   5.769   1.113
 8349SOL    HW225947   4.787   5.768   1.274
 8350SOL     OW25948   2.300   1.001   6.872
 8350SOL    HW125949   2.297   1.099   6.853
 8350SOL    HW225950   2.283   0.950   6.788
 8351SOL     OW25951   0.156   3.939   3.277
 8351SOL    HW125952   0.204   3.859   3.313
 8351SOL    HW225953   0.155   3.935   3.177
 8352SOL     OW25954   2.447   0.180   6.512
 8352SOL    HW125955   2.353   0.150   6.496
 8352SOL    HW225956   2.446   0.271   6.555
 8353SOL     OW25957   0.780   5.879   2.977
 8353SOL    HW125958   0.878   5.859   2.977
 8353SOL    HW225959   0.756   5.929   2.894
 8354SOL     OW25960   5.279   2.930   3.850
 8354SOL    HW125961   5.345   2.856   3.861
 8354SOL    HW225962   5.229   2.944   3.936
 8355SOL     OW25963   3.651   4.307   5.656
 8355SOL    HW125964   3.674   4.403   5.639
 8355SOL    HW225965   3.557   4.290   5.626
 8356SOL     OW25966   3.435   3.209   2.406
 8356SOL    HW125967   3.375   3.286   2.382
 8356SOL    HW225968   3.424   3.137   2.338
 8357SOL     OW25969   2.983   6.624   5.261
 8357SOL    HW125970   2.927   6.546   5.291
 8357SOL    HW225971   2.948   6.661   5.176
 8358SOL     OW25972   0.666   0.403   4.720
 8358SOL    HW125973   0.597   0.333   4.700
 8358SOL    HW225974   0.722   0.418   4.639
 8359SOL     OW25975   4.910   2.279   4.930
 8359SOL    HW125976   4.971   2.306   5.004
 8359SOL    HW225977   4.907   2.351   4.861
 8360SOL     OW25978   3.483   0.127   2.364
 8360SOL    HW125979   3.477   0.227   2.370
 8360SOL    HW225980   3.445   0.097   2.277
 8361SOL     OW25981   4.586   1.687   0.008
 8361SOL    HW125982   4.669   1.633   0.022
 8361SOL    HW225983   4.523   1.672   0.085
 8362SOL     OW25984   0.701   4.362   1.808
 8362SOL    HW125985   0.623   4.318   1.853
 8362SOL    HW225986   0.707   4.331   1.713
 8363SOL     OW25987   3.677   2.292   1.455
 8363SOL    HW125988   3.768   2.331   1.436
 8363SOL    HW225989   3.681   2.239   1.539
 8364SOL     OW25990   0.721   1.668   3.315
 8364SOL    HW125991   0.675   1.581   3.334
 8364SOL    HW225992   0.701   1.733   3.389
 8365SOL     OW25993   2.522   2.791   1.010
 8365SOL    HW125994   2.458   2.850   1.059
 8365SOL    HW225995   2.546   2.713   1.068
 8366SOL     OW25996   4.884   5.843   1.418
 8366SOL    HW125997   4.977   5.806   1.419
 8366SOL    HW225998   4.831   5.802   1.492
 8367SOL     OW25999   1.037   4.857   4.010
 8367SOL    HW126000   1.021   4.955   4.023
 8367SOL    HW226001   1.074   4.818   4.095
 8368SOL     OW26002   0.608   3.038   6.406
 8368SOL    HW126003   0.586   2.980   6.327
 8368SOL    HW226004   0.527   3.049   6.463
 8369SOL     OW26005   1.104   0.837   0.703
 8369SOL    HW126006   1.065   0.824   0.612
 8369SOL    HW226007   1.115   0.748   0.748
 8370SOL     OW26008   2.597   3.335   1.326
 8370SOL    HW126009   2.653   3.417   1.314
 8370SOL    HW226010   2.654   3.262   1.364
 8371SOL     OW26011   3.034   4.559   5.652
 8371SOL    HW126012   2.994   4.471   5.680
 8371SOL    HW226013   2.988   4.633   5.700
 8372SOL     OW26014   1.631   6.736   2.999
 8372SOL    HW126015   1.690   6.810   3.032
 8372SOL    HW226016   1.622   6.667   3.070
 8373SOL     OW26017   5.969   0.371   4.368
 8373SOL    HW126018   5.876   0.334   4.365
 8373SOL    HW226019   5.973   0.456   4.315
 8374SOL     OW26020   0.430   2.474   3.765
 8374SOL    HW126021   0.480   2.534   3.702
 8374SOL    HW226022   0.479   2.469   3.852
 8375SOL     OW26023   1.798   2.481   5.468
 8375SOL    HW126024   1.748   2.404   5.509
 8375SOL    HW226025   1.877   2.504   5.525
 8376SOL     OW26026   0.960   1.549   3.735
 8376SOL    HW126027   0.924   1.614   3.802
 8376SOL    HW226028   1.042   1.506   3.771
 8377SOL     OW26029   4.498   5.712   1.865
 8377SOL    HW126030   4.424   5.681   1.924
 8377SOL    HW226031   4.586   5.695   1.909
 8378SOL     OW26032   4.043   5.876   5.973
 8378SOL    HW126033   3.990   5.864   6.057
 8378SOL    HW226034   3.982   5.876   5.894
 8379SOL     OW26035   5.921   2.627   1.589
 8379SOL    HW126036   5.921   2.561   1.664
 8379SOL    HW226037   5.925   2.579   1.502
 8380SOL     OW26038   0.943   5.070   2.654
 8380SOL    HW126039   0.949   5.079   2.554
 8380SOL    HW226040   1.016   5.010   2.686
 8381SOL     OW26041   0.687   2.348   2.933
 8381SOL    HW126042   0.637   2.318   3.014
 8381SOL    HW226043   0.696   2.448   2.934
 8382SOL     OW26044   1.251   0.076   2.014
 8382SOL    HW126045   1.189   0.150   1.988
 8382SOL    HW226046   1.345   0.109   2.010
 8383SOL     OW26047   1.765   6.673   4.980
 8383SOL    HW126048   1.737   6.768   4.997
 8383SOL    HW226049   1.696   6.611   5.017
 8384SOL     OW26050   0.573   4.204   3.930
 8384SOL    HW126051   0.539   4.149   3.854
 8384SOL    HW226052   0.578   4.300   3.901
 8385SOL     OW26053   4.540   2.469   1.902
 8385SOL    HW126054   4.590   2.551   1.932
 8385SOL    HW226055   4.581   2.434   1.818
 8386SOL     OW26056   6.562   5.454   2.178
 8386SOL    HW126057   6.524   5.377   2.127
 8386SOL    HW226058   6.524   5.455   2.271
 8387SOL     OW26059   0.540   2.462   3.470
 8387SOL    HW126060   0.463   2.399   3.463
 8387SOL    HW226061   0.518   2.547   3.422
 8388SOL     OW26062   3.306   6.305   1.647
 8388SOL    HW126063   3.318   6.207   1.656
 8388SOL    HW226064   3.340   6.351   1.729
 8389SOL     OW26065   1.164   2.700   4.387
 8389SOL    HW126066   1.196   2.673   4.296
 8389SOL    HW226067   1.085   2.643   4.412
 8390SOL     OW26068   1.219   6.489   6.777
 8390SOL    HW126069   1.207   6.430   6.698
 8390SOL    HW226070   1.133   6.535   6.798
 8391SOL     OW26071   5.119   6.201   0.842
 8391SOL    HW126072   5.185   6.226   0.771
 8391SOL    HW226073   5.109   6.101   0.844
 8392SOL     OW26074   3.318   5.771   0.684
 8392SOL    HW126075   3.279   5.685   0.715
 8392SOL    HW226076   3.245   5.834   0.658
 8393SOL     OW26077   1.547   6.395   2.026
 8393SOL    HW126078   1.636   6.440   2.017
 8393SOL    HW226079   1.487   6.426   1.952
 8394SOL     OW26080   1.973   1.108   3.846
 8394SOL    HW126081   2.050   1.158   3.886
 8394SOL    HW226082   1.887   1.151   3.873
 8395SOL     OW26083   2.247   6.112   6.218
 8395SOL    HW126084   2.251   6.029   6.162
 8395SOL    HW226085   2.271   6.089   6.313
 8396SOL     OW26086   4.903   1.747   0.407
 8396SOL    HW126087   4.819   1.710   0.369
 8396SOL    HW226088   4.918   1.709   0.498
 8397SOL     OW26089   0.457   4.251   3.483
 8397SOL    HW126090   0.449   4.172   3.544
 8397SOL    HW226091   0.397   4.238   3.404
 8398SOL     OW26092   5.718   1.630   6.510
 8398SOL    HW126093   5.652   1.680   6.454
 8398SOL    HW226094   5.677   1.609   6.599
 8399SOL     OW26095   5.553   6.655   5.484
 8399SOL    HW126096   5.457   6.663   5.457
 8399SOL    HW226097   5.571   6.716   5.561
 8400SOL     OW26098   5.992   6.091   2.991
 8400SOL    HW126099   6.071   6.143   2.959
 8400SOL    HW226100   5.957   6.034   2.917
 8401SOL     OW26101   2.605   3.432   5.308
 8401SOL    HW126102   2.614   3.503   5.377
 8401SOL    HW226103   2.512   3.395   5.310
 8402SOL     OW26104   4.401   1.243   4.607
 8402SOL    HW126105   4.313   1.284   4.584
 8402SOL    HW226106   4.418   1.164   4.548
 8403SOL     OW26107   0.342   1.560   6.312
 8403SOL    HW126108   0.336   1.660   6.315
 8403SOL    HW226109   0.415   1.532   6.250
 8404SOL     OW26110   4.797   5.063   5.328
 8404SOL    HW126111   4.798   5.112   5.241
 8404SOL    HW226112   4.707   5.074   5.371
 8405SOL     OW26113   0.800   2.488   6.137
 8405SOL    HW126114   0.726   2.555   6.143
 8405SOL    HW226115   0.802   2.432   6.220
 8406SOL     OW26116   6.033   3.849   1.753
 8406SOL    HW126117   6.000   3.897   1.671
 8406SOL    HW226118   5.982   3.881   1.832
 8407SOL     OW26119   5.579   3.558   2.592
 8407SOL    HW126120   5.633   3.600   2.518
 8407SOL    HW226121   5.560   3.626   2.662
 8408SOL     OW26122   4.809   4.460   4.113
 8408SOL    HW126123   4.728   4.483   4.059
 8408SOL    HW226124   4.878   4.419   4.054
 8409SOL     OW26125   1.174   2.012   4.113
 8409SOL    HW126126   1.191   2.105   4.147
 8409SOL    HW226127   1.076   1.993   4.116
 8410SOL     OW26128   1.862   5.443   2.398
 8410SOL    HW126129   1.805   5.504   2.343
 8410SOL    HW226130   1.909   5.496   2.469
 8411SOL     OW26131   1.917   3.414   3.040
 8411SOL    HW126132   1.850   3.343   3.016
 8411SOL    HW226133   1.996   3.371   3.084
 8412SOL     OW26134   5.411   2.341   2.578
 8412SOL    HW126135   5.442   2.348   2.672
 8412SOL    HW226136   5.414   2.245   2.549
 8413SOL     OW26137   1.462   5.372   2.132
 8413SOL    HW126138   1.508   5.449   2.088
 8413SOL    HW226139   1.425   5.400   2.220
 8414SOL     OW26140   6.117   0.166   4.502
 8414SOL    HW126141   6.061   0.085   4.520
 8414SOL    HW226142   6.060   0.239   4.466
 8415SOL     OW26143   0.449   4.849   0.693
 8415SOL    HW126144   0.370   4.896   0.732
 8415SOL    HW226145   0.479   4.776   0.755
 8416SOL     OW26146   4.069   4.787   3.165
 8416SOL    HW126147   3.980   4.830   3.152
 8416SOL    HW226148   4.102   4.751   3.078
 8417SOL     OW26149   0.743   5.505   0.185
 8417SOL    HW126150   0.799   5.456   0.252
 8417SOL    HW226151   0.647   5.497   0.209
 8418SOL     OW26152   5.264   6.387   2.800
 8418SOL    HW126153   5.227   6.295   2.788
 8418SOL    HW226154   5.199   6.454   2.764
 8419SOL     OW26155   2.587   1.476   3.020
 8419SOL    HW126156   2.671   1.479   2.966
 8419SOL    HW226157   2.545   1.566   3.022
 8420SOL     OW26158   4.770   1.928   5.147
 8420SOL    HW126159   4.759   1.890   5.239
 8420SOL    HW226160   4.866   1.923   5.120
 8421SOL     OW26161   0.403   0.808   0.697
 8421SOL    HW126162   0.503   0.806   0.697
 8421SOL    HW226163   0.371   0.881   0.758
 8422SOL     OW26164   2.707   0.783   1.315
 8422SOL    HW126165   2.609   0.776   1.332
 8422SOL    HW226166   2.731   0.879   1.296
 8423SOL     OW26167   2.024   4.648   1.313
 8423SOL    HW126168   1.929   4.619   1.301
 8423SOL    HW226169   2.042   4.666   1.410
 8424SOL     OW26170   2.665   2.180   2.025
 8424SOL    HW126171   2.754   2.226   2.025
 8424SOL    HW226172   2.672   2.095   1.972
 8425SOL     OW26173   0.424   5.146   5.487
 8425SOL    HW126174   0.502   5.084   5.496
 8425SOL    HW226175   0.441   5.227   5.542
 8426SOL     OW26176   3.692   3.689   2.272
 8426SOL    HW126177   3.755   3.630   2.221
 8426SOL    HW226178   3.690   3.661   2.368
 8427SOL     OW26179   2.580   1.319   0.030
 8427SOL    HW126180   2.497   1.264   0.022
 8427SOL    HW226181   2.654   1.274   7.001
 8428SOL     OW26182   6.301   3.636   1.804
 8428SOL    HW126183   6.381   3.678   1.761
 8428SOL    HW226184   6.330   3.581   1.882
 8429SOL     OW26185   1.204   6.654   2.950
 8429SOL    HW126186   1.236   6.742   2.985
 8429SOL    HW226187   1.161   6.667   2.860
 8430SOL     OW26188   3.682   6.512   3.499
 8430SOL    HW126189   3.624   6.586   3.466
 8430SOL    HW226190   3.626   6.432   3.519
 8431SOL     OW26191   3.157   3.246   2.361
 8431SOL    HW126192   3.184   3.226   2.267
 8431SOL    HW226193   3.143   3.160   2.411
 8432SOL     OW26194   5.032   5.745   0.231
 8432SOL    HW126195   5.042   5.715   0.325
 8432SOL    HW226196   5.121   5.748   0.186
 8433SOL     OW26197   0.084   1.296   3.791
 8433SOL    HW126198   0.044   1.357   3.860
 8433SOL    HW226199   0.040   1.206   3.796
 8434SOL     OW26200   5.323   6.628   6.763
 8434SOL    HW126201   5.352   6.630   6.858
 8434SOL    HW226202   5.404   6.622   6.703
 8435SOL     OW26203   5.065   3.419   0.657
 8435SOL    HW126204   5.042   3.482   0.582
 8435SOL    HW226205   5.146   3.453   0.705
 8436SOL     OW26206   3.342   4.224   1.490
 8436SOL    HW126207   3.437   4.201   1.468
 8436SOL    HW226208   3.311   4.168   1.567
 8437SOL     OW26209   0.532   2.738   0.481
 8437SOL    HW126210   0.474   2.667   0.442
 8437SOL    HW226211   0.496   2.766   0.570
 8438SOL     OW26212   2.430   5.631   1.702
 8438SOL    HW126213   2.508   5.603   1.757
 8438SOL    HW226214   2.449   5.613   1.605
 8439SOL     OW26215   5.323   0.309   2.236
 8439SOL    HW126216   5.234   0.264   2.223
 8439SOL    HW226217   5.396   0.244   2.216
 8440SOL     OW26218   1.276   4.216   3.836
 8440SOL    HW126219   1.323   4.246   3.753
 8440SOL    HW226220   1.291   4.118   3.849
 8441SOL     OW26221   3.838   5.839   1.364
 8441SOL    HW126222   3.925   5.817   1.409
 8441SOL    HW226223   3.843   5.932   1.327
 8442SOL     OW26224   2.829   3.312   0.944
 8442SOL    HW126225   2.886   3.232   0.922
 8442SOL    HW226226   2.830   3.375   0.867
 8443SOL     OW26227   0.036   2.767   0.926
 8443SOL    HW126228   6.993   2.845   0.931
 8443SOL    HW226229   0.039   2.733   0.832
 8444SOL     OW26230   5.051   2.487   2.925
 8444SOL    HW126231   5.129   2.463   2.983
 8444SOL    HW226232   5.046   2.586   2.915
 8445SOL     OW26233   3.814   5.815   2.303
 8445SOL    HW126234   3.812   5.905   2.346
 8445SOL    HW226235   3.856   5.749   2.365
 8446SOL     OW26236   5.851   3.515   3.174
 8446SOL    HW126237   5.752   3.498   3.176
 8446SOL    HW226238   5.899   3.428   3.163
 8447SOL     OW26239   5.535   4.684   1.591
 8447SOL    HW126240   5.611   4.638   1.637
 8447SOL    HW226241   5.569   4.766   1.545
 8448SOL     OW26242   1.415   4.956   5.659
 8448SOL    HW126243   1.450   4.958   5.752
 8448SOL    HW226244   1.359   5.037   5.642
 8449SOL     OW26245   1.833   0.729   5.328
 8449SOL    HW126246   1.808   0.726   5.232
 8449SOL    HW226247   1.751   0.741   5.384
 8450SOL     OW26248   1.636   5.904   0.950
 8450SOL    HW126249   1.697   5.903   1.030
 8450SOL    HW226250   1.681   5.860   0.873
 8451SOL     OW26251   2.659   4.305   1.488
 8451SOL    HW126252   2.670   4.251   1.572
 8451SOL    HW226253   2.565   4.335   1.479
 8452SOL     OW26254   6.624   5.676   2.450
 8452SOL    HW126255   6.571   5.761   2.456
 8452SOL    HW226256   6.613   5.624   2.535
 8453SOL     OW26257   0.691   4.701   5.403
 8453SOL    HW126258   0.670   4.607   5.375
 8453SOL    HW226259   0.743   4.746   5.330
 8454SOL     OW26260   1.948   6.851   5.716
 8454SOL    HW126261   1.923   6.939   5.675
 8454SOL    HW226262   2.004   6.799   5.652
 8455SOL     OW26263   5.978   2.212   0.106
 8455SOL    HW126264   5.952   2.233   0.200
 8455SOL    HW226265   6.074   2.184   0.104
 8456SOL     OW26266   6.271   4.295   3.698
 8456SOL    HW126267   6.338   4.229   3.730
 8456SOL    HW226268   6.293   4.386   3.735
 8457SOL     OW26269   5.615   6.042   5.815
 8457SOL    HW126270   5.632   6.090   5.901
 8457SOL    HW226271   5.700   6.040   5.761
 8458SOL     OW26272   0.854   1.611   1.597
 8458SOL    HW126273   0.774   1.637   1.650
 8458SOL    HW226274   0.893   1.692   1.553
 8459SOL     OW26275   2.770   4.708   2.905
 8459SOL    HW126276   2.808   4.688   2.996
 8459SOL    HW226277   2.698   4.642   2.884
 8460SOL     OW26278   3.451   0.942   0.896
 8460SOL    HW126279   3.463   0.846   0.867
 8460SOL    HW226280   3.358   0.956   0.927
 8461SOL     OW26281   5.693   4.882   3.188
 8461SOL    HW126282   5.688   4.806   3.123
 8461SOL    HW226283   5.681   4.847   3.281
 8462SOL     OW26284   2.064   3.768   0.952
 8462SOL    HW126285   2.100   3.812   1.034
 8462SOL    HW226286   2.128   3.698   0.920
 8463SOL     OW26287   0.347   6.370   1.226
 8463SOL    HW126288   0.304   6.320   1.301
 8463SOL    HW226289   0.432   6.412   1.259
 8464SOL     OW26290   0.552   3.348   6.606
 8464SOL    HW126291   0.470   3.342   6.663
 8464SOL    HW226292   0.538   3.418   6.536
 8465SOL     OW26293   6.313   4.043   0.545
 8465SOL    HW126294   6.316   4.123   0.485
 8465SOL    HW226295   6.219   4.024   0.571
 8466SOL     OW26296   0.447   1.221   4.893
 8466SOL    HW126297   0.423   1.143   4.950
 8466SOL    HW226298   0.364   1.257   4.849
 8467SOL     OW26299   3.016   1.414   0.862
 8467SOL    HW126300   3.106   1.404   0.821
 8467SOL    HW226301   2.946   1.380   0.799
 8468SOL     OW26302   6.530   3.751   1.738
 8468SOL    HW126303   6.550   3.772   1.834
 8468SOL    HW226304   6.610   3.772   1.682
 8469SOL     OW26305   3.391   2.868   5.505
 8469SOL    HW126306   3.391   2.832   5.599
 8469SOL    HW226307   3.381   2.793   5.440
 8470SOL     OW26308   2.125   5.751   1.404
 8470SOL    HW126309   2.084   5.784   1.488
 8470SOL    HW226310   2.133   5.652   1.407
 8471SOL     OW26311   4.145   2.207   3.721
 8471SOL    HW126312   4.101   2.208   3.631
 8471SOL    HW226313   4.222   2.271   3.721
 8472SOL     OW26314   6.420   1.479   0.058
 8472SOL    HW126315   6.391   1.388   0.026
 8472SOL    HW226316   6.495   1.469   0.123
 8473SOL     OW26317   4.926   5.025   5.582
 8473SOL    HW126318   4.902   5.013   5.486
 8473SOL    HW226319   4.842   5.043   5.635
 8474SOL     OW26320   3.383   3.923   6.270
 8474SOL    HW126321   3.483   3.913   6.269
 8474SOL    HW226322   3.351   3.947   6.179
 8475SOL     OW26323   0.592   1.910   3.076
 8475SOL    HW126324   0.538   1.833   3.042
 8475SOL    HW226325   0.643   1.882   3.158
 8476SOL     OW26326   6.608   0.938   2.658
 8476SOL    HW126327   6.548   0.864   2.690
 8476SOL    HW226328   6.554   1.004   2.606
 8477SOL     OW26329   5.854   6.587   0.974
 8477SOL    HW126330   5.811   6.677   0.976
 8477SOL    HW226331   5.784   6.516   0.974
 8478SOL     OW26332   1.750   6.906   6.364
 8478SOL    HW126333   1.779   6.932   6.456
 8478SOL    HW226334   1.772   6.810   6.348
 8479SOL     OW26335   1.164   2.251   0.147
 8479SOL    HW126336   1.128   2.218   0.235
 8479SOL    HW226337   1.119   2.203   0.072
 8480SOL     OW26338   3.147   4.446   1.693
 8480SOL    HW126339   3.070   4.490   1.739
 8480SOL    HW226340   3.132   4.449   1.594
 8481SOL     OW26341   5.398   3.690   2.040
 8481SOL    HW126342   5.310   3.690   1.993
 8481SOL    HW226343   5.393   3.752   2.118
 8482SOL     OW26344   4.959   0.325   5.630
 8482SOL    HW126345   4.963   0.383   5.548
 8482SOL    HW226346   4.869   0.332   5.672
 8483SOL     OW26347   4.447   5.225   3.814
 8483SOL    HW126348   4.369   5.205   3.873
 8483SOL    HW226349   4.514   5.280   3.864
 8484SOL     OW26350   5.495   6.923   5.762
 8484SOL    HW126351   5.434   6.995   5.798
 8484SOL    HW226352   5.446   6.836   5.762
 8485SOL     OW26353   3.672   0.161   5.999
 8485SOL    HW126354   3.762   0.195   6.023
 8485SOL    HW226355   3.637   0.210   5.919
 8486SOL     OW26356   4.738   2.931   4.837
 8486SOL    HW126357   4.776   3.000   4.776
 8486SOL    HW226358   4.689   2.975   4.912
 8487SOL     OW26359   0.509   1.528   5.380
 8487SOL    HW126360   0.559   1.475   5.448
 8487SOL    HW226361   0.573   1.567   5.314
 8488SOL     OW26362   4.594   5.611   3.020
 8488SOL    HW126363   4.584   5.710   3.029
 8488SOL    HW226364   4.654   5.577   3.092
 8489SOL     OW26365   6.187   2.286   1.866
 8489SOL    HW126366   6.090   2.265   1.852
 8489SOL    HW226367   6.232   2.296   1.777
 8490SOL     OW26368   4.123   6.975   0.230
 8490SOL    HW126369   4.070   6.941   0.308
 8490SOL    HW226370   4.196   0.014   0.262
 8491SOL     OW26371   2.956   6.150   2.089
 8491SOL    HW126372   2.971   6.121   2.183
 8491SOL    HW226373   2.909   6.238   2.088
 8492SOL     OW26374   5.919   6.629   4.358
 8492SOL    HW126375   5.998   6.689   4.367
 8492SOL    HW226376   5.949   6.537   4.334
 8493SOL     OW26377   5.198   0.218   5.557
 8493SOL    HW126378   5.102   0.237   5.576
 8493SOL    HW226379   5.250   0.304   5.554
 8494SOL     OW26380   0.074   3.754   2.107
 8494SOL    HW126381   0.101   3.669   2.153
 8494SOL    HW226382   7.002   3.779   2.136
 8495SOL     OW26383   4.610   6.185   4.916
 8495SOL    HW126384   4.540   6.131   4.871
 8495SOL    HW226385   4.642   6.257   4.854
 8496SOL     OW26386   4.021   2.244   2.539
 8496SOL    HW126387   4.099   2.219   2.481
 8496SOL    HW226388   3.936   2.209   2.498
 8497SOL     OW26389   6.583   1.060   3.259
 8497SOL    HW126390   6.523   1.033   3.184
 8497SOL    HW226391   6.668   1.098   3.221
 8498SOL     OW26392   5.762   6.366   5.240
 8498SOL    HW126393   5.754   6.287   5.301
 8498SOL    HW226394   5.836   6.425   5.271
 8499SOL     OW26395   6.116   0.371   6.235
 8499SOL    HW126396   6.189   0.311   6.267
 8499SOL    HW226397   6.095   0.349   6.139
 8500SOL     OW26398   0.488   0.834   6.054
 8500SOL    HW126399   0.465   0.931   6.055
 8500SOL    HW226400   0.481   0.797   6.147
 8501SOL     OW26401   3.863   6.720   5.264
 8501SOL    HW126402   3.904   6.806   5.298
 8501SOL    HW226403   3.764   6.729   5.264
 8502SOL     OW26404   6.399   2.787   0.465
 8502SOL    HW126405   6.404   2.862   0.532
 8502SOL    HW226406   6.457   2.810   0.386
 8503SOL     OW26407   4.874   1.883   6.324
 8503SOL    HW126408   4.856   1.890   6.422
 8503SOL    HW226409   4.795   1.840   6.279
 8504SOL     OW26410   1.476   1.090   3.155
 8504SOL    HW126411   1.538   1.145   3.100
 8504SOL    HW226412   1.388   1.083   3.109
 8505SOL     OW26413   6.220   1.472   2.715
 8505SOL    HW126414   6.206   1.542   2.645
 8505SOL    HW226415   6.315   1.442   2.714
 8506SOL     OW26416   2.022   1.174   4.249
 8506SOL    HW126417   2.023   1.084   4.205
 8506SOL    HW226418   1.951   1.176   4.319
 8507SOL     OW26419   4.060   5.407   0.126
 8507SOL    HW126420   4.068   5.440   0.032
 8507SOL    HW226421   4.093   5.313   0.131
 8508SOL     OW26422   3.893   0.803   6.078
 8508SOL    HW126423   3.945   0.756   6.149
 8508SOL    HW226424   3.853   0.887   6.116
 8509SOL     OW26425   4.195   2.228   2.267
 8509SOL    HW126426   4.200   2.272   2.177
 8509SOL    HW226427   4.103   2.190   2.280
 8510SOL     OW26428   0.329   2.076   4.964
 8510SOL    HW126429   0.274   2.074   5.047
 8510SOL    HW226430   0.389   1.995   4.963
 8511SOL     OW26431   5.852   1.929   4.170
 8511SOL    HW126432   5.952   1.919   4.172
 8511SOL    HW226433   5.823   1.952   4.077
 8512SOL     OW26434   2.665   6.315   6.449
 8512SOL    HW126435   2.740   6.381   6.446
 8512SOL    HW226436   2.618   6.323   6.537
 8513SOL     OW26437   3.835   5.983   6.980
 8513SOL    HW126438   3.832   5.918   0.035
 8513SOL    HW226439   3.818   6.076   7.015
 8514SOL     OW26440   4.392   5.594   4.536
 8514SOL    HW126441   4.327   5.648   4.483
 8514SOL    HW226442   4.449   5.540   4.475
 8515SOL     OW26443   5.443   3.049   1.527
 8515SOL    HW126444   5.539   3.049   1.555
 8515SOL    HW226445   5.410   2.955   1.523
 8516SOL     OW26446   6.645   2.408   1.416
 8516SOL    HW126447   6.666   2.442   1.507
 8516SOL    HW226448   6.721   2.428   1.354
 8517SOL     OW26449   0.742   3.772   4.567
 8517SOL    HW126450   0.782   3.739   4.482
 8517SOL    HW226451   0.796   3.739   4.644
 8518SOL     OW26452   3.890   6.089   1.263
 8518SOL    HW126453   3.849   6.140   1.188
 8518SOL    HW226454   3.894   6.147   1.345
 8519SOL     OW26455   2.684   5.536   3.255
 8519SOL    HW126456   2.772   5.495   3.231
 8519SOL    HW226457   2.651   5.589   3.178
 8520SOL     OW26458   3.598   5.608   0.481
 8520SOL    HW126459   3.564   5.700   0.497
 8520SOL    HW226460   3.534   5.558   0.423
 8521SOL     OW26461   0.777   1.205   3.002
 8521SOL    HW126462   0.817   1.261   3.074
 8521SOL    HW226463   0.715   1.138   3.042
 8522SOL     OW26464   2.179   5.870   3.661
 8522SOL    HW126465   2.199   5.960   3.701
 8522SOL    HW226466   2.264   5.827   3.631
 8523SOL     OW26467   2.042   5.522   6.240
 8523SOL    HW126468   1.988   5.484   6.315
 8523SOL    HW226469   2.117   5.460   6.218
 8524SOL     OW26470   2.011   1.338   6.387
 8524SOL    HW126471   2.089   1.327   6.326
 8524SOL    HW226472   2.042   1.377   6.474
 8525SOL     OW26473   5.584   4.514   4.388
 8525SOL    HW126474   5.671   4.508   4.438
 8525SOL    HW226475   5.546   4.422   4.375
 8526SOL     OW26476   6.937   3.175   1.877
 8526SOL    HW126477   7.012   3.213   1.931
 8526SOL    HW226478   6.949   3.077   1.866
 8527SOL     OW26479   4.956   0.923   5.316
 8527SOL    HW126480   4.964   0.902   5.414
 8527SOL    HW226481   5.047   0.921   5.275
 8528SOL     OW26482   5.313   0.007   0.286
 8528SOL    HW126483   5.401   0.015   0.331
 8528SOL    HW226484   5.241   7.016   0.355
 8529SOL     OW26485   0.050   0.729   4.440
 8529SOL    HW126486   0.019   0.822   4.462
 8529SOL    HW226487   6.996   0.679   4.395
 8530SOL     OW26488   1.717   5.205   5.975
 8530SOL    HW126489   1.793   5.183   6.036
 8530SOL    HW226490   1.670   5.121   5.947
 8531SOL     OW26491   3.293   5.407   2.740
 8531SOL    HW126492   3.271   5.480   2.805
 8531SOL    HW226493   3.300   5.320   2.790
 8532SOL     OW26494   1.262   3.598   0.078
 8532SOL    HW126495   1.358   3.600   0.049
 8532SOL    HW226496   1.257   3.614   0.177
 8533SOL     OW26497   3.585   0.289   6.430
 8533SOL    HW126498   3.554   0.273   6.523
 8533SOL    HW226499   3.520   0.250   6.365
 8534SOL     OW26500   2.849   2.569   0.937
 8534SOL    HW126501   2.794   2.581   1.019
 8534SOL    HW226502   2.891   2.656   0.912
 8535SOL     OW26503   0.186   2.539   5.786
 8535SOL    HW126504   0.104   2.525   5.841
 8535SOL    HW226505   0.267   2.543   5.845
 8536SOL     OW26506   6.752   0.602   6.482
 8536SOL    HW126507   6.737   0.572   6.576
 8536SOL    HW226508   6.690   0.554   6.421
 8537SOL     OW26509   3.840   6.337   3.315
 8537SOL    HW126510   3.855   6.238   3.325
 8537SOL    HW226511   3.862   6.383   3.401
 8538SOL     OW26512   3.848   1.525   5.004
 8538SOL    HW126513   3.901   1.478   5.075
 8538SOL    HW226514   3.756   1.543   5.038
 8539SOL     OW26515   0.418   3.219   2.978
 8539SOL    HW126516   0.399   3.218   3.077
 8539SOL    HW226517   0.416   3.313   2.945
 8540SOL     OW26518   4.509   6.008   6.045
 8540SOL    HW126519   4.438   5.964   5.991
 8540SOL    HW226520   4.469   6.047   6.128
 8541SOL     OW26521   3.404   5.627   5.669
 8541SOL    HW126522   3.413   5.724   5.691
 8541SOL    HW226523   3.379   5.576   5.751
 8542SOL     OW26524   1.453   5.490   5.068
 8542SOL    HW126525   1.394   5.437   5.128
 8542SOL    HW226526   1.508   5.428   5.012
 8543SOL     OW26527   3.386   1.720   5.675
 8543SOL    HW126528   3.422   1.645   5.731
 8543SOL    HW226529   3.442   1.730   5.593
 8544SOL     OW26530   4.899   3.706   5.286
 8544SOL    HW126531   4.811   3.659   5.284
 8544SOL    HW226532   4.947   3.681   5.370
 8545SOL     OW26533   2.020   0.857   6.605
 8545SOL    HW126534   1.937   0.912   6.617
 8545SOL    HW226535   1.996   0.769   6.566
 8546SOL     OW26536   2.914   1.467   4.021
 8546SOL    HW126537   2.866   1.467   4.109
 8546SOL    HW226538   2.931   1.562   3.993
 8547SOL     OW26539   5.866   4.677   5.891
 8547SOL    HW126540   5.938   4.686   5.960
 8547SOL    HW226541   5.777   4.689   5.935
 8548SOL     OW26542   1.806   4.257   4.284
 8548SOL    HW126543   1.823   4.214   4.373
 8548SOL    HW226544   1.863   4.213   4.215
 8549SOL     OW26545   2.938   0.460   3.912
 8549SOL    HW126546   3.013   0.396   3.930
 8549SOL    HW226547   2.875   0.461   3.989
 8550SOL     OW26548   0.315   3.255   5.003
 8550SOL    HW126549   0.389   3.225   4.943
 8550SOL    HW226550   0.339   3.235   5.098
 8551SOL     OW26551   3.322   1.866   4.029
 8551SOL    HW126552   3.250   1.935   4.020
 8551SOL    HW226553   3.402   1.908   4.073
 8552SOL     OW26554   4.235   1.260   2.162
 8552SOL    HW126555   4.226   1.358   2.148
 8552SOL    HW226556   4.224   1.239   2.259
 8553SOL     OW26557   6.011   2.812   0.536
 8553SOL    HW126558   6.073   2.815   0.615
 8553SOL    HW226559   6.053   2.758   0.463
 8554SOL     OW26560   0.346   0.786   6.808
 8554SOL    HW126561   0.366   0.875   6.766
 8554SOL    HW226562   0.402   0.715   6.764
 8555SOL     OW26563   3.375   2.128   3.839
 8555SOL    HW126564   3.276   2.139   3.847
 8555SOL    HW226565   3.401   2.130   3.742
 8556SOL     OW26566   1.235   4.075   6.002
 8556SOL    HW126567   1.239   4.079   6.101
 8556SOL    HW226568   1.279   3.991   5.970
 8557SOL     OW26569   6.000   0.161   0.401
 8557SOL    HW126570   6.053   0.246   0.397
 8557SOL    HW226571   6.026   0.102   0.324
 8558SOL     OW26572   2.774   6.186   3.624
 8558SOL    HW126573   2.852   6.160   3.568
 8558SOL    HW226574   2.689   6.176   3.572
 8559SOL     OW26575   1.578   3.180   3.182
 8559SOL    HW126576   1.651   3.216   3.240
 8559SOL    HW226577   1.575   3.080   3.189
 8560SOL     OW26578   3.378   4.576   1.629
 8560SOL    HW126579   3.455   4.608   1.684
 8560SOL    HW226580   3.326   4.508   1.681
 8561SOL     OW26581   3.587   0.784   2.596
 8561SOL    HW126582   3.592   0.727   2.678
 8561SOL    HW226583   3.525   0.861   2.613
 8562SOL     OW26584   5.582   3.643   6.004
 8562SOL    HW126585   5.592   3.697   6.087
 8562SOL    HW226586   5.655   3.668   5.939
 8563SOL     OW26587   6.834   4.069   3.648
 8563SOL    HW126588   6.755   4.109   3.602
 8563SOL    HW226589   6.909   4.060   3.583
 8564SOL     OW26590   3.947   6.275   6.738
 8564SOL    HW126591   3.999   6.217   6.800
 8564SOL    HW226592   3.866   6.311   6.786
 8565SOL     OW26593   1.292   5.097   0.595
 8565SOL    HW126594   1.289   5.117   0.693
 8565SOL    HW226595   1.208   5.129   0.552
 8566SOL     OW26596   2.529   0.667   3.546
 8566SOL    HW126597   2.617   0.640   3.507
 8566SOL    HW226598   2.459   0.665   3.475
 8567SOL     OW26599   1.952   3.469   0.433
 8567SOL    HW126600   2.040   3.508   0.459
 8567SOL    HW226601   1.882   3.540   0.433
 8568SOL     OW26602   5.487   6.961   6.557
 8568SOL    HW126603   5.389   6.942   6.552
 8568SOL    HW226604   5.513   7.017   6.477
 8569SOL     OW26605   4.232   1.917   6.452
 8569SOL    HW126606   4.132   1.909   6.450
 8569SOL    HW226607   4.272   1.862   6.379
 8570SOL     OW26608   1.752   2.199   4.131
 8570SOL    HW126609   1.661   2.234   4.152
 8570SOL    HW226610   1.745   2.111   4.085
 8571SOL     OW26611   1.631   0.736   3.702
 8571SOL    HW126612   1.574   0.784   3.769
 8571SOL    HW226613   1.723   0.724   3.740
 8572SOL     OW26614   2.380   3.133   6.107
 8572SOL    HW126615   2.442   3.096   6.037
 8572SOL    HW226616   2.289   3.145   6.068
 8573SOL     OW26617   1.767   6.362   6.225
 8573SOL    HW126618   1.862   6.337   6.245
 8573SOL    HW226619   1.743   6.331   6.133
 8574SOL     OW26620   6.286   2.551   5.560
 8574SOL    HW126621   6.223   2.595   5.624
 8574SOL    HW226622   6.365   2.515   5.611
 8575SOL     OW26623   1.861   6.667   3.792
 8575SOL    HW126624   1.901   6.576   3.784
 8575SOL    HW226625   1.790   6.679   3.722
 8576SOL     OW26626   1.235   4.105   4.253
 8576SOL    HW126627   1.325   4.149   4.251
 8576SOL    HW226628   1.239   4.024   4.312
 8577SOL     OW26629   2.056   1.353   1.155
 8577SOL    HW126630   1.998   1.424   1.115
 8577SOL    HW226631   1.999   1.279   1.190
 8578SOL     OW26632   1.870   0.760   5.869
 8578SOL    HW126633   1.934   0.743   5.944
 8578SOL    HW226634   1.905   0.833   5.810
 8579SOL     OW26635   2.840   0.080   2.874
 8579SOL    HW126636   2.840   7.009   2.915
 8579SOL    HW226637   2.833   0.149   2.946
 8580SOL     OW26638   1.129   0.311   1.929
 8580SOL    HW126639   1.043   0.332   1.884
 8580SOL    HW226640   1.154   0.386   1.990
 8581SOL     OW26641   4.090   3.330   3.665
 8581SOL    HW126642   4.085   3.263   3.591
 8581SOL    HW226643   4.103   3.282   3.752
 8582SOL     OW26644   5.556   5.582   6.398
 8582SOL    HW126645   5.632   5.546   6.452
 8582SOL    HW226646   5.484   5.615   6.458
 8583SOL     OW26647   3.698   0.188   2.100
 8583SOL    HW126648   3.640   0.216   2.176
 8583SOL    HW226649   3.772   0.255   2.088
 8584SOL     OW26650   5.271   2.574   5.823
 8584SOL    HW126651   5.200   2.531   5.767
 8584SOL    HW226652   5.232   2.606   5.909
 8585SOL     OW26653   4.710   2.716   3.139
 8585SOL    HW126654   4.751   2.802   3.169
 8585SOL    HW226655   4.712   2.650   3.215
 8586SOL     OW26656   5.785   0.118   6.054
 8586SOL    HW126657   5.697   0.152   6.022
 8586SOL    HW226658   5.858   0.177   6.018
 8587SOL     OW26659   6.689   6.561   1.355
 8587SOL    HW126660   6.672   6.651   1.316
 8587SOL    HW226661   6.643   6.491   1.299
 8588SOL     OW26662   2.101   2.237   5.795
 8588SOL    HW126663   2.193   2.243   5.834
 8588SOL    HW226664   2.107   2.225   5.696
 8589SOL     OW26665   6.057   3.333   6.397
 8589SOL    HW126666   5.966   3.360   6.365
 8589SOL    HW226667   6.077   3.240   6.365
 8590SOL     OW26668   0.648   1.354   2.832
 8590SOL    HW126669   0.705   1.293   2.887
 8590SOL    HW226670   0.557   1.315   2.821
 8591SOL     OW26671   0.676   4.338   6.085
 8591SOL    HW126672   0.671   4.321   5.986
 8591SOL    HW226673   0.767   4.374   6.108
 8592SOL     OW26674   0.225   2.528   4.606
 8592SOL    HW126675   0.171   2.519   4.689
 8592SOL    HW226676   0.275   2.444   4.589
 8593SOL     OW26677   6.338   0.803   0.553
 8593SOL    HW126678   6.421   0.835   0.598
 8593SOL    HW226679   6.276   0.764   0.621
 8594SOL     OW26680   6.298   2.474   6.935
 8594SOL    HW126681   6.375   2.529   6.901
 8594SOL    HW226682   6.213   2.525   6.923
 8595SOL     OW26683   5.833   6.374   1.943
 8595SOL    HW126684   5.856   6.314   2.020
 8595SOL    HW226685   5.815   6.466   1.976
 8596SOL     OW26686   0.764   2.787   5.990
 8596SOL    HW126687   0.719   2.795   6.079
 8596SOL    HW226688   0.701   2.819   5.919
 8597SOL     OW26689   6.178   2.183   5.540
 8597SOL    HW126690   6.223   2.268   5.514
 8597SOL    HW226691   6.158   2.185   5.638
 8598SOL     OW26692   6.379   0.596   5.418
 8598SOL    HW126693   6.473   0.587   5.386
 8598SOL    HW226694   6.350   0.511   5.462
 8599SOL     OW26695   5.884   4.498   5.216
 8599SOL    HW126696   5.960   4.504   5.281
 8599SOL    HW226697   5.837   4.411   5.228
 8600SOL     OW26698   3.628   3.188   2.022
 8600SOL    HW126699   3.580   3.129   1.958
 8600SOL    HW226700   3.606   3.161   2.116
 8601SOL     OW26701   5.124   4.383   1.421
 8601SOL    HW126702   5.062   4.371   1.499
 8601SOL    HW226703   5.186   4.459   1.439
 8602SOL     OW26704   1.788   6.171   5.354
 8602SOL    HW126705   1.704   6.214   5.321
 8602SOL    HW226706   1.838   6.236   5.411
 8603SOL     OW26707   0.605   1.154   0.534
 8603SOL    HW126708   0.539   1.220   0.569
 8603SOL    HW226709   0.608   1.159   0.434
 8604SOL     OW26710   2.100   5.957   5.888
 8604SOL    HW126711   2.082   5.889   5.817
 8604SOL    HW226712   2.158   5.916   5.959
 8605SOL     OW26713   6.788   4.867   3.928
 8605SOL    HW126714   6.740   4.923   3.996
 8605SOL    HW226715   6.824   4.785   3.972
 8606SOL     OW26716   0.589   0.444   6.216
 8606SOL    HW126717   0.628   0.513   6.277
 8606SOL    HW226718   0.540   0.489   6.142
 8607SOL     OW26719   3.372   2.707   1.878
 8607SOL    HW126720   3.430   2.676   1.803
 8607SOL    HW226721   3.276   2.691   1.856
 8608SOL     OW26722   1.066   5.397   2.445
 8608SOL    HW126723   0.974   5.361   2.456
 8608SOL    HW226724   1.125   5.360   2.518
 8609SOL     OW26725   5.192   2.209   3.882
 8609SOL    HW126726   5.224   2.304   3.882
 8609SOL    HW226727   5.125   2.197   3.955
 8610SOL     OW26728   6.888   5.287   2.149
 8610SOL    HW126729   6.857   5.327   2.235
 8610SOL    HW226730   6.987   5.275   2.151
 8611SOL     OW26731   2.191   1.627   5.287
 8611SOL    HW126732   2.121   1.650   5.356
 8611SOL    HW226733   2.266   1.692   5.295
 8612SOL     OW26734   3.321   3.070   5.933
 8612SOL    HW126735   3.261   3.122   5.993
 8612SOL    HW226736   3.329   2.976   5.967
 8613SOL     OW26737   3.589   3.180   3.523
 8613SOL    HW126738   3.676   3.228   3.538
 8613SOL    HW226739   3.541   3.222   3.445
 8614SOL     OW26740   0.207   3.247   4.071
 8614SOL    HW126741   0.210   3.299   3.986
 8614SOL    HW226742   0.137   3.176   4.064
 8615SOL     OW26743   3.962   0.583   5.088
 8615SOL    HW126744   4.006   0.503   5.129
 8615SOL    HW226745   3.985   0.664   5.141
 8616SOL     OW26746   5.951   3.954   5.165
 8616SOL    HW126747   5.915   3.939   5.073
 8616SOL    HW226748   5.885   3.921   5.232
 8617SOL     OW26749   0.877   6.940   4.155
 8617SOL    HW126750   0.783   6.963   4.129
 8617SOL    HW226751   0.881   6.921   4.253
 8618SOL     OW26752   6.916   4.931   0.396
 8618SOL    HW126753   6.832   4.902   0.351
 8618SOL    HW226754   6.896   4.999   0.466
 8619SOL     OW26755   6.049   4.494   6.513
 8619SOL    HW126756   5.988   4.416   6.530
 8619SOL    HW226757   6.000   4.564   6.462
 8620SOL     OW26758   0.934   5.956   3.967
 8620SOL    HW126759   0.849   6.008   3.981
 8620SOL    HW226760   0.998   6.011   3.913
 8621SOL     OW26761   6.220   3.494   1.585
 8621SOL    HW126762   6.249   3.551   1.661
 8621SOL    HW226763   6.172   3.550   1.517
 8622SOL     OW26764   0.997   6.423   1.678
 8622SOL    HW126765   1.079   6.411   1.623
 8622SOL    HW226766   1.010   6.381   1.768
 8623SOL     OW26767   1.734   2.232   3.486
 8623SOL    HW126768   1.746   2.284   3.401
 8623SOL    HW226769   1.654   2.173   3.478
 8624SOL     OW26770   3.008   3.618   6.022
 8624SOL    HW126771   2.928   3.651   5.971
 8624SOL    HW226772   3.070   3.570   5.960
 8625SOL     OW26773   4.432   3.337   6.220
 8625SOL    HW126774   4.399   3.357   6.128
 8625SOL    HW226775   4.357   3.300   6.275
 8626SOL     OW26776   5.297   0.910   0.166
 8626SOL    HW126777   5.323   1.002   0.135
 8626SOL    HW226778   5.288   0.850   0.087
 8627SOL     OW26779   6.908   0.108   2.261
 8627SOL    HW126780   6.938   0.108   2.166
 8627SOL    HW226781   6.988   0.111   2.322
 8628SOL     OW26782   1.053   6.446   0.546
 8628SOL    HW126783   1.025   6.513   0.615
 8628SOL    HW226784   0.972   6.399   0.511
 8629SOL     OW26785   0.104   1.177   4.535
 8629SOL    HW126786   0.143   1.119   4.606
 8629SOL    HW226787   0.177   1.209   4.475
 8630SOL     OW26788   5.332   3.201   1.917
 8630SOL    HW126789   5.259   3.268   1.906
 8630SOL    HW226790   5.308   3.117   1.870
 8631SOL     OW26791   1.378   5.872   0.359
 8631SOL    HW126792   1.296   5.915   0.399
 8631SOL    HW226793   1.418   5.809   0.426
 8632SOL     OW26794   6.132   5.903   3.392
 8632SOL    HW126795   6.044   5.940   3.419
 8632SOL    HW226796   6.124   5.804   3.377
 8633SOL     OW26797   6.394   3.972   5.916
 8633SOL    HW126798   6.406   4.038   5.842
 8633SOL    HW226799   6.479   3.923   5.933
 8634SOL     OW26800   4.795   4.713   0.102
 8634SOL    HW126801   4.712   4.665   0.130
 8634SOL    HW226802   4.851   4.652   0.046
 8635SOL     OW26803   5.499   1.528   0.180
 8635SOL    HW126804   5.497   1.628   0.192
 8635SOL    HW226805   5.469   1.506   0.087
 8636SOL     OW26806   4.783   5.800   0.143
 8636SOL    HW126807   4.758   5.897   0.144
 8636SOL    HW226808   4.880   5.790   0.165
 8637SOL     OW26809   3.379   2.751   0.898
 8637SOL    HW126810   3.402   2.665   0.851
 8637SOL    HW226811   3.361   2.822   0.830
 8638SOL     OW26812   4.694   2.308   4.062
 8638SOL    HW126813   4.637   2.250   4.120
 8638SOL    HW226814   4.783   2.263   4.047
 8639SOL     OW26815   4.128   4.255   0.636
 8639SOL    HW126816   4.071   4.263   0.554
 8639SOL    HW226817   4.103   4.173   0.687
 8640SOL     OW26818   2.895   2.749   6.546
 8640SOL    HW126819   2.953   2.671   6.521
 8640SOL    HW226820   2.812   2.716   6.590
 8641SOL     OW26821   3.325   5.186   2.968
 8641SOL    HW126822   3.359   5.126   2.896
 8641SOL    HW226823   3.307   5.132   3.050
 8642SOL     OW26824   2.558   6.519   2.805
 8642SOL    HW126825   2.584   6.488   2.714
 8642SOL    HW226826   2.535   6.617   2.802
 8643SOL     OW26827   3.612   6.416   1.289
 8643SOL    HW126828   3.660   6.483   1.233
 8643SOL    HW226829   3.570   6.347   1.230
 8644SOL     OW26830   5.387   2.136   0.193
 8644SOL    HW126831   5.338   2.113   0.109
 8644SOL    HW226832   5.377   2.234   0.212
 8645SOL     OW26833   4.753   5.662   2.598
 8645SOL    HW126834   4.736   5.598   2.673
 8645SOL    HW226835   4.833   5.632   2.546
 8646SOL     OW26836   6.063   1.639   3.969
 8646SOL    HW126837   6.021   1.720   3.930
 8646SOL    HW226838   6.039   1.559   3.914
 8647SOL     OW26839   1.719   4.258   2.087
 8647SOL    HW126840   1.721   4.291   2.181
 8647SOL    HW226841   1.775   4.318   2.029
 8648SOL     OW26842   5.976   5.546   5.974
 8648SOL    HW126843   5.985   5.530   6.072
 8648SOL    HW226844   5.880   5.565   5.952
 8649SOL     OW26845   5.336   2.665   2.205
 8649SOL    HW126846   5.350   2.610   2.287
 8649SOL    HW226847   5.254   2.722   2.217
 8650SOL     OW26848   1.026   0.963   4.922
 8650SOL    HW126849   1.042   0.875   4.968
 8650SOL    HW226850   0.929   0.986   4.928
 8651SOL     OW26851   5.035   1.272   1.451
 8651SOL    HW126852   5.025   1.178   1.481
 8651SOL    HW226853   5.128   1.304   1.468
 8652SOL     OW26854   6.119   3.129   5.030
 8652SOL    HW126855   6.176   3.060   4.986
 8652SOL    HW226856   6.150   3.143   5.124
 8653SOL     OW26857   4.541   1.033   6.825
 8653SOL    HW126858   4.556   0.975   6.905
 8653SOL    HW226859   4.626   1.043   6.774
 8654SOL     OW26860   6.704   4.518   3.808
 8654SOL    HW126861   6.695   4.510   3.709
 8654SOL    HW226862   6.788   4.567   3.830
 8655SOL     OW26863   1.637   6.986   4.495
 8655SOL    HW126864   1.596   7.000   4.585
 8655SOL    HW226865   1.659   6.889   4.483
 8656SOL     OW26866   3.491   6.270   0.169
 8656SOL    HW126867   3.455   6.306   0.255
 8656SOL    HW226868   3.543   6.342   0.122
 8657SOL     OW26869   3.003   1.775   2.409
 8657SOL    HW126870   3.007   1.829   2.493
 8657SOL    HW226871   2.924   1.713   2.413
 8658SOL     OW26872   6.139   3.945   0.842
 8658SOL    HW126873   6.053   3.958   0.793
 8658SOL    HW226874   6.192   3.872   0.797
 8659SOL     OW26875   3.197   6.739   3.704
 8659SOL    HW126876   3.236   6.703   3.789
 8659SOL    HW226877   3.097   6.744   3.713
 8660SOL     OW26878   6.904   4.695   0.997
 8660SOL    HW126879   6.807   4.706   0.977
 8660SOL    HW226880   6.924   4.737   1.085
 8661SOL     OW26881   5.722   3.283   0.959
 8661SOL    HW126882   5.773   3.369   0.959
 8661SOL    HW226883   5.715   3.248   0.866
 8662SOL     OW26884   1.816   2.746   2.068
 8662SOL    HW126885   1.738   2.691   2.041
 8662SOL    HW226886   1.787   2.842   2.079
 8663SOL     OW26887   2.821   5.567   1.617
 8663SOL    HW126888   2.727   5.535   1.623
 8663SOL    HW226889   2.872   5.536   1.697
 8664SOL     OW26890   3.211   6.177   4.444
 8664SOL    HW126891   3.136   6.195   4.507
 8664SOL    HW226892   3.213   6.246   4.372
 8665SOL     OW26893   0.764   3.255   6.471
 8665SOL    HW126894   0.730   3.170   6.429
 8665SOL    HW226895   0.694   3.291   6.533
 8666SOL     OW26896   4.424   6.917   2.962
 8666SOL    HW126897   4.327   6.894   2.961
 8666SOL    HW226898   4.477   6.835   2.938
 8667SOL     OW26899   4.324   2.337   2.047
 8667SOL    HW126900   4.378   2.409   2.004
 8667SOL    HW226901   4.288   2.276   1.976
 8668SOL     OW26902   3.568   1.818   3.403
 8668SOL    HW126903   3.478   1.780   3.381
 8668SOL    HW226904   3.617   1.837   3.318
 8669SOL     OW26905   0.525   6.094   5.743
 8669SOL    HW126906   0.623   6.076   5.753
 8669SOL    HW226907   0.510   6.193   5.741
 8670SOL     OW26908   7.009   4.980   5.070
 8670SOL    HW126909   0.024   4.913   5.003
 8670SOL    HW226910   0.039   4.970   5.156
 8671SOL     OW26911   0.020   3.354   3.280
 8671SOL    HW126912   6.982   3.284   3.321
 8671SOL    HW226913   6.989   3.403   3.209
 8672SOL     OW26914   6.586   1.237   2.116
 8672SOL    HW126915   6.560   1.169   2.185
 8672SOL    HW226916   6.655   1.198   2.055
 8673SOL     OW26917   0.429   0.899   1.907
 8673SOL    HW126918   0.387   0.853   1.829
 8673SOL    HW226919   0.361   0.913   1.979
 8674SOL     OW26920   0.418   2.792   4.203
 8674SOL    HW126921   0.409   2.752   4.294
 8674SOL    HW226922   0.344   2.760   4.144
 8675SOL     OW26923   5.635   2.450   4.743
 8675SOL    HW126924   5.536   2.437   4.733
 8675SOL    HW226925   5.678   2.361   4.760
 8676SOL     OW26926   5.145   2.949   1.170
 8676SOL    HW126927   5.153   2.972   1.266
 8676SOL    HW226928   5.227   2.898   1.141
 8677SOL     OW26929   3.091   1.489   0.007
 8677SOL    HW126930   3.027   1.440   6.969
 8677SOL    HW226931   3.076   1.588   7.017
 8678SOL     OW26932   2.591   1.808   0.165
 8678SOL    HW126933   2.491   1.814   0.156
 8678SOL    HW226934   2.620   1.713   0.156
 8679SOL     OW26935   2.169   2.139   6.580
 8679SOL    HW126936   2.212   2.190   6.506
 8679SOL    HW226937   2.169   2.042   6.558
 8680SOL     OW26938   0.007   0.067   1.379
 8680SOL    HW126939   6.947   0.058   1.438
 8680SOL    HW226940   0.040   0.161   1.382
 8681SOL     OW26941   5.614   5.765   0.956
 8681SOL    HW126942   5.514   5.764   0.951
 8681SOL    HW226943   5.644   5.845   1.009
 8682SOL     OW26944   1.637   1.994   1.955
 8682SOL    HW126945   1.683   2.056   2.017
 8682SOL    HW226946   1.688   1.908   1.949
 8683SOL     OW26947   2.465   4.733   4.502
 8683SOL    HW126948   2.491   4.822   4.464
 8683SOL    HW226949   2.385   4.698   4.454
 8684SOL     OW26950   2.208   4.043   3.492
 8684SOL    HW126951   2.230   4.141   3.493
 8684SOL    HW226952   2.232   4.005   3.403
 8685SOL     OW26953   4.699   2.940   5.387
 8685SOL    HW126954   4.613   2.887   5.389
 8685SOL    HW226955   4.766   2.895   5.446
 8686SOL     OW26956   0.821   4.913   2.191
 8686SOL    HW126957   0.904   4.938   2.141
 8686SOL    HW226958   0.741   4.925   2.132
 8687SOL     OW26959   5.630   3.156   5.624
 8687SOL    HW126960   5.579   3.241   5.634
 8687SOL    HW226961   5.575   3.090   5.574
 8688SOL     OW26962   1.308   3.267   4.319
 8688SOL    HW126963   1.210   3.276   4.336
 8688SOL    HW226964   1.326   3.280   4.221
 8689SOL     OW26965   5.187   3.680   1.228
 8689SOL    HW126966   5.107   3.620   1.233
 8689SOL    HW226967   5.246   3.665   1.307
 8690SOL     OW26968   1.286   2.319   2.298
 8690SOL    HW126969   1.311   2.360   2.211
 8690SOL    HW226970   1.310   2.381   2.373
 8691SOL     OW26971   3.691   1.375   0.030
 8691SOL    HW126972   3.738   1.341   6.969
 8691SOL    HW226973   3.617   1.313   0.055
 8692SOL     OW26974   5.596   2.266   4.332
 8692SOL    HW126975   5.532   2.325   4.382
 8692SOL    HW226976   5.572   2.268   4.235
 8693SOL     OW26977   0.971   0.371   5.467
 8693SOL    HW126978   1.040   0.383   5.539
 8693SOL    HW226979   1.012   0.390   5.378
 8694SOL     OW26980   3.421   3.651   6.279
 8694SOL    HW126981   3.408   3.749   6.263
 8694SOL    HW226982   3.423   3.634   6.377
 8695SOL     OW26983   3.792   4.291   1.221
 8695SOL    HW126984   3.760   4.197   1.233
 8695SOL    HW226985   3.879   4.291   1.171
 8696SOL     OW26986   2.660   4.465   6.407
 8696SOL    HW126987   2.605   4.402   6.353
 8696SOL    HW226988   2.724   4.413   6.464
 8697SOL     OW26989   0.985   3.083   4.443
 8697SOL    HW126990   1.060   3.038   4.490
 8697SOL    HW226991   0.905   3.023   4.442
 8698SOL     OW26992   5.601   4.673   6.876
 8698SOL    HW126993   5.531   4.629   6.932
 8698SOL    HW226994   5.561   4.751   6.828
 8699SOL     OW26995   2.057   1.945   1.431
 8699SOL    HW126996   2.006   2.024   1.397
 8699SOL    HW226997   2.008   1.904   1.508
 8700SOL     OW26998   0.326   2.550   4.924
 8700SOL    HW126999   0.377   2.474   4.884
 8700SOL    HW227000   0.228   2.532   4.915
 8701SOL     OW27001   2.718   3.032   0.118
 8701SOL    HW127002   2.812   3.048   0.087
 8701SOL    HW227003   2.664   3.115   0.105
 8702SOL     OW27004   5.455   4.377   0.708
 8702SOL    HW127005   5.373   4.415   0.749
 8702SOL    HW227006   5.500   4.446   0.652
 8703SOL     OW27007   2.231   5.392   0.769
 8703SOL    HW127008   2.230   5.405   0.670
 8703SOL    HW227009   2.271   5.472   0.812
 8704SOL     OW27010   6.697   1.334   3.620
 8704SOL    HW127011   6.758   1.268   3.575
 8704SOL    HW227012   6.696   1.317   3.719
 8705SOL     OW27013   3.680   2.463   0.184
 8705SOL    HW127014   3.726   2.377   0.162
 8705SOL    HW227015   3.688   2.480   0.283
 8706SOL     OW27016   4.815   2.654   5.174
 8706SOL    HW127017   4.842   2.705   5.256
 8706SOL    HW227018   4.809   2.716   5.096
 8707SOL     OW27019   1.899   0.832   3.783
 8707SOL    HW127020   1.982   0.777   3.786
 8707SOL    HW227021   1.923   0.929   3.783
 8708SOL     OW27022   5.638   2.232   0.825
 8708SOL    HW127023   5.731   2.224   0.860
 8708SOL    HW227024   5.573   2.196   0.892
 8709SOL     OW27025   5.995   6.125   4.270
 8709SOL    HW127026   6.032   6.081   4.188
 8709SOL    HW227027   6.064   6.121   4.343
 8710SOL     OW27028   2.373   2.842   3.734
 8710SOL    HW127029   2.470   2.851   3.710
 8710SOL    HW227030   2.364   2.831   3.833
 8711SOL     OW27031   1.012   2.223   2.352
 8711SOL    HW127032   1.101   2.268   2.356
 8711SOL    HW227033   1.019   2.131   2.392
 8712SOL     OW27034   1.456   3.733   4.186
 8712SOL    HW127035   1.500   3.823   4.175
 8712SOL    HW227036   1.440   3.716   4.283
 8713SOL     OW27037   0.120   4.753   4.261
 8713SOL    HW127038   0.173   4.752   4.346
 8713SOL    HW227039   0.062   4.835   4.259
 8714SOL     OW27040   1.253   4.101   6.277
 8714SOL    HW127041   1.245   4.189   6.325
 8714SOL    HW227042   1.235   4.027   6.341
 8715SOL     OW27043   2.134   5.005   1.407
 8715SOL    HW127044   2.128   5.095   1.449
 8715SOL    HW227045   2.106   4.935   1.474
 8716SOL     OW27046   5.035   6.918   3.252
 8716SOL    HW127047   5.082   6.862   3.320
 8716SOL    HW227048   5.001   7.002   3.295
 8717SOL     OW27049   4.373   2.360   6.889
 8717SOL    HW127050   4.335   2.292   6.953
 8717SOL    HW227051   4.412   2.312   6.810
 8718SOL     OW27052   2.544   5.451   5.835
 8718SOL    HW127053   2.522   5.497   5.921
 8718SOL    HW227054   2.642   5.459   5.817
 8719SOL     OW27055   3.094   2.170   4.502
 8719SOL    HW127056   3.107   2.265   4.530
 8719SOL    HW227057   3.180   2.133   4.467
 8720SOL     OW27058   0.412   6.829   5.167
 8720SOL    HW127059   0.409   6.921   5.127
 8720SOL    HW227060   0.407   6.836   5.267
 8721SOL     OW27061   0.471   0.189   2.040
 8721SOL    HW127062   0.520   0.112   2.080
 8721SOL    HW227063   0.440   0.251   2.112
 8722SOL     OW27064   3.919   0.983   0.228
 8722SOL    HW127065   3.901   0.898   0.277
 8722SOL    HW227066   3.957   1.050   0.292
 8723SOL     OW27067   3.750   6.418   2.861
 8723SOL    HW127068   3.827   6.355   2.847
 8723SOL    HW227069   3.664   6.367   2.850
 8724SOL     OW27070   5.685   0.281   5.386
 8724SOL    HW127071   5.669   0.380   5.382
 8724SOL    HW227072   5.598   0.233   5.382
 8725SOL     OW27073   6.818   0.804   2.563
 8725SOL    HW127074   6.757   0.830   2.637
 8725SOL    HW227075   6.796   0.856   2.481
 8726SOL     OW27076   6.952   0.463   0.950
 8726SOL    HW127077   6.979   0.367   0.943
 8726SOL    HW227078   7.011   0.518   0.891
 8727SOL     OW27079   5.063   5.312   5.869
 8727SOL    HW127080   5.147   5.341   5.914
 8727SOL    HW227081   5.029   5.228   5.911
 8728SOL     OW27082   5.005   6.850   4.046
 8728SOL    HW127083   4.944   6.883   3.974
 8728SOL    HW227084   5.084   6.804   4.005
 8729SOL     OW27085   5.791   6.019   6.191
 8729SOL    HW127086   5.753   5.944   6.245
 8729SOL    HW227087   5.718   6.065   6.141
 8730SOL     OW27088   4.130   4.910   1.696
 8730SOL    HW127089   4.078   4.994   1.684
 8730SOL    HW227090   4.224   4.925   1.668
 8731SOL     OW27091   0.118   2.935   4.290
 8731SOL    HW127092   0.070   2.977   4.213
 8731SOL    HW227093   0.074   2.848   4.313
 8732SOL     OW27094   5.072   6.812   5.545
 8732SOL    HW127095   5.112   6.721   5.538
 8732SOL    HW227096   5.070   6.840   5.641
 8733SOL     OW27097   5.848   3.909   2.251
 8733SOL    HW127098   5.895   3.991   2.284
 8733SOL    HW227099   5.882   3.885   2.160
 8734SOL     OW27100   0.175   6.484   1.543
 8734SOL    HW127101   0.153   6.390   1.517
 8734SOL    HW227102   0.105   6.546   1.508
 8735SOL     OW27103   1.643   2.046   6.996
 8735SOL    HW127104   1.649   2.108   6.918
 8735SOL    HW227105   1.684   2.089   0.057
 8736SOL     OW27106   0.473   6.050   3.851
 8736SOL    HW127107   0.444   5.959   3.823
 8736SOL    HW227108   0.509   6.047   3.944
 8737SOL     OW27109   0.853   5.860   6.825
 8737SOL    HW127110   0.891   5.928   6.888
 8737SOL    HW227111   0.754   5.856   6.837
 8738SOL     OW27112   1.748   2.203   2.647
 8738SOL    HW127113   1.831   2.224   2.595
 8738SOL    HW227114   1.753   2.250   2.736
 8739SOL     OW27115   4.337   4.916   3.464
 8739SOL    HW127116   4.412   4.901   3.529
 8739SOL    HW227117   4.289   4.830   3.448
 8740SOL     OW27118   1.689   0.868   3.472
 8740SOL    HW127119   1.707   0.966   3.476
 8740SOL    HW227120   1.677   0.832   3.565
 8741SOL     OW27121   1.981   2.629   3.002
 8741SOL    HW127122   2.017   2.548   2.955
 8741SOL    HW227123   2.006   2.626   3.098
 8742SOL     OW27124   1.704   3.179   0.622
 8742SOL    HW127125   1.677   3.187   0.718
 8742SOL    HW227126   1.658   3.100   0.581
 8743SOL     OW27127   2.013   2.908   0.282
 8743SOL    HW127128   1.954   2.974   0.237
 8743SOL    HW227129   1.994   2.907   0.380
 8744SOL     OW27130   2.872   3.927   5.468
 8744SOL    HW127131   2.971   3.917   5.456
 8744SOL    HW227132   2.836   3.845   5.513
 8745SOL     OW27133   5.493   0.988   6.534
 8745SOL    HW127134   5.475   0.904   6.483
 8745SOL    HW227135   5.559   0.968   6.607
 8746SOL     OW27136   4.476   4.703   4.053
 8746SOL    HW127137   4.539   4.736   4.124
 8746SOL    HW227138   4.382   4.711   4.086
 8747SOL     OW27139   0.070   6.801   1.386
 8747SOL    HW127140   0.043   6.894   1.361
 8747SOL    HW227141   0.031   6.736   1.320
 8748SOL     OW27142   5.983   1.814   4.931
 8748SOL    HW127143   6.036   1.744   4.884
 8748SOL    HW227144   5.992   1.901   4.882
 8749SOL     OW27145   2.223   1.719   4.149
 8749SOL    HW127146   2.304   1.700   4.094
 8749SOL    HW227147   2.222   1.816   4.174
 8750SOL     OW27148   4.137   3.709   2.337
 8750SOL    HW127149   4.049   3.728   2.380
 8750SOL    HW227150   4.201   3.782   2.359
 8751SOL     OW27151   2.061   6.522   0.016
 8751SOL    HW127152   2.055   6.468   6.952
 8751SOL    HW227153   1.972   6.524   0.061
 8752SOL     OW27154   1.690   2.513   6.872
 8752SOL    HW127155   1.602   2.533   6.917
 8752SOL    HW227156   1.741   2.598   6.860
 8753SOL     OW27157   2.177   2.024   0.941
 8753SOL    HW127158   2.096   2.083   0.937
 8753SOL    HW227159   2.258   2.077   0.917
 8754SOL     OW27160   1.783   6.240   6.824
 8754SOL    HW127161   1.729   6.281   6.751
 8754SOL    HW227162   1.765   6.287   6.910
 8755SOL     OW27163   6.846   1.304   2.023
 8755SOL    HW127164   6.905   1.223   2.012
 8755SOL    HW227165   6.900   1.386   2.003
 8756SOL     OW27166   1.770   1.551   2.200
 8756SOL    HW127167   1.784   1.471   2.142
 8756SOL    HW227168   1.788   1.526   2.296
 8757SOL     OW27169   5.411   5.791   5.599
 8757SOL    HW127170   5.445   5.801   5.693
 8757SOL    HW227171   5.452   5.709   5.558
 8758SOL     OW27172   3.707   4.916   6.374
 8758SOL    HW127173   3.617   4.921   6.331
 8758SOL    HW227174   3.697   4.894   6.471
 8759SOL     OW27175   6.378   0.816   1.432
 8759SOL    HW127176   6.431   0.900   1.446
 8759SOL    HW227177   6.293   0.838   1.383
 8760SOL     OW27178   1.539   2.295   4.353
 8760SOL    HW127179   1.585   2.224   4.406
 8760SOL    HW227180   1.515   2.372   4.413
 8761SOL     OW27181   4.980   2.718   4.193
 8761SOL    HW127182   5.011   2.716   4.288
 8761SOL    HW227183   5.043   2.774   4.139
 8762SOL     OW27184   3.913   6.166   2.218
 8762SOL    HW127185   3.973   6.133   2.145
 8762SOL    HW227186   3.859   6.243   2.184
 8763SOL     OW27187   0.201   1.986   5.380
 8763SOL    HW127188   0.158   1.932   5.452
 8763SOL    HW227189   0.242   1.925   5.312
 8764SOL     OW27190   2.205   5.598   5.986
 8764SOL    HW127191   2.106   5.588   5.990
 8764SOL    HW227192   2.239   5.560   5.900
 8765SOL     OW27193   4.595   0.470   3.834
 8765SOL    HW127194   4.612   0.420   3.919
 8765SOL    HW227195   4.672   0.458   3.772
 8766SOL     OW27196   6.706   0.459   4.646
 8766SOL    HW127197   6.718   0.556   4.625
 8766SOL    HW227198   6.612   0.432   4.628
 8767SOL     OW27199   2.068   1.184   5.131
 8767SOL    HW127200   2.091   1.233   5.215
 8767SOL    HW227201   2.031   1.094   5.153
 8768SOL     OW27202   6.973   2.414   1.040
 8768SOL    HW127203   6.922   2.458   0.966
 8768SOL    HW227204   0.012   2.343   1.003
 8769SOL     OW27205   0.101   0.171   0.425
 8769SOL    HW127206   0.188   0.217   0.440
 8769SOL    HW227207   0.059   0.207   0.342
 8770SOL     OW27208   4.750   2.042   0.682
 8770SOL    HW127209   4.659   2.044   0.641
 8770SOL    HW227210   4.819   2.053   0.610
 8771SOL     OW27211   1.193   2.220   6.786
 8771SOL    HW127212   1.258   2.282   6.830
 8771SOL    HW227213   1.145   2.166   6.855
 8772SOL     OW27214   0.315   6.763   3.847
 8772SOL    HW127215   0.247   6.828   3.812
 8772SOL    HW227216   0.369   6.728   3.770
 8773SOL     OW27217   6.593   1.606   4.153
 8773SOL    HW127218   6.586   1.528   4.214
 8773SOL    HW227219   6.562   1.688   4.200
 8774SOL     OW27220   0.739   2.061   6.727
 8774SOL    HW127221   0.699   1.973   6.753
 8774SOL    HW227222   0.739   2.122   6.807
 8775SOL     OW27223   4.210   1.784   2.317
 8775SOL    HW127224   4.147   1.862   2.307
 8775SOL    HW227225   4.279   1.788   2.244
 8776SOL     OW27226   5.838   3.175   1.176
 8776SOL    HW127227   5.757   3.186   1.234
 8776SOL    HW227228   5.812   3.184   1.080
 8777SOL     OW27229   6.527   2.152   4.164
 8777SOL    HW127230   6.463   2.207   4.110
 8777SOL    HW227231   6.620   2.187   4.151
 8778SOL     OW27232   1.998   4.734   5.783
 8778SOL    HW127233   1.910   4.696   5.813
 8778SOL    HW227234   2.069   4.711   5.850
 8779SOL     OW27235   3.407   6.391   3.585
 8779SOL    HW127236   3.375   6.301   3.613
 8779SOL    HW227237   3.363   6.417   3.498
 8780SOL     OW27238   1.050   3.361   4.403
 8780SOL    HW127239   1.023   3.275   4.445
 8780SOL    HW227240   1.031   3.357   4.305
 8781SOL     OW27241   3.724   0.990   2.328
 8781SOL    HW127242   3.742   0.892   2.322
 8781SOL    HW227243   3.699   1.024   2.237
 8782SOL     OW27244   0.353   2.661   0.282
 8782SOL    HW127245   0.419   2.589   0.302
 8782SOL    HW227246   0.359   2.686   0.186
 8783SOL     OW27247   3.514   4.407   6.501
 8783SOL    HW127248   3.611   4.426   6.515
 8783SOL    HW227249   3.502   4.355   6.416
 8784SOL     OW27250   4.198   1.878   5.950
 8784SOL    HW127251   4.114   1.842   5.910
 8784SOL    HW227252   4.187   1.884   6.050
 8785SOL     OW27253   6.373   0.155   5.854
 8785SOL    HW127254   6.433   0.193   5.924
 8785SOL    HW227255   6.279   0.150   5.891
 8786SOL     OW27256   5.094   2.253   2.727
 8786SOL    HW127257   5.039   2.255   2.644
 8786SOL    HW227258   5.081   2.338   2.778
 8787SOL     OW27259   3.078   5.346   2.551
 8787SOL    HW127260   3.063   5.389   2.640
 8787SOL    HW227261   3.145   5.398   2.499
 8788SOL     OW27262   0.145   6.997   3.791
 8788SOL    HW127263   0.054   7.019   3.828
 8788SOL    HW227264   0.144   7.008   3.691
 8789SOL     OW27265   2.509   3.774   0.364
 8789SOL    HW127266   2.565   3.843   0.318
 8789SOL    HW227267   2.536   3.767   0.460
 8790SOL     OW27268   5.102   3.148   5.316
 8790SOL    HW127269   5.187   3.195   5.291
 8790SOL    HW227270   5.123   3.053   5.340
 8791SOL     OW27271   3.849   6.992   5.500
 8791SOL    HW127272   3.897   6.953   5.579
 8791SOL    HW227273   3.912   6.997   5.422
 8792SOL     OW27274   5.238   4.553   0.755
 8792SOL    HW127275   5.277   4.623   0.814
 8792SOL    HW227276   5.189   4.596   0.678
 8793SOL     OW27277   6.307   0.826   5.297
 8793SOL    HW127278   6.255   0.825   5.211
 8793SOL    HW227279   6.302   0.736   5.339
 8794SOL     OW27280   1.044   3.154   2.896
 8794SOL    HW127281   1.073   3.223   2.962
 8794SOL    HW227282   0.946   3.161   2.880
 8795SOL     OW27283   2.179   0.555   6.561
 8795SOL    HW127284   2.253   0.499   6.598
 8795SOL    HW227285   2.218   0.634   6.513
 8796SOL     OW27286   5.997   5.006   3.800
 8796SOL    HW127287   5.963   4.920   3.838
 8796SOL    HW227288   5.922   5.072   3.794
 8797SOL     OW27289   5.830   5.730   5.715
 8797SOL    HW127290   5.799   5.664   5.784
 8797SOL    HW227291   5.758   5.744   5.647
 8798SOL     OW27292   2.030   5.436   6.802
 8798SOL    HW127293   2.112   5.427   6.859
 8798SOL    HW227294   2.056   5.462   6.709
 8799SOL     OW27295   1.181   5.986   2.093
 8799SOL    HW127296   1.251   5.916   2.111
 8799SOL    HW227297   1.167   5.994   1.994
 8800SOL     OW27298   6.799   6.446   4.783
 8800SOL    HW127299   6.841   6.389   4.853
 8800SOL    HW227300   6.865   6.464   4.710
 8801SOL     OW27301   5.488   2.897   6.565
 8801SOL    HW127302   5.474   2.963   6.639
 8801SOL    HW227303   5.513   2.808   6.604
 8802SOL     OW27304   1.096   6.929   6.786
 8802SOL    HW127305   1.049   7.017   6.777
 8802SOL    HW227306   1.183   6.932   6.737
 8803SOL     OW27307   4.508   5.084   5.368
 8803SOL    HW127308   4.442   5.136   5.313
 8803SOL    HW227309   4.486   5.095   5.465
 8804SOL     OW27310   2.300   6.289   1.506
 8804SOL    HW127311   2.320   6.250   1.417
 8804SOL    HW227312   2.384   6.289   1.562
 8805SOL     OW27313   5.093   5.320   1.108
 8805SOL    HW127314   5.157   5.394   1.085
 8805SOL    HW227315   5.064   5.275   1.023
 8806SOL     OW27316   1.694   1.327   1.853
 8806SOL    HW127317   1.709   1.321   1.952
 8806SOL    HW227318   1.735   1.412   1.819
 8807SOL     OW27319   5.300   1.366   1.805
 8807SOL    HW127320   5.345   1.306   1.871
 8807SOL    HW227321   5.290   1.458   1.845
 8808SOL     OW27322   1.708   1.371   1.051
 8808SOL    HW127323   1.787   1.433   1.053
 8808SOL    HW227324   1.631   1.416   1.096
 8809SOL     OW27325   1.123   3.351   3.062
 8809SOL    HW127326   1.056   3.422   3.086
 8809SOL    HW227327   1.154   3.306   3.145
 8810SOL     OW27328   6.431   2.615   3.602
 8810SOL    HW127329   6.374   2.654   3.674
 8810SOL    HW227330   6.403   2.520   3.585
 8811SOL     OW27331   3.636   5.882   2.588
 8811SOL    HW127332   3.638   5.950   2.516
 8811SOL    HW227333   3.725   5.880   2.635
 8812SOL     OW27334   5.522   0.612   0.383
 8812SOL    HW127335   5.539   0.661   0.298
 8812SOL    HW227336   5.436   0.644   0.424
 8813SOL     OW27337   1.866   2.783   0.997
 8813SOL    HW127338   1.961   2.804   0.974
 8813SOL    HW227339   1.807   2.809   0.920
 8814SOL     OW27340   5.940   6.990   4.929
 8814SOL    HW127341   5.874   6.923   4.894
 8814SOL    HW227342   5.900   0.061   4.924
 8815SOL     OW27343   4.428   0.448   1.147
 8815SOL    HW127344   4.423   0.516   1.074
 8815SOL    HW227345   4.345   0.392   1.146
 8816SOL     OW27346   0.365   1.039   2.527
 8816SOL    HW127347   0.458   1.002   2.526
 8816SOL    HW227348   0.306   0.982   2.584
 8817SOL     OW27349   0.831   2.521   4.415
 8817SOL    HW127350   0.784   2.597   4.370
 8817SOL    HW227351   0.816   2.438   4.362
 8818SOL     OW27352   1.396   5.473   6.451
 8818SOL    HW127353   1.449   5.404   6.401
 8818SOL    HW227354   1.318   5.502   6.395
 8819SOL     OW27355   5.898   6.523   6.841
 8819SOL    HW127356   5.942   6.603   6.801
 8819SOL    HW227357   5.801   6.543   6.855
 8820SOL     OW27358   3.594   6.613   5.704
 8820SOL    HW127359   3.597   6.624   5.803
 8820SOL    HW227360   3.595   6.703   5.660
 8821SOL     OW27361   1.655   5.158   5.332
 8821SOL    HW127362   1.656   5.253   5.299
 8821SOL    HW227363   1.570   5.114   5.302
 8822SOL     OW27364   0.396   0.799   5.343
 8822SOL    HW127365   0.328   0.820   5.413
 8822SOL    HW227366   0.401   0.874   5.277
 8823SOL     OW27367   4.561   2.368   3.246
 8823SOL    HW127368   4.622   2.421   3.186
 8823SOL    HW227369   4.528   2.426   3.320
 8824SOL     OW27370   1.266   0.244   3.851
 8824SOL    HW127371   1.279   0.166   3.790
 8824SOL    HW227372   1.225   0.320   3.800
 8825SOL     OW27373   1.624   6.613   0.262
 8825SOL    HW127374   1.564   6.534   0.254
 8825SOL    HW227375   1.574   6.695   0.234
 8826SOL     OW27376   0.854   2.991   6.887
 8826SOL    HW127377   0.925   2.922   6.901
 8826SOL    HW227378   0.856   3.057   6.962
 8827SOL     OW27379   5.301   6.009   4.083
 8827SOL    HW127380   5.340   6.100   4.074
 8827SOL    HW227381   5.202   6.015   4.088
 8828SOL     OW27382   5.079   2.413   5.686
 8828SOL    HW127383   5.069   2.314   5.688
 8828SOL    HW227384   4.994   2.456   5.719
 8829SOL     OW27385   6.343   1.077   3.125
 8829SOL    HW127386   6.315   1.108   3.216
 8829SOL    HW227387   6.333   1.152   3.060
 8830SOL     OW27388   2.213   1.843   2.960
 8830SOL    HW127389   2.294   1.821   3.014
 8830SOL    HW227390   2.215   1.940   2.935
 8831SOL     OW27391   0.823   2.489   2.428
 8831SOL    HW127392   0.904   2.463   2.482
 8831SOL    HW227393   0.851   2.549   2.354
 8832SOL     OW27394   6.254   0.230   4.985
 8832SOL    HW127395   6.301   0.249   4.899
 8832SOL    HW227396   6.250   0.131   4.999
 8833SOL     OW27397   4.948   2.771   1.021
 8833SOL    HW127398   4.929   2.812   0.931
 8833SOL    HW227399   5.022   2.822   1.066
 8834SOL     OW27400   6.228   4.253   5.463
 8834SOL    HW127401   6.182   4.340   5.446
 8834SOL    HW227402   6.160   4.182   5.476
 8835SOL     OW27403   6.543   1.138   5.007
 8835SOL    HW127404   6.568   1.233   5.026
 8835SOL    HW227405   6.520   1.091   5.092
 8836SOL     OW27406   4.424   1.716   0.248
 8836SOL    HW127407   4.335   1.741   0.286
 8836SOL    HW227408   4.480   1.673   0.318
 8837SOL     OW27409   5.907   5.145   0.374
 8837SOL    HW127410   5.973   5.135   0.300
 8837SOL    HW227411   5.814   5.139   0.336
 8838SOL     OW27412   0.807   3.246   1.616
 8838SOL    HW127413   0.903   3.219   1.625
 8838SOL    HW227414   0.750   3.164   1.601
 8839SOL     OW27415   4.679   4.535   1.688
 8839SOL    HW127416   4.660   4.549   1.785
 8839SOL    HW227417   4.699   4.623   1.645
 8840SOL     OW27418   0.335   6.798   1.435
 8840SOL    HW127419   0.238   6.815   1.419
 8840SOL    HW227420   0.346   6.742   1.518
 8841SOL     OW27421   4.972   2.106   0.156
 8841SOL    HW127422   4.872   2.101   0.159
 8841SOL    HW227423   5.010   2.015   0.171
 8842SOL     OW27424   3.681   2.869   3.750
 8842SOL    HW127425   3.590   2.894   3.716
 8842SOL    HW227426   3.677   2.851   3.848
 8843SOL     OW27427   2.430   6.311   4.962
 8843SOL    HW127428   2.384   6.267   5.040
 8843SOL    HW227429   2.408   6.408   4.961
 8844SOL     OW27430   4.123   2.789   5.344
 8844SOL    HW127431   4.142   2.697   5.309
 8844SOL    HW227432   4.079   2.843   5.273
 8845SOL     OW27433   0.505   3.716   2.437
 8845SOL    HW127434   0.466   3.686   2.350
 8845SOL    HW227435   0.553   3.803   2.423
 8846SOL     OW27436   5.781   5.365   4.213
 8846SOL    HW127437   5.722   5.289   4.240
 8846SOL    HW227438   5.845   5.335   4.143
 8847SOL     OW27439   1.187   3.090   3.514
 8847SOL    HW127440   1.285   3.085   3.496
 8847SOL    HW227441   1.159   3.185   3.519
 8848SOL     OW27442   6.034   2.567   1.186
 8848SOL    HW127443   6.027   2.477   1.142
 8848SOL    HW227444   5.955   2.622   1.160
 8849SOL     OW27445   3.812   5.396   4.607
 8849SOL    HW127446   3.793   5.329   4.679
 8849SOL    HW227447   3.735   5.460   4.600
 8850SOL     OW27448   4.840   1.928   1.181
 8850SOL    HW127449   4.871   1.835   1.199
 8850SOL    HW227450   4.850   1.948   1.084
 8851SOL     OW27451   6.611   5.013   3.074
 8851SOL    HW127452   6.711   5.010   3.062
 8851SOL    HW227453   6.575   4.919   3.071
 8852SOL     OW27454   5.622   4.247   4.723
 8852SOL    HW127455   5.620   4.189   4.805
 8852SOL    HW227456   5.659   4.195   4.646
 8853SOL     OW27457   4.469   1.778   4.061
 8853SOL    HW127458   4.475   1.824   4.149
 8853SOL    HW227459   4.374   1.775   4.031
 8854SOL     OW27460   2.743   0.432   6.667
 8854SOL    HW127461   2.697   0.373   6.732
 8854SOL    HW227462   2.694   0.519   6.660
 8855SOL     OW27463   6.808   4.524   5.738
 8855SOL    HW127464   6.835   4.545   5.644
 8855SOL    HW227465   6.708   4.527   5.745
 8856SOL     OW27466   5.233   1.957   5.841
 8856SOL    HW127467   5.255   1.965   5.938
 8856SOL    HW227468   5.285   1.881   5.802
 8857SOL     OW27469   1.434   2.829   4.635
 8857SOL    HW127470   1.501   2.853   4.705
 8857SOL    HW227471   1.376   2.755   4.668
 8858SOL     OW27472   1.167   3.214   5.619
 8858SOL    HW127473   1.193   3.148   5.689
 8858SOL    HW227474   1.082   3.259   5.645
 8859SOL     OW27475   2.841   5.319   4.870
 8859SOL    HW127476   2.812   5.361   4.783
 8859SOL    HW227477   2.832   5.386   4.943
 8860SOL     OW27478   2.192   0.743   1.845
 8860SOL    HW127479   2.151   0.689   1.772
 8860SOL    HW227480   2.281   0.778   1.815
 8861SOL     OW27481   2.366   1.202   0.212
 8861SOL    HW127482   2.314   1.119   0.192
 8861SOL    HW227483   2.310   1.282   0.193
 8862SOL     OW27484   0.458   3.416   3.857
 8862SOL    HW127485   0.541   3.424   3.800
 8862SOL    HW227486   0.388   3.367   3.806
 8863SOL     OW27487   1.566   5.867   5.298
 8863SOL    HW127488   1.535   5.819   5.216
 8863SOL    HW227489   1.523   5.957   5.302
 8864SOL     OW27490   2.142   4.118   5.176
 8864SOL    HW127491   2.047   4.092   5.163
 8864SOL    HW227492   2.202   4.050   5.134
 8865SOL     OW27493   2.970   1.955   5.886
 8865SOL    HW127494   3.037   1.881   5.893
 8865SOL    HW227495   3.018   2.043   5.882
 8866SOL     OW27496   5.294   0.495   5.554
 8866SOL    HW127497   5.392   0.514   5.551
 8866SOL    HW227498   5.247   0.569   5.603
 8867SOL     OW27499   5.592   0.749   2.670
 8867SOL    HW127500   5.569   0.843   2.695
 8867SOL    HW227501   5.508   0.694   2.667
 8868SOL     OW27502   6.159   3.009   0.274
 8868SOL    HW127503   6.169   3.070   0.196
 8868SOL    HW227504   6.077   2.953   0.263
 8869SOL     OW27505   1.810   1.789   4.036
 8869SOL    HW127506   1.887   1.771   3.975
 8869SOL    HW227507   1.748   1.855   3.993
 8870SOL     OW27508   3.694   6.422   1.732
 8870SOL    HW127509   3.771   6.481   1.706
 8870SOL    HW227510   3.682   6.351   1.663
 8871SOL     OW27511   0.857   2.404   4.053
 8871SOL    HW127512   0.901   2.409   4.143
 8871SOL    HW227513   0.909   2.458   3.988
 8872SOL     OW27514   1.256   1.329   2.514
 8872SOL    HW127515   1.259   1.230   2.521
 8872SOL    HW227516   1.163   1.359   2.495
 8873SOL     OW27517   0.395   5.616   4.701
 8873SOL    HW127518   0.318   5.573   4.749
 8873SOL    HW227519   0.481   5.580   4.737
 8874SOL     OW27520   1.345   0.935   5.520
 8874SOL    HW127521   1.288   1.014   5.544
 8874SOL    HW227522   1.336   0.865   5.591
 8875SOL     OW27523   1.373   1.001   3.884
 8875SOL    HW127524   1.455   0.963   3.927
 8875SOL    HW227525   1.337   0.935   3.818
 8876SOL     OW27526   2.911   1.368   4.674
 8876SOL    HW127527   2.879   1.431   4.603
 8876SOL    HW227528   2.833   1.337   4.729
 8877SOL     OW27529   2.529   6.782   5.431
 8877SOL    HW127530   2.552   6.879   5.438
 8877SOL    HW227531   2.470   6.756   5.508
 8878SOL     OW27532   5.322   4.162   5.751
 8878SOL    HW127533   5.249   4.226   5.727
 8878SOL    HW227534   5.405   4.186   5.700
 8879SOL     OW27535   6.406   5.720   4.433
 8879SOL    HW127536   6.356   5.805   4.452
 8879SOL    HW227537   6.499   5.727   4.469
 8880SOL     OW27538   1.384   6.899   4.890
 8880SOL    HW127539   1.289   6.913   4.864
 8880SOL    HW227540   1.403   6.949   4.975
 8881SOL     OW27541   6.857   1.638   2.219
 8881SOL    HW127542   6.909   1.619   2.302
 8881SOL    HW227543   6.840   1.736   2.211
 8882SOL     OW27544   5.282   1.636   0.470
 8882SOL    HW127545   5.369   1.595   0.444
 8882SOL    HW227546   5.276   1.643   0.569
 8883SOL     OW27547   6.091   1.271   5.407
 8883SOL    HW127548   6.026   1.337   5.366
 8883SOL    HW227549   6.070   1.179   5.374
 8884SOL     OW27550   0.452   1.459   6.587
 8884SOL    HW127551   0.454   1.488   6.491
 8884SOL    HW227552   0.405   1.371   6.595
 8885SOL     OW27553   6.268   4.038   1.835
 8885SOL    HW127554   6.333   4.034   1.760
 8885SOL    HW227555   6.198   3.969   1.823
 8886SOL     OW27556   3.081   6.078   6.043
 8886SOL    HW127557   3.013   6.096   6.113
 8886SOL    HW227558   3.123   6.164   6.014
 8887SOL     OW27559   1.718   1.016   0.393
 8887SOL    HW127560   1.627   1.005   0.432
 8887SOL    HW227561   1.738   0.940   0.330
 8888SOL     OW27562   1.795   2.414   3.233
 8888SOL    HW127563   1.753   2.352   3.167
 8888SOL    HW227564   1.894   2.401   3.233
 8889SOL     OW27565   3.157   0.969   5.488
 8889SOL    HW127566   3.162   0.885   5.434
 8889SOL    HW227567   3.168   0.947   5.585
 8890SOL     OW27568   6.328   5.521   3.808
 8890SOL    HW127569   6.277   5.457   3.865
 8890SOL    HW227570   6.306   5.506   3.712
 8891SOL     OW27571   3.247   2.101   6.183
 8891SOL    HW127572   3.289   2.112   6.273
 8891SOL    HW227573   3.317   2.077   6.116
 8892SOL     OW27574   0.784   0.569   3.041
 8892SOL    HW127575   0.869   0.537   3.084
 8892SOL    HW227576   0.805   0.604   2.949
 8893SOL     OW27577   0.203   0.564   0.795
 8893SOL    HW127578   0.125   0.589   0.739
 8893SOL    HW227579   0.246   0.647   0.832
 8894SOL     OW27580   5.265   2.477   5.479
 8894SOL    HW127581   5.281   2.393   5.427
 8894SOL    HW227582   5.204   2.458   5.555
 8895SOL     OW27583   1.147   1.191   3.371
 8895SOL    HW127584   1.109   1.173   3.462
 8895SOL    HW227585   1.246   1.176   3.372
 8896SOL     OW27586   1.387   4.053   4.568
 8896SOL    HW127587   1.391   4.149   4.594
 8896SOL    HW227588   1.309   4.038   4.508
 8897SOL     OW27589   1.232   2.327   1.673
 8897SOL    HW127590   1.282   2.403   1.632
 8897SOL    HW227591   1.148   2.361   1.716
 8898SOL     OW27592   0.590   2.327   5.567
 8898SOL    HW127593   0.610   2.416   5.607
 8898SOL    HW227594   0.491   2.313   5.565
 8899SOL     OW27595   4.103   6.578   3.299
 8899SOL    HW127596   4.112   6.675   3.324
 8899SOL    HW227597   4.021   6.566   3.244
 8900SOL     OW27598   6.482   1.806   3.586
 8900SOL    HW127599   6.432   1.777   3.668
 8900SOL    HW227600   6.538   1.729   3.553
 8901SOL     OW27601   0.904   6.809   2.301
 8901SOL    HW127602   0.878   6.824   2.205
 8901SOL    HW227603   0.822   6.784   2.353
 8902SOL     OW27604   3.968   6.492   5.934
 8902SOL    HW127605   4.026   6.459   5.859
 8902SOL    HW227606   3.935   6.583   5.913
 8903SOL     OW27607   6.684   1.200   2.960
 8903SOL    HW127608   6.743   1.274   2.991
 8903SOL    HW227609   6.716   1.165   2.872
 8904SOL     OW27610   2.078   3.952   3.699
 8904SOL    HW127611   2.134   3.992   3.627
 8904SOL    HW227612   1.987   3.933   3.663
 8905SOL     OW27613   2.188   4.615   4.845
 8905SOL    HW127614   2.278   4.600   4.804
 8905SOL    HW227615   2.164   4.536   4.901
 8906SOL     OW27616   1.731   4.887   4.110
 8906SOL    HW127617   1.795   4.879   4.186
 8906SOL    HW227618   1.646   4.839   4.132
 8907SOL     OW27619   3.783   3.015   6.411
 8907SOL    HW127620   3.710   3.051   6.353
 8907SOL    HW227621   3.745   2.946   6.473
 8908SOL     OW27622   0.374   3.472   2.859
 8908SOL    HW127623   0.473   3.480   2.871
 8908SOL    HW227624   0.327   3.528   2.926
 8909SOL     OW27625   3.514   6.723   4.859
 8909SOL    HW127626   3.582   6.693   4.926
 8909SOL    HW227627   3.530   6.819   4.835
 8910SOL     OW27628   4.655   2.728   6.696
 8910SOL    HW127629   4.595   2.762   6.768
 8910SOL    HW227630   4.600   2.691   6.621
 8911SOL     OW27631   5.287   3.446   4.439
 8911SOL    HW127632   5.318   3.385   4.512
 8911SOL    HW227633   5.256   3.532   4.479
 8912SOL     OW27634   3.909   0.753   0.408
 8912SOL    HW127635   3.927   0.680   0.473
 8912SOL    HW227636   3.931   0.721   0.315
 8913SOL     OW27637   4.263   4.020   1.306
 8913SOL    HW127638   4.306   4.005   1.216
 8913SOL    HW227639   4.332   4.008   1.377
 8914SOL     OW27640   5.526   3.598   3.400
 8914SOL    HW127641   5.522   3.655   3.318
 8914SOL    HW227642   5.459   3.524   3.392
 8915SOL     OW27643   1.204   5.460   2.002
 8915SOL    HW127644   1.204   5.405   2.086
 8915SOL    HW227645   1.298   5.474   1.971
 8916SOL     OW27646   5.574   3.183   1.338
 8916SOL    HW127647   5.510   3.150   1.407
 8916SOL    HW227648   5.533   3.176   1.247
 8917SOL     OW27649   5.864   4.236   6.017
 8917SOL    HW127650   5.789   4.203   5.961
 8917SOL    HW227651   5.950   4.196   5.984
 8918SOL     OW27652   5.103   4.304   5.702
 8918SOL    HW127653   5.071   4.218   5.664
 8918SOL    HW227654   5.039   4.377   5.677
 8919SOL     OW27655   1.930   3.261   1.029
 8919SOL    HW127656   1.928   3.351   1.072
 8919SOL    HW227657   1.899   3.192   1.094
 8920SOL     OW27658   6.090   6.155   5.759
 8920SOL    HW127659   6.170   6.095   5.756
 8920SOL    HW227660   6.062   6.168   5.854
 8921SOL     OW27661   0.580   5.436   3.197
 8921SOL    HW127662   0.668   5.417   3.240
 8921SOL    HW227663   0.585   5.521   3.145
 8922SOL     OW27664   0.520   2.473   0.409
 8922SOL    HW127665   0.563   2.465   0.499
 8922SOL    HW227666   0.492   2.383   0.377
 8923SOL     OW27667   2.086   4.716   3.852
 8923SOL    HW127668   2.003   4.686   3.900
 8923SOL    HW227669   2.122   4.798   3.897
 8924SOL     OW27670   2.167   6.427   4.597
 8924SOL    HW127671   2.229   6.350   4.608
 8924SOL    HW227672   2.085   6.412   4.652
 8925SOL     OW27673   4.491   5.609   0.878
 8925SOL    HW127674   4.534   5.530   0.920
 8925SOL    HW227675   4.405   5.629   0.925
 8926SOL     OW27676   5.586   6.634   0.479
 8926SOL    HW127677   5.585   6.726   0.440
 8926SOL    HW227678   5.493   6.609   0.509
 8927SOL     OW27679   3.004   1.921   4.953
 8927SOL    HW127680   2.995   2.000   4.893
 8927SOL    HW227681   3.019   1.953   5.047
 8928SOL     OW27682   1.952   0.161   5.233
 8928SOL    HW127683   1.995   0.251   5.241
 8928SOL    HW227684   1.965   0.126   5.140
 8929SOL     OW27685   4.826   4.590   3.105
 8929SOL    HW127686   4.876   4.521   3.158
 8929SOL    HW227687   4.877   4.611   3.022
 8930SOL     OW27688   0.359   5.531   5.329
 8930SOL    HW127689   0.443   5.567   5.368
 8930SOL    HW227690   0.375   5.439   5.294
 8931SOL     OW27691   4.980   0.860   1.929
 8931SOL    HW127692   4.984   0.794   2.004
 8931SOL    HW227693   4.924   0.938   1.956
 8932SOL     OW27694   4.168   0.844   6.694
 8932SOL    HW127695   4.174   0.896   6.779
 8932SOL    HW227696   4.089   0.784   6.697
 8933SOL     OW27697   1.935   0.295   6.060
 8933SOL    HW127698   1.839   0.275   6.040
 8933SOL    HW227699   1.951   0.290   6.158
 8934SOL     OW27700   2.808   6.410   3.780
 8934SOL    HW127701   2.714   6.443   3.774
 8934SOL    HW227702   2.816   6.322   3.732
 8935SOL     OW27703   5.638   2.107   2.141
 8935SOL    HW127704   5.649   2.197   2.098
 8935SOL    HW227705   5.542   2.091   2.162
 8936SOL     OW27706   0.628   3.939   2.316
 8936SOL    HW127707   0.563   3.995   2.265
 8936SOL    HW227708   0.690   3.894   2.253
 8937SOL     OW27709   3.790   6.033   5.451
 8937SOL    HW127710   3.742   6.046   5.364
 8937SOL    HW227711   3.748   5.957   5.500
 8938SOL     OW27712   4.814   6.453   2.438
 8938SOL    HW127713   4.730   6.479   2.485
 8938SOL    HW227714   4.877   6.531   2.436
 8939SOL     OW27715   6.517   2.874   5.779
 8939SOL    HW127716   6.464   2.919   5.707
 8939SOL    HW227717   6.490   2.778   5.786
 8940SOL     OW27718   6.334   3.703   2.888
 8940SOL    HW127719   6.383   3.776   2.840
 8940SOL    HW227720   6.237   3.708   2.866
 8941SOL     OW27721   5.560   2.418   3.701
 8941SOL    HW127722   5.628   2.478   3.658
 8941SOL    HW227723   5.530   2.349   3.636
 8942SOL     OW27724   5.140   6.108   4.350
 8942SOL    HW127725   5.125   6.130   4.254
 8942SOL    HW227726   5.215   6.163   4.386
 8943SOL     OW27727   4.621   3.570   0.254
 8943SOL    HW127728   4.525   3.551   0.273
 8943SOL    HW227729   4.678   3.499   0.294
 8944SOL     OW27730   4.560   5.776   5.684
 8944SOL    HW127731   4.472   5.825   5.679
 8944SOL    HW227732   4.566   5.728   5.771
 8945SOL     OW27733   6.718   4.270   2.002
 8945SOL    HW127734   6.736   4.182   1.958
 8945SOL    HW227735   6.687   4.254   2.096
 8946SOL     OW27736   3.730   2.097   3.650
 8946SOL    HW127737   3.653   2.131   3.596
 8946SOL    HW227738   3.726   1.997   3.655
 8947SOL     OW27739   3.217   5.333   0.737
 8947SOL    HW127740   3.135   5.312   0.685
 8947SOL    HW227741   3.272   5.250   0.747
 8948SOL     OW27742   6.145   6.978   2.908
 8948SOL    HW127743   6.198   0.032   2.949
 8948SOL    HW227744   6.148   6.985   2.809
 8949SOL     OW27745   4.201   6.379   1.103
 8949SOL    HW127746   4.138   6.301   1.098
 8949SOL    HW227747   4.295   6.345   1.114
 8950SOL     OW27748   3.554   3.598   3.902
 8950SOL    HW127749   3.564   3.606   3.803
 8950SOL    HW227750   3.642   3.576   3.943
 8951SOL     OW27751   1.032   1.062   3.612
 8951SOL    HW127752   1.032   1.105   3.702
 8951SOL    HW227753   0.937   1.051   3.580
 8952SOL     OW27754   1.581   3.964   4.121
 8952SOL    HW127755   1.677   3.963   4.093
 8952SOL    HW227756   1.564   4.046   4.176
 8953SOL     OW27757   1.767   5.562   0.282
 8953SOL    HW127758   1.764   5.550   0.381
 8953SOL    HW227759   1.856   5.535   0.247
 8954SOL     OW27760   2.333   4.139   5.637
 8954SOL    HW127761   2.275   4.217   5.614
 8954SOL    HW227762   2.402   4.127   5.566
 8955SOL     OW27763   6.318   2.320   6.074
 8955SOL    HW127764   6.297   2.250   6.006
 8955SOL    HW227765   6.412   2.310   6.106
 8956SOL     OW27766   1.002   6.495   1.111
 8956SOL    HW127767   1.079   6.441   1.077
 8956SOL    HW227768   1.005   6.586   1.070
 8957SOL     OW27769   0.586   0.310   3.852
 8957SOL    HW127770   0.536   0.229   3.822
 8957SOL    HW227771   0.547   0.344   3.938
 8958SOL     OW27772   6.848   2.972   4.587
 8958SOL    HW127773   6.816   2.938   4.676
 8958SOL    HW227774   6.944   2.997   4.594
 8959SOL     OW27775   5.555   1.348   3.551
 8959SOL    HW127776   5.484   1.416   3.534
 8959SOL    HW227777   5.600   1.324   3.465
 8960SOL     OW27778   3.906   6.010   1.809
 8960SOL    HW127779   3.931   6.020   1.905
 8960SOL    HW227780   3.811   6.035   1.795
 8961SOL     OW27781   2.360   2.547   5.277
 8961SOL    HW127782   2.364   2.526   5.375
 8961SOL    HW227783   2.301   2.480   5.232
 8962SOL     OW27784   6.530   6.050   0.844
 8962SOL    HW127785   6.489   6.092   0.762
 8962SOL    HW227786   6.507   5.953   0.846
 8963SOL     OW27787   2.370   4.987   5.832
 8963SOL    HW127788   2.379   4.946   5.742
 8963SOL    HW227789   2.458   4.985   5.879
 8964SOL     OW27790   1.058   3.692   3.890
 8964SOL    HW127791   1.082   3.604   3.931
 8964SOL    HW227792   1.053   3.762   3.962
 8965SOL     OW27793   3.179   6.318   6.481
 8965SOL    HW127794   3.139   6.236   6.522
 8965SOL    HW227795   3.242   6.291   6.408
 8966SOL     OW27796   5.009   6.520   5.262
 8966SOL    HW127797   5.105   6.539   5.285
 8966SOL    HW227798   4.973   6.453   5.327
 8967SOL     OW27799   1.905   0.168   3.109
 8967SOL    HW127800   1.862   0.093   3.159
 8967SOL    HW227801   1.910   0.145   3.012
 8968SOL     OW27802   2.524   5.615   2.317
 8968SOL    HW127803   2.572   5.590   2.401
 8968SOL    HW227804   2.436   5.568   2.313
 8969SOL     OW27805   6.609   1.239   1.165
 8969SOL    HW127806   6.552   1.320   1.156
 8969SOL    HW227807   6.551   1.159   1.185
 8970SOL     OW27808   2.613   2.344   4.761
 8970SOL    HW127809   2.591   2.392   4.845
 8970SOL    HW227810   2.587   2.400   4.682
 8971SOL     OW27811   3.246   5.983   1.070
 8971SOL    HW127812   3.223   5.929   0.989
 8971SOL    HW227813   3.174   5.972   1.139
 8972SOL     OW27814   6.517   3.704   6.177
 8972SOL    HW127815   6.601   3.755   6.159
 8972SOL    HW227816   6.521   3.663   6.268
 8973SOL     OW27817   2.857   1.928   3.435
 8973SOL    HW127818   2.913   1.903   3.356
 8973SOL    HW227819   2.771   1.879   3.432
 8974SOL     OW27820   0.875   4.850   5.786
 8974SOL    HW127821   0.808   4.924   5.775
 8974SOL    HW227822   0.827   4.763   5.797
 8975SOL     OW27823   0.947   3.797   6.242
 8975SOL    HW127824   0.933   3.867   6.172
 8975SOL    HW227825   1.036   3.755   6.230
 8976SOL     OW27826   5.629   6.695   1.592
 8976SOL    HW127827   5.620   6.606   1.548
 8976SOL    HW227828   5.607   6.686   1.689
 8977SOL     OW27829   0.470   5.332   6.279
 8977SOL    HW127830   0.500   5.303   6.370
 8977SOL    HW227831   0.498   5.426   6.263
 8978SOL     OW27832   6.800   5.030   4.853
 8978SOL    HW127833   6.717   5.069   4.891
 8978SOL    HW227834   6.845   4.974   4.922
 8979SOL     OW27835   1.864   4.515   2.954
 8979SOL    HW127836   1.784   4.512   2.895
 8979SOL    HW227837   1.925   4.588   2.926
 8980SOL     OW27838   4.958   0.845   0.411
 8980SOL    HW127839   4.944   0.881   0.319
 8980SOL    HW227840   4.981   0.748   0.405
 8981SOL     OW27841   3.991   2.220   6.967
 8981SOL    HW127842   4.005   2.314   6.934
 8981SOL    HW227843   4.016   2.156   6.895
 8982SOL     OW27844   0.607   0.553   3.451
 8982SOL    HW127845   0.540   0.515   3.514
 8982SOL    HW227846   0.699   0.529   3.481
 8983SOL     OW27847   1.244   6.244   2.059
 8983SOL    HW127848   1.323   6.288   2.100
 8983SOL    HW227849   1.206   6.178   2.123
 8984SOL     OW27850   5.814   0.973   3.749
 8984SOL    HW127851   5.900   1.024   3.742
 8984SOL    HW227852   5.832   0.879   3.777
 8985SOL     OW27853   5.025   0.991   0.634
 8985SOL    HW127854   5.016   0.941   0.548
 8985SOL    HW227855   5.016   1.090   0.617
 8986SOL     OW27856   1.078   0.193   6.336
 8986SOL    HW127857   1.077   0.131   6.257
 8986SOL    HW227858   1.172   0.207   6.366
 8987SOL     OW27859   3.240   6.640   2.975
 8987SOL    HW127860   3.322   6.583   2.984
 8987SOL    HW227861   3.235   6.705   3.050
 8988SOL     OW27862   2.473   6.579   1.019
 8988SOL    HW127863   2.431   6.670   1.008
 8988SOL    HW227864   2.402   6.514   1.045
 8989SOL     OW27865   6.501   1.622   2.453
 8989SOL    HW127866   6.572   1.558   2.424
 8989SOL    HW227867   6.507   1.706   2.398
 8990SOL     OW27868   3.937   1.846   3.026
 8990SOL    HW127869   3.887   1.915   3.078
 8990SOL    HW227870   4.021   1.822   3.075
 8991SOL     OW27871   1.696   1.813   0.794
 8991SOL    HW127872   1.779   1.757   0.792
 8991SOL    HW227873   1.683   1.856   0.704
 8992SOL     OW27874   0.959   5.547   5.324
 8992SOL    HW127875   0.956   5.647   5.328
 8992SOL    HW227876   1.004   5.512   5.406
 8993SOL     OW27877   5.390   4.510   3.708
 8993SOL    HW127878   5.399   4.610   3.715
 8993SOL    HW227879   5.480   4.469   3.698
 8994SOL     OW27880   1.193   6.423   2.422
 8994SOL    HW127881   1.179   6.522   2.421
 8994SOL    HW227882   1.104   6.377   2.422
 8995SOL     OW27883   1.803   4.150   3.718
 8995SOL    HW127884   1.833   4.126   3.626
 8995SOL    HW227885   1.876   4.202   3.763
 8996SOL     OW27886   2.756   4.023   1.679
 8996SOL    HW127887   2.786   4.115   1.706
 8996SOL    HW227888   2.835   3.967   1.657
 8997SOL     OW27889   4.218   1.529   4.464
 8997SOL    HW127890   4.196   1.443   4.511
 8997SOL    HW227891   4.140   1.558   4.409
 8998SOL     OW27892   1.242   1.181   6.332
 8998SOL    HW127893   1.196   1.095   6.354
 8998SOL    HW227894   1.335   1.179   6.369
 8999SOL     OW27895   6.113   2.883   5.268
 8999SOL    HW127896   6.204   2.924   5.274
 8999SOL    HW227897   6.089   2.869   5.172
 9000SOL     OW27898   4.456   5.073   1.446
 9000SOL    HW127899   4.391   5.101   1.376
 9000SOL    HW227900   4.549   5.081   1.410
 9001SOL     OW27901   0.808   3.385   4.226
 9001SOL    HW127902   0.863   3.354   4.150
 9001SOL    HW227903   0.714   3.403   4.195
 9002SOL     OW27904   4.849   2.754   6.230
 9002SOL    HW127905   4.752   2.771   6.209
 9002SOL    HW227906   4.858   2.663   6.271
 9003SOL     OW27907   0.726   3.838   0.117
 9003SOL    HW127908   0.734   3.762   0.181
 9003SOL    HW227909   0.644   3.891   0.138
 9004SOL     OW27910   5.281   5.674   0.172
 9004SOL    HW127911   5.349   5.626   0.115
 9004SOL    HW227912   5.321   5.759   0.207
 9005SOL     OW27913   4.652   4.228   3.914
 9005SOL    HW127914   4.556   4.254   3.906
 9005SOL    HW227915   4.678   4.227   4.011
 9006SOL     OW27916   3.501   6.299   2.335
 9006SOL    HW127917   3.407   6.331   2.347
 9006SOL    HW227918   3.531   6.252   2.418
 9007SOL     OW27919   1.932   7.008   5.452
 9007SOL    HW127920   1.943   0.057   5.380
 9007SOL    HW227921   1.897   6.924   5.411
 9008SOL     OW27922   0.109   4.754   1.490
 9008SOL    HW127923   0.158   4.668   1.504
 9008SOL    HW227924   0.168   4.818   1.440
 9009SOL     OW27925   3.882   0.039   0.116
 9009SOL    HW127926   3.974   0.040   0.153
 9009SOL    HW227927   3.821   7.011   0.179
 9010SOL     OW27928   6.937   6.316   4.957
 9010SOL    HW127929   6.943   6.222   4.922
 9010SOL    HW227930   6.920   6.314   5.055
 9011SOL     OW27931   4.617   2.617   2.391
 9011SOL    HW127932   4.551   2.573   2.330
 9011SOL    HW227933   4.672   2.682   2.339
 9012SOL     OW27934   3.932   5.053   2.210
 9012SOL    HW127935   3.922   5.130   2.274
 9012SOL    HW227936   3.841   5.019   2.185
 9013SOL     OW27937   3.487   6.748   1.426
 9013SOL    HW127938   3.419   6.676   1.415
 9013SOL    HW227939   3.496   6.798   1.339
 9014SOL     OW27940   2.162   1.657   1.970
 9014SOL    HW127941   2.127   1.668   2.063
 9014SOL    HW227942   2.134   1.734   1.914
 9015SOL     OW27943   6.271   2.191   4.665
 9015SOL    HW127944   6.289   2.273   4.720
 9015SOL    HW227945   6.286   2.212   4.568
 9016SOL     OW27946   0.388   4.657   6.581
 9016SOL    HW127947   0.450   4.721   6.626
 9016SOL    HW227948   0.294   4.679   6.605
 9017SOL     OW27949   6.107   2.547   2.469
 9017SOL    HW127950   6.149   2.459   2.445
 9017SOL    HW227951   6.147   2.619   2.412
 9018SOL     OW27952   5.133   2.109   6.714
 9018SOL    HW127953   5.151   2.012   6.732
 9018SOL    HW227954   5.193   2.141   6.640
 9019SOL     OW27955   1.862   6.017   0.262
 9019SOL    HW127956   1.956   5.994   0.284
 9019SOL    HW227957   1.809   5.933   0.248
 9020SOL     OW27958   0.696   5.149   4.698
 9020SOL    HW127959   0.663   5.068   4.746
 9020SOL    HW227960   0.761   5.198   4.755
 9021SOL     OW27961   7.004   5.250   4.786
 9021SOL    HW127962   6.967   5.161   4.811
 9021SOL    HW227963   6.992   5.266   4.688
 9022SOL     OW27964   0.894   7.011   5.871
 9022SOL    HW127965   0.867   0.041   5.954
 9022SOL    HW227966   0.948   6.931   5.896
 9023SOL     OW27967   3.920   3.871   4.058
 9023SOL    HW127968   3.883   3.889   3.967
 9023SOL    HW227969   4.005   3.819   4.049
 9024SOL     OW27970   1.526   0.013   0.319
 9024SOL    HW127971   1.427   0.005   0.306
 9024SOL    HW227972   1.548   7.018   0.415
 9025SOL     OW27973   0.433   2.721   0.824
 9025SOL    HW127974   0.394   2.655   0.888
 9025SOL    HW227975   0.418   2.813   0.859
 9026SOL     OW27976   2.651   4.305   5.842
 9026SOL    HW127977   2.567   4.332   5.888
 9026SOL    HW227978   2.629   4.252   5.760
 9027SOL     OW27979   0.782   3.178   1.940
 9027SOL    HW127980   0.739   3.125   1.867
 9027SOL    HW227981   0.826   3.258   1.901
 9028SOL     OW27982   1.480   4.320   4.738
 9028SOL    HW127983   1.383   4.298   4.751
 9028SOL    HW227984   1.513   4.372   4.817
 9029SOL     OW27985   5.314   5.321   2.926
 9029SOL    HW127986   5.273   5.399   2.973
 9029SOL    HW227987   5.252   5.243   2.928
 9030SOL     OW27988   4.898   2.615   2.582
 9030SOL    HW127989   4.981   2.637   2.634
 9030SOL    HW227990   4.818   2.632   2.639
 9031SOL     OW27991   2.949   0.941   2.416
 9031SOL    HW127992   2.906   1.024   2.381
 9031SOL    HW227993   2.911   0.919   2.506
 9032SOL     OW27994   0.118   3.852   2.787
 9032SOL    HW127995   0.196   3.887   2.735
 9032SOL    HW227996   0.089   3.765   2.747
 9033SOL     OW27997   0.916   2.757   2.365
 9033SOL    HW127998   0.855   2.785   2.440
 9033SOL    HW227999   0.870   2.771   2.278
 9034SOL     OW28000   0.908   6.895   0.389
 9034SOL    HW128001   0.832   6.960   0.381
 9034SOL    HW228002   0.981   6.923   0.327
 9035SOL     OW28003   6.002   1.419   4.555
 9035SOL    HW128004   6.078   1.409   4.490
 9035SOL    HW228005   5.973   1.514   4.557
 9036SOL     OW28006   0.299   1.367   4.442
 9036SOL    HW128007   0.394   1.367   4.411
 9036SOL    HW228008   0.288   1.432   4.517
 9037SOL     OW28009   2.516   4.316   6.204
 9037SOL    HW128010   2.579   4.238   6.206
 9037SOL    HW228011   2.424   4.283   6.187
 9038SOL     OW28012   3.794   5.920   5.836
 9038SOL    HW128013   3.755   5.964   5.917
 9038SOL    HW228014   3.743   5.835   5.817
 9039SOL     OW28015   2.739   4.952   0.406
 9039SOL    HW128016   2.751   4.989   0.498
 9039SOL    HW228017   2.644   4.962   0.378
 9040SOL     OW28018   3.486   1.582   2.507
 9040SOL    HW128019   3.512   1.660   2.451
 9040SOL    HW228020   3.387   1.576   2.513
 9041SOL     OW28021   2.399   2.685   5.029
 9041SOL    HW128022   2.389   2.660   5.125
 9041SOL    HW228023   2.415   2.784   5.022
 9042SOL     OW28024   1.667   5.073   2.570
 9042SOL    HW128025   1.576   5.034   2.563
 9042SOL    HW228026   1.688   5.124   2.486
 9043SOL     OW28027   6.989   1.961   0.016
 9043SOL    HW128028   6.984   1.875   0.066
 9043SOL    HW228029   0.029   2.024   0.066
 9044SOL     OW28030   0.957   4.243   0.700
 9044SOL    HW128031   1.016   4.186   0.757
 9044SOL    HW228032   0.912   4.186   0.632
 9045SOL     OW28033   2.006   4.882   4.917
 9045SOL    HW128034   2.070   4.855   4.989
 9045SOL    HW228035   2.058   4.903   4.834
 9046SOL     OW28036   3.833   4.130   6.098
 9046SOL    HW128037   3.835   4.178   6.186
 9046SOL    HW228038   3.924   4.095   6.077
 9047SOL     OW28039   0.709   4.978   4.217
 9047SOL    HW128040   0.720   5.067   4.173
 9047SOL    HW228041   0.757   4.979   4.305
 9048SOL     OW28042   1.372   2.372   5.478
 9048SOL    HW128043   1.350   2.394   5.383
 9048SOL    HW228044   1.322   2.433   5.539
 9049SOL     OW28045   4.279   5.815   5.623
 9049SOL    HW128046   4.278   5.743   5.553
 9049SOL    HW228047   4.239   5.898   5.585
 9050SOL     OW28048   0.186   3.714   6.923
 9050SOL    HW128049   0.202   3.801   6.875
 9050SOL    HW228050   0.222   3.720   7.016
 9051SOL     OW28051   0.361   5.722   6.226
 9051SOL    HW128052   0.278   5.685   6.185
 9051SOL    HW228053   0.441   5.689   6.177
 9052SOL     OW28054   2.185   4.967   4.710
 9052SOL    HW128055   2.259   4.938   4.771
 9052SOL    HW228056   2.224   5.010   4.629
 9053SOL     OW28057   1.299   0.181   2.697
 9053SOL    HW128058   1.252   0.094   2.686
 9053SOL    HW228059   1.279   0.239   2.618
 9054SOL     OW28060   1.161   6.923   2.220
 9054SOL    HW128061   1.194   6.980   2.145
 9054SOL    HW228062   1.070   6.888   2.199
 9055SOL     OW28063   1.337   2.713   5.224
 9055SOL    HW128064   1.326   2.802   5.269
 9055SOL    HW228065   1.432   2.684   5.230
 9056SOL     OW28066   5.241   2.412   1.553
 9056SOL    HW128067   5.163   2.349   1.548
 9056SOL    HW228068   5.213   2.496   1.601
 9057SOL     OW28069   3.567   6.711   5.959
 9057SOL    HW128070   3.531   6.800   5.933
 9057SOL    HW228071   3.571   6.705   6.059
 9058SOL     OW28072   2.099   3.150   4.128
 9058SOL    HW128073   2.070   3.138   4.034
 9058SOL    HW228074   2.092   3.063   4.177
 9059SOL     OW28075   0.329   0.622   2.640
 9059SOL    HW128076   0.393   0.644   2.713
 9059SOL    HW228077   0.329   0.524   2.624
 9060SOL     OW28078   0.234   5.224   6.926
 9060SOL    HW128079   0.268   5.223   0.000
 9060SOL    HW228080   0.219   5.130   6.895
 9061SOL     OW28081   3.680   4.861   2.481
 9061SOL    HW128082   3.777   4.849   2.506
 9061SOL    HW228083   3.671   4.860   2.382
 9062SOL     OW28084   0.126   6.312   2.853
 9062SOL    HW128085   0.208   6.369   2.860
 9062SOL    HW228086   0.119   6.276   2.759
 9063SOL     OW28087   6.134   6.691   1.046
 9063SOL    HW128088   6.130   6.629   1.124
 9063SOL    HW228089   6.041   6.711   1.014
 9064SOL     OW28090   1.371   5.742   2.807
 9064SOL    HW128091   1.374   5.842   2.813
 9064SOL    HW228092   1.330   5.705   2.891
 9065SOL     OW28093   3.467   4.174   6.662
 9065SOL    HW128094   3.461   4.190   6.760
 9065SOL    HW228095   3.485   4.261   6.615
 9066SOL     OW28096   5.409   5.221   3.289
 9066SOL    HW128097   5.443   5.188   3.201
 9066SOL    HW228098   5.310   5.232   3.283
 9067SOL     OW28099   1.819   0.018   3.978
 9067SOL    HW128100   1.819   6.942   4.003
 9067SOL    HW228101   1.754   0.034   3.904
 9068SOL     OW28102   5.372   0.695   5.264
 9068SOL    HW128103   5.421   0.675   5.179
 9068SOL    HW228104   5.311   0.619   5.285
 9069SOL     OW28105   4.726   2.353   1.661
 9069SOL    HW128106   4.677   2.267   1.645
 9069SOL    HW228107   4.746   2.396   1.573
 9070SOL     OW28108   0.958   0.957   6.696
 9070SOL    HW128109   0.992   1.047   6.725
 9070SOL    HW228110   0.862   0.949   6.724
 9071SOL     OW28111   6.022   2.728   0.184
 9071SOL    HW128112   6.058   2.765   0.098
 9071SOL    HW228113   5.923   2.713   0.175
 9072SOL     OW28114   6.107   1.065   1.701
 9072SOL    HW128115   6.123   1.003   1.624
 9072SOL    HW228116   6.080   1.012   1.781
 9073SOL     OW28117   4.932   2.302   5.948
 9073SOL    HW128118   4.905   2.222   6.003
 9073SOL    HW228119   5.022   2.286   5.908
 9074SOL     OW28120   2.003   0.573   3.420
 9074SOL    HW128121   1.961   0.622   3.344
 9074SOL    HW228122   1.990   0.475   3.409
 9075SOL     OW28123   5.177   5.584   1.052
 9075SOL    HW128124   5.106   5.652   1.065
 9075SOL    HW228125   5.223   5.565   1.140
 9076SOL     OW28126   0.847   6.505   2.690
 9076SOL    HW128127   0.787   6.538   2.617
 9076SOL    HW228128   0.876   6.412   2.669
 9077SOL     OW28129   6.500   0.939   6.488
 9077SOL    HW128130   6.548   1.018   6.451
 9077SOL    HW228131   6.511   0.936   6.587
 9078SOL     OW28132   5.105   6.781   6.396
 9078SOL    HW128133   5.142   6.815   6.482
 9078SOL    HW228134   5.181   6.757   6.335
 9079SOL     OW28135   2.219   1.874   6.486
 9079SOL    HW128136   2.240   1.877   6.389
 9079SOL    HW228137   2.127   1.835   6.499
 9080SOL     OW28138   6.592   4.879   0.524
 9080SOL    HW128139   6.615   4.918   0.613
 9080SOL    HW228140   6.565   4.783   0.536
 9081SOL     OW28141   4.788   1.268   6.776
 9081SOL    HW128142   4.809   1.170   6.774
 9081SOL    HW228143   4.748   1.292   6.864
 9082SOL     OW28144   3.097   4.436   6.827
 9082SOL    HW128145   3.142   4.423   6.916
 9082SOL    HW228146   3.134   4.517   6.782
 9083SOL     OW28147   3.745   0.546   1.071
 9083SOL    HW128148   3.791   0.458   1.083
 9083SOL    HW228149   3.652   0.541   1.108
 9084SOL     OW28150   6.850   4.620   4.765
 9084SOL    HW128151   6.856   4.699   4.704
 9084SOL    HW228152   6.876   4.647   4.857
 9085SOL     OW28153   3.245   4.823   1.674
 9085SOL    HW128154   3.290   4.745   1.632
 9085SOL    HW228155   3.156   4.838   1.631
 9086SOL     OW28156   6.962   1.524   0.367
 9086SOL    HW128157   6.927   1.447   0.421
 9086SOL    HW228158   0.016   1.569   0.417
 9087SOL     OW28159   5.071   1.452   0.323
 9087SOL    HW128160   4.999   1.520   0.337
 9087SOL    HW228161   5.159   1.489   0.354
 9088SOL     OW28162   5.085   6.667   0.702
 9088SOL    HW128163   5.055   6.584   0.655
 9088SOL    HW228164   5.157   6.645   0.767
 9089SOL     OW28165   4.902   5.694   3.039
 9089SOL    HW128166   4.833   5.749   3.086
 9089SOL    HW228167   4.973   5.755   3.002
 9090SOL     OW28168   6.299   5.064   4.954
 9090SOL    HW128169   6.290   4.996   5.027
 9090SOL    HW228170   6.211   5.076   4.908
 9091SOL     OW28171   2.028   2.162   2.105
 9091SOL    HW128172   1.989   2.072   2.082
 9091SOL    HW228173   2.119   2.170   2.065
 9092SOL     OW28174   3.114   1.773   5.371
 9092SOL    HW128175   3.143   1.680   5.348
 9092SOL    HW228176   3.015   1.775   5.387
 9093SOL     OW28177   1.955   3.747   0.620
 9093SOL    HW128178   2.028   3.743   0.689
 9093SOL    HW228179   1.884   3.810   0.650
 9094SOL     OW28180   0.203   2.470   6.597
 9094SOL    HW128181   0.243   2.407   6.532
 9094SOL    HW228182   0.231   2.445   6.690
 9095SOL     OW28183   2.503   2.537   0.369
 9095SOL    HW128184   2.513   2.438   0.354
 9095SOL    HW228185   2.426   2.570   0.314
 9096SOL     OW28186   6.941   4.124   2.548
 9096SOL    HW128187   0.011   4.112   2.507
 9096SOL    HW228188   6.935   4.071   2.632
 9097SOL     OW28189   6.727   6.091   5.773
 9097SOL    HW128190   6.721   6.066   5.677
 9097SOL    HW228191   6.817   6.066   5.809
 9098SOL     OW28192   3.588   3.541   5.514
 9098SOL    HW128193   3.628   3.457   5.550
 9098SOL    HW228194   3.493   3.524   5.487
 9099SOL     OW28195   2.083   2.548   6.698
 9099SOL    HW128196   2.059   2.451   6.697
 9099SOL    HW228197   2.133   2.571   6.615
 9100SOL     OW28198   1.560   2.379   0.954
 9100SOL    HW128199   1.639   2.410   1.007
 9100SOL    HW228200   1.560   2.279   0.951
 9101SOL     OW28201   2.693   2.154   0.435
 9101SOL    HW128202   2.749   2.234   0.459
 9101SOL    HW228203   2.630   2.178   0.361
 9102SOL     OW28204   4.415   6.062   2.424
 9102SOL    HW128205   4.482   6.056   2.498
 9102SOL    HW228206   4.336   6.116   2.456
 9103SOL     OW28207   1.700   4.186   6.347
 9103SOL    HW128208   1.776   4.136   6.389
 9103SOL    HW228209   1.655   4.127   6.280
 9104SOL     OW28210   4.361   6.511   3.151
 9104SOL    HW128211   4.283   6.545   3.204
 9104SOL    HW228212   4.443   6.514   3.207
 9105SOL     OW28213   3.333   2.525   6.075
 9105SOL    HW128214   3.340   2.624   6.083
 9105SOL    HW228215   3.291   2.501   5.988
 9106SOL     OW28216   6.747   5.483   1.112
 9106SOL    HW128217   6.675   5.539   1.153
 9106SOL    HW228218   6.821   5.472   1.178
 9107SOL     OW28219   4.502   6.761   6.661
 9107SOL    HW128220   4.589   6.756   6.611
 9107SOL    HW228221   4.503   6.842   6.720
 9108SOL     OW28222   3.556   5.829   0.756
 9108SOL    HW128223   3.469   5.792   0.722
 9108SOL    HW228224   3.594   5.767   0.825
 9109SOL     OW28225   3.238   1.654   4.447
 9109SOL    HW128226   3.203   1.562   4.463
 9109SOL    HW228227   3.244   1.703   4.534
 9110SOL     OW28228   0.162   4.045   3.846
 9110SOL    HW128229   0.098   4.119   3.824
 9110SOL    HW228230   0.225   4.076   3.918
 9111SOL     OW28231   3.637   4.376   1.697
 9111SOL    HW128232   3.588   4.302   1.743
 9111SOL    HW228233   3.604   4.464   1.731
 9112SOL     OW28234   1.018   6.526   2.167
 9112SOL    HW128235   1.011   6.583   2.249
 9112SOL    HW228236   0.980   6.436   2.185
 9113SOL     OW28237   2.441   5.833   0.293
 9113SOL    HW128238   2.447   5.899   0.369
 9113SOL    HW228239   2.435   5.883   0.207
 9114SOL     OW28240   2.816   3.742   1.673
 9114SOL    HW128241   2.868   3.775   1.752
 9114SOL    HW228242   2.780   3.651   1.693
 9115SOL     OW28243   1.399   4.513   4.133
 9115SOL    HW128244   1.467   4.443   4.111
 9115SOL    HW228245   1.388   4.575   4.055
 9116SOL     OW28246   3.696   2.376   6.616
 9116SOL    HW128247   3.618   2.371   6.554
 9116SOL    HW228248   3.665   2.412   6.704
 9117SOL     OW28249   0.910   2.592   6.845
 9117SOL    HW128250   0.898   2.667   6.909
 9117SOL    HW228251   0.976   2.618   6.774
 9118SOL     OW28252   1.104   6.946   1.352
 9118SOL    HW128253   1.029   6.945   1.418
 9118SOL    HW228254   1.117   6.853   1.316
 9119SOL     OW28255   5.618   6.959   1.038
 9119SOL    HW128256   5.603   0.029   1.079
 9119SOL    HW228257   5.665   6.969   0.950
 9120SOL     OW28258   6.099   0.114   6.861
 9120SOL    HW128259   6.162   0.191   6.869
 9120SOL    HW228260   6.006   0.148   6.845
 9121SOL     OW28261   1.448   0.947   6.392
 9121SOL    HW128262   1.391   0.903   6.322
 9121SOL    HW228263   1.444   0.895   6.477
 9122SOL     OW28264   0.388   3.274   1.138
 9122SOL    HW128265   0.310   3.267   1.201
 9122SOL    HW228266   0.461   3.212   1.167
 9123SOL     OW28267   1.379   6.840   5.938
 9123SOL    HW128268   1.368   6.775   5.862
 9123SOL    HW228269   1.383   6.790   6.024
 9124SOL     OW28270   0.156   4.105   4.618
 9124SOL    HW128271   0.086   4.076   4.683
 9124SOL    HW228272   0.130   4.076   4.526
 9125SOL     OW28273   5.074   6.061   1.240
 9125SOL    HW128274   5.167   6.031   1.221
 9125SOL    HW228275   5.071   6.110   1.327
 9126SOL     OW28276   5.551   0.596   3.558
 9126SOL    HW128277   5.523   0.678   3.608
 9126SOL    HW228278   5.647   0.577   3.578
 9127SOL     OW28279   6.298   5.216   5.905
 9127SOL    HW128280   6.326   5.232   5.810
 9127SOL    HW228281   6.361   5.151   5.948
 9128SOL     OW28282   4.837   2.971   5.153
 9128SOL    HW128283   4.793   2.973   5.243
 9128SOL    HW228284   4.924   3.020   5.157
 9129SOL     OW28285   2.942   1.076   0.553
 9129SOL    HW128286   3.013   1.144   0.569
 9129SOL    HW228287   2.897   1.094   0.465
 9130SOL     OW28288   5.648   5.493   0.880
 9130SOL    HW128289   5.634   5.576   0.934
 9130SOL    HW228290   5.575   5.428   0.899
 9131SOL     OW28291   0.668   5.031   3.501
 9131SOL    HW128292   0.743   4.977   3.461
 9131SOL    HW228293   0.646   4.994   3.592
 9132SOL     OW28294   1.332   2.945   4.152
 9132SOL    HW128295   1.239   2.968   4.179
 9132SOL    HW228296   1.385   2.920   4.233
 9133SOL     OW28297   1.279   5.146   0.876
 9133SOL    HW128298   1.230   5.093   0.945
 9133SOL    HW228299   1.251   5.242   0.881
 9134SOL     OW28300   2.938   4.801   6.014
 9134SOL    HW128301   2.889   4.883   6.043
 9134SOL    HW228302   2.878   4.721   6.021
 9135SOL     OW28303   0.849   6.834   3.008
 9135SOL    HW128304   0.886   6.766   3.072
 9135SOL    HW228305   0.911   6.845   2.931
 9136SOL     OW28306   3.818   4.952   5.175
 9136SOL    HW128307   3.854   5.045   5.168
 9136SOL    HW228308   3.806   4.928   5.271
 9137SOL     OW28309   3.635   0.047   2.728
 9137SOL    HW128310   3.547   0.019   2.690
 9137SOL    HW228311   3.645   0.146   2.719
 9138SOL     OW28312   3.332   4.576   1.081
 9138SOL    HW128313   3.302   4.660   1.128
 9138SOL    HW228314   3.252   4.521   1.058
 9139SOL     OW28315   3.897   0.373   5.548
 9139SOL    HW128316   3.904   0.350   5.645
 9139SOL    HW228317   3.837   0.307   5.501
 9140SOL     OW28318   6.676   2.307   3.586
 9140SOL    HW128319   6.703   2.332   3.493
 9140SOL    HW228320   6.705   2.380   3.649
 9141SOL     OW28321   5.065   1.233   5.449
 9141SOL    HW128322   5.109   1.149   5.417
 9141SOL    HW228323   4.973   1.211   5.483
 9142SOL     OW28324   2.097   3.310   0.198
 9142SOL    HW128325   2.086   3.372   0.119
 9142SOL    HW228326   2.072   3.359   0.282
 9143SOL     OW28327   6.354   4.315   0.375
 9143SOL    HW128328   6.341   4.398   0.320
 9143SOL    HW228329   6.364   4.236   0.315
 9144SOL     OW28330   1.104   5.910   4.224
 9144SOL    HW128331   1.146   5.819   4.216
 9144SOL    HW228332   1.044   5.925   4.145
 9145SOL     OW28333   1.734   3.176   7.008
 9145SOL    HW128334   1.649   3.156   6.959
 9145SOL    HW228335   1.739   3.119   0.070
 9146SOL     OW28336   1.009   1.897   1.718
 9146SOL    HW128337   1.050   1.985   1.740
 9146SOL    HW228338   1.081   1.835   1.685
 9147SOL     OW28339   4.099   5.216   6.376
 9147SOL    HW128340   4.161   5.223   6.455
 9147SOL    HW228341   4.025   5.153   6.397
 9148SOL     OW28342   3.531   4.933   2.843
 9148SOL    HW128343   3.619   4.886   2.850
 9148SOL    HW228344   3.497   4.925   2.749
 9149SOL     OW28345   6.082   3.551   5.274
 9149SOL    HW128346   6.117   3.460   5.296
 9149SOL    HW228347   6.151   3.602   5.223
 9150SOL     OW28348   3.789   1.391   2.744
 9150SOL    HW128349   3.843   1.387   2.828
 9150SOL    HW228350   3.801   1.307   2.692
 9151SOL     OW28351   6.033   2.965   2.164
 9151SOL    HW128352   6.014   3.006   2.075
 9151SOL    HW228353   5.967   2.892   2.183
 9152SOL     OW28354   2.143   4.958   2.640
 9152SOL    HW128355   2.045   4.938   2.645
 9152SOL    HW228356   2.159   5.032   2.575
 9153SOL     OW28357   2.060   2.651   0.350
 9153SOL    HW128358   2.106   2.668   0.437
 9153SOL    HW228359   2.020   2.736   0.316
 9154SOL     OW28360   0.973   5.095   0.500
 9154SOL    HW128361   0.882   5.126   0.529
 9154SOL    HW228362   0.994   5.134   0.411
 9155SOL     OW28363   1.935   5.041   6.989
 9155SOL    HW128364   2.033   5.022   6.999
 9155SOL    HW228365   1.882   4.968   0.013
 9156SOL     OW28366   4.936   2.722   1.584
 9156SOL    HW128367   5.026   2.705   1.623
 9156SOL    HW228368   4.907   2.815   1.606
 9157SOL     OW28369   5.766   3.973   5.378
 9157SOL    HW128370   5.793   4.000   5.471
 9157SOL    HW228371   5.667   3.956   5.376
 9158SOL     OW28372   0.868   4.314   3.581
 9158SOL    HW128373   0.802   4.270   3.520
 9158SOL    HW228374   0.959   4.313   3.539
 9159SOL     OW28375   0.157   5.535   1.672
 9159SOL    HW128376   0.208   5.530   1.586
 9159SOL    HW228377   0.220   5.561   1.745
 9160SOL     OW28378   1.010   6.768   1.039
 9160SOL    HW128379   1.025   6.856   1.084
 9160SOL    HW228380   1.094   6.738   0.994
 9161SOL     OW28381   5.444   3.331   2.129
 9161SOL    HW128382   5.542   3.343   2.112
 9161SOL    HW228383   5.400   3.295   2.046
 9162SOL     OW28384   5.003   2.659   3.657
 9162SOL    HW128385   4.998   2.642   3.755
 9162SOL    HW228386   4.955   2.586   3.608
 9163SOL     OW28387   3.647   0.706   4.849
 9163SOL    HW128388   3.604   0.733   4.763
 9163SOL    HW228389   3.625   0.772   4.920
 9164SOL     OW28390   2.866   0.822   0.949
 9164SOL    HW128391   2.941   0.783   0.895
 9164SOL    HW228392   2.818   0.749   0.996
 9165SOL     OW28393   5.369   6.032   1.152
 9165SOL    HW128394   5.389   6.044   1.055
 9165SOL    HW228395   5.452   6.003   1.200
 9166SOL     OW28396   3.029   5.068   1.069
 9166SOL    HW128397   3.008   5.062   1.167
 9166SOL    HW228398   3.085   5.148   1.051
 9167SOL     OW28399   0.476   3.698   4.600
 9167SOL    HW128400   0.489   3.629   4.529
 9167SOL    HW228401   0.561   3.749   4.613
 9168SOL     OW28402   4.138   0.663   0.636
 9168SOL    HW128403   4.057   0.609   0.658
 9168SOL    HW228404   4.138   0.747   0.690
 9169SOL     OW28405   0.620   6.906   3.796
 9169SOL    HW128406   0.627   6.929   3.893
 9169SOL    HW228407   0.624   6.806   3.785
 9170SOL     OW28408   6.463   5.704   6.968
 9170SOL    HW128409   6.506   5.792   6.951
 9170SOL    HW228410   6.374   5.718   7.012
 9171SOL     OW28411   3.877   5.652   4.751
 9171SOL    HW128412   3.868   5.712   4.671
 9171SOL    HW228413   3.840   5.562   4.729
 9172SOL     OW28414   2.378   2.090   4.067
 9172SOL    HW128415   2.374   2.179   4.022
 9172SOL    HW228416   2.285   2.058   4.084
 9173SOL     OW28417   6.929   5.228   5.124
 9173SOL    HW128418   7.019   5.270   5.133
 9173SOL    HW228419   6.938   5.132   5.097
 9174SOL     OW28420   0.107   5.541   6.332
 9174SOL    HW128421   0.167   5.594   6.392
 9174SOL    HW228422   0.081   5.598   6.253
 9175SOL     OW28423   2.053   6.318   6.208
 9175SOL    HW128424   2.100   6.399   6.242
 9175SOL    HW228425   2.105   6.236   6.234
 9176SOL     OW28426   1.454   2.816   5.959
 9176SOL    HW128427   1.539   2.771   5.988
 9176SOL    HW228428   1.438   2.798   5.862
 9177SOL     OW28429   1.675   3.873   2.874
 9177SOL    HW128430   1.696   3.854   2.970
 9177SOL    HW228431   1.590   3.829   2.849
 9178SOL     OW28432   2.087   4.087   0.229
 9178SOL    HW128433   1.995   4.122   0.209
 9178SOL    HW228434   2.130   4.147   0.297
 9179SOL     OW28435   3.027   4.446   5.418
 9179SOL    HW128436   3.042   4.506   5.496
 9179SOL    HW228437   3.011   4.501   5.336
 9180SOL     OW28438   4.971   1.352   1.850
 9180SOL    HW128439   4.932   1.365   1.941
 9180SOL    HW228440   5.070   1.368   1.854
 9181SOL     OW28441   3.789   1.140   2.583
 9181SOL    HW128442   3.877   1.100   2.608
 9181SOL    HW228443   3.767   1.114   2.489
 9182SOL     OW28444   2.386   6.839   1.503
 9182SOL    HW128445   2.409   6.920   1.449
 9182SOL    HW228446   2.448   6.764   1.479
 9183SOL     OW28447   5.327   5.160   5.753
 9183SOL    HW128448   5.297   5.250   5.722
 9183SOL    HW228449   5.324   5.096   5.676
 9184SOL     OW28450   4.790   6.992   0.193
 9184SOL    HW128451   4.756   6.897   0.194
 9184SOL    HW228452   4.867   6.999   0.130
 9185SOL     OW28453   5.053   1.206   4.880
 9185SOL    HW128454   5.096   1.282   4.833
 9185SOL    HW228455   5.022   1.235   4.970
 9186SOL     OW28456   4.708   0.842   5.880
 9186SOL    HW128457   4.626   0.824   5.826
 9186SOL    HW228458   4.757   0.919   5.840
 9187SOL     OW28459   2.191   6.218   3.209
 9187SOL    HW128460   2.148   6.211   3.299
 9187SOL    HW228461   2.261   6.289   3.211
 9188SOL     OW28462   3.029   5.205   0.593
 9188SOL    HW128463   2.934   5.226   0.617
 9188SOL    HW228464   3.052   5.113   0.625
 9189SOL     OW28465   5.365   4.521   2.092
 9189SOL    HW128466   5.357   4.452   2.020
 9189SOL    HW228467   5.284   4.518   2.150
 9190SOL     OW28468   1.529   5.916   6.525
 9190SOL    HW128469   1.585   5.993   6.495
 9190SOL    HW228470   1.503   5.929   6.621
 9191SOL     OW28471   6.685   0.712   6.196
 9191SOL    HW128472   6.678   0.751   6.288
 9191SOL    HW228473   6.757   0.758   6.144
 9192SOL     OW28474   1.040   3.539   4.983
 9192SOL    HW128475   0.975   3.472   5.018
 9192SOL    HW228476   1.018   3.630   5.018
 9193SOL     OW28477   3.996   4.074   0.782
 9193SOL    HW128478   3.913   4.091   0.730
 9193SOL    HW228479   3.994   3.981   0.818
 9194SOL     OW28480   2.986   0.589   4.237
 9194SOL    HW128481   3.078   0.556   4.214
 9194SOL    HW228482   2.918   0.529   4.194
 9195SOL     OW28483   1.896   1.134   3.555
 9195SOL    HW128484   1.959   1.066   3.516
 9195SOL    HW228485   1.911   1.140   3.653
 9196SOL     OW28486   4.889   1.264   5.884
 9196SOL    HW128487   4.869   1.288   5.979
 9196SOL    HW228488   4.984   1.287   5.864
 9197SOL     OW28489   2.886   3.684   0.545
 9197SOL    HW128490   2.931   3.689   0.456
 9197SOL    HW228491   2.808   3.621   0.540
 9198SOL     OW28492   1.060   4.212   4.952
 9198SOL    HW128493   0.978   4.262   4.981
 9198SOL    HW228494   1.120   4.197   5.031
 9199SOL     OW28495   6.060   4.840   5.060
 9199SOL    HW128496   6.062   4.854   5.158
 9199SOL    HW228497   5.965   4.824   5.031
 9200SOL     OW28498   3.292   6.755   0.418
 9200SOL    HW128499   3.287   6.844   0.463
 9200SOL    HW228500   3.316   6.767   0.322
 9201SOL     OW28501   2.134   4.479   0.847
 9201SOL    HW128502   2.135   4.470   0.947
 9201SOL    HW228503   2.183   4.402   0.807
 9202SOL     OW28504   2.928   0.920   3.561
 9202SOL    HW128505   2.946   1.018   3.554
 9202SOL    HW228506   2.845   0.906   3.615
 9203SOL     OW28507   7.010   6.265   0.969
 9203SOL    HW128508   0.052   6.337   0.997
 9203SOL    HW228509   7.011   6.257   0.869
 9204SOL     OW28510   5.922   1.028   5.477
 9204SOL    HW128511   5.859   1.004   5.403
 9204SOL    HW228512   5.872   1.035   5.563
 9205SOL     OW28513   6.999   5.129   2.371
 9205SOL    HW128514   0.049   5.171   2.313
 9205SOL    HW228515   6.934   5.199   2.400
 9206SOL     OW28516   4.056   0.015   0.518
 9206SOL    HW128517   4.125   6.986   0.570
 9206SOL    HW228518   4.075   0.113   0.522
 9207SOL     OW28519   5.574   5.677   6.132
 9207SOL    HW128520   5.595   5.639   6.222
 9207SOL    HW228521   5.541   5.771   6.143
 9208SOL     OW28522   1.064   3.294   2.187
 9208SOL    HW128523   1.083   3.281   2.090
 9208SOL    HW228524   1.041   3.206   2.229
 9209SOL     OW28525   2.520   5.978   6.558
 9209SOL    HW128526   2.543   6.030   6.476
 9209SOL    HW228527   2.557   6.024   6.638
 9210SOL     OW28528   6.374   0.294   4.191
 9210SOL    HW128529   6.460   0.328   4.154
 9210SOL    HW228530   6.328   0.368   4.240
 9211SOL     OW28531   0.888   1.678   3.079
 9211SOL    HW128532   0.813   1.661   3.143
 9211SOL    HW228533   0.968   1.710   3.130
 9212SOL     OW28534   4.427   5.117   4.822
 9212SOL    HW128535   4.452   5.213   4.820
 9212SOL    HW228536   4.487   5.068   4.885
 9213SOL     OW28537   6.116   3.898   0.187
 9213SOL    HW128538   6.107   3.828   0.258
 9213SOL    HW228539   6.185   3.868   0.121
 9214SOL     OW28540   0.070   5.582   0.378
 9214SOL    HW128541   0.129   5.505   0.357
 9214SOL    HW228542   0.060   5.591   0.477
 9215SOL     OW28543   0.919   1.520   0.783
 9215SOL    HW128544   0.988   1.584   0.816
 9215SOL    HW228545   0.964   1.439   0.745
 9216SOL     OW28546   1.864   6.780   4.040
 9216SOL    HW128547   1.871   6.777   3.940
 9216SOL    HW228548   1.884   6.689   4.077
 9217SOL     OW28549   0.552   2.086   0.859
 9217SOL    HW128550   0.626   2.085   0.927
 9217SOL    HW228551   0.590   2.085   0.767
 9218SOL     OW28552   2.588   1.082   1.305
 9218SOL    HW128553   2.650   1.084   1.226
 9218SOL    HW228554   2.566   1.175   1.332
 9219SOL     OW28555   6.419   1.428   0.715
 9219SOL    HW128556   6.391   1.511   0.763
 9219SOL    HW228557   6.361   1.413   0.635
 9220SOL     OW28558   3.455   6.328   0.443
 9220SOL    HW128559   3.516   6.285   0.510
 9220SOL    HW228560   3.473   6.426   0.441
 9221SOL     OW28561   2.820   4.751   4.731
 9221SOL    HW128562   2.831   4.701   4.817
 9221SOL    HW228563   2.760   4.830   4.747
 9222SOL     OW28564   3.188   2.480   0.034
 9222SOL    HW128565   3.112   2.531   7.016
 9222SOL    HW228566   3.267   2.541   0.046
 9223SOL     OW28567   2.741   3.108   5.316
 9223SOL    HW128568   2.785   3.018   5.326
 9223SOL    HW228569   2.646   3.096   5.288
 9224SOL     OW28570   2.322   4.592   5.128
 9224SOL    HW128571   2.317   4.503   5.173
 9224SOL    HW228572   2.375   4.583   5.043
 9225SOL     OW28573   1.639   6.309   6.582
 9225SOL    HW128574   1.649   6.298   6.483
 9225SOL    HW228575   1.546   6.284   6.609
 9226SOL     OW28576   4.876   6.249   0.967
 9226SOL    HW128577   4.970   6.231   0.938
 9226SOL    HW228578   4.854   6.189   1.045
 9227SOL     OW28579   1.201   6.359   1.521
 9227SOL    HW128580   1.234   6.300   1.594
 9227SOL    HW228581   1.177   6.303   1.441
 9228SOL     OW28582   0.773   6.314   6.052
 9228SOL    HW128583   0.730   6.363   5.976
 9228SOL    HW228584   0.702   6.270   6.107
 9229SOL     OW28585   0.902   6.061   5.289
 9229SOL    HW128586   0.876   6.050   5.193
 9229SOL    HW228587   0.826   6.033   5.347
 9230SOL     OW28588   4.896   1.512   3.278
 9230SOL    HW128589   4.819   1.573   3.260
 9230SOL    HW228590   4.981   1.565   3.282
 9231SOL     OW28591   2.077   3.252   3.463
 9231SOL    HW128592   2.147   3.180   3.470
 9231SOL    HW228593   2.085   3.313   3.541
 9232SOL     OW28594   3.833   5.426   1.029
 9232SOL    HW128595   3.762   5.423   1.100
 9232SOL    HW228596   3.857   5.521   1.010
 9233SOL     OW28597   5.886   4.308   0.180
 9233SOL    HW128598   5.860   4.304   0.277
 9233SOL    HW228599   5.811   4.345   0.127
 9234SOL     OW28600   1.604   5.973   3.750
 9234SOL    HW128601   1.637   5.889   3.791
 9234SOL    HW228602   1.613   5.967   3.650
 9235SOL     OW28603   1.140   2.760   3.207
 9235SOL    HW128604   1.107   2.701   3.134
 9235SOL    HW228605   1.097   2.850   3.200
 9236SOL     OW28606   3.567   2.670   6.314
 9236SOL    HW128607   3.643   2.678   6.379
 9236SOL    HW228608   3.574   2.743   6.246
 9237SOL     OW28609   1.498   3.683   2.804
 9237SOL    HW128610   1.462   3.721   2.719
 9237SOL    HW228611   1.427   3.631   2.851
 9238SOL     OW28612   4.373   3.552   6.801
 9238SOL    HW128613   4.384   3.552   6.701
 9238SOL    HW228614   4.402   3.641   6.837
 9239SOL     OW28615   2.025   3.133   6.264
 9239SOL    HW128616   1.983   3.218   6.298
 9239SOL    HW228617   2.102   3.108   6.322
 9240SOL     OW28618   4.551   0.901   2.401
 9240SOL    HW128619   4.508   0.890   2.490
 9240SOL    HW228620   4.626   0.836   2.391
 9241SOL     OW28621   0.530   5.809   5.269
 9241SOL    HW128622   0.569   5.724   5.234
 9241SOL    HW228623   0.457   5.840   5.209
 9242SOL     OW28624   5.073   6.881   2.118
 9242SOL    HW128625   5.086   6.924   2.029
 9242SOL    HW228626   4.979   6.847   2.125
 9243SOL     OW28627   5.512   0.012   4.868
 9243SOL    HW128628   5.533   6.983   4.783
 9243SOL    HW228629   5.434   6.989   4.912
 9244SOL     OW28630   3.678   6.588   0.677
 9244SOL    HW128631   3.646   6.527   0.749
 9244SOL    HW228632   3.769   6.623   0.700
 9245SOL     OW28633   0.553   6.975   1.397
 9245SOL    HW128634   0.599   6.888   1.380
 9245SOL    HW228635   0.455   6.959   1.411
 9246SOL     OW28636   6.475   5.154   4.021
 9246SOL    HW128637   6.565   5.165   3.978
 9246SOL    HW228638   6.486   5.154   4.121
 9247SOL     OW28639   0.969   0.664   2.810
 9247SOL    HW128640   1.052   0.609   2.801
 9247SOL    HW228641   0.950   0.710   2.723
 9248SOL     OW28642   4.616   1.508   6.358
 9248SOL    HW128643   4.617   1.478   6.453
 9248SOL    HW228644   4.527   1.489   6.318
 9249SOL     OW28645   3.986   6.519   3.886
 9249SOL    HW128646   3.938   6.518   3.798
 9249SOL    HW228647   4.004   6.425   3.916
 9250SOL     OW28648   4.937   3.822   3.161
 9250SOL    HW128649   4.951   3.727   3.133
 9250SOL    HW228650   4.920   3.825   3.260
 9251SOL     OW28651   4.012   1.972   2.309
 9251SOL    HW128652   3.962   1.982   2.223
 9251SOL    HW228653   3.966   2.024   2.381
 9252SOL     OW28654   1.457   6.762   4.660
 9252SOL    HW128655   1.496   6.678   4.623
 9252SOL    HW228656   1.473   6.767   4.758
 9253SOL     OW28657   1.360   6.923   6.358
 9253SOL    HW128658   1.421   6.963   6.289
 9253SOL    HW228659   1.265   6.941   6.333
 9254SOL     OW28660   4.773   2.412   0.802
 9254SOL    HW128661   4.725   2.487   0.756
 9254SOL    HW228662   4.851   2.383   0.746
 9255SOL     OW28663   6.970   5.180   0.137
 9255SOL    HW128664   6.954   5.196   0.040
 9255SOL    HW228665   6.905   5.111   0.171
 9256SOL     OW28666   4.226   5.231   2.725
 9256SOL    HW128667   4.251   5.238   2.822
 9256SOL    HW228668   4.158   5.158   2.714
 9257SOL     OW28669   0.629   3.316   0.821
 9257SOL    HW128670   0.531   3.329   0.841
 9257SOL    HW228671   0.647   3.220   0.800
 9258SOL     OW28672   3.442   3.002   4.587
 9258SOL    HW128673   3.498   3.050   4.655
 9258SOL    HW228674   3.366   2.956   4.633
 9259SOL     OW28675   1.709   2.106   0.358
 9259SOL    HW128676   1.721   2.021   0.307
 9259SOL    HW228677   1.648   2.167   0.307
 9260SOL     OW28678   6.682   3.698   0.168
 9260SOL    HW128679   6.621   3.634   0.120
 9260SOL    HW228680   6.698   3.665   0.261
 9261SOL     OW28681   2.586   6.896   5.779
 9261SOL    HW128682   2.572   6.835   5.858
 9261SOL    HW228683   2.505   6.892   5.720
 9262SOL     OW28684   6.162   0.210   6.570
 9262SOL    HW128685   6.097   0.286   6.568
 9262SOL    HW228686   6.120   0.131   6.614
 9263SOL     OW28687   5.812   3.640   2.798
 9263SOL    HW128688   5.744   3.571   2.821
 9263SOL    HW228689   5.776   3.731   2.818
 9264SOL     OW28690   5.605   2.215   0.547
 9264SOL    HW128691   5.621   2.203   0.645
 9264SOL    HW228692   5.515   2.180   0.523
 9265SOL     OW28693   1.879   1.890   5.245
 9265SOL    HW128694   1.802   1.946   5.275
 9265SOL    HW228695   1.897   1.906   5.148
 9266SOL     OW28696   2.971   6.671   2.631
 9266SOL    HW128697   3.042   6.736   2.605
 9266SOL    HW228698   3.001   6.578   2.610
 9267SOL     OW28699   2.554   4.916   6.023
 9267SOL    HW128700   2.616   4.860   6.077
 9267SOL    HW228701   2.543   5.005   6.066
 9268SOL     OW28702   1.234   1.191   3.075
 9268SOL    HW128703   1.183   1.197   2.989
 9268SOL    HW228704   1.175   1.148   3.145
 9269SOL     OW28705   3.958   1.395   5.218
 9269SOL    HW128706   3.919   1.335   5.287
 9269SOL    HW228707   4.055   1.373   5.205
 9270SOL     OW28708   1.947   0.452   5.287
 9270SOL    HW128709   1.906   0.539   5.314
 9270SOL    HW228710   2.047   0.458   5.297
 9271SOL     OW28711   0.418   5.259   5.237
 9271SOL    HW128712   0.425   5.205   5.320
 9271SOL    HW228713   0.371   5.206   5.166
 9272SOL     OW28714   2.305   5.113   6.311
 9272SOL    HW128715   2.208   5.091   6.326
 9272SOL    HW228716   2.362   5.038   6.342
 9273SOL     OW28717   3.394   5.515   6.424
 9273SOL    HW128718   3.492   5.524   6.404
 9273SOL    HW228719   3.356   5.604   6.446
 9274SOL     OW28720   5.035   1.653   1.879
 9274SOL    HW128721   4.976   1.715   1.930
 9274SOL    HW228722   4.980   1.579   1.840
 9275SOL     OW28723   6.537   0.273   6.019
 9275SOL    HW128724   6.519   0.361   6.064
 9275SOL    HW228725   6.581   0.211   6.083
 9276SOL     OW28726   4.883   0.212   4.448
 9276SOL    HW128727   4.870   0.122   4.489
 9276SOL    HW228728   4.980   0.233   4.445
 9277SOL     OW28729   5.144   2.539   6.731
 9277SOL    HW128730   5.172   2.610   6.666
 9277SOL    HW228731   5.047   2.518   6.718
 9278SOL     OW28732   1.348   2.635   1.278
 9278SOL    HW128733   1.255   2.640   1.241
 9278SOL    HW228734   1.380   2.727   1.300
 9279SOL     OW28735   1.998   6.863   0.644
 9279SOL    HW128736   1.905   6.842   0.673
 9279SOL    HW228737   2.053   6.891   0.722
 9280SOL     OW28738   1.865   0.712   2.255
 9280SOL    HW128739   1.797   0.675   2.192
 9280SOL    HW228740   1.869   0.812   2.244
 9281SOL     OW28741   1.905   2.539   0.135
 9281SOL    HW128742   1.951   2.565   0.220
 9281SOL    HW228743   1.962   2.568   0.058
 9282SOL     OW28744   3.852   1.066   6.169
 9282SOL    HW128745   3.759   1.098   6.153
 9282SOL    HW228746   3.917   1.136   6.141
 9283SOL     OW28747   5.631   2.355   3.130
 9283SOL    HW128748   5.622   2.372   3.032
 9283SOL    HW228749   5.542   2.331   3.169
 9284SOL     OW28750   4.022   3.923   1.874
 9284SOL    HW128751   3.987   3.850   1.933
 9284SOL    HW228752   3.946   3.978   1.839
 9285SOL     OW28753   6.275   2.626   6.600
 9285SOL    HW128754   6.224   2.559   6.546
 9285SOL    HW228755   6.285   2.592   6.694
 9286SOL     OW28756   5.265   5.327   3.965
 9286SOL    HW128757   5.322   5.250   3.936
 9286SOL    HW228758   5.189   5.293   4.021
 9287SOL     OW28759   3.395   0.020   2.602
 9287SOL    HW128760   3.421   0.060   2.514
 9287SOL    HW228761   3.332   0.081   2.649
 9288SOL     OW28762   4.413   2.111   6.769
 9288SOL    HW128763   4.437   2.174   6.696
 9288SOL    HW228764   4.373   2.028   6.730
 9289SOL     OW28765   5.662   3.753   3.013
 9289SOL    HW128766   5.656   3.657   3.040
 9289SOL    HW228767   5.738   3.797   3.062
 9290SOL     OW28768   4.119   2.291   4.299
 9290SOL    HW128769   4.083   2.295   4.206
 9290SOL    HW228770   4.043   2.297   4.364
 9291SOL     OW28771   1.034   2.684   5.062
 9291SOL    HW128772   1.124   2.660   5.099
 9291SOL    HW228773   1.001   2.610   5.002
 9292SOL     OW28774   1.004   3.711   0.231
 9292SOL    HW128775   0.995   3.628   0.177
 9292SOL    HW228776   0.944   3.782   0.194
 9293SOL     OW28777   5.358   4.022   6.384
 9293SOL    HW128778   5.390   3.946   6.439
 9293SOL    HW228779   5.431   4.052   6.322
 9294SOL     OW28780   5.630   5.901   6.385
 9294SOL    HW128781   5.562   5.829   6.400
 9294SOL    HW228782   5.696   5.901   6.460
 9295SOL     OW28783   4.838   2.954   3.209
 9295SOL    HW128784   4.847   3.005   3.123
 9295SOL    HW228785   4.905   2.987   3.275
 9296SOL     OW28786   5.952   0.532   5.241
 9296SOL    HW128787   6.030   0.519   5.180
 9296SOL    HW228788   5.873   0.481   5.206
 9297SOL     OW28789   0.292   0.371   1.779
 9297SOL    HW128790   0.252   0.410   1.696
 9297SOL    HW228791   0.338   0.285   1.757
 9298SOL     OW28792   0.428   6.726   4.768
 9298SOL    HW128793   0.342   6.686   4.799
 9298SOL    HW228794   0.459   6.680   4.685
 9299SOL     OW28795   1.714   2.614   4.502
 9299SOL    HW128796   1.617   2.608   4.478
 9299SOL    HW228797   1.724   2.614   4.601
 9300SOL     OW28798   5.888   4.693   3.550
 9300SOL    HW128799   5.921   4.779   3.510
 9300SOL    HW228800   5.922   4.616   3.496
 9301SOL     OW28801   6.664   5.208   1.438
 9301SOL    HW128802   6.660   5.307   1.454
 9301SOL    HW228803   6.727   5.166   1.503
 9302SOL     OW28804   1.579   2.251   2.442
 9302SOL    HW128805   1.656   2.262   2.506
 9302SOL    HW228806   1.531   2.166   2.461
 9303SOL     OW28807   4.741   4.304   0.578
 9303SOL    HW128808   4.650   4.331   0.609
 9303SOL    HW228809   4.803   4.302   0.656
 9304SOL     OW28810   4.721   4.044   0.723
 9304SOL    HW128811   4.751   4.066   0.630
 9304SOL    HW228812   4.714   3.945   0.734
 9305SOL     OW28813   4.580   4.279   1.663
 9305SOL    HW128814   4.627   4.366   1.676
 9305SOL    HW228815   4.509   4.269   1.732
 9306SOL     OW28816   6.946   5.945   2.997
 9306SOL    HW128817   6.865   5.896   2.966
 9306SOL    HW228818   6.981   5.902   3.080
 9307SOL     OW28819   2.201   0.699   6.028
 9307SOL    HW128820   2.270   0.745   5.972
 9307SOL    HW228821   2.236   0.610   6.057
 9308SOL     OW28822   0.232   2.404   0.652
 9308SOL    HW128823   0.248   2.325   0.594
 9308SOL    HW228824   0.205   2.482   0.596
 9309SOL     OW28825   5.012   2.853   6.750
 9309SOL    HW128826   5.008   2.770   6.694
 9309SOL    HW228827   5.065   2.923   6.702
 9310SOL     OW28828   3.748   6.683   1.419
 9310SOL    HW128829   3.783   6.686   1.326
 9310SOL    HW228830   3.649   6.697   1.419
 9311SOL     OW28831   0.087   3.327   1.253
 9311SOL    HW128832   0.136   3.358   1.335
 9311SOL    HW228833   0.021   3.256   1.279
 9312SOL     OW28834   1.875   4.130   4.561
 9312SOL    HW128835   1.872   4.064   4.636
 9312SOL    HW228836   1.842   4.219   4.595
 9313SOL     OW28837   6.323   0.204   2.752
 9313SOL    HW128838   6.319   0.197   2.852
 9313SOL    HW228839   6.262   0.136   2.712
 9314SOL     OW28840   0.025   3.715   0.173
 9314SOL    HW128841   0.026   3.714   0.273
 9314SOL    HW228842   6.959   3.675   0.141
 9315SOL     OW28843   0.612   5.582   6.162
 9315SOL    HW128844   0.663   5.608   6.244
 9315SOL    HW228845   0.658   5.618   6.081
 9316SOL     OW28846   2.816   5.060   4.419
 9316SOL    HW128847   2.860   4.998   4.355
 9316SOL    HW228848   2.856   5.048   4.510
 9317SOL     OW28849   4.344   3.958   5.736
 9317SOL    HW128850   4.245   3.968   5.731
 9317SOL    HW228851   4.367   3.862   5.754
 9318SOL     OW28852   6.726   6.608   6.077
 9318SOL    HW128853   6.728   6.512   6.102
 9318SOL    HW228854   6.744   6.618   5.979
 9319SOL     OW28855   5.934   4.085   4.605
 9319SOL    HW128856   6.009   4.026   4.573
 9319SOL    HW228857   5.965   4.136   4.685
 9320SOL     OW28858   4.101   2.732   5.849
 9320SOL    HW128859   4.171   2.737   5.778
 9320SOL    HW228860   4.022   2.786   5.822
 9321SOL     OW28861   5.325   6.931   4.297
 9321SOL    HW128862   5.416   6.934   4.256
 9321SOL    HW228863   5.259   6.903   4.228
 9322SOL     OW28864   1.249   6.041   1.081
 9322SOL    HW128865   1.300   5.962   1.048
 9322SOL    HW228866   1.151   6.019   1.083
 9323SOL     OW28867   0.747   1.029   5.980
 9323SOL    HW128868   0.654   1.051   6.010
 9323SOL    HW228869   0.787   0.962   6.043
 9324SOL     OW28870   1.213   5.418   6.917
 9324SOL    HW128871   1.280   5.453   6.852
 9324SOL    HW228872   1.238   5.447   7.010
 9325SOL     OW28873   0.608   2.709   6.810
 9325SOL    HW128874   0.684   2.644   6.809
 9325SOL    HW228875   0.561   2.707   6.721
 9326SOL     OW28876   2.131   6.097   1.877
 9326SOL    HW128877   2.189   6.086   1.958
 9326SOL    HW228878   2.189   6.115   1.798
 9327SOL     OW28879   1.718   2.139   4.486
 9327SOL    HW128880   1.773   2.221   4.472
 9327SOL    HW228881   1.778   2.064   4.514
 9328SOL     OW28882   2.400   1.099   1.980
 9328SOL    HW128883   2.402   1.184   1.928
 9328SOL    HW228884   2.313   1.091   2.028
 9329SOL     OW28885   0.887   3.821   1.412
 9329SOL    HW128886   0.848   3.910   1.435
 9329SOL    HW228887   0.932   3.826   1.322
 9330SOL     OW28888   5.374   6.277   6.735
 9330SOL    HW128889   5.284   6.318   6.748
 9330SOL    HW228890   5.397   6.276   6.638
 9331SOL     OW28891   1.187   1.294   0.594
 9331SOL    HW128892   1.164   1.301   0.691
 9331SOL    HW228893   1.224   1.381   0.562
 9332SOL     OW28894   3.785   4.043   5.438
 9332SOL    HW128895   3.870   4.040   5.387
 9332SOL    HW228896   3.781   3.967   5.502
 9333SOL     OW28897   5.259   6.419   1.244
 9333SOL    HW128898   5.277   6.516   1.224
 9333SOL    HW228899   5.175   6.391   1.199
 9334SOL     OW28900   2.048   6.711   4.924
 9334SOL    HW128901   1.952   6.686   4.935
 9334SOL    HW228902   2.083   6.749   5.010
 9335SOL     OW28903   0.434   1.882   2.400
 9335SOL    HW128904   0.348   1.869   2.449
 9335SOL    HW228905   0.431   1.830   2.315
 9336SOL     OW28906   2.831   6.877   5.145
 9336SOL    HW128907   2.907   6.840   5.199
 9336SOL    HW228908   2.810   6.969   5.176
 9337SOL     OW28909   4.621   6.442   3.278
 9337SOL    HW128910   4.705   6.407   3.237
 9337SOL    HW228911   4.642   6.483   3.366
 9338SOL     OW28912   2.148   6.786   2.373
 9338SOL    HW128913   2.137   6.886   2.377
 9338SOL    HW228914   2.206   6.756   2.449
 9339SOL     OW28915   3.656   5.490   1.587
 9339SOL    HW128916   3.597   5.412   1.610
 9339SOL    HW228917   3.616   5.574   1.626
 9340SOL     OW28918   6.732   2.989   0.183
 9340SOL    HW128919   6.827   2.959   0.171
 9340SOL    HW228920   6.671   2.910   0.176
 9341SOL     OW28921   1.030   4.204   5.858
 9341SOL    HW128922   1.123   4.176   5.879
 9341SOL    HW228923   0.991   4.253   5.936
 9342SOL     OW28924   1.492   0.552   6.901
 9342SOL    HW128925   1.507   0.559   6.999
 9342SOL    HW228926   1.524   0.635   6.856
 9343SOL     OW28927   6.201   6.303   3.501
 9343SOL    HW128928   6.152   6.230   3.455
 9343SOL    HW228929   6.147   6.387   3.498
 9344SOL     OW28930   5.326   6.240   0.628
 9344SOL    HW128931   5.413   6.193   0.641
 9344SOL    HW228932   5.285   6.211   0.542
 9345SOL     OW28933   0.735   2.200   0.634
 9345SOL    HW128934   0.820   2.181   0.682
 9345SOL    HW228935   0.719   2.298   0.629
 9346SOL     OW28936   5.958   0.171   0.782
 9346SOL    HW128937   6.003   0.178   0.693
 9346SOL    HW228938   5.976   0.254   0.835
 9347SOL     OW28939   1.809   6.333   2.508
 9347SOL    HW128940   1.899   6.352   2.470
 9347SOL    HW228941   1.808   6.359   2.605
 9348SOL     OW28942   2.838   4.962   6.977
 9348SOL    HW128943   2.779   4.985   6.899
 9348SOL    HW228944   2.901   4.888   6.951
 9349SOL     OW28945   0.948   6.247   2.907
 9349SOL    HW128946   1.010   6.168   2.906
 9349SOL    HW228947   0.904   6.256   2.818
 9350SOL     OW28948   0.424   3.166   5.704
 9350SOL    HW128949   0.511   3.158   5.654
 9350SOL    HW228950   0.369   3.084   5.687
 9351SOL     OW28951   3.092   6.676   7.018
 9351SOL    HW128952   3.055   6.584   7.010
 9351SOL    HW228953   3.039   6.739   6.961
 9352SOL     OW28954   2.739   5.079   5.581
 9352SOL    HW128955   2.670   5.009   5.561
 9352SOL    HW228956   2.812   5.038   5.636
 9353SOL     OW28957   6.400   0.564   0.927
 9353SOL    HW128958   6.301   0.567   0.942
 9353SOL    HW228959   6.422   0.485   0.869
 9354SOL     OW28960   1.206   1.177   5.560
 9354SOL    HW128961   1.204   1.234   5.478
 9354SOL    HW228962   1.179   1.232   5.639
 9355SOL     OW28963   1.035   1.621   5.432
 9355SOL    HW128964   1.072   1.680   5.360
 9355SOL    HW228965   1.088   1.632   5.515
 9356SOL     OW28966   3.496   0.189   3.986
 9356SOL    HW128967   3.571   0.123   3.989
 9356SOL    HW228968   3.534   0.281   3.973
 9357SOL     OW28969   2.083   2.387   0.508
 9357SOL    HW128970   2.093   2.453   0.433
 9357SOL    HW228971   2.015   2.318   0.482
 9358SOL     OW28972   1.219   2.085   0.831
 9358SOL    HW128973   1.297   2.127   0.785
 9358SOL    HW228974   1.251   2.035   0.912
 9359SOL     OW28975   0.703   0.608   5.663
 9359SOL    HW128976   0.699   0.707   5.647
 9359SOL    HW228977   0.621   0.565   5.625
 9360SOL     OW28978   6.475   6.937   5.880
 9360SOL    HW128979   6.561   6.989   5.878
 9360SOL    HW228980   6.399   6.999   5.897
 9361SOL     OW28981   2.226   5.486   3.899
 9361SOL    HW128982   2.250   5.568   3.951
 9361SOL    HW228983   2.306   5.428   3.890
 9362SOL     OW28984   1.922   0.369   2.484
 9362SOL    HW128985   1.963   0.357   2.575
 9362SOL    HW228986   1.910   0.279   2.442
 9363SOL     OW28987   1.770   2.655   2.340
 9363SOL    HW128988   1.783   2.718   2.264
 9363SOL    HW228989   1.857   2.608   2.359
 9364SOL     OW28990   0.603   1.855   6.837
 9364SOL    HW128991   0.537   1.865   6.762
 9364SOL    HW228992   0.629   1.759   6.845
 9365SOL     OW28993   2.611   1.411   5.096
 9365SOL    HW128994   2.521   1.395   5.055
 9365SOL    HW228995   2.653   1.491   5.054
 9366SOL     OW28996   3.141   6.591   2.219
 9366SOL    HW128997   3.042   6.579   2.217
 9366SOL    HW228998   3.169   6.644   2.139
 9367SOL     OW28999   6.640   6.886   1.744
 9367SOL    HW129000   6.652   6.789   1.723
 9367SOL    HW229001   6.546   6.901   1.775
 9368SOL     OW29002   2.382   0.639   3.298
 9368SOL    HW129003   2.424   0.549   3.285
 9368SOL    HW229004   2.408   0.699   3.223
 9369SOL     OW29005   3.923   5.008   1.035
 9369SOL    HW129006   3.879   5.087   1.079
 9369SOL    HW229007   3.985   4.965   1.101
 9370SOL     OW29008   4.586   2.473   5.168
 9370SOL    HW129009   4.654   2.545   5.183
 9370SOL    HW229010   4.619   2.408   5.100
 9371SOL     OW29011   4.191   5.029   0.688
 9371SOL    HW129012   4.144   5.108   0.649
 9371SOL    HW229013   4.289   5.035   0.670
 9372SOL     OW29014   4.983   6.782   1.181
 9372SOL    HW129015   4.902   6.833   1.154
 9372SOL    HW229016   5.011   6.809   1.273
 9373SOL     OW29017   0.529   1.973   1.679
 9373SOL    HW129018   0.508   1.877   1.696
 9373SOL    HW229019   0.452   2.017   1.633
 9374SOL     OW29020   6.782   5.105   5.966
 9374SOL    HW129021   6.707   5.167   5.943
 9374SOL    HW229022   6.825   5.134   6.051
 9375SOL     OW29023   1.768   1.588   6.724
 9375SOL    HW129024   1.755   1.627   6.815
 9375SOL    HW229025   1.866   1.584   6.703
 9376SOL     OW29026   3.291   3.981   0.464
 9376SOL    HW129027   3.339   3.902   0.426
 9376SOL    HW229028   3.257   3.958   0.555
 9377SOL     OW29029   0.827   1.250   3.277
 9377SOL    HW129030   0.897   1.317   3.301
 9377SOL    HW229031   0.851   1.161   3.316
 9378SOL     OW29032   3.791   1.063   5.258
 9378SOL    HW129033   3.794   0.983   5.318
 9378SOL    HW229034   3.800   1.146   5.312
 9379SOL     OW29035   3.832   6.915   4.996
 9379SOL    HW129036   3.763   6.907   5.068
 9379SOL    HW229037   3.859   6.823   4.965
 9380SOL     OW29038   5.316   6.333   1.495
 9380SOL    HW129039   5.262   6.379   1.565
 9380SOL    HW229040   5.286   6.364   1.405
 9381SOL     OW29041   4.592   1.046   4.962
 9381SOL    HW129042   4.677   1.048   4.910
 9381SOL    HW229043   4.541   1.130   4.945
 9382SOL     OW29044   2.966   5.467   6.612
 9382SOL    HW129045   2.949   5.564   6.594
 9382SOL    HW229046   2.929   5.412   6.537
 9383SOL     OW29047   5.764   4.234   1.329
 9383SOL    HW129048   5.693   4.165   1.345
 9383SOL    HW229049   5.852   4.188   1.318
 9384SOL     OW29050   4.202   0.264   0.823
 9384SOL    HW129051   4.160   0.176   0.800
 9384SOL    HW229052   4.238   0.306   0.740
 9385SOL     OW29053   4.117   2.298   3.985
 9385SOL    HW129054   4.181   2.368   4.017
 9385SOL    HW229055   4.107   2.305   3.886
 9386SOL     OW29056   5.670   0.186   1.196
 9386SOL    HW129057   5.660   0.213   1.292
 9386SOL    HW229058   5.765   0.200   1.167
 9387SOL     OW29059   2.851   2.305   6.426
 9387SOL    HW129060   2.855   2.319   6.525
 9387SOL    HW229061   2.915   2.233   6.399
 9388SOL     OW29062   2.176   6.406   5.349
 9388SOL    HW129063   2.115   6.381   5.424
 9388SOL    HW229064   2.122   6.419   5.266
 9389SOL     OW29065   2.232   3.837   1.970
 9389SOL    HW129066   2.187   3.865   1.885
 9389SOL    HW229067   2.251   3.739   1.968
 9390SOL     OW29068   6.072   5.636   4.115
 9390SOL    HW129069   6.060   5.578   4.196
 9390SOL    HW229070   6.164   5.674   4.114
 9391SOL     OW29071   0.290   4.979   3.929
 9391SOL    HW129072   0.191   4.988   3.936
 9391SOL    HW229073   0.328   4.960   4.020
 9392SOL     OW29074   3.369   5.336   2.210
 9392SOL    HW129075   3.424   5.395   2.270
 9392SOL    HW229076   3.284   5.384   2.185
 9393SOL     OW29077   2.207   5.182   6.948
 9393SOL    HW129078   2.237   5.132   6.867
 9393SOL    HW229079   2.257   5.267   6.955
 9394SOL     OW29080   4.755   0.462   0.161
 9394SOL    HW129081   4.655   0.456   0.170
 9394SOL    HW229082   4.784   0.406   0.084
 9395SOL     OW29083   0.728   1.140   1.445
 9395SOL    HW129084   0.752   1.089   1.362
 9395SOL    HW229085   0.629   1.139   1.458
 9396SOL     OW29086   1.152   0.969   6.463
 9396SOL    HW129087   1.125   0.928   6.376
 9396SOL    HW229088   1.078   0.959   6.530
 9397SOL     OW29089   3.508   1.533   5.839
 9397SOL    HW129090   3.514   1.438   5.868
 9397SOL    HW229091   3.513   1.593   5.918
 9398SOL     OW29092   6.788   2.654   0.120
 9398SOL    HW129093   6.724   2.592   0.074
 9398SOL    HW229094   6.858   2.682   0.056
 9399SOL     OW29095   1.389   2.452   4.951
 9399SOL    HW129096   1.424   2.543   4.930
 9399SOL    HW229097   1.320   2.426   4.884
 9400SOL     OW29098   6.023   1.504   1.102
 9400SOL    HW129099   5.975   1.501   1.015
 9400SOL    HW229100   6.102   1.443   1.099
 9401SOL     OW29101   6.897   1.980   3.634
 9401SOL    HW129102   6.813   2.000   3.584
 9401SOL    HW229103   6.976   2.012   3.581
 9402SOL     OW29104   3.665   5.803   5.526
 9402SOL    HW129105   3.633   5.758   5.443
 9402SOL    HW229106   3.586   5.831   5.581
 9403SOL     OW29107   5.732   1.912   0.993
 9403SOL    HW129108   5.654   1.974   0.998
 9403SOL    HW229109   5.709   1.826   1.039
 9404SOL     OW29110   2.812   2.811   0.658
 9404SOL    HW129111   2.898   2.761   0.663
 9404SOL    HW229112   2.816   2.878   0.584
 9405SOL     OW29113   6.071   5.599   4.914
 9405SOL    HW129114   6.161   5.564   4.938
 9405SOL    HW229115   6.075   5.647   4.827
 9406SOL     OW29116   1.700   1.091   0.691
 9406SOL    HW129117   1.769   1.135   0.634
 9406SOL    HW229118   1.620   1.070   0.635
 9407SOL     OW29119   1.999   4.591   4.642
 9407SOL    HW129120   2.060   4.580   4.720
 9407SOL    HW229121   2.042   4.653   4.575
 9408SOL     OW29122   5.725   5.136   3.592
 9408SOL    HW129123   5.759   5.165   3.681
 9408SOL    HW229124   5.796   5.084   3.545
 9409SOL     OW29125   5.926   4.841   1.433
 9409SOL    HW129126   5.845   4.857   1.377
 9409SOL    HW229127   5.985   4.775   1.388
 9410SOL     OW29128   4.365   0.054   0.645
 9410SOL    HW129129   4.339   7.013   0.719
 9410SOL    HW229130   4.433   0.119   0.678
 9411SOL     OW29131   3.717   3.885   4.877
 9411SOL    HW129132   3.730   3.974   4.920
 9411SOL    HW229133   3.767   3.882   4.791
 9412SOL     OW29134   4.164   6.674   1.791
 9412SOL    HW129135   4.188   6.770   1.777
 9412SOL    HW229136   4.094   6.666   1.862
 9413SOL     OW29137   4.002   5.048   2.900
 9413SOL    HW129138   4.067   5.027   2.827
 9413SOL    HW229139   3.921   4.991   2.889
 9414SOL     OW29140   2.320   0.869   2.545
 9414SOL    HW129141   2.345   0.882   2.449
 9414SOL    HW229142   2.337   0.954   2.596
 9415SOL     OW29143   5.113   0.793   0.800
 9415SOL    HW129144   5.113   0.873   0.740
 9415SOL    HW229145   5.058   0.720   0.760
 9416SOL     OW29146   6.527   4.480   5.775
 9416SOL    HW129147   6.541   4.525   5.863
 9416SOL    HW229148   6.496   4.386   5.790
 9417SOL     OW29149   3.859   6.057   3.378
 9417SOL    HW129150   3.792   6.017   3.441
 9417SOL    HW229151   3.946   6.008   3.386
 9418SOL     OW29152   2.692   2.151   5.010
 9418SOL    HW129153   2.715   2.190   5.099
 9418SOL    HW229154   2.675   2.224   4.944
 9419SOL     OW29155   2.866   2.662   6.062
 9419SOL    HW129156   2.794   2.688   5.997
 9419SOL    HW229157   2.826   2.617   6.141
 9420SOL     OW29158   5.329   3.480   6.064
 9420SOL    HW129159   5.397   3.549   6.039
 9420SOL    HW229160   5.331   3.405   5.998
 9421SOL     OW29161   3.904   6.522   0.082
 9421SOL    HW129162   3.947   6.557   0.165
 9421SOL    HW229163   3.944   6.567   0.002
 9422SOL     OW29164   2.098   6.581   5.962
 9422SOL    HW129165   2.082   6.563   5.865
 9422SOL    HW229166   2.042   6.521   6.017
 9423SOL     OW29167   5.090   4.948   0.799
 9423SOL    HW129168   5.104   4.888   0.878
 9423SOL    HW229169   5.010   4.917   0.748
 9424SOL     OW29170   6.236   6.888   3.806
 9424SOL    HW129171   6.246   6.882   3.906
 9424SOL    HW229172   6.263   6.801   3.765
 9425SOL     OW29173   0.191   5.583   1.313
 9425SOL    HW129174   0.268   5.540   1.359
 9425SOL    HW229175   0.184   5.679   1.341
 9426SOL     OW29176   4.736   1.519   5.820
 9426SOL    HW129177   4.765   1.588   5.887
 9426SOL    HW229178   4.768   1.429   5.848
 9427SOL     OW29179   3.131   5.775   2.048
 9427SOL    HW129180   3.033   5.765   2.034
 9427SOL    HW229181   3.156   5.872   2.041
 9428SOL     OW29182   0.143   6.470   4.973
 9428SOL    HW129183   0.063   6.411   4.967
 9428SOL    HW229184   0.219   6.428   4.924
 9429SOL     OW29185   2.926   2.152   4.109
 9429SOL    HW129186   2.906   2.231   4.051
 9429SOL    HW229187   2.900   2.172   4.203
 9430SOL     OW29188   1.188   0.182   3.525
 9430SOL    HW129189   1.202   0.083   3.530
 9430SOL    HW229190   1.100   0.201   3.481
 9431SOL     OW29191   1.390   5.067   5.356
 9431SOL    HW129192   1.427   5.021   5.437
 9431SOL    HW229193   1.344   5.001   5.298
 9432SOL     OW29194   6.851   1.708   2.733
 9432SOL    HW129195   6.765   1.745   2.698
 9432SOL    HW229196   6.889   1.771   2.802
 9433SOL     OW29197   4.144   5.611   1.565
 9433SOL    HW129198   4.126   5.693   1.620
 9433SOL    HW229199   4.243   5.604   1.548
 9434SOL     OW29200   5.116   5.884   4.923
 9434SOL    HW129201   5.050   5.958   4.931
 9434SOL    HW229202   5.130   5.861   4.826
 9435SOL     OW29203   6.684   3.586   6.666
 9435SOL    HW129204   6.642   3.499   6.692
 9435SOL    HW229205   6.720   3.631   6.748
 9436SOL     OW29206   2.900   1.858   2.688
 9436SOL    HW129207   2.803   1.876   2.670
 9436SOL    HW229208   2.954   1.938   2.664
 9437SOL     OW29209   4.261   1.424   3.978
 9437SOL    HW129210   4.249   1.518   4.010
 9437SOL    HW229211   4.171   1.379   3.973
 9438SOL     OW29212   4.733   0.193   3.238
 9438SOL    HW129213   4.809   0.253   3.210
 9438SOL    HW229214   4.649   0.222   3.190
 9439SOL     OW29215   1.352   4.881   1.272
 9439SOL    HW129216   1.278   4.945   1.252
 9439SOL    HW229217   1.371   4.826   1.191
 9440SOL     OW29218   1.757   5.380   4.180
 9440SOL    HW129219   1.782   5.317   4.254
 9440SOL    HW229220   1.833   5.443   4.163
 9441SOL     OW29221   6.632   6.305   4.585
 9441SOL    HW129222   6.683   6.354   4.656
 9441SOL    HW229223   6.559   6.252   4.627
 9442SOL     OW29224   6.822   2.923   0.855
 9442SOL    HW129225   6.769   2.898   0.774
 9442SOL    HW229226   6.768   2.906   0.937
 9443SOL     OW29227   1.349   4.692   1.479
 9443SOL    HW129228   1.371   4.776   1.430
 9443SOL    HW229229   1.256   4.697   1.515
 9444SOL     OW29230   2.029   5.860   5.547
 9444SOL    HW129231   1.961   5.854   5.475
 9444SOL    HW229232   2.112   5.812   5.519
 9445SOL     OW29233   1.196   1.449   3.867
 9445SOL    HW129234   1.204   1.351   3.847
 9445SOL    HW229235   1.195   1.464   3.965
 9446SOL     OW29236   5.090   5.231   3.303
 9446SOL    HW129237   5.091   5.242   3.402
 9446SOL    HW229238   4.996   5.227   3.271
 9447SOL     OW29239   5.614   5.188   2.374
 9447SOL    HW129240   5.531   5.238   2.398
 9447SOL    HW229241   5.599   5.136   2.290
 9448SOL     OW29242   5.031   2.676   0.150
 9448SOL    HW129243   4.969   2.741   0.106
 9448SOL    HW229244   4.982   2.590   0.167
 9449SOL     OW29245   4.211   0.153   3.611
 9449SOL    HW129246   4.161   0.103   3.681
 9449SOL    HW229247   4.290   0.199   3.652
 9450SOL     OW29248   0.602   6.994   2.116
 9450SOL    HW129249   0.696   6.977   2.088
 9450SOL    HW229250   0.543   6.920   2.082
 9451SOL     OW29251   4.489   5.484   0.343
 9451SOL    HW129252   4.571   5.478   0.286
 9451SOL    HW229253   4.510   5.454   0.436
 9452SOL     OW29254   5.953   2.292   6.311
 9452SOL    HW129255   5.901   2.370   6.277
 9452SOL    HW229256   5.998   2.247   6.234
 9453SOL     OW29257   6.641   4.417   2.704
 9453SOL    HW129258   6.579   4.421   2.626
 9453SOL    HW229259   6.595   4.371   2.781
 9454SOL     OW29260   5.672   5.371   0.587
 9454SOL    HW129261   5.741   5.306   0.620
 9454SOL    HW229262   5.677   5.377   0.488
 9455SOL     OW29263   4.528   1.110   1.509
 9455SOL    HW129264   4.580   1.176   1.564
 9455SOL    HW229265   4.588   1.071   1.439
 9456SOL     OW29266   6.470   3.050   2.296
 9456SOL    HW129267   6.404   3.028   2.224
 9456SOL    HW229268   6.455   2.989   2.374
 9457SOL     OW29269   6.394   6.436   4.492
 9457SOL    HW129270   6.424   6.518   4.541
 9457SOL    HW229271   6.472   6.374   4.481
 9458SOL     OW29272   0.179   4.239   0.015
 9458SOL    HW129273   0.084   4.223   7.006
 9458SOL    HW229274   0.223   4.152   0.033
 9459SOL     OW29275   5.802   4.918   5.282
 9459SOL    HW129276   5.724   4.911   5.345
 9459SOL    HW229277   5.886   4.890   5.329
 9460SOL     OW29278   2.113   3.287   3.193
 9460SOL    HW129279   2.213   3.295   3.194
 9460SOL    HW229280   2.080   3.281   3.287
 9461SOL     OW29281   1.658   1.801   1.214
 9461SOL    HW129282   1.588   1.787   1.144
 9461SOL    HW229283   1.749   1.800   1.171
 9462SOL     OW29284   0.079   0.900   5.333
 9462SOL    HW129285   0.068   0.999   5.321
 9462SOL    HW229286   0.098   0.880   5.429
 9463SOL     OW29287   0.227   4.985   0.473
 9463SOL    HW129288   0.319   4.983   0.434
 9463SOL    HW229289   0.202   5.079   0.496
 9464SOL     OW29290   1.154   0.573   2.071
 9464SOL    HW129291   1.061   0.609   2.069
 9464SOL    HW229292   1.217   0.641   2.034
 9465SOL     OW29293   0.753   5.862   0.299
 9465SOL    HW129294   0.770   5.776   0.346
 9465SOL    HW229295   0.735   5.934   0.367
 9466SOL     OW29296   3.920   4.216   5.659
 9466SOL    HW129297   3.825   4.247   5.657
 9466SOL    HW229298   3.966   4.243   5.575
 9467SOL     OW29299   1.556   3.858   1.332
 9467SOL    HW129300   1.459   3.879   1.334
 9467SOL    HW229301   1.573   3.781   1.270
 9468SOL     OW29302   6.411   1.963   1.279
 9468SOL    HW129303   6.496   2.013   1.268
 9468SOL    HW229304   6.334   2.023   1.258
 9469SOL     OW29305   6.237   6.469   2.277
 9469SOL    HW129306   6.249   6.564   2.247
 9469SOL    HW229307   6.233   6.466   2.377
 9470SOL     OW29308   3.499   3.811   0.772
 9470SOL    HW129309   3.527   3.853   0.859
 9470SOL    HW229310   3.409   3.845   0.745
 9471SOL     OW29311   6.604   3.141   4.836
 9471SOL    HW129312   6.655   3.224   4.855
 9471SOL    HW229313   6.658   3.061   4.863
 9472SOL     OW29314   1.903   4.155   5.792
 9472SOL    HW129315   1.878   4.185   5.700
 9472SOL    HW229316   1.957   4.225   5.837
 9473SOL     OW29317   2.724   3.417   1.647
 9473SOL    HW129318   2.631   3.422   1.610
 9473SOL    HW229319   2.748   3.322   1.664
 9474SOL     OW29320   6.227   4.203   0.844
 9474SOL    HW129321   6.173   4.121   0.827
 9474SOL    HW229322   6.185   4.281   0.798
 9475SOL     OW29323   6.054   3.301   6.673
 9475SOL    HW129324   6.124   3.241   6.712
 9475SOL    HW229325   6.063   3.302   6.573
 9476SOL     OW29326   4.061   3.847   1.251
 9476SOL    HW129327   4.136   3.901   1.290
 9476SOL    HW229328   4.091   3.808   1.164
 9477SOL     OW29329   1.263   5.413   0.944
 9477SOL    HW129330   1.360   5.438   0.943
 9477SOL    HW229331   1.225   5.431   1.035
 9478SOL     OW29332   0.051   3.109   5.495
 9478SOL    HW129333   7.004   3.037   5.511
 9478SOL    HW229334   0.015   3.196   5.531
 9479SOL     OW29335   4.238   0.829   2.424
 9479SOL    HW129336   4.264   0.918   2.462
 9479SOL    HW229337   4.299   0.758   2.461
 9480SOL     OW29338   5.587   0.655   0.946
 9480SOL    HW129339   5.502   0.624   0.904
 9480SOL    HW229340   5.567   0.716   1.022
 9481SOL     OW29341   4.717   0.698   4.149
 9481SOL    HW129342   4.813   0.714   4.172
 9481SOL    HW229343   4.689   0.607   4.179
 9482SOL     OW29344   5.437   4.475   6.135
 9482SOL    HW129345   5.421   4.475   6.234
 9482SOL    HW229346   5.527   4.515   6.116
 9483SOL     OW29347   5.647   5.115   0.227
 9483SOL    HW129348   5.682   5.110   0.134
 9483SOL    HW229349   5.572   5.050   0.238
 9484SOL     OW29350   1.739   5.712   3.775
 9484SOL    HW129351   1.735   5.614   3.793
 9484SOL    HW229352   1.825   5.749   3.810
 9485SOL     OW29353   6.893   1.459   5.380
 9485SOL    HW129354   6.874   1.364   5.405
 9485SOL    HW229355   6.974   1.491   5.429
 9486SOL     OW29356   6.616   5.576   5.908
 9486SOL    HW129357   6.679   5.652   5.925
 9486SOL    HW229358   6.660   5.491   5.936
 9487SOL     OW29359   2.950   3.366   3.905
 9487SOL    HW129360   3.027   3.315   3.944
 9487SOL    HW229361   2.901   3.413   3.978
 9488SOL     OW29362   0.993   0.792   2.586
 9488SOL    HW129363   0.927   0.749   2.524
 9488SOL    HW229364   1.086   0.773   2.553
 9489SOL     OW29365   6.889   3.938   6.804
 9489SOL    HW129366   6.957   3.973   6.869
 9489SOL    HW229367   6.931   3.929   6.714
 9490SOL     OW29368   5.883   3.918   4.890
 9490SOL    HW129369   5.971   3.951   4.855
 9490SOL    HW229370   5.833   3.873   4.817
 9491SOL     OW29371   4.812   0.196   2.389
 9491SOL    HW129372   4.760   0.135   2.448
 9491SOL    HW229373   4.750   0.252   2.335
 9492SOL     OW29374   4.978   3.062   4.075
 9492SOL    HW129375   4.939   3.022   3.992
 9492SOL    HW229376   5.066   3.104   4.054
 9493SOL     OW29377   2.830   6.576   2.834
 9493SOL    HW129378   2.848   6.623   2.748
 9493SOL    HW229379   2.740   6.534   2.831
 9494SOL     OW29380   4.952   2.484   2.324
 9494SOL    HW129381   4.905   2.546   2.387
 9494SOL    HW229382   4.885   2.439   2.265
 9495SOL     OW29383   5.976   2.573   0.880
 9495SOL    HW129384   6.027   2.514   0.818
 9495SOL    HW229385   5.890   2.529   0.906
 9496SOL     OW29386   6.507   3.275   0.364
 9496SOL    HW129387   6.421   3.227   0.379
 9496SOL    HW229388   6.501   3.327   0.279
 9497SOL     OW29389   5.679   4.600   4.794
 9497SOL    HW129390   5.762   4.632   4.839
 9497SOL    HW229391   5.607   4.587   4.861
 9498SOL     OW29392   0.940   6.364   5.732
 9498SOL    HW129393   0.990   6.285   5.768
 9498SOL    HW229394   0.854   6.333   5.691
 9499SOL     OW29395   5.779   6.573   3.618
 9499SOL    HW129396   5.701   6.570   3.555
 9499SOL    HW229397   5.766   6.505   3.690
 9500SOL     OW29398   2.768   1.661   0.580
 9500SOL    HW129399   2.777   1.743   0.523
 9500SOL    HW229400   2.858   1.618   0.590
 9501SOL     OW29401   1.343   3.541   4.985
 9501SOL    HW129402   1.248   3.546   5.016
 9501SOL    HW229403   1.404   3.576   5.056
 9502SOL     OW29404   5.649   4.401   3.640
 9502SOL    HW129405   5.670   4.402   3.542
 9502SOL    HW229406   5.704   4.471   3.686
 9503SOL     OW29407   6.538   0.552   0.158
 9503SOL    HW129408   6.460   0.557   0.221
 9503SOL    HW229409   6.574   0.644   0.143
 9504SOL     OW29410   6.564   4.735   3.043
 9504SOL    HW129411   6.534   4.730   2.947
 9504SOL    HW229412   6.506   4.674   3.098
 9505SOL     OW29413   5.092   2.755   0.409
 9505SOL    HW129414   5.072   2.694   0.332
 9505SOL    HW229415   5.101   2.849   0.374
 9506SOL     OW29416   3.952   1.165   1.583
 9506SOL    HW129417   4.044   1.151   1.620
 9506SOL    HW229418   3.923   1.258   1.601
 9507SOL     OW29419   6.946   5.678   1.593
 9507SOL    HW129420   6.959   5.761   1.646
 9507SOL    HW229421   7.002   5.604   1.631
 9508SOL     OW29422   5.238   1.442   2.326
 9508SOL    HW129423   5.327   1.418   2.365
 9508SOL    HW229424   5.247   1.526   2.272
 9509SOL     OW29425   5.773   1.333   4.100
 9509SOL    HW129426   5.737   1.291   4.183
 9509SOL    HW229427   5.860   1.378   4.120
 9510SOL     OW29428   1.407   3.439   2.131
 9510SOL    HW129429   1.336   3.502   2.097
 9510SOL    HW229430   1.453   3.481   2.209
 9511SOL     OW29431   0.691   1.415   0.673
 9511SOL    HW129432   0.717   1.320   0.658
 9511SOL    HW229433   0.771   1.467   0.703
 9512SOL     OW29434   6.222   2.563   1.394
 9512SOL    HW129435   6.158   2.576   1.318
 9512SOL    HW229436   6.266   2.650   1.416
 9513SOL     OW29437   4.878   3.764   4.766
 9513SOL    HW129438   4.840   3.705   4.837
 9513SOL    HW229439   4.856   3.726   4.676
 9514SOL     OW29440   3.793   2.919   1.159
 9514SOL    HW129441   3.808   2.954   1.251
 9514SOL    HW229442   3.871   2.940   1.101
 9515SOL     OW29443   6.949   6.242   3.032
 9515SOL    HW129444   0.019   6.253   2.990
 9515SOL    HW229445   6.937   6.146   3.060
 9516SOL     OW29446   1.302   2.750   0.059
 9516SOL    HW129447   1.388   2.786   0.095
 9516SOL    HW229448   1.278   2.666   0.108
 9517SOL     OW29449   0.482   6.773   2.026
 9517SOL    HW129450   0.457   6.692   2.079
 9517SOL    HW229451   0.475   6.752   1.928
 9518SOL     OW29452   6.643   6.859   1.258
 9518SOL    HW129453   6.565   6.852   1.195
 9518SOL    HW229454   6.625   6.930   1.326
 9519SOL     OW29455   1.391   2.761   5.712
 9519SOL    HW129456   1.479   2.751   5.667
 9519SOL    HW229457   1.339   2.675   5.704
 9520SOL     OW29458   4.237   6.613   2.387
 9520SOL    HW129459   4.243   6.572   2.478
 9520SOL    HW229460   4.287   6.699   2.386
 9521SOL     OW29461   5.927   5.043   3.204
 9521SOL    HW129462   5.851   4.985   3.175
 9521SOL    HW229463   5.936   5.120   3.141
 9522SOL     OW29464   3.531   5.037   5.447
 9522SOL    HW129465   3.526   5.073   5.353
 9522SOL    HW229466   3.589   4.955   5.448
 9523SOL     OW29467   1.292   6.962   4.554
 9523SOL    HW129468   1.281   6.942   4.457
 9523SOL    HW229469   1.372   6.913   4.589
 9524SOL     OW29470   6.094   3.708   0.379
 9524SOL    HW129471   6.120   3.612   0.370
 9524SOL    HW229472   6.007   3.714   0.428
 9525SOL     OW29473   4.156   0.385   4.684
 9525SOL    HW129474   4.248   0.372   4.719
 9525SOL    HW229475   4.157   0.457   4.614
 9526SOL     OW29476   4.808   5.300   0.401
 9526SOL    HW129477   4.883   5.343   0.450
 9526SOL    HW229478   4.760   5.369   0.346
 9527SOL     OW29479   6.907   0.901   0.301
 9527SOL    HW129480   6.849   0.824   0.325
 9527SOL    HW229481   6.905   0.969   0.374
 9528SOL     OW29482   5.336   0.871   1.928
 9528SOL    HW129483   5.266   0.817   1.881
 9528SOL    HW229484   5.327   0.857   2.027
 9529SOL     OW29485   1.556   2.707   5.492
 9529SOL    HW129486   1.571   2.613   5.462
 9529SOL    HW229487   1.520   2.761   5.416
 9530SOL     OW29488   2.386   1.342   3.719
 9530SOL    HW129489   2.382   1.417   3.653
 9530SOL    HW229490   2.459   1.360   3.786
 9531SOL     OW29491   2.574   6.658   3.530
 9531SOL    HW129492   2.522   6.700   3.604
 9531SOL    HW229493   2.670   6.650   3.557
 9532SOL     OW29494   3.628   1.223   1.189
 9532SOL    HW129495   3.653   1.221   1.092
 9532SOL    HW229496   3.623   1.318   1.221
 9533SOL     OW29497   0.253   1.597   4.060
 9533SOL    HW129498   0.346   1.561   4.055
 9533SOL    HW229499   0.256   1.697   4.054
 9534SOL     OW29500   5.069   1.354   4.265
 9534SOL    HW129501   5.041   1.415   4.190
 9534SOL    HW229502   5.001   1.282   4.276
 9535SOL     OW29503   3.019   1.484   4.924
 9535SOL    HW129504   2.995   1.447   4.835
 9535SOL    HW229505   2.946   1.544   4.956
 9536SOL     OW29506   2.094   5.545   6.538
 9536SOL    HW129507   2.110   5.637   6.503
 9536SOL    HW229508   2.182   5.503   6.561
 9537SOL     OW29509   2.235   0.541   0.330
 9537SOL    HW129510   2.205   0.603   0.402
 9537SOL    HW229511   2.157   0.517   0.272
 9538SOL     OW29512   5.780   4.202   2.929
 9538SOL    HW129513   5.763   4.292   2.969
 9538SOL    HW229514   5.797   4.136   3.002
 9539SOL     OW29515   1.182   3.102   6.957
 9539SOL    HW129516   1.151   3.007   6.968
 9539SOL    HW229517   1.274   3.111   6.992
 9540SOL     OW29518   5.898   3.394   5.134
 9540SOL    HW129519   5.958   3.441   5.199
 9540SOL    HW229520   5.858   3.314   5.178
 9541SOL     OW29521   6.103   1.987   3.049
 9541SOL    HW129522   6.140   2.052   2.983
 9541SOL    HW229523   6.011   2.017   3.078
 9542SOL     OW29524   4.930   3.514   4.609
 9542SOL    HW129525   4.910   3.443   4.542
 9542SOL    HW229526   4.895   3.486   4.698
 9543SOL     OW29527   4.077   2.404   0.245
 9543SOL    HW129528   4.038   2.478   0.191
 9543SOL    HW229529   4.064   2.423   0.342
 9544SOL     OW29530   4.808   6.811   1.474
 9544SOL    HW129531   4.889   6.864   1.450
 9544SOL    HW229532   4.822   6.715   1.449
 9545SOL     OW29533   1.237   0.262   4.242
 9545SOL    HW129534   1.336   0.270   4.225
 9545SOL    HW229535   1.193   0.349   4.218
 9546SOL     OW29536   2.876   4.264   1.710
 9546SOL    HW129537   2.906   4.265   1.615
 9546SOL    HW229538   2.925   4.335   1.761
 9547SOL     OW29539   5.536   6.429   2.531
 9547SOL    HW129540   5.624   6.471   2.508
 9547SOL    HW229541   5.481   6.494   2.583
 9548SOL     OW29542   6.356   6.846   2.140
 9548SOL    HW129543   6.448   6.809   2.128
 9548SOL    HW229544   6.324   6.827   2.233
 9549SOL     OW29545   1.954   6.110   6.997
 9549SOL    HW129546   1.900   6.173   6.942
 9549SOL    HW229547   1.898   6.074   0.051
 9550SOL     OW29548   1.829   0.746   0.342
 9550SOL    HW129549   1.802   0.770   0.435
 9550SOL    HW229550   1.825   0.647   0.330
 9551SOL     OW29551   1.479   5.605   4.781
 9551SOL    HW129552   1.463   5.507   4.769
 9551SOL    HW229553   1.411   5.642   4.845
 9552SOL     OW29554   6.613   5.479   2.641
 9552SOL    HW129555   6.535   5.425   2.609
 9552SOL    HW229556   6.601   5.501   2.738
 9553SOL     OW29557   5.433   4.771   6.624
 9553SOL    HW129558   5.373   4.691   6.625
 9553SOL    HW229559   5.487   4.771   6.539
 9554SOL     OW29560   1.691   2.560   1.444
 9554SOL    HW129561   1.784   2.538   1.416
 9554SOL    HW229562   1.648   2.479   1.484
 9555SOL     OW29563   0.396   2.163   6.508
 9555SOL    HW129564   0.297   2.173   6.515
 9555SOL    HW229565   0.440   2.242   6.552
 9556SOL     OW29566   5.890   0.649   1.817
 9556SOL    HW129567   5.802   0.609   1.792
 9556SOL    HW229568   5.914   0.623   1.910
 9557SOL     OW29569   4.892   1.883   1.486
 9557SOL    HW129570   4.822   1.847   1.425
 9557SOL    HW229571   4.980   1.839   1.466
 9558SOL     OW29572   0.092   4.290   1.520
 9558SOL    HW129573   0.157   4.296   1.444
 9558SOL    HW229574   0.101   4.201   1.565
 9559SOL     OW29575   0.445   4.818   3.315
 9559SOL    HW129576   0.450   4.751   3.241
 9559SOL    HW229577   0.466   4.909   3.280
 9560SOL     OW29578   3.391   2.208   5.781
 9560SOL    HW129579   3.406   2.301   5.750
 9560SOL    HW229580   3.395   2.145   5.703
 9561SOL     OW29581   3.239   5.082   6.487
 9561SOL    HW129582   3.304   5.006   6.484
 9561SOL    HW229583   3.254   5.134   6.571
 9562SOL     OW29584   6.244   5.292   3.964
 9562SOL    HW129585   6.331   5.243   3.976
 9562SOL    HW229586   6.178   5.261   4.032
 9563SOL     OW29587   0.814   1.235   5.834
 9563SOL    HW129588   0.798   1.156   5.893
 9563SOL    HW229589   0.848   1.204   5.746
 9564SOL     OW29590   0.079   0.351   5.865
 9564SOL    HW129591   0.153   0.296   5.828
 9564SOL    HW229592   7.013   0.326   5.820
 9565SOL     OW29593   2.644   5.384   5.135
 9565SOL    HW129594   2.653   5.321   5.212
 9565SOL    HW229595   2.639   5.478   5.169
 9566SOL     OW29596   2.135   5.631   4.919
 9566SOL    HW129597   2.097   5.638   5.011
 9566SOL    HW229598   2.078   5.570   4.863
 9567SOL     OW29599   5.761   5.871   3.490
 9567SOL    HW129600   5.708   5.786   3.484
 9567SOL    HW229601   5.732   5.922   3.571
 9568SOL     OW29602   6.345   3.687   4.791
 9568SOL    HW129603   6.360   3.784   4.811
 9568SOL    HW229604   6.248   3.670   4.780
 9569SOL     OW29605   5.310   0.534   1.228
 9569SOL    HW129606   5.381   0.582   1.279
 9569SOL    HW229607   5.345   0.446   1.197
 9570SOL     OW29608   0.190   3.405   6.301
 9570SOL    HW129609   0.270   3.460   6.276
 9570SOL    HW229610   0.221   3.321   6.347
 9571SOL     OW29611   3.177   1.696   0.724
 9571SOL    HW129612   3.221   1.618   0.769
 9571SOL    HW229613   3.247   1.761   0.694
 9572SOL     OW29614   0.671   3.093   0.678
 9572SOL    HW129615   0.601   3.056   0.617
 9572SOL    HW229616   0.762   3.078   0.639
 9573SOL     OW29617   4.517   1.905   1.906
 9573SOL    HW129618   4.564   1.864   1.828
 9573SOL    HW229619   4.433   1.950   1.874
 9574SOL     OW29620   2.056   1.423   3.793
 9574SOL    HW129621   2.087   1.355   3.859
 9574SOL    HW229622   2.085   1.394   3.701
 9575SOL     OW29623   3.253   1.794   2.567
 9575SOL    HW129624   3.243   1.798   2.468
 9575SOL    HW229625   3.200   1.868   2.609
 9576SOL     OW29626   4.460   3.165   5.725
 9576SOL    HW129627   4.419   3.252   5.697
 9576SOL    HW229628   4.514   3.178   5.808
 9577SOL     OW29629   0.395   5.572   3.597
 9577SOL    HW129630   0.355   5.620   3.519
 9577SOL    HW229631   0.478   5.524   3.569
 9578SOL     OW29632   6.583   4.616   1.301
 9578SOL    HW129633   6.636   4.680   1.356
 9578SOL    HW229634   6.487   4.644   1.302
 9579SOL     OW29635   1.181   4.867   2.383
 9579SOL    HW129636   1.128   4.785   2.363
 9579SOL    HW229637   1.278   4.844   2.390
 9580SOL     OW29638   4.040   3.799   4.988
 9580SOL    HW129639   4.101   3.796   4.908
 9580SOL    HW229640   3.985   3.882   4.985
 9581SOL     OW29641   0.578   0.163   6.877
 9581SOL    HW129642   0.483   0.142   6.856
 9581SOL    HW229643   0.602   0.120   6.965
 9582SOL     OW29644   4.365   5.527   2.925
 9582SOL    HW129645   4.341   5.594   2.855
 9582SOL    HW229646   4.447   5.558   2.974
 9583SOL     OW29647   1.495   4.733   2.705
 9583SOL    HW129648   1.419   4.726   2.769
 9583SOL    HW229649   1.471   4.798   2.632
 9584SOL     OW29650   5.086   5.009   0.014
 9584SOL    HW129651   5.182   5.037   0.008
 9584SOL    HW229652   5.068   4.936   6.968
 9585SOL     OW29653   5.920   1.117   2.565
 9585SOL    HW129654   6.009   1.161   2.576
 9585SOL    HW229655   5.897   1.112   2.468
 9586SOL     OW29656   4.001   4.747   2.619
 9586SOL    HW129657   4.062   4.681   2.663
 9586SOL    HW229658   4.003   4.734   2.520
 9587SOL     OW29659   4.422   6.540   1.431
 9587SOL    HW129660   4.391   6.631   1.405
 9587SOL    HW229661   4.371   6.509   1.511
 9588SOL     OW29662   6.111   1.438   3.431
 9588SOL    HW129663   6.069   1.471   3.516
 9588SOL    HW229664   6.112   1.513   3.364
 9589SOL     OW29665   3.783   1.871   5.083
 9589SOL    HW129666   3.731   1.842   5.002
 9589SOL    HW229667   3.832   1.793   5.121
 9590SOL     OW29668   0.235   4.914   5.261
 9590SOL    HW129669   0.328   4.949   5.253
 9590SOL    HW229670   0.203   4.925   5.355
 9591SOL     OW29671   6.872   4.936   2.222
 9591SOL    HW129672   6.942   4.875   2.186
 9591SOL    HW229673   6.914   5.004   2.282
 9592SOL     OW29674   4.126   5.437   0.823
 9592SOL    HW129675   4.095   5.473   0.911
 9592SOL    HW229676   4.141   5.512   0.760
 9593SOL     OW29677   2.012   2.774   3.763
 9593SOL    HW129678   1.919   2.738   3.754
 9593SOL    HW229679   2.062   2.762   3.677
 9594SOL     OW29680   5.397   0.026   0.709
 9594SOL    HW129681   5.486   0.000   0.748
 9594SOL    HW229682   5.354   0.094   0.768
 9595SOL     OW29683   2.139   4.808   5.145
 9595SOL    HW129684   2.053   4.795   5.194
 9595SOL    HW229685   2.183   4.720   5.131
 9596SOL     OW29686   5.398   4.918   2.349
 9596SOL    HW129687   5.309   4.893   2.313
 9596SOL    HW229688   5.387   4.958   2.440
 9597SOL     OW29689   1.559   3.976   2.213
 9597SOL    HW129690   1.506   3.980   2.128
 9597SOL    HW229691   1.655   3.997   2.194
 9598SOL     OW29692   0.240   6.131   5.156
 9598SOL    HW129693   0.235   6.079   5.071
 9598SOL    HW229694   0.150   6.170   5.176
 9599SOL     OW29695   4.142   2.139   5.765
 9599SOL    HW129696   4.225   2.086   5.748
 9599SOL    HW229697   4.069   2.108   5.703
 9600SOL     OW29698   1.621   5.631   6.829
 9600SOL    HW129699   1.686   5.607   6.757
 9600SOL    HW229700   1.542   5.570   6.824
 9601SOL     OW29701   1.100   0.240   4.806
 9601SOL    HW129702   1.016   0.188   4.791
 9601SOL    HW229703   1.136   0.272   4.718
 9602SOL     OW29704   0.901   5.803   6.197
 9602SOL    HW129705   0.900   5.771   6.102
 9602SOL    HW229706   0.967   5.748   6.249
 9603SOL     OW29707   1.611   5.112   1.793
 9603SOL    HW129708   1.572   5.193   1.748
 9603SOL    HW229709   1.602   5.033   1.732
 9604SOL     OW29710   5.977   0.283   5.980
 9604SOL    HW129711   5.924   0.354   6.026
 9604SOL    HW229712   5.973   0.298   5.881
 9605SOL     OW29713   3.615   4.588   0.554
 9605SOL    HW129714   3.622   4.607   0.456
 9605SOL    HW229715   3.536   4.635   0.592
 9606SOL     OW29716   6.859   1.764   4.299
 9606SOL    HW129717   6.914   1.823   4.241
 9606SOL    HW229718   6.901   1.673   4.304
 9607SOL     OW29719   6.627   3.068   3.408
 9607SOL    HW129720   6.574   3.120   3.341
 9607SOL    HW229721   6.574   2.990   3.440
 9608SOL     OW29722   5.784   0.660   1.466
 9608SOL    HW129723   5.809   0.575   1.512
 9608SOL    HW229724   5.817   0.658   1.372
 9609SOL     OW29725   0.748   2.402   3.621
 9609SOL    HW129726   0.665   2.422   3.569
 9609SOL    HW229727   0.820   2.373   3.558
 9610SOL     OW29728   5.109   1.626   6.101
 9610SOL    HW129729   5.043   1.579   6.159
 9610SOL    HW229730   5.173   1.561   6.062
 9611SOL     OW29731   5.188   5.531   1.336
 9611SOL    HW129732   5.159   5.445   1.378
 9611SOL    HW229733   5.179   5.605   1.402
 9612SOL     OW29734   4.905   3.752   3.445
 9612SOL    HW129735   4.978   3.820   3.457
 9612SOL    HW229736   4.862   3.735   3.533
 9613SOL     OW29737   4.538   1.461   4.925
 9613SOL    HW129738   4.486   1.376   4.916
 9613SOL    HW229739   4.492   1.521   4.990
 9614SOL     OW29740   3.647   2.709   0.046
 9614SOL    HW129741   3.695   2.710   6.979
 9614SOL    HW229742   3.688   2.639   0.106
 9615SOL     OW29743   6.407   5.883   3.751
 9615SOL    HW129744   6.374   5.974   3.728
 9615SOL    HW229745   6.489   5.890   3.809
 9616SOL     OW29746   0.325   2.071   1.042
 9616SOL    HW129747   0.253   2.131   1.007
 9616SOL    HW229748   0.401   2.068   0.977
 9617SOL     OW29749   1.092   3.736   3.596
 9617SOL    HW129750   1.059   3.738   3.691
 9617SOL    HW229751   1.017   3.757   3.534
 9618SOL     OW29752   5.753   4.175   2.063
 9618SOL    HW129753   5.663   4.131   2.062
 9618SOL    HW229754   5.799   4.159   1.976
 9619SOL     OW29755   1.437   1.499   1.139
 9619SOL    HW129756   1.404   1.568   1.075
 9619SOL    HW229757   1.421   1.530   1.233
 9620SOL     OW29758   3.288   1.491   6.147
 9620SOL    HW129759   3.379   1.454   6.125
 9620SOL    HW229760   3.295   1.590   6.162
 9621SOL     OW29761   6.555   0.473   0.502
 9621SOL    HW129762   6.494   0.429   0.568
 9621SOL    HW229763   6.588   0.405   0.437
 9622SOL     OW29764   6.927   0.334   4.763
 9622SOL    HW129765   6.991   0.386   4.706
 9622SOL    HW229766   6.834   0.347   4.728
 9623SOL     OW29767   2.242   5.844   6.073
 9623SOL    HW129768   2.218   5.833   6.169
 9623SOL    HW229769   2.229   5.757   6.025
 9624SOL     OW29770   3.960   5.022   6.478
 9624SOL    HW129771   3.863   5.017   6.454
 9624SOL    HW229772   3.970   5.011   6.577
 9625SOL     OW29773   5.135   4.102   6.090
 9625SOL    HW129774   5.210   4.146   6.042
 9625SOL    HW229775   5.150   4.109   6.189
 9626SOL     OW29776   3.007   2.744   6.970
 9626SOL    HW129777   2.938   2.679   7.003
 9626SOL    HW229778   3.010   2.823   0.011
 9627SOL     OW29779   6.829   5.495   0.186
 9627SOL    HW129780   6.888   5.425   0.226
 9627SOL    HW229781   6.878   5.543   0.113
 9628SOL     OW29782   5.943   1.528   5.215
 9628SOL    HW129783   5.926   1.520   5.117
 9628SOL    HW229784   5.992   1.612   5.234
 9629SOL     OW29785   0.736   5.799   4.234
 9629SOL    HW129786   0.770   5.886   4.270
 9629SOL    HW229787   0.636   5.796   4.242
 9630SOL     OW29788   5.975   0.459   5.565
 9630SOL    HW129789   5.937   0.421   5.480
 9630SOL    HW229790   5.901   0.491   5.624
 9631SOL     OW29791   4.502   6.160   6.961
 9631SOL    HW129792   4.429   6.180   6.896
 9631SOL    HW229793   4.585   6.135   6.912
 9632SOL     OW29794   2.952   5.549   2.745
 9632SOL    HW129795   2.998   5.627   2.704
 9632SOL    HW229796   3.001   5.521   2.828
 9633SOL     OW29797   2.215   3.003   5.562
 9633SOL    HW129798   2.227   3.099   5.586
 9633SOL    HW229799   2.118   2.985   5.544
 9634SOL     OW29800   5.922   4.961   3.464
 9634SOL    HW129801   6.001   4.995   3.514
 9634SOL    HW229802   5.928   4.991   3.369
 9635SOL     OW29803   1.168   5.298   3.885
 9635SOL    HW129804   1.169   5.337   3.977
 9635SOL    HW229805   1.116   5.357   3.824
 9636SOL     OW29806   4.906   3.574   3.723
 9636SOL    HW129807   4.918   3.478   3.750
 9636SOL    HW229808   4.873   3.626   3.801
 9637SOL     OW29809   3.398   2.656   6.815
 9637SOL    HW129810   3.423   2.749   6.789
 9637SOL    HW229811   3.301   2.640   6.796
 9638SOL     OW29812   1.327   4.364   6.439
 9638SOL    HW129813   1.384   4.306   6.499
 9638SOL    HW229814   1.259   4.411   6.494
 9639SOL     OW29815   5.667   2.767   1.496
 9639SOL    HW129816   5.699   2.672   1.504
 9639SOL    HW229817   5.649   2.788   1.400
 9640SOL     OW29818   2.908   6.728   3.454
 9640SOL    HW129819   2.934   6.670   3.376
 9640SOL    HW229820   2.939   6.685   3.538
 9641SOL     OW29821   0.979   2.602   4.629
 9641SOL    HW129822   0.915   2.594   4.706
 9641SOL    HW229823   0.933   2.573   4.545
 9642SOL     OW29824   0.622   3.079   4.573
 9642SOL    HW129825   0.659   3.007   4.515
 9642SOL    HW229826   0.656   3.168   4.541
 9643SOL     OW29827   6.655   5.700   4.542
 9643SOL    HW129828   6.634   5.642   4.621
 9643SOL    HW229829   6.703   5.782   4.572
 9644SOL     OW29830   1.073   4.631   3.488
 9644SOL    HW129831   1.038   4.723   3.509
 9644SOL    HW229832   1.070   4.575   3.571
 9645SOL     OW29833   0.126   5.337   0.278
 9645SOL    HW129834   0.072   5.286   0.211
 9645SOL    HW229835   0.223   5.325   0.259
 9646SOL     OW29836   2.249   5.023   0.529
 9646SOL    HW129837   2.175   4.962   0.557
 9646SOL    HW229838   2.219   5.078   0.451
 9647SOL     OW29839   5.204   6.987   2.889
 9647SOL    HW129840   5.229   7.016   2.797
 9647SOL    HW229841   5.286   6.960   2.938
 9648SOL     OW29842   3.794   2.348   0.627
 9648SOL    HW129843   3.882   2.319   0.590
 9648SOL    HW229844   3.727   2.275   0.617
 9649SOL     OW29845   0.026   5.646   0.084
 9649SOL    HW129846   0.064   5.615   0.171
 9649SOL    HW229847   0.088   5.711   0.041
 9650SOL     OW29848   6.947   5.629   5.395
 9650SOL    HW129849   6.925   5.644   5.299
 9650SOL    HW229850   0.018   5.590   5.404
 9651SOL     OW29851   3.902   1.033   0.647
 9651SOL    HW129852   3.834   1.098   0.613
 9651SOL    HW229853   3.910   1.043   0.746
 9652SOL     OW29854   0.378   4.043   0.065
 9652SOL    HW129855   0.361   3.947   0.086
 9652SOL    HW229856   0.474   4.055   0.038
 9653SOL     OW29857   6.065   3.660   4.728
 9653SOL    HW129858   6.027   3.681   4.818
 9653SOL    HW229859   5.993   3.624   4.669
 9654SOL     OW29860   3.923   3.409   4.246
 9654SOL    HW129861   3.840   3.421   4.302
 9654SOL    HW229862   3.909   3.332   4.183
 9655SOL     OW29863   4.521   0.713   0.674
 9655SOL    HW129864   4.489   0.796   0.628
 9655SOL    HW229865   4.612   0.730   0.713
 9656SOL     OW29866   5.252   4.688   5.102
 9656SOL    HW129867   5.189   4.754   5.063
 9656SOL    HW229868   5.231   4.675   5.199
 9657SOL     OW29869   5.109   5.267   2.377
 9657SOL    HW129870   5.114   5.215   2.462
 9657SOL    HW229871   5.017   5.306   2.367
 9658SOL     OW29872   5.242   1.069   2.793
 9658SOL    HW129873   5.274   1.025   2.708
 9658SOL    HW229874   5.172   1.136   2.771
 9659SOL     OW29875   4.122   3.514   0.388
 9659SOL    HW129876   4.161   3.596   0.431
 9659SOL    HW229877   4.194   3.463   0.342
 9660SOL     OW29878   2.618   0.105   1.816
 9660SOL    HW129879   2.645   0.201   1.821
 9660SOL    HW229880   2.519   0.098   1.832
 9661SOL     OW29881   3.413   4.024   2.511
 9661SOL    HW129882   3.427   3.963   2.434
 9661SOL    HW229883   3.316   4.026   2.536
 9662SOL     OW29884   3.789   0.577   4.528
 9662SOL    HW129885   3.799   0.525   4.613
 9662SOL    HW229886   3.731   0.656   4.544
 9663SOL     OW29887   1.064   5.689   2.109
 9663SOL    HW129888   1.061   5.679   2.209
 9663SOL    HW229889   1.096   5.604   2.068
 9664SOL     OW29890   1.739   4.715   2.428
 9664SOL    HW129891   1.703   4.782   2.363
 9664SOL    HW229892   1.795   4.763   2.496
 9665SOL     OW29893   5.813   3.647   6.730
 9665SOL    HW129894   5.771   3.639   6.820
 9665SOL    HW229895   5.858   3.736   6.721
 9666SOL     OW29896   5.299   4.072   1.048
 9666SOL    HW129897   5.251   4.149   1.007
 9666SOL    HW229898   5.390   4.064   1.007
 9667SOL     OW29899   6.109   6.190   0.142
 9667SOL    HW129900   6.036   6.251   0.171
 9667SOL    HW229901   6.139   6.133   0.218
 9668SOL     OW29902   1.952   0.407   0.540
 9668SOL    HW129903   2.013   0.339   0.499
 9668SOL    HW229904   2.005   0.486   0.571
 9669SOL     OW29905   3.519   0.421   0.880
 9669SOL    HW129906   3.593   0.367   0.841
 9669SOL    HW229907   3.539   0.519   0.869
 9670SOL     OW29908   0.309   0.199   2.719
 9670SOL    HW129909   0.393   0.220   2.668
 9670SOL    HW229910   0.329   0.196   2.817
 9671SOL     OW29911   0.874   6.089   6.348
 9671SOL    HW129912   0.871   6.173   6.401
 9671SOL    HW229913   0.953   6.089   6.287
 9672SOL     OW29914   0.109   4.390   4.593
 9672SOL    HW129915   0.138   4.297   4.614
 9672SOL    HW229916   0.140   4.452   4.665
 9673SOL     OW29917   1.941   3.041   5.562
 9673SOL    HW129918   1.885   2.965   5.594
 9673SOL    HW229919   1.933   3.048   5.462
 9674SOL     OW29920   1.636   0.059   3.791
 9674SOL    HW129921   1.543   0.030   3.766
 9674SOL    HW229922   1.633   0.150   3.832
 9675SOL     OW29923   6.602   4.174   6.239
 9675SOL    HW129924   6.663   4.107   6.198
 9675SOL    HW229925   6.635   4.200   6.330
 9676SOL     OW29926   1.057   2.820   6.674
 9676SOL    HW129927   0.986   2.891   6.677
 9676SOL    HW229928   1.095   2.816   6.581
 9677SOL     OW29929   0.473   4.708   3.051
 9677SOL    HW129930   0.538   4.761   2.997
 9677SOL    HW229931   0.508   4.615   3.063
 9678SOL     OW29932   5.144   3.415   6.743
 9678SOL    HW129933   5.146   3.353   6.821
 9678SOL    HW229934   5.065   3.475   6.750
 9679SOL     OW29935   1.457   1.316   4.328
 9679SOL    HW129936   1.504   1.402   4.311
 9679SOL    HW229937   1.360   1.326   4.306
 9680SOL     OW29938   4.484   6.386   2.499
 9680SOL    HW129939   4.483   6.482   2.527
 9680SOL    HW229940   4.476   6.328   2.580
 9681SOL     OW29941   0.730   2.492   1.150
 9681SOL    HW129942   0.674   2.483   1.232
 9681SOL    HW229943   0.759   2.587   1.139
 9682SOL     OW29944   4.026   6.502   5.651
 9682SOL    HW129945   4.032   6.558   5.568
 9682SOL    HW229946   3.950   6.439   5.643
 9683SOL     OW29947   3.132   5.791   3.604
 9683SOL    HW129948   3.050   5.830   3.563
 9683SOL    HW229949   3.129   5.804   3.703
 9684SOL     OW29950   1.719   2.356   6.103
 9684SOL    HW129951   1.681   2.318   6.019
 9684SOL    HW229952   1.740   2.282   6.167
 9685SOL     OW29953   3.843   4.614   1.708
 9685SOL    HW129954   3.750   4.618   1.746
 9685SOL    HW229955   3.909   4.633   1.781
 9686SOL     OW29956   0.617   1.765   6.247
 9686SOL    HW129957   0.643   1.862   6.244
 9686SOL    HW229958   0.648   1.726   6.334
 9687SOL     OW29959   5.705   0.298   4.333
 9687SOL    HW129960   5.629   0.341   4.284
 9687SOL    HW229961   5.681   0.286   4.429
 9688SOL     OW29962   0.548   5.165   2.367
 9688SOL    HW129963   0.643   5.191   2.381
 9688SOL    HW229964   0.542   5.088   2.304
 9689SOL     OW29965   1.816   5.897   1.154
 9689SOL    HW129966   1.862   5.814   1.185
 9689SOL    HW229967   1.828   5.969   1.221
 9690SOL     OW29968   5.795   4.588   3.774
 9690SOL    HW129969   5.827   4.653   3.704
 9690SOL    HW229970   5.874   4.541   3.814
 9691SOL     OW29971   4.006   3.707   2.043
 9691SOL    HW129972   4.067   3.727   2.120
 9691SOL    HW229973   4.041   3.629   1.992
 9692SOL     OW29974   6.469   5.445   6.924
 9692SOL    HW129975   6.459   5.544   6.930
 9692SOL    HW229976   6.493   5.408   7.014
 9693SOL     OW29977   4.698   3.362   6.560
 9693SOL    HW129978   4.620   3.346   6.621
 9693SOL    HW229979   4.670   3.423   6.486
 9694SOL     OW29980   2.517   6.337   1.335
 9694SOL    HW129981   2.586   6.387   1.283
 9694SOL    HW229982   2.552   6.318   1.427
 9695SOL     OW29983   1.893   2.830   3.432
 9695SOL    HW129984   1.854   2.886   3.358
 9695SOL    HW229985   1.899   2.884   3.515
 9696SOL     OW29986   4.619   4.345   3.448
 9696SOL    HW129987   4.672   4.260   3.447
 9696SOL    HW229988   4.620   4.384   3.540
 9697SOL     OW29989   6.765   6.904   2.769
 9697SOL    HW129990   6.709   6.908   2.852
 9697SOL    HW229991   6.780   6.809   2.743
 9698SOL     OW29992   6.943   2.782   1.368
 9698SOL    HW129993   6.981   2.848   1.303
 9698SOL    HW229994   7.013   2.757   1.435
 9699SOL     OW29995   1.821   0.067   2.410
 9699SOL    HW129996   1.803   0.021   2.324
 9699SOL    HW229997   1.734   0.097   2.451
 9700SOL     OW29998   6.197   0.822   5.961
 9700SOL    HW129999   6.211   0.751   5.892
 9700SOL    HW230000   6.151   0.900   5.920
 9701SOL     OW30001   5.884   3.991   6.543
 9701SOL    HW130002   5.941   3.914   6.515
 9701SOL    HW230003   5.878   4.057   6.468
 9702SOL     OW30004   2.982   3.737   1.909
 9702SOL    HW130005   3.055   3.729   1.842
 9702SOL    HW230006   3.003   3.811   1.973
 9703SOL     OW30007   6.697   4.240   3.484
 9703SOL    HW130008   6.767   4.257   3.414
 9703SOL    HW230009   6.675   4.326   3.530
 9704SOL     OW30010   1.064   4.897   2.077
 9704SOL    HW130011   1.110   4.833   2.139
 9704SOL    HW230012   1.132   4.944   2.021
 9705SOL     OW30013   0.009   3.731   5.487
 9705SOL    HW130014   0.055   3.681   5.414
 9705SOL    HW230015   6.935   3.700   5.494
 9706SOL     OW30016   0.118   0.048   2.606
 9706SOL    HW130017   0.025   0.081   2.620
 9706SOL    HW230018   0.183   0.114   2.645
 9707SOL     OW30019   0.906   4.820   1.422
 9707SOL    HW130020   0.889   4.889   1.351
 9707SOL    HW230021   0.826   4.759   1.429
 9708SOL     OW30022   2.964   0.648   1.956
 9708SOL    HW130023   2.979   0.552   1.932
 9708SOL    HW230024   2.981   0.660   2.054
 9709SOL     OW30025   3.589   1.821   2.293
 9709SOL    HW130026   3.678   1.799   2.335
 9709SOL    HW230027   3.574   1.920   2.299
 9710SOL     OW30028   5.039   4.402   4.287
 9710SOL    HW130029   4.957   4.431   4.237
 9710SOL    HW230030   5.096   4.482   4.306
 9711SOL     OW30031   3.456   0.278   6.684
 9711SOL    HW130032   3.391   0.353   6.702
 9711SOL    HW230033   3.535   0.287   6.744
 9712SOL     OW30034   4.556   0.156   5.516
 9712SOL    HW130035   4.621   0.080   5.511
 9712SOL    HW230036   4.580   0.215   5.593
 9713SOL     OW30037   0.630   0.720   3.230
 9713SOL    HW130038   0.689   0.692   3.154
 9713SOL    HW230039   0.619   0.644   3.293
 9714SOL     OW30040   2.122   2.886   4.291
 9714SOL    HW130041   2.192   2.843   4.348
 9714SOL    HW230042   2.067   2.815   4.247
 9715SOL     OW30043   0.172   1.791   6.522
 9715SOL    HW130044   0.162   1.821   6.427
 9715SOL    HW230045   0.091   1.738   6.548
 9716SOL     OW30046   1.386   5.924   0.848
 9716SOL    HW130047   1.475   5.914   0.892
 9716SOL    HW230048   1.393   5.990   0.773
 9717SOL     OW30049   4.668   1.724   6.192
 9717SOL    HW130050   4.660   1.653   6.261
 9717SOL    HW230051   4.714   1.687   6.111
 9718SOL     OW30052   2.764   2.517   6.263
 9718SOL    HW130053   2.687   2.563   6.308
 9718SOL    HW230054   2.821   2.472   6.332
 9719SOL     OW30055   4.725   0.286   5.985
 9719SOL    HW130056   4.817   0.249   5.972
 9719SOL    HW230057   4.697   0.273   6.080
 9720SOL     OW30058   2.234   2.513   1.782
 9720SOL    HW130059   2.143   2.509   1.824
 9720SOL    HW230060   2.251   2.605   1.748
 9721SOL     OW30061   0.477   2.037   1.260
 9721SOL    HW130062   0.419   1.980   1.319
 9721SOL    HW230063   0.433   2.048   1.171
 9722SOL     OW30064   3.382   2.750   5.783
 9722SOL    HW130065   3.430   2.735   5.869
 9722SOL    HW230066   3.291   2.786   5.802
 9723SOL     OW30067   5.761   1.285   4.578
 9723SOL    HW130068   5.781   1.188   4.567
 9723SOL    HW230069   5.845   1.338   4.569
 9724SOL     OW30070   1.563   5.341   1.656
 9724SOL    HW130071   1.464   5.337   1.643
 9724SOL    HW230072   1.598   5.427   1.621
 9725SOL     OW30073   5.318   5.501   4.776
 9725SOL    HW130074   5.374   5.575   4.813
 9725SOL    HW230075   5.374   5.443   4.717
 9726SOL     OW30076   6.754   0.002   3.630
 9726SOL    HW130077   6.675   7.009   3.690
 9726SOL    HW230078   6.777   6.935   3.586
 9727SOL     OW30079   6.512   3.236   0.946
 9727SOL    HW130080   6.588   3.212   1.005
 9727SOL    HW230081   6.448   3.160   0.939
 9728SOL     OW30082   5.053   1.948   5.225
 9728SOL    HW130083   5.033   2.036   5.267
 9728SOL    HW230084   5.121   1.899   5.280
 9729SOL     OW30085   6.694   3.630   2.748
 9729SOL    HW130086   6.708   3.583   2.661
 9729SOL    HW230087   6.641   3.572   2.809
 9730SOL     OW30088   0.606   5.833   3.338
 9730SOL    HW130089   0.638   5.928   3.345
 9730SOL    HW230090   0.516   5.832   3.294
 9731SOL     OW30091   6.511   1.356   1.409
 9731SOL    HW130092   6.606   1.347   1.438
 9731SOL    HW230093   6.470   1.436   1.452
 9732SOL     OW30094   6.580   2.573   2.939
 9732SOL    HW130095   6.518   2.538   2.869
 9732SOL    HW230096   6.537   2.566   3.029
 9733SOL     OW30097   5.401   5.928   0.028
 9733SOL    HW130098   5.440   5.969   6.965
 9733SOL    HW230099   5.471   5.922   0.099
 9734SOL     OW30100   3.933   3.730   0.185
 9734SOL    HW130101   3.943   3.643   0.232
 9734SOL    HW230102   4.023   3.760   0.151
 9735SOL     OW30103   1.077   1.658   0.373
 9735SOL    HW130104   1.155   1.698   0.325
 9735SOL    HW230105   1.015   1.615   0.308
 9736SOL     OW30106   5.565   2.620   6.356
 9736SOL    HW130107   5.491   2.589   6.297
 9736SOL    HW230108   5.652   2.584   6.322
 9737SOL     OW30109   5.186   3.578   5.315
 9737SOL    HW130110   5.198   3.628   5.400
 9737SOL    HW230111   5.266   3.519   5.299
 9738SOL     OW30112   2.548   6.033   1.699
 9738SOL    HW130113   2.566   5.966   1.628
 9738SOL    HW230114   2.626   6.036   1.762
 9739SOL     OW30115   5.555   6.297   1.261
 9739SOL    HW130116   5.560   6.198   1.246
 9739SOL    HW230117   5.460   6.326   1.263
 9740SOL     OW30118   6.673   0.271   0.827
 9740SOL    HW130119   6.713   0.198   0.883
 9740SOL    HW230120   6.722   0.276   0.739
 9741SOL     OW30121   2.505   2.567   2.895
 9741SOL    HW130122   2.459   2.515   2.823
 9741SOL    HW230123   2.550   2.504   2.958
 9742SOL     OW30124   5.028   0.058   6.725
 9742SOL    HW130125   5.065   0.136   6.674
 9742SOL    HW230126   4.931   0.048   6.703
 9743SOL     OW30127   5.736   3.583   4.318
 9743SOL    HW130128   5.777   3.494   4.300
 9743SOL    HW230129   5.640   3.583   4.289
 9744SOL     OW30130   1.529   2.994   1.602
 9744SOL    HW130131   1.473   3.072   1.575
 9744SOL    HW230132   1.577   3.016   1.688
 9745SOL     OW30133   1.283   0.081   6.052
 9745SOL    HW130134   1.369   0.034   6.032
 9745SOL    HW230135   1.236   0.102   5.967
 9746SOL     OW30136   3.079   6.011   5.608
 9746SOL    HW130137   3.145   6.035   5.537
 9746SOL    HW230138   3.123   6.014   5.697
 9747SOL     OW30139   4.504   1.571   3.659
 9747SOL    HW130140   4.572   1.627   3.612
 9747SOL    HW230141   4.435   1.630   3.702
 9748SOL     OW30142   0.485   2.121   1.901
 9748SOL    HW130143   0.434   2.064   1.966
 9748SOL    HW230144   0.497   2.072   1.815
 9749SOL     OW30145   6.348   6.908   1.870
 9749SOL    HW130146   6.336   6.870   1.962
 9749SOL    HW230147   6.258   6.932   1.832
 9750SOL     OW30148   5.417   2.452   4.430
 9750SOL    HW130149   5.320   2.435   4.411
 9750SOL    HW230150   5.428   2.477   4.526
 9751SOL     OW30151   3.132   4.956   0.656
 9751SOL    HW130152   3.121   4.912   0.567
 9751SOL    HW230153   3.134   4.887   0.728
 9752SOL     OW30154   4.290   3.956   0.813
 9752SOL    HW130155   4.271   4.008   0.730
 9752SOL    HW230156   4.205   3.916   0.847
 9753SOL     OW30157   6.206   6.269   2.959
 9753SOL    HW130158   6.275   6.263   2.886
 9753SOL    HW230159   6.239   6.220   3.040
 9754SOL     OW30160   3.901   0.707   2.070
 9754SOL    HW130161   3.894   0.710   1.970
 9754SOL    HW230162   3.997   0.717   2.096
 9755SOL     OW30163   3.384   4.272   1.196
 9755SOL    HW130164   3.367   4.306   1.288
 9755SOL    HW230165   3.339   4.332   1.129
 9756SOL     OW30166   4.365   6.814   0.392
 9756SOL    HW130167   4.374   6.911   0.369
 9756SOL    HW230168   4.416   6.795   0.476
 9757SOL     OW30169   5.089   4.128   3.869
 9757SOL    HW130170   5.019   4.198   3.874
 9757SOL    HW230171   5.177   4.170   3.847
 9758SOL     OW30172   3.100   0.796   1.147
 9758SOL    HW130173   3.077   0.705   1.182
 9758SOL    HW230174   3.078   0.864   1.217
 9759SOL     OW30175   6.653   1.522   0.566
 9759SOL    HW130176   6.656   1.622   0.556
 9759SOL    HW230177   6.570   1.496   0.616
 9760SOL     OW30178   5.075   0.996   5.941
 9760SOL    HW130179   4.994   1.015   5.886
 9760SOL    HW230180   5.056   1.015   6.037
 9761SOL     OW30181   0.784   2.803   1.682
 9761SOL    HW130182   0.872   2.818   1.636
 9761SOL    HW230183   0.762   2.706   1.680
 9762SOL     OW30184   3.337   1.150   5.737
 9762SOL    HW130185   3.288   1.221   5.686
 9762SOL    HW230186   3.427   1.135   5.696
 9763SOL     OW30187   6.010   2.257   0.882
 9763SOL    HW130188   6.031   2.172   0.832
 9763SOL    HW230189   5.976   2.326   0.818
 9764SOL     OW30190   0.225   2.708   3.505
 9764SOL    HW130191   0.225   2.776   3.432
 9764SOL    HW230192   0.307   2.718   3.561
 9765SOL     OW30193   6.739   2.132   0.889
 9765SOL    HW130194   6.819   2.100   0.940
 9765SOL    HW230195   6.694   2.205   0.941
 9766SOL     OW30196   0.770   3.208   2.857
 9766SOL    HW130197   0.720   3.207   2.770
 9766SOL    HW230198   0.725   3.146   2.921
 9767SOL     OW30199   4.051   1.748   4.783
 9767SOL    HW130200   4.036   1.650   4.766
 9767SOL    HW230201   3.965   1.789   4.812
 9768SOL     OW30202   4.886   3.176   6.564
 9768SOL    HW130203   4.820   3.251   6.559
 9768SOL    HW230204   4.851   3.097   6.514
 9769SOL     OW30205   3.196   0.934   5.783
 9769SOL    HW130206   3.251   1.018   5.781
 9769SOL    HW230207   3.253   0.857   5.755
 9770SOL     OW30208   1.713   3.594   5.112
 9770SOL    HW130209   1.811   3.609   5.124
 9770SOL    HW230210   1.662   3.663   5.163
 9771SOL     OW30211   3.734   0.646   1.681
 9771SOL    HW130212   3.705   0.740   1.667
 9771SOL    HW230213   3.671   0.600   1.744
 9772SOL     OW30214   0.582   1.023   1.667
 9772SOL    HW130215   0.609   0.960   1.593
 9772SOL    HW230216   0.522   0.975   1.731
 9773SOL     OW30217   4.522   6.276   2.258
 9773SOL    HW130218   4.523   6.178   2.278
 9773SOL    HW230219   4.521   6.328   2.343
 9774SOL     OW30220   1.327   5.325   5.249
 9774SOL    HW130221   1.353   5.241   5.297
 9774SOL    HW230222   1.341   5.403   5.310
 9775SOL     OW30223   1.572   1.365   3.321
 9775SOL    HW130224   1.498   1.299   3.318
 9775SOL    HW230225   1.598   1.382   3.416
 9776SOL     OW30226   1.099   5.706   1.634
 9776SOL    HW130227   1.054   5.653   1.705
 9776SOL    HW230228   1.180   5.751   1.672
 9777SOL     OW30229   4.629   2.286   4.962
 9777SOL    HW130230   4.728   2.274   4.954
 9777SOL    HW230231   4.584   2.197   4.956
 9778SOL     OW30232   1.696   3.240   2.939
 9778SOL    HW130233   1.749   3.171   2.889
 9778SOL    HW230234   1.665   3.202   3.026
 9779SOL     OW30235   1.940   0.982   2.694
 9779SOL    HW130236   2.033   0.946   2.702
 9779SOL    HW230237   1.877   0.907   2.671
 9780SOL     OW30238   1.838   2.086   1.205
 9780SOL    HW130239   1.790   2.002   1.233
 9780SOL    HW230240   1.787   2.130   1.132
 9781SOL     OW30241   1.479   1.180   2.017
 9781SOL    HW130242   1.412   1.136   1.958
 9781SOL    HW230243   1.508   1.267   1.976
 9782SOL     OW30244   0.528   2.418   6.798
 9782SOL    HW130245   0.609   2.409   6.741
 9782SOL    HW230246   0.489   2.328   6.816
 9783SOL     OW30247   4.858   1.088   2.053
 9783SOL    HW130248   4.946   1.133   2.070
 9783SOL    HW230249   4.811   1.074   2.139
 9784SOL     OW30250   2.382   1.351   0.731
 9784SOL    HW130251   2.465   1.401   0.705
 9784SOL    HW230252   2.364   1.280   0.663
 9785SOL     OW30253   1.609   3.901   4.488
 9785SOL    HW130254   1.560   3.983   4.518
 9785SOL    HW230255   1.664   3.922   4.408
 9786SOL     OW30256   3.403   4.030   0.188
 9786SOL    HW130257   3.335   3.956   0.188
 9786SOL    HW230258   3.374   4.102   0.251
 9787SOL     OW30259   2.759   3.554   1.289
 9787SOL    HW130260   2.792   3.556   1.195
 9787SOL    HW230261   2.795   3.633   1.339
 9788SOL     OW30262   2.584   0.161   3.563
 9788SOL    HW130263   2.639   0.238   3.596
 9788SOL    HW230264   2.603   0.146   3.466
 9789SOL     OW30265   4.149   1.904   6.874
 9789SOL    HW130266   4.108   1.834   6.932
 9789SOL    HW230267   4.206   1.861   6.804
 9790SOL     OW30268   4.364   5.891   5.123
 9790SOL    HW130269   4.335   5.810   5.071
 9790SOL    HW230270   4.283   5.940   5.155
 9791SOL     OW30271   0.523   0.917   1.120
 9791SOL    HW130272   0.538   0.974   1.200
 9791SOL    HW230273   0.601   0.926   1.058
 9792SOL     OW30274   3.156   3.565   0.495
 9792SOL    HW130275   3.112   3.495   0.551
 9792SOL    HW230276   3.255   3.564   0.513
 9793SOL     OW30277   5.273   0.677   1.560
 9793SOL    HW130278   5.347   0.692   1.495
 9793SOL    HW230279   5.236   0.765   1.591
 9794SOL     OW30280   4.107   6.017   5.212
 9794SOL    HW130281   4.054   6.085   5.161
 9794SOL    HW230282   4.100   6.036   5.310
 9795SOL     OW30283   1.632   3.907   3.178
 9795SOL    HW130284   1.564   3.924   3.107
 9795SOL    HW230285   1.602   3.949   3.264
 9796SOL     OW30286   4.077   3.347   5.043
 9796SOL    HW130287   4.125   3.397   5.115
 9796SOL    HW230288   4.121   3.364   4.955
 9797SOL     OW30289   3.873   5.073   0.585
 9797SOL    HW130290   3.789   5.122   0.607
 9797SOL    HW230291   3.947   5.138   0.571
 9798SOL     OW30292   0.491   3.993   6.233
 9798SOL    HW130293   0.487   3.906   6.184
 9798SOL    HW230294   0.399   4.033   6.238
 9799SOL     OW30295   3.501   0.111   6.236
 9799SOL    HW130296   3.556   0.115   6.153
 9799SOL    HW230297   3.487   0.016   6.263
 9800SOL     OW30298   6.908   4.289   4.738
 9800SOL    HW130299   6.916   4.323   4.832
 9800SOL    HW230300   6.967   4.343   4.679
 9801SOL     OW30301   3.984   6.983   1.146
 9801SOL    HW130302   4.014   6.889   1.161
 9801SOL    HW230303   4.031   0.024   1.209
 9802SOL     OW30304   4.145   2.695   0.425
 9802SOL    HW130305   4.225   2.650   0.465
 9802SOL    HW230306   4.163   2.793   0.414
 9803SOL     OW30307   2.704   3.916   0.242
 9803SOL    HW130308   2.718   4.012   0.218
 9803SOL    HW230309   2.769   3.890   0.313
 9804SOL     OW30310   0.975   3.746   2.763
 9804SOL    HW130311   0.884   3.727   2.800
 9804SOL    HW230312   1.040   3.760   2.838
 9805SOL     OW30313   6.990   4.604   5.055
 9805SOL    HW130314   0.034   4.642   5.121
 9805SOL    HW230315   6.897   4.613   5.090
 9806SOL     OW30316   3.510   1.348   0.256
 9806SOL    HW130317   3.497   1.386   0.347
 9806SOL    HW230318   3.553   1.416   0.197
 9807SOL     OW30319   3.544   3.516   4.808
 9807SOL    HW130320   3.486   3.516   4.726
 9807SOL    HW230321   3.487   3.532   4.888
 9808SOL     OW30322   2.565   6.152   2.639
 9808SOL    HW130323   2.523   6.114   2.722
 9808SOL    HW230324   2.501   6.214   2.595
 9809SOL     OW30325   6.718   3.150   1.104
 9809SOL    HW130326   6.766   3.156   1.192
 9809SOL    HW230327   6.769   3.200   1.034
 9810SOL     OW30328   4.017   2.815   0.924
 9810SOL    HW130329   4.081   2.892   0.926
 9810SOL    HW230330   3.960   2.821   0.842
 9811SOL     OW30331   4.959   3.638   4.194
 9811SOL    HW130332   4.893   3.669   4.126
 9811SOL    HW230333   4.942   3.541   4.215
 9812SOL     OW30334   2.990   5.252   6.397
 9812SOL    HW130335   2.959   5.173   6.345
 9812SOL    HW230336   3.060   5.223   6.463
 9813SOL     OW30337   4.510   0.590   1.830
 9813SOL    HW130338   4.481   0.588   1.734
 9813SOL    HW230339   4.502   0.499   1.870
 9814SOL     OW30340   6.654   1.430   6.373
 9814SOL    HW130341   6.637   1.490   6.295
 9814SOL    HW230342   6.569   1.386   6.401
 9815SOL     OW30343   5.359   2.392   4.726
 9815SOL    HW130344   5.308   2.309   4.704
 9815SOL    HW230345   5.317   2.437   4.805
 9816SOL     OW30346   3.509   0.888   0.082
 9816SOL    HW130347   3.442   0.861   0.151
 9816SOL    HW230348   3.584   0.821   0.081
 9817SOL     OW30349   6.267   0.133   1.358
 9817SOL    HW130350   6.299   0.050   1.403
 9817SOL    HW230351   6.171   0.149   1.381
 9818SOL     OW30352   3.858   2.236   5.199
 9818SOL    HW130353   3.860   2.225   5.099
 9818SOL    HW230354   3.767   2.265   5.228
 9819SOL     OW30355   2.376   0.422   1.918
 9819SOL    HW130356   2.279   0.403   1.901
 9819SOL    HW230357   2.405   0.378   2.003
 9820SOL     OW30358   4.098   2.931   6.997
 9820SOL    HW130359   4.008   2.928   0.019
 9820SOL    HW230360   4.089   2.930   6.898
 9821SOL     OW30361   0.892   6.341   6.464
 9821SOL    HW130362   0.874   6.402   6.387
 9821SOL    HW230363   0.835   6.368   6.542
 9822SOL     OW30364   0.118   1.438   2.446
 9822SOL    HW130365   0.033   1.473   2.486
 9822SOL    HW230366   0.136   1.487   2.360
 9823SOL     OW30367   3.316   6.663   2.421
 9823SOL    HW130368   3.293   6.750   2.378
 9823SOL    HW230369   3.278   6.588   2.367
 9824SOL     OW30370   2.212   3.855   5.283
 9824SOL    HW130371   2.169   3.942   5.308
 9824SOL    HW230372   2.296   3.872   5.231
 9825SOL     OW30373   4.237   4.682   5.364
 9825SOL    HW130374   4.272   4.738   5.439
 9825SOL    HW230375   4.183   4.739   5.302
 9826SOL     OW30376   5.933   0.183   5.394
 9826SOL    HW130377   5.949   0.086   5.413
 9826SOL    HW230378   5.835   0.201   5.398
 9827SOL     OW30379   1.207   5.320   4.865
 9827SOL    HW130380   1.121   5.366   4.888
 9827SOL    HW230381   1.189   5.243   4.804
 9828SOL     OW30382   2.545   1.387   0.316
 9828SOL    HW130383   2.479   1.342   0.256
 9828SOL    HW230384   2.596   1.455   0.265
 9829SOL     OW30385   3.088   4.362   1.439
 9829SOL    HW130386   3.163   4.300   1.463
 9829SOL    HW230387   3.028   4.318   1.372
 9830SOL     OW30388   5.985   1.207   1.373
 9830SOL    HW130389   5.950   1.256   1.453
 9830SOL    HW230390   6.083   1.226   1.363
 9831SOL     OW30391   6.738   6.079   1.539
 9831SOL    HW130392   6.799   6.158   1.542
 9831SOL    HW230393   6.655   6.103   1.488
 9832SOL     OW30394   2.819   3.598   1.006
 9832SOL    HW130395   2.868   3.685   1.019
 9832SOL    HW230396   2.853   3.553   0.924
 9833SOL     OW30397   4.831   4.638   0.520
 9833SOL    HW130398   4.732   4.630   0.511
 9833SOL    HW230399   4.874   4.550   0.501
 9834SOL     OW30400   1.704   3.141   4.134
 9834SOL    HW130401   1.725   3.091   4.218
 9834SOL    HW230402   1.759   3.225   4.130
 9835SOL     OW30403   4.929   2.067   4.298
 9835SOL    HW130404   5.019   2.026   4.313
 9835SOL    HW230405   4.867   1.999   4.257
 9836SOL     OW30406   5.845   5.244   1.418
 9836SOL    HW130407   5.862   5.168   1.480
 9836SOL    HW230408   5.797   5.211   1.337
 9837SOL     OW30409   2.435   5.374   5.417
 9837SOL    HW130410   2.405   5.419   5.333
 9837SOL    HW230411   2.523   5.330   5.402
 9838SOL     OW30412   6.966   6.702   4.938
 9838SOL    HW130413   0.009   6.630   4.967
 9838SOL    HW230414   6.993   6.789   4.979
 9839SOL     OW30415   5.994   2.922   3.426
 9839SOL    HW130416   6.073   2.870   3.393
 9839SOL    HW230417   6.013   2.956   3.518
 9840SOL     OW30418   5.543   0.039   0.445
 9840SOL    HW130419   5.604   0.115   0.471
 9840SOL    HW230420   5.480   0.020   0.521
 9841SOL     OW30421   1.995   3.080   4.466
 9841SOL    HW130422   2.044   3.014   4.410
 9841SOL    HW230423   2.033   3.172   4.451
 9842SOL     OW30424   3.075   3.170   4.296
 9842SOL    HW130425   3.172   3.182   4.318
 9842SOL    HW230426   3.040   3.090   4.345
 9843SOL     OW30427   6.135   4.550   3.078
 9843SOL    HW130428   6.142   4.593   2.988
 9843SOL    HW230429   6.099   4.457   3.067
 9844SOL     OW30430   4.402   0.224   1.931
 9844SOL    HW130431   4.306   0.245   1.950
 9844SOL    HW230432   4.406   0.153   1.860
 9845SOL     OW30433   1.421   1.862   4.200
 9845SOL    HW130434   1.518   1.866   4.223
 9845SOL    HW230435   1.406   1.903   4.110
 9846SOL     OW30436   2.870   3.466   4.204
 9846SOL    HW130437   2.799   3.410   4.246
 9846SOL    HW230438   2.954   3.458   4.257
 9847SOL     OW30439   2.582   4.554   3.952
 9847SOL    HW130440   2.572   4.498   3.870
 9847SOL    HW230441   2.494   4.560   4.000
 9848SOL     OW30442   6.859   4.276   6.845
 9848SOL    HW130443   6.813   4.222   6.916
 9848SOL    HW230444   6.815   4.259   6.757
 9849SOL     OW30445   0.005   6.246   5.228
 9849SOL    HW130446   6.979   6.158   5.235
 9849SOL    HW230447   6.979   6.313   5.286
 9850SOL     OW30448   5.325   0.422   3.717
 9850SOL    HW130449   5.308   0.444   3.620
 9850SOL    HW230450   5.239   0.429   3.768
 9851SOL     OW30451   5.096   2.345   5.126
 9851SOL    HW130452   5.178   2.307   5.167
 9851SOL    HW230453   5.035   2.379   5.198
 9852SOL     OW30454   5.278   1.825   3.950
 9852SOL    HW130455   5.179   1.812   3.957
 9852SOL    HW230456   5.303   1.835   3.853
 9853SOL     OW30457   0.595   5.212   0.978
 9853SOL    HW130458   0.552   5.125   0.956
 9853SOL    HW230459   0.525   5.277   1.010
 9854SOL     OW30460   3.595   6.470   4.157
 9854SOL    HW130461   3.618   6.484   4.254
 9854SOL    HW230462   3.642   6.538   4.101
 9855SOL     OW30463   2.486   4.328   0.704
 9855SOL    HW130464   2.507   4.313   0.800
 9855SOL    HW230465   2.392   4.299   0.685
 9856SOL     OW30466   3.648   3.547   0.993
 9856SOL    HW130467   3.728   3.594   0.955
 9856SOL    HW230468   3.624   3.589   1.081
 9857SOL     OW30469   6.386   4.575   3.171
 9857SOL    HW130470   6.293   4.555   3.143
 9857SOL    HW230471   6.441   4.491   3.168
 9858SOL     OW30472   3.468   1.244   1.429
 9858SOL    HW130473   3.519   1.253   1.514
 9858SOL    HW230474   3.531   1.233   1.353
 9859SOL     OW30475   0.549   6.502   1.318
 9859SOL    HW130476   0.505   6.558   1.388
 9859SOL    HW230477   0.647   6.494   1.339
 9860SOL     OW30478   1.180   1.088   2.614
 9860SOL    HW130479   1.219   1.006   2.655
 9860SOL    HW230480   1.090   1.106   2.653
 9861SOL     OW30481   2.298   6.112   3.747
 9861SOL    HW130482   2.259   6.204   3.752
 9861SOL    HW230483   2.362   6.100   3.823
 9862SOL     OW30484   0.151   1.858   0.962
 9862SOL    HW130485   0.078   1.924   0.943
 9862SOL    HW230486   0.226   1.905   1.009
 9863SOL     OW30487   4.565   0.456   0.565
 9863SOL    HW130488   4.557   0.541   0.615
 9863SOL    HW230489   4.653   0.453   0.517
 9864SOL     OW30490   3.728   5.748   3.601
 9864SOL    HW130491   3.656   5.679   3.592
 9864SOL    HW230492   3.818   5.704   3.592
 9865SOL     OW30493   1.843   3.375   4.031
 9865SOL    HW130494   1.926   3.423   4.061
 9865SOL    HW230495   1.762   3.424   4.064
 9866SOL     OW30496   2.763   4.724   3.471
 9866SOL    HW130497   2.756   4.734   3.372
 9866SOL    HW230498   2.676   4.691   3.508
 9867SOL     OW30499   3.442   6.431   5.950
 9867SOL    HW130500   3.444   6.531   5.954
 9867SOL    HW230501   3.490   6.393   6.029
 9868SOL     OW30502   1.220   5.236   6.056
 9868SOL    HW130503   1.237   5.171   6.131
 9868SOL    HW230504   1.307   5.268   6.019
 9869SOL     OW30505   0.925   4.746   2.687
 9869SOL    HW130506   1.016   4.777   2.661
 9869SOL    HW230507   0.915   4.751   2.787
 9870SOL     OW30508   4.411   5.653   1.571
 9870SOL    HW130509   4.447   5.643   1.664
 9870SOL    HW230510   4.486   5.652   1.505
 9871SOL     OW30511   2.388   2.754   5.862
 9871SOL    HW130512   2.299   2.743   5.819
 9871SOL    HW230513   2.412   2.670   5.911
 9872SOL     OW30514   1.262   3.943   2.819
 9872SOL    HW130515   1.318   3.886   2.758
 9872SOL    HW230516   1.202   3.884   2.873
 9873SOL     OW30517   1.967   1.803   1.195
 9873SOL    HW130518   2.008   1.824   1.284
 9873SOL    HW230519   1.965   1.886   1.139
 9874SOL     OW30520   1.007   4.010   4.497
 9874SOL    HW130521   1.003   4.097   4.447
 9874SOL    HW230522   0.988   4.026   4.594
 9875SOL     OW30523   1.259   1.440   3.397
 9875SOL    HW130524   1.274   1.485   3.309
 9875SOL    HW230525   1.205   1.357   3.382
 9876SOL     OW30526   6.765   5.860   2.141
 9876SOL    HW130527   6.820   5.779   2.163
 9876SOL    HW230528   6.674   5.832   2.110
 9877SOL     OW30529   4.042   0.526   1.295
 9877SOL    HW130530   3.981   0.449   1.277
 9877SOL    HW230531   4.073   0.521   1.391
 9878SOL     OW30532   6.627   1.394   5.031
 9878SOL    HW130533   6.725   1.380   5.046
 9878SOL    HW230534   6.589   1.446   5.107
 9879SOL     OW30535   5.033   5.201   5.161
 9879SOL    HW130536   5.071   5.229   5.072
 9879SOL    HW230537   4.992   5.280   5.206
 9880SOL     OW30538   1.206   2.517   3.883
 9880SOL    HW130539   1.116   2.489   3.850
 9880SOL    HW230540   1.276   2.491   3.817
 9881SOL     OW30541   0.476   1.408   5.870
 9881SOL    HW130542   0.458   1.323   5.820
 9881SOL    HW230543   0.456   1.394   5.967
 9882SOL     OW30544   1.776   2.592   3.432
 9882SOL    HW130545   1.806   2.518   3.372
 9882SOL    HW230546   1.846   2.664   3.434
 9883SOL     OW30547   2.791   1.609   2.459
 9883SOL    HW130548   2.697   1.583   2.481
 9883SOL    HW230549   2.837   1.533   2.412
 9884SOL     OW30550   3.376   0.584   3.798
 9884SOL    HW130551   3.350   0.518   3.728
 9884SOL    HW230552   3.454   0.549   3.850
 9885SOL     OW30553   6.397   2.983   4.878
 9885SOL    HW130554   6.478   3.040   4.864
 9885SOL    HW230555   6.353   2.964   4.790
 9886SOL     OW30556   6.943   2.899   1.778
 9886SOL    HW130557   6.903   2.818   1.820
 9886SOL    HW230558   6.876   2.940   1.716
 9887SOL     OW30559   4.658   6.270   5.859
 9887SOL    HW130560   4.718   6.238   5.785
 9887SOL    HW230561   4.565   6.282   5.825
 9888SOL     OW30562   6.288   4.766   5.245
 9888SOL    HW130563   6.259   4.710   5.168
 9888SOL    HW230564   6.385   4.788   5.236
 9889SOL     OW30565   0.650   5.603   0.789
 9889SOL    HW130566   0.727   5.590   0.727
 9889SOL    HW230567   0.635   5.700   0.804
 9890SOL     OW30568   0.671   2.631   0.895
 9890SOL    HW130569   0.647   2.553   0.952
 9890SOL    HW230570   0.587   2.672   0.858
 9891SOL     OW30571   5.031   1.076   2.274
 9891SOL    HW130572   4.970   1.138   2.324
 9891SOL    HW230573   5.090   1.129   2.213
 9892SOL     OW30574   0.830   0.131   6.433
 9892SOL    HW130575   0.778   0.215   6.415
 9892SOL    HW230576   0.927   0.148   6.415
 9893SOL     OW30577   2.342   1.180   0.533
 9893SOL    HW130578   2.246   1.192   0.507
 9893SOL    HW230579   2.399   1.173   0.451
 9894SOL     OW30580   1.921   0.939   1.557
 9894SOL    HW130581   1.821   0.949   1.553
 9894SOL    HW230582   1.952   0.949   1.651
 9895SOL     OW30583   4.477   2.512   5.606
 9895SOL    HW130584   4.430   2.517   5.518
 9895SOL    HW230585   4.483   2.604   5.646
 9896SOL     OW30586   6.256   6.790   5.912
 9896SOL    HW130587   6.205   6.857   5.967
 9896SOL    HW230588   6.344   6.829   5.885
 9897SOL     OW30589   5.480   5.145   5.069
 9897SOL    HW130590   5.483   5.054   5.030
 9897SOL    HW230591   5.388   5.183   5.060
 9898SOL     OW30592   2.445   0.053   6.838
 9898SOL    HW130593   2.352   0.044   6.804
 9898SOL    HW230594   2.481   6.982   6.860
 9899SOL     OW30595   7.011   4.781   6.972
 9899SOL    HW130596   6.974   4.696   7.008
 9899SOL    HW230597   6.937   4.848   6.961
 9900SOL     OW30598   2.296   4.578   3.345
 9900SOL    HW130599   2.251   4.489   3.336
 9900SOL    HW230600   2.241   4.649   3.301
 9901SOL     OW30601   1.981   3.519   5.286
 9901SOL    HW130602   1.993   3.607   5.241
 9901SOL    HW230603   2.040   3.451   5.242
 9902SOL     OW30604   2.804   4.461   1.013
 9902SOL    HW130605   2.749   4.506   1.083
 9902SOL    HW230606   2.768   4.370   0.995
 9903SOL     OW30607   5.609   1.378   5.286
 9903SOL    HW130608   5.697   1.335   5.309
 9903SOL    HW230609   5.596   1.375   5.187
 9904SOL     OW30610   6.445   1.945   0.375
 9904SOL    HW130611   6.454   2.036   0.415
 9904SOL    HW230612   6.534   1.911   0.348
 9905SOL     OW30613   5.155   0.194   0.132
 9905SOL    HW130614   5.092   0.136   0.080
 9905SOL    HW230615   5.218   0.136   0.184
 9906SOL     OW30616   3.166   3.424   5.193
 9906SOL    HW130617   3.120   3.506   5.160
 9906SOL    HW230618   3.098   3.358   5.224
 9907SOL     OW30619   1.550   6.530   1.717
 9907SOL    HW130620   1.456   6.501   1.732
 9907SOL    HW230621   1.603   6.454   1.681
 9908SOL     OW30622   5.310   3.661   1.677
 9908SOL    HW130623   5.213   3.637   1.683
 9908SOL    HW230624   5.365   3.589   1.719
 9909SOL     OW30625   1.878   0.265   4.567
 9909SOL    HW130626   1.787   0.243   4.532
 9909SOL    HW230627   1.936   0.184   4.563
 9910SOL     OW30628   0.146   4.529   4.108
 9910SOL    HW130629   0.149   4.469   4.187
 9910SOL    HW230630   0.116   4.620   4.137
 9911SOL     OW30631   2.530   6.551   2.360
 9911SOL    HW130632   2.464   6.625   2.369
 9911SOL    HW230633   2.517   6.504   2.272
 9912SOL     OW30634   4.487   0.841   5.708
 9912SOL    HW130635   4.468   0.911   5.777
 9912SOL    HW230636   4.474   0.880   5.616
 9913SOL     OW30637   5.093   3.068   0.428
 9913SOL    HW130638   5.191   3.048   0.427
 9913SOL    HW230639   5.060   3.067   0.523
 9914SOL     OW30640   6.979   3.297   4.787
 9914SOL    HW130641   7.006   3.295   4.691
 9914SOL    HW230642   0.002   3.222   4.836
 9915SOL     OW30643   4.492   1.354   3.833
 9915SOL    HW130644   4.553   1.416   3.783
 9915SOL    HW230645   4.409   1.404   3.860
 9916SOL     OW30646   1.428   2.900   1.359
 9916SOL    HW130647   1.343   2.926   1.405
 9916SOL    HW230648   1.506   2.935   1.410
 9917SOL     OW30649   6.211   4.622   5.666
 9917SOL    HW130650   6.292   4.644   5.721
 9917SOL    HW230651   6.147   4.698   5.667
 9918SOL     OW30652   4.874   3.238   2.482
 9918SOL    HW130653   4.921   3.187   2.410
 9918SOL    HW230654   4.856   3.331   2.450
 9919SOL     OW30655   5.416   5.850   0.391
 9919SOL    HW130656   5.390   5.929   0.446
 9919SOL    HW230657   5.420   5.768   0.448
 9920SOL     OW30658   4.881   1.094   2.667
 9920SOL    HW130659   4.796   1.133   2.701
 9920SOL    HW230660   4.870   0.995   2.654
 9921SOL     OW30661   4.048   4.898   6.078
 9921SOL    HW130662   4.096   4.826   6.028
 9921SOL    HW230663   3.978   4.857   6.137
 9922SOL     OW30664   0.188   5.873   1.314
 9922SOL    HW130665   0.195   5.951   1.376
 9922SOL    HW230666   0.128   5.896   1.237
 9923SOL     OW30667   6.080   4.203   0.400
 9923SOL    HW130668   6.020   4.207   0.320
 9923SOL    HW230669   6.039   4.144   0.469
 9924SOL     OW30670   1.594   4.512   4.547
 9924SOL    HW130671   1.575   4.547   4.638
 9924SOL    HW230672   1.543   4.427   4.532
 9925SOL     OW30673   4.766   2.586   4.098
 9925SOL    HW130674   4.845   2.629   4.142
 9925SOL    HW230675   4.759   2.491   4.129
 9926SOL     OW30676   3.702   5.182   1.518
 9926SOL    HW130677   3.622   5.200   1.575
 9926SOL    HW230678   3.713   5.256   1.451
 9927SOL     OW30679   5.378   0.321   4.388
 9927SOL    HW130680   5.402   0.301   4.293
 9927SOL    HW230681   5.437   0.394   4.422
 9928SOL     OW30682   5.027   4.259   2.400
 9928SOL    HW130683   5.104   4.223   2.346
 9928SOL    HW230684   5.058   4.339   2.451
 9929SOL     OW30685   0.730   4.161   3.400
 9929SOL    HW130686   0.641   4.201   3.418
 9929SOL    HW230687   0.745   4.155   3.301
 9930SOL     OW30688   5.534   0.813   3.045
 9930SOL    HW130689   5.457   0.751   3.030
 9930SOL    HW230690   5.552   0.822   3.143
 9931SOL     OW30691   1.178   5.556   5.814
 9931SOL    HW130692   1.202   5.653   5.814
 9931SOL    HW230693   1.160   5.527   5.908
 9932SOL     OW30694   0.440   5.818   4.270
 9932SOL    HW130695   0.394   5.907   4.270
 9932SOL    HW230696   0.409   5.765   4.191
 9933SOL     OW30697   6.963   6.584   2.941
 9933SOL    HW130698   6.983   6.514   2.872
 9933SOL    HW230699   6.882   6.557   2.993
 9934SOL     OW30700   0.059   2.501   4.864
 9934SOL    HW130701   0.024   2.410   4.886
 9934SOL    HW230702   7.009   2.569   4.886
 9935SOL     OW30703   2.209   0.403   6.105
 9935SOL    HW130704   2.234   0.308   6.125
 9935SOL    HW230705   2.115   0.405   6.070
 9936SOL     OW30706   1.993   4.325   3.814
 9936SOL    HW130707   2.029   4.343   3.905
 9936SOL    HW230708   2.051   4.367   3.744
 9937SOL     OW30709   6.364   2.121   5.853
 9937SOL    HW130710   6.274   2.140   5.815
 9937SOL    HW230711   6.357   2.052   5.925
 9938SOL     OW30712   6.715   6.169   2.854
 9938SOL    HW130713   6.732   6.152   2.757
 9938SOL    HW230714   6.799   6.151   2.906
 9939SOL     OW30715   3.350   2.915   4.095
 9939SOL    HW130716   3.382   2.996   4.046
 9939SOL    HW230717   3.255   2.929   4.123
 9940SOL     OW30718   0.314   1.173   0.827
 9940SOL    HW130719   0.330   1.264   0.867
 9940SOL    HW230720   0.237   1.129   0.874
 9941SOL     OW30721   3.343   5.849   4.660
 9941SOL    HW130722   3.321   5.753   4.678
 9941SOL    HW230723   3.424   5.875   4.712
 9942SOL     OW30724   2.787   5.939   4.018
 9942SOL    HW130725   2.757   5.865   4.078
 9942SOL    HW230726   2.837   6.007   4.072
 9943SOL     OW30727   0.674   6.725   4.895
 9943SOL    HW130728   0.711   6.640   4.856
 9943SOL    HW230729   0.636   6.781   4.822
 9944SOL     OW30730   1.961   4.193   6.168
 9944SOL    HW130731   1.891   4.248   6.215
 9944SOL    HW230732   1.988   4.238   6.083
 9945SOL     OW30733   0.301   5.697   6.474
 9945SOL    HW130734   0.333   5.699   6.379
 9945SOL    HW230735   0.295   5.791   6.508
 9946SOL     OW30736   5.470   0.308   4.131
 9946SOL    HW130737   5.535   0.234   4.111
 9946SOL    HW230738   5.456   0.363   4.049
 9947SOL     OW30739   5.982   4.476   3.937
 9947SOL    HW130740   5.946   4.469   4.030
 9947SOL    HW230741   6.080   4.459   3.938
 9948SOL     OW30742   5.535   3.957   3.575
 9948SOL    HW130743   5.568   4.007   3.655
 9948SOL    HW230744   5.515   3.862   3.600
 9949SOL     OW30745   6.246   4.934   2.201
 9949SOL    HW130746   6.250   4.837   2.177
 9949SOL    HW230747   6.152   4.960   2.221
 9950SOL     OW30748   4.109   5.985   0.170
 9950SOL    HW130749   4.128   6.032   0.257
 9950SOL    HW230750   4.109   6.052   0.096
 9951SOL     OW30751   5.846   3.117   2.773
 9951SOL    HW130752   5.919   3.186   2.772
 9951SOL    HW230753   5.841   3.076   2.864
 9952SOL     OW30754   0.666   4.481   6.338
 9952SOL    HW130755   0.735   4.460   6.408
 9952SOL    HW230756   0.672   4.414   6.264
 9953SOL     OW30757   5.517   3.204   3.818
 9953SOL    HW130758   5.467   3.181   3.902
 9953SOL    HW230759   5.591   3.267   3.839
 9954SOL     OW30760   4.729   0.653   5.164
 9954SOL    HW130761   4.829   0.661   5.160
 9954SOL    HW230762   4.704   0.580   5.227
 9955SOL     OW30763   0.510   4.931   4.518
 9955SOL    HW130764   0.496   4.854   4.456
 9955SOL    HW230765   0.507   5.016   4.466
 9956SOL     OW30766   0.890   6.280   0.409
 9956SOL    HW130767   0.901   6.180   0.408
 9956SOL    HW230768   0.836   6.308   0.329
 9957SOL     OW30769   5.825   5.593   2.203
 9957SOL    HW130770   5.831   5.496   2.181
 9957SOL    HW230771   5.905   5.619   2.257
 9958SOL     OW30772   3.024   4.419   0.717
 9958SOL    HW130773   3.111   4.454   0.683
 9958SOL    HW230774   2.955   4.492   0.713
 9959SOL     OW30775   3.292   3.999   1.140
 9959SOL    HW130776   3.347   3.916   1.148
 9959SOL    HW230777   3.347   4.078   1.169
 9960SOL     OW30778   0.739   0.963   2.096
 9960SOL    HW130779   0.660   0.914   2.134
 9960SOL    HW230780   0.823   0.916   2.121
 9961SOL     OW30781   2.257   4.025   4.467
 9961SOL    HW130782   2.260   3.962   4.389
 9961SOL    HW230783   2.209   3.982   4.543
 9962SOL     OW30784   5.926   6.341   4.534
 9962SOL    HW130785   6.015   6.354   4.576
 9962SOL    HW230786   5.936   6.337   4.434
 9963SOL     OW30787   3.116   2.453   0.297
 9963SOL    HW130788   3.204   2.438   0.341
 9963SOL    HW230789   3.128   2.452   0.197
 9964SOL     OW30790   5.568   6.542   4.806
 9964SOL    HW130791   5.657   6.571   4.771
 9964SOL    HW230792   5.580   6.499   4.896
 9965SOL     OW30793   5.122   0.038   1.893
 9965SOL    HW130794   5.086   0.091   1.816
 9965SOL    HW230795   5.146   0.100   1.968
 9966SOL     OW30796   6.843   1.105   2.662
 9966SOL    HW130797   6.800   1.187   2.624
 9966SOL    HW230798   6.777   1.030   2.662
 9967SOL     OW30799   1.015   5.581   0.075
 9967SOL    HW130800   0.931   5.574   0.129
 9967SOL    HW230801   1.081   5.513   0.106
 9968SOL     OW30802   3.848   2.997   3.135
 9968SOL    HW130803   3.846   2.963   3.229
 9968SOL    HW230804   3.755   3.019   3.106
 9969SOL     OW30805   1.661   3.189   0.893
 9969SOL    HW130806   1.577   3.242   0.905
 9969SOL    HW230807   1.734   3.231   0.946
 9970SOL     OW30808   6.687   4.187   2.282
 9970SOL    HW130809   6.725   4.259   2.340
 9970SOL    HW230810   6.703   4.098   2.324
 9971SOL     OW30811   2.710   6.843   7.019
 9971SOL    HW130812   2.773   6.896   6.962
 9971SOL    HW230813   2.732   6.858   0.095
 9972SOL     OW30814   6.849   5.061   1.596
 9972SOL    HW130815   6.794   4.979   1.611
 9972SOL    HW230816   6.944   5.043   1.620
 9973SOL     OW30817   5.123   6.225   3.849
 9973SOL    HW130818   5.120   6.263   3.942
 9973SOL    HW230819   5.200   6.162   3.842
 9974SOL     OW30820   2.600   1.038   4.040
 9974SOL    HW130821   2.553   1.059   3.954
 9974SOL    HW230822   2.595   0.939   4.057
 9975SOL     OW30823   6.994   3.976   1.006
 9975SOL    HW130824   0.069   4.007   1.009
 9975SOL    HW230825   6.946   4.009   1.087
 9976SOL     OW30826   2.892   6.363   4.302
 9976SOL    HW130827   2.926   6.309   4.379
 9976SOL    HW230828   2.805   6.405   4.328
 9977SOL     OW30829   6.360   5.099   4.304
 9977SOL    HW130830   6.320   5.035   4.370
 9977SOL    HW230831   6.441   5.142   4.344
 9978SOL     OW30832   6.957   3.318   4.231
 9978SOL    HW130833   7.011   3.259   4.170
 9978SOL    HW230834   7.007   3.332   4.316
 9979SOL     OW30835   0.848   3.382   5.136
 9979SOL    HW130836   0.778   3.450   5.154
 9979SOL    HW230837   0.854   3.318   5.213
 9980SOL     OW30838   2.926   6.511   5.618
 9980SOL    HW130839   2.912   6.608   5.637
 9980SOL    HW230840   2.883   6.487   5.531
 9981SOL     OW30841   3.734   1.902   3.219
 9981SOL    HW130842   3.803   1.965   3.253
 9981SOL    HW230843   3.667   1.952   3.164
 9982SOL     OW30844   6.308   6.741   2.994
 9982SOL    HW130845   6.281   6.718   3.088
 9982SOL    HW230846   6.270   6.831   2.970
 9983SOL     OW30847   6.699   0.733   1.248
 9983SOL    HW130848   6.721   0.821   1.208
 9983SOL    HW230849   6.653   0.675   1.180
 9984SOL     OW30850   3.215   0.410   6.709
 9984SOL    HW130851   3.204   0.502   6.747
 9984SOL    HW230852   3.160   0.401   6.627
 9985SOL     OW30853   1.487   1.776   0.956
 9985SOL    HW130854   1.435   1.729   0.885
 9985SOL    HW230855   1.566   1.822   0.915
 9986SOL     OW30856   5.067   4.132   4.476
 9986SOL    HW130857   5.048   4.210   4.415
 9986SOL    HW230858   5.135   4.073   4.433
 9987SOL     OW30859   0.230   4.085   5.098
 9987SOL    HW130860   0.300   4.014   5.087
 9987SOL    HW230861   0.194   4.081   5.192
 9988SOL     OW30862   6.427   1.161   4.038
 9988SOL    HW130863   6.381   1.138   3.952
 9988SOL    HW230864   6.471   1.250   4.029
 9989SOL     OW30865   1.746   2.599   4.796
 9989SOL    HW130866   1.829   2.629   4.842
 9989SOL    HW230867   1.745   2.499   4.791
 9990SOL     OW30868   1.148   4.563   1.257
 9990SOL    HW130869   1.230   4.593   1.209
 9990SOL    HW230870   1.173   4.514   1.340
 9991SOL     OW30871   3.908   2.200   3.423
 9991SOL    HW130872   3.998   2.229   3.456
 9991SOL    HW230873   3.852   2.169   3.500
 9992SOL     OW30874   6.560   5.067   6.348
 9992SOL    HW130875   6.599   5.153   6.314
 9992SOL    HW230876   6.460   5.076   6.354
 9993SOL     OW30877   1.366   0.751   1.987
 9993SOL    HW130878   1.389   0.795   2.074
 9993SOL    HW230879   1.355   0.821   1.916
 9994SOL     OW30880   6.116   4.113   3.215
 9994SOL    HW130881   6.121   4.042   3.145
 9994SOL    HW230882   6.077   4.196   3.176
 9995SOL     OW30883   5.488   1.887   4.519
 9995SOL    HW130884   5.444   1.801   4.495
 9995SOL    HW230885   5.567   1.902   4.459
 9996SOL     OW30886   3.125   2.923   1.029
 9996SOL    HW130887   3.165   2.835   1.054
 9996SOL    HW230888   3.199   2.986   1.002
 9997SOL     OW30889   2.579   0.884   4.471
 9997SOL    HW130890   2.661   0.839   4.434
 9997SOL    HW230891   2.577   0.874   4.570
 9998SOL     OW30892   6.184   6.192   5.068
 9998SOL    HW130893   6.115   6.203   4.997
 9998SOL    HW230894   6.151   6.233   5.153
 9999SOL     OW30895   0.332   0.688   5.086
 9999SOL    HW130896   0.242   0.722   5.059
 9999SOL    HW230897   0.340   0.690   5.185
10000SOL     OW30898   6.628   4.753   0.926
10000SOL    HW130899   6.555   4.798   0.978
10000SOL    HW230900   6.588   4.692   0.858
10001SOL     OW30901   3.585   0.643   3.320
10001SOL    HW130902   3.486   0.652   3.334
10001SOL    HW230903   3.632   0.721   3.360
10002SOL     OW30904   1.207   2.132   1.847
10002SOL    HW130905   1.193   2.203   1.778
10002SOL    HW230906   1.143   2.146   1.923
10003SOL     OW30907   5.341   4.020   1.314
10003SOL    HW130908   5.385   4.101   1.355
10003SOL    HW230909   5.321   4.038   1.218
10004SOL     OW30910   5.964   3.831   4.282
10004SOL    HW130911   6.041   3.773   4.257
10004SOL    HW230912   5.878   3.785   4.262
10005SOL     OW30913   4.779   6.852   3.316
10005SOL    HW130914   4.693   6.901   3.300
10005SOL    HW230915   4.856   6.913   3.299
10006SOL     OW30916   5.135   2.690   4.423
10006SOL    HW130917   5.111   2.744   4.504
10006SOL    HW230918   5.138   2.593   4.447
10007SOL     OW30919   4.909   5.189   3.853
10007SOL    HW130920   4.889   5.219   3.946
10007SOL    HW230921   5.000   5.148   3.850
10008SOL     OW30922   2.320   6.669   4.227
10008SOL    HW130923   2.408   6.709   4.202
10008SOL    HW230924   2.277   6.726   4.297
10009SOL     OW30925   2.228   4.393   1.885
10009SOL    HW130926   2.325   4.374   1.869
10009SOL    HW230927   2.176   4.308   1.879
10010SOL     OW30928   5.271   0.840   5.847
10010SOL    HW130929   5.200   0.898   5.888
10010SOL    HW230930   5.341   0.821   5.915
10011SOL     OW30931   6.551   6.958   3.815
10011SOL    HW130932   6.495   6.933   3.736
10011SOL    HW230933   6.494   6.996   3.887
10012SOL     OW30934   4.927   1.556   5.038
10012SOL    HW130935   4.846   1.568   5.095
10012SOL    HW230936   4.960   1.462   5.046
10013SOL     OW30937   1.377   0.769   1.227
10013SOL    HW130938   1.382   0.750   1.129
10013SOL    HW230939   1.366   0.683   1.277
10014SOL     OW30940   1.604   4.954   5.929
10014SOL    HW130941   1.672   4.889   5.895
10014SOL    HW230942   1.518   4.907   5.947
10015SOL     OW30943   2.793   5.808   6.321
10015SOL    HW130944   2.856   5.793   6.245
10015SOL    HW230945   2.750   5.898   6.311
10016SOL     OW30946   2.352   1.375   4.994
10016SOL    HW130947   2.293   1.295   4.980
10016SOL    HW230948   2.295   1.453   5.020
10017SOL     OW30949   6.338   1.976   3.237
10017SOL    HW130950   6.255   1.963   3.184
10017SOL    HW230951   6.417   1.942   3.186
10018SOL     OW30952   4.120   6.725   6.084
10018SOL    HW130953   4.188   6.666   6.128
10018SOL    HW230954   4.146   6.739   5.988
10019SOL     OW30955   0.978   0.687   3.596
10019SOL    HW130956   1.040   0.731   3.530
10019SOL    HW230957   0.917   0.756   3.634
10020SOL     OW30958   1.199   3.822   0.415
10020SOL    HW130959   1.130   3.784   0.353
10020SOL    HW230960   1.188   3.922   0.419
10021SOL     OW30961   4.881   3.090   1.460
10021SOL    HW130962   4.976   3.058   1.458
10021SOL    HW230963   4.841   3.068   1.549
10022SOL     OW30964   2.409   0.917   5.954
10022SOL    HW130965   2.420   0.998   6.011
10022SOL    HW230966   2.400   0.944   5.858
10023SOL     OW30967   0.695   3.031   0.214
10023SOL    HW130968   0.699   2.933   0.234
10023SOL    HW230969   0.661   3.044   0.121
10024SOL     OW30970   0.664   3.587   2.670
10024SOL    HW130971   0.587   3.612   2.612
10024SOL    HW230972   0.740   3.554   2.613
10025SOL     OW30973   1.169   1.569   1.011
10025SOL    HW130974   1.180   1.530   0.919
10025SOL    HW230975   1.135   1.499   1.073
10026SOL     OW30976   6.337   0.805   4.479
10026SOL    HW130977   6.402   0.767   4.544
10026SOL    HW230978   6.381   0.815   4.390
10027SOL     OW30979   6.012   2.683   6.026
10027SOL    HW130980   6.011   2.727   6.115
10027SOL    HW230981   5.922   2.692   5.983
10028SOL     OW30982   1.649   1.955   1.601
10028SOL    HW130983   1.612   1.977   1.510
10028SOL    HW230984   1.574   1.932   1.663
10029SOL     OW30985   3.886   1.350   4.288
10029SOL    HW130986   3.802   1.299   4.271
10029SOL    HW230987   3.864   1.447   4.298
10030SOL     OW30988   0.594   1.338   1.592
10030SOL    HW130989   0.609   1.245   1.625
10030SOL    HW230990   0.612   1.341   1.493
10031SOL     OW30991   0.297   5.320   2.922
10031SOL    HW130992   0.294   5.390   2.851
10031SOL    HW230993   0.203   5.299   2.951
10032SOL     OW30994   3.657   2.122   5.003
10032SOL    HW130995   3.729   2.063   5.039
10032SOL    HW230996   3.569   2.074   5.007
10033SOL     OW30997   6.088   2.688   4.012
10033SOL    HW130998   6.106   2.674   4.109
10033SOL    HW230999   6.040   2.775   3.999
10034SOL     OW31000   3.861   6.424   6.166
10034SOL    HW131001   3.925   6.414   6.241
10034SOL    HW231002   3.906   6.468   6.089
10035SOL     OW31003   0.373   6.427   4.393
10035SOL    HW131004   0.360   6.384   4.483
10035SOL    HW231005   0.355   6.360   4.321
10036SOL     OW31006   6.186   7.011   0.220
10036SOL    HW131007   6.273   6.967   0.244
10036SOL    HW231008   6.132   6.948   0.163
10037SOL     OW31009   6.786   0.051   1.509
10037SOL    HW131010   6.822   6.990   1.554
10037SOL    HW231011   6.699   0.029   1.465
10038SOL     OW31012   5.923   6.822   1.550
10038SOL    HW131013   5.926   6.769   1.635
10038SOL    HW231014   5.862   6.776   1.485
10039SOL     OW31015   3.811   1.117   3.022
10039SOL    HW131016   3.776   1.121   3.116
10039SOL    HW231017   3.745   1.069   2.964
10040SOL     OW31018   0.813   1.507   0.436
10040SOL    HW131019   0.855   1.592   0.467
10040SOL    HW231020   0.765   1.464   0.512
10041SOL     OW31021   0.652   6.764   6.881
10041SOL    HW131022   0.612   6.673   6.893
10041SOL    HW231023   0.598   6.831   6.932
10042SOL     OW31024   6.575   1.948   3.969
10042SOL    HW131025   6.668   1.921   3.944
10042SOL    HW231026   6.578   2.005   4.051
10043SOL     OW31027   2.366   3.268   5.312
10043SOL    HW131028   2.340   3.250   5.407
10043SOL    HW231029   2.414   3.189   5.276
10044SOL     OW31030   4.034   0.909   6.356
10044SOL    HW131031   3.967   0.946   6.291
10044SOL    HW231032   3.995   0.913   6.449
10045SOL     OW31033   2.483   0.258   1.457
10045SOL    HW131034   2.469   0.161   1.438
10045SOL    HW231035   2.410   0.291   1.517
10046SOL     OW31036   0.824   6.447   6.716
10046SOL    HW131037   0.872   6.527   6.680
10046SOL    HW231038   0.791   6.466   6.808
10047SOL     OW31039   1.625   4.224   1.056
10047SOL    HW131040   1.628   4.132   1.017
10047SOL    HW231041   1.672   4.224   1.144
10048SOL     OW31042   6.527   3.498   1.094
10048SOL    HW131043   6.505   3.406   1.061
10048SOL    HW231044   6.509   3.565   1.022
10049SOL     OW31045   6.686   1.926   4.478
10049SOL    HW131046   6.738   1.880   4.407
10049SOL    HW231047   6.738   1.925   4.564
10050SOL     OW31048   0.347   1.983   5.842
10050SOL    HW131049   0.396   1.958   5.925
10050SOL    HW231050   0.412   1.993   5.766
10051SOL     OW31051   1.588   0.577   2.706
10051SOL    HW131052   1.608   0.542   2.797
10051SOL    HW231053   1.612   0.507   2.637
10052SOL     OW31054   0.912   0.171   4.619
10052SOL    HW131055   0.960   0.135   4.539
10052SOL    HW231056   0.853   0.247   4.591
10053SOL     OW31057   5.900   5.242   2.340
10053SOL    HW131058   5.801   5.243   2.355
10053SOL    HW231059   5.947   5.264   2.425
10054SOL     OW31060   4.979   4.501   3.560
10054SOL    HW131061   4.906   4.455   3.611
10054SOL    HW231062   5.064   4.450   3.570
10055SOL     OW31063   1.976   1.834   6.836
10055SOL    HW131064   1.933   1.892   6.766
10055SOL    HW231065   2.029   1.762   6.791
10056SOL     OW31066   4.987   2.831   4.638
10056SOL    HW131067   4.907   2.806   4.583
10056SOL    HW231068   4.968   2.815   4.734
10057SOL     OW31069   5.799   4.399   4.526
10057SOL    HW131070   5.785   4.444   4.614
10057SOL    HW231071   5.760   4.307   4.529
10058SOL     OW31072   6.100   4.016   4.103
10058SOL    HW131073   6.133   4.092   4.160
10058SOL    HW231074   6.029   3.966   4.152
10059SOL     OW31075   5.411   5.887   6.130
10059SOL    HW131076   5.327   5.853   6.172
10059SOL    HW231077   5.413   5.987   6.136
10060SOL     OW31078   3.255   1.251   1.659
10060SOL    HW131079   3.317   1.202   1.720
10060SOL    HW231080   3.160   1.235   1.687
10061SOL     OW31081   4.113   0.124   3.117
10061SOL    HW131082   4.173   0.194   3.078
10061SOL    HW231083   4.018   0.154   3.113
10062SOL     OW31084   6.397   0.108   4.402
10062SOL    HW131085   6.317   0.117   4.460
10062SOL    HW231086   6.390   0.171   4.325
10063SOL     OW31087   4.418   2.170   3.139
10063SOL    HW131088   4.456   2.249   3.188
10063SOL    HW231089   4.387   2.198   3.048
10064SOL     OW31090   2.422   6.373   2.528
10064SOL    HW131091   2.456   6.426   2.450
10064SOL    HW231092   2.328   6.401   2.548
10065SOL     OW31093   6.470   1.924   1.555
10065SOL    HW131094   6.538   1.993   1.579
10065SOL    HW231095   6.441   1.937   1.460
10066SOL     OW31096   6.128   4.323   3.462
10066SOL    HW131097   6.188   4.262   3.410
10066SOL    HW231098   6.160   4.330   3.556
10067SOL     OW31099   5.441   3.536   5.215
10067SOL    HW131100   5.521   3.501   5.166
10067SOL    HW231101   5.429   3.633   5.195
10068SOL     OW31102   2.095   4.056   2.947
10068SOL    HW131103   2.152   4.069   2.866
10068SOL    HW231104   2.040   4.138   2.963
10069SOL     OW31105   2.920   5.544   1.111
10069SOL    HW131106   2.856   5.482   1.064
10069SOL    HW231107   2.993   5.490   1.153
10070SOL     OW31108   5.216   0.352   6.742
10070SOL    HW131109   5.186   0.419   6.675
10070SOL    HW231110   5.203   0.389   6.834
10071SOL     OW31111   5.195   1.431   4.775
10071SOL    HW131112   5.286   1.470   4.761
10071SOL    HW231113   5.131   1.474   4.712
10072SOL     OW31114   5.618   3.100   1.898
10072SOL    HW131115   5.634   3.038   1.975
10072SOL    HW231116   5.520   3.114   1.887
10073SOL     OW31117   5.691   5.561   5.531
10073SOL    HW131118   5.757   5.547   5.457
10073SOL    HW231119   5.669   5.474   5.574
10074SOL     OW31120   2.101   4.446   1.130
10074SOL    HW131121   2.115   4.523   1.192
10074SOL    HW231122   2.038   4.381   1.171
10075SOL     OW31123   0.613   3.777   1.478
10075SOL    HW131124   0.551   3.732   1.541
10075SOL    HW231125   0.700   3.727   1.474
10076SOL     OW31126   6.378   4.755   3.962
10076SOL    HW131127   6.365   4.845   3.921
10076SOL    HW231128   6.314   4.742   4.037
10077SOL     OW31129   4.146   3.818   0.048
10077SOL    HW131130   4.177   3.855   6.981
10077SOL    HW231131   4.203   3.856   0.122
10078SOL     OW31132   5.725   6.358   3.782
10078SOL    HW131133   5.801   6.351   3.846
10078SOL    HW231134   5.638   6.347   3.831
10079SOL     OW31135   6.146   4.890   3.103
10079SOL    HW131136   6.079   4.952   3.145
10079SOL    HW231137   6.126   4.796   3.130
10080SOL     OW31138   5.278   2.729   4.799
10080SOL    HW131139   5.226   2.655   4.842
10080SOL    HW231140   5.293   2.802   4.865
10081SOL     OW31141   1.539   5.075   0.817
10081SOL    HW131142   1.455   5.105   0.863
10081SOL    HW231143   1.559   5.137   0.742
10082SOL     OW31144   6.954   4.476   1.640
10082SOL    HW131145   6.871   4.450   1.688
10082SOL    HW231146   6.990   4.397   1.589
10083SOL     OW31147   3.269   5.754   2.805
10083SOL    HW131148   3.251   5.690   2.879
10083SOL    HW231149   3.197   5.747   2.736
10084SOL     OW31150   1.798   3.914   4.688
10084SOL    HW131151   1.713   3.887   4.642
10084SOL    HW231152   1.871   3.850   4.664
10085SOL     OW31153   3.408   6.807   1.882
10085SOL    HW131154   3.486   6.820   1.943
10085SOL    HW231155   3.422   6.726   1.826
10086SOL     OW31156   2.389   1.010   3.124
10086SOL    HW131157   2.297   0.971   3.133
10086SOL    HW231158   2.448   0.972   3.195
10087SOL     OW31159   1.344   5.533   6.725
10087SOL    HW131160   1.372   5.521   6.630
10087SOL    HW231161   1.271   5.601   6.730
10088SOL     OW31162   5.231   1.621   0.745
10088SOL    HW131163   5.292   1.683   0.794
10088SOL    HW231164   5.238   1.529   0.783
10089SOL     OW31165   3.712   6.767   3.259
10089SOL    HW131166   3.614   6.750   3.271
10089SOL    HW231167   3.752   6.695   3.204
10090SOL     OW31168   3.638   6.114   2.902
10090SOL    HW131169   3.713   6.079   2.959
10090SOL    HW231170   3.564   6.047   2.899
10091SOL     OW31171   4.871   6.037   3.403
10091SOL    HW131172   4.880   6.136   3.414
10091SOL    HW231173   4.777   6.014   3.380
10092SOL     OW31174   6.692   1.424   2.308
10092SOL    HW131175   6.644   1.373   2.236
10092SOL    HW231176   6.747   1.497   2.267
10093SOL     OW31177   4.462   4.103   6.381
10093SOL    HW131178   4.371   4.063   6.380
10093SOL    HW231179   4.455   4.202   6.391
10094SOL     OW31180   4.543   2.864   0.221
10094SOL    HW131181   4.596   2.782   0.196
10094SOL    HW231182   4.595   2.918   0.287
10095SOL     OW31183   4.363   2.544   5.329
10095SOL    HW131184   4.270   2.544   5.293
10095SOL    HW231185   4.425   2.506   5.261
10096SOL     OW31186   6.219   4.736   1.610
10096SOL    HW131187   6.316   4.736   1.630
10096SOL    HW231188   6.198   4.811   1.547
10097SOL     OW31189   0.632   0.694   1.251
10097SOL    HW131190   0.655   0.740   1.165
10097SOL    HW231191   0.592   0.605   1.232
10098SOL     OW31192   4.109   4.782   0.619
10098SOL    HW131193   4.009   4.768   0.620
10098SOL    HW231194   4.129   4.876   0.645
10099SOL     OW31195   0.198   6.188   3.334
10099SOL    HW131196   0.234   6.138   3.255
10099SOL    HW231197   0.150   6.270   3.303
10100SOL     OW31198   5.232   5.736   3.984
10100SOL    HW131199   5.282   5.801   4.041
10100SOL    HW231200   5.296   5.670   3.944
10101SOL     OW31201   6.758   2.181   6.081
10101SOL    HW131202   6.771   2.158   5.985
10101SOL    HW231203   6.841   2.161   6.132
10102SOL     OW31204   6.939   4.872   3.273
10102SOL    HW131205   6.859   4.854   3.332
10102SOL    HW231206   6.941   4.969   3.249
10103SOL     OW31207   0.574   0.645   6.702
10103SOL    HW131208   0.518   0.605   6.630
10103SOL    HW231209   0.621   0.572   6.753
10104SOL     OW31210   2.913   1.743   4.292
10104SOL    HW131211   2.930   1.804   4.369
10104SOL    HW231212   2.996   1.735   4.237
10105SOL     OW31213   3.443   1.780   4.313
10105SOL    HW131214   3.453   1.870   4.354
10105SOL    HW231215   3.364   1.733   4.353
10106SOL     OW31216   6.764   3.748   1.276
10106SOL    HW131217   6.683   3.792   1.235
10106SOL    HW231218   6.753   3.649   1.273
10107SOL     OW31219   4.476   5.491   5.530
10107SOL    HW131220   4.403   5.549   5.494
10107SOL    HW231221   4.538   5.465   5.456
10108SOL     OW31222   3.275   1.785   4.679
10108SOL    HW131223   3.210   1.760   4.750
10108SOL    HW231224   3.313   1.876   4.699
10109SOL     OW31225   1.485   2.990   0.549
10109SOL    HW131226   1.439   2.997   0.638
10109SOL    HW231227   1.431   2.934   0.487
10110SOL     OW31228   6.488   6.107   1.946
10110SOL    HW131229   6.398   6.092   1.905
10110SOL    HW231230   6.535   6.180   1.897
10111SOL     OW31231   6.135   2.355   1.582
10111SOL    HW131232   6.142   2.422   1.508
10111SOL    HW231233   6.085   2.275   1.550
10112SOL     OW31234   0.348   2.993   3.701
10112SOL    HW131235   0.360   2.977   3.799
10112SOL    HW231236   0.252   3.013   3.683
10113SOL     OW31237   6.922   6.732   6.245
10113SOL    HW131238   6.858   6.670   6.202
10113SOL    HW231239   6.877   6.778   6.322
10114SOL     OW31240   6.347   4.340   1.254
10114SOL    HW131241   6.427   4.360   1.198
10114SOL    HW231242   6.297   4.425   1.271
10115SOL     OW31243   2.720   1.991   6.653
10115SOL    HW131244   2.757   1.968   6.563
10115SOL    HW231245   2.621   1.976   6.653
10116SOL     OW31246   1.096   6.951   6.173
10116SOL    HW131247   1.050   6.895   6.105
10116SOL    HW231248   1.159   7.014   6.127
10117SOL     OW31249   1.000   4.595   0.884
10117SOL    HW131250   0.975   4.680   0.929
10117SOL    HW231251   1.069   4.613   0.814
10118SOL     OW31252   3.953   5.280   3.032
10118SOL    HW131253   4.037   5.324   3.065
10118SOL    HW231254   3.975   5.190   2.994
10119SOL     OW31255   5.837   5.745   6.851
10119SOL    HW131256   5.813   5.655   6.887
10119SOL    HW231257   5.836   5.813   6.925
10120SOL     OW31258   2.409   2.462   2.673
10120SOL    HW131259   2.313   2.492   2.667
10120SOL    HW231260   2.445   2.449   2.581
10121SOL     OW31261   6.553   5.847   1.995
10121SOL    HW131262   6.548   5.946   1.985
10121SOL    HW231263   6.467   5.806   1.964
10122SOL     OW31264   2.018   6.790   3.515
10122SOL    HW131265   1.971   6.849   3.580
10122SOL    HW231266   2.115   6.814   3.513
10123SOL     OW31267   5.996   6.486   6.454
10123SOL    HW131268   5.985   6.388   6.438
10123SOL    HW231269   6.051   6.500   6.537
10124SOL     OW31270   0.338   4.547   3.275
10124SOL    HW131271   0.274   4.612   3.233
10124SOL    HW231272   0.332   4.554   3.374
10125SOL     OW31273   2.215   2.459   4.125
10125SOL    HW131274   2.180   2.552   4.122
10125SOL    HW231275   2.143   2.396   4.095
10126SOL     OW31276   0.200   6.051   4.883
10126SOL    HW131277   0.101   6.062   4.887
10126SOL    HW231278   0.242   6.133   4.843
10127SOL     OW31279   2.688   0.721   4.755
10127SOL    HW131280   2.605   0.777   4.753
10127SOL    HW231281   2.691   0.663   4.674
10128SOL     OW31282   2.947   0.808   0.557
10128SOL    HW131283   2.969   0.766   0.645
10128SOL    HW231284   2.972   0.905   0.559
10129SOL     OW31285   6.740   2.112   5.822
10129SOL    HW131286   6.810   2.071   5.763
10129SOL    HW231287   6.651   2.104   5.777
10130SOL     OW31288   1.010   2.649   3.431
10130SOL    HW131289   1.076   2.680   3.362
10130SOL    HW231290   0.920   2.639   3.390
10131SOL     OW31291   2.461   0.841   4.732
10131SOL    HW131292   2.446   0.940   4.737
10131SOL    HW231293   2.382   0.797   4.690
10132SOL     OW31294   5.768   0.814   2.065
10132SOL    HW131295   5.713   0.842   2.144
10132SOL    HW231296   5.861   0.792   2.094
10133SOL     OW31297   4.833   5.402   1.190
10133SOL    HW131298   4.819   5.501   1.183
10133SOL    HW231299   4.923   5.378   1.153
10134SOL     OW31300   6.421   1.162   2.609
10134SOL    HW131301   6.455   1.241   2.661
10134SOL    HW231302   6.382   1.194   2.522
10135SOL     OW31303   6.189   6.744   3.254
10135SOL    HW131304   6.245   6.667   3.282
10135SOL    HW231305   6.244   6.828   3.257
10136SOL     OW31306   5.496   0.369   3.095
10136SOL    HW131307   5.485   0.399   3.190
10136SOL    HW231308   5.413   0.391   3.044
10137SOL     OW31309   6.020   5.679   2.367
10137SOL    HW131310   6.088   5.607   2.358
10137SOL    HW231311   6.059   5.757   2.414
10138SOL     OW31312   0.158   1.574   1.693
10138SOL    HW131313   0.194   1.484   1.717
10138SOL    HW231314   0.133   1.576   1.596
10139SOL     OW31315   4.175   2.504   0.747
10139SOL    HW131316   4.201   2.411   0.775
10139SOL    HW231317   4.161   2.560   0.829
10140SOL     OW31318   5.873   6.254   3.445
10140SOL    HW131319   5.818   6.299   3.375
10140SOL    HW231320   5.940   6.195   3.402
10141SOL     OW31321   1.310   1.859   5.525
10141SOL    HW131322   1.268   1.844   5.435
10141SOL    HW231323   1.392   1.915   5.514
10142SOL     OW31324   4.118   6.258   1.792
10142SOL    HW131325   4.040   6.299   1.838
10142SOL    HW231326   4.145   6.174   1.839
10143SOL     OW31327   0.532   2.969   6.814
10143SOL    HW131328   0.580   2.882   6.824
10143SOL    HW231329   0.554   3.028   6.892
10144SOL     OW31330   4.774   0.348   2.879
10144SOL    HW131331   4.840   0.338   2.805
10144SOL    HW231332   4.820   0.384   2.960
10145SOL     OW31333   6.294   1.265   5.181
10145SOL    HW131334   6.358   1.239   5.254
10145SOL    HW231335   6.206   1.219   5.195
10146SOL     OW31336   1.830   1.262   5.307
10146SOL    HW131337   1.850   1.301   5.217
10146SOL    HW231338   1.836   1.333   5.377
10147SOL     OW31339   4.318   4.635   0.130
10147SOL    HW131340   4.374   4.712   0.162
10147SOL    HW231341   4.281   4.586   0.209
10148SOL     OW31342   6.477   6.088   6.430
10148SOL    HW131343   6.441   6.063   6.340
10148SOL    HW231344   6.496   6.006   6.482
10149SOL     OW31345   3.712   3.091   4.288
10149SOL    HW131346   3.722   3.131   4.379
10149SOL    HW231347   3.657   3.007   4.295
10150SOL     OW31348   6.566   3.878   6.608
10150SOL    HW131349   6.637   3.935   6.567
10150SOL    HW231350   6.601   3.785   6.620
10151SOL     OW31351   0.191   0.422   7.000
10151SOL    HW131352   0.235   0.436   6.911
10151SOL    HW231353   0.204   0.504   0.036
10152SOL     OW31354   3.404   6.903   4.006
10152SOL    HW131355   3.358   6.973   4.061
10152SOL    HW231356   3.371   6.813   4.034
10153SOL     OW31357   4.278   4.588   0.614
10153SOL    HW131358   4.290   4.538   0.700
10153SOL    HW231359   4.208   4.658   0.626
10154SOL     OW31360   4.869   5.078   6.273
10154SOL    HW131361   4.818   5.151   6.318
10154SOL    HW231362   4.811   4.996   6.267
10155SOL     OW31363   4.952   2.499   4.781
10155SOL    HW131364   4.957   2.522   4.684
10155SOL    HW231365   4.938   2.583   4.834
10156SOL     OW31366   3.057   1.904   6.656
10156SOL    HW131367   3.015   1.951   6.578
10156SOL    HW231368   2.994   1.906   6.734
10157SOL     OW31369   0.262   5.805   2.387
10157SOL    HW131370   0.298   5.896   2.366
10157SOL    HW231371   0.337   5.740   2.393
10158SOL     OW31372   0.247   4.579   5.944
10158SOL    HW131373   0.273   4.539   5.856
10158SOL    HW231374   0.220   4.507   6.007
10159SOL     OW31375   4.091   3.061   1.868
10159SOL    HW131376   4.037   3.066   1.784
10159SOL    HW231377   4.055   2.988   1.927
10160SOL     OW31378   6.891   4.490   2.667
10160SOL    HW131379   6.902   4.589   2.671
10160SOL    HW231380   6.795   4.467   2.685
10161SOL     OW31381   6.717   2.590   0.530
10161SOL    HW131382   6.800   2.535   0.537
10161SOL    HW231383   6.659   2.554   0.456
10162SOL     OW31384   1.972   2.310   2.507
10162SOL    HW131385   2.063   2.270   2.514
10162SOL    HW231386   1.979   2.408   2.488
10163SOL     OW31387   4.086   5.299   4.574
10163SOL    HW131388   4.097   5.278   4.477
10163SOL    HW231389   3.999   5.347   4.588
10164SOL     OW31390   0.136   1.825   3.427
10164SOL    HW131391   0.217   1.801   3.375
10164SOL    HW231392   0.103   1.915   3.399
10165SOL     OW31393   2.097   3.106   3.856
10165SOL    HW131394   2.050   3.033   3.807
10165SOL    HW231395   2.190   3.078   3.877
10166SOL     OW31396   3.394   6.188   3.836
10166SOL    HW131397   3.410   6.090   3.822
10166SOL    HW231398   3.310   6.201   3.889
10167SOL     OW31399   3.787   2.006   0.340
10167SOL    HW131400   3.828   2.078   0.283
10167SOL    HW231401   3.822   2.015   0.434
10168SOL     OW31402   0.263   1.100   6.733
10168SOL    HW131403   0.166   1.081   6.746
10168SOL    HW231404   0.293   1.170   6.799
10169SOL     OW31405   4.841   4.847   2.483
10169SOL    HW131406   4.792   4.786   2.545
10169SOL    HW231407   4.777   4.908   2.437
10170SOL     OW31408   4.439   6.880   6.912
10170SOL    HW131409   4.350   6.834   6.918
10170SOL    HW231410   4.427   6.978   6.925
10171SOL     OW31411   1.479   4.706   3.189
10171SOL    HW131412   1.453   4.731   3.282
10171SOL    HW231413   1.429   4.624   3.161
10172SOL     OW31414   0.088   0.415   3.254
10172SOL    HW131415   0.169   0.471   3.239
10172SOL    HW231416   0.074   0.355   3.175
10173SOL     OW31417   4.335   2.406   4.158
10173SOL    HW131418   4.393   2.469   4.209
10173SOL    HW231419   4.279   2.353   4.222
10174SOL     OW31420   4.019   5.671   0.974
10174SOL    HW131421   4.001   5.765   1.003
10174SOL    HW231422   4.099   5.636   1.022
10175SOL     OW31423   6.771   6.944   4.477
10175SOL    HW131424   6.776   0.009   4.529
10175SOL    HW231425   6.845   6.942   4.409
10176SOL     OW31426   0.219   1.625   4.747
10176SOL    HW131427   0.159   1.662   4.676
10176SOL    HW231428   0.195   1.666   4.835
10177SOL     OW31429   3.014   0.428   5.036
10177SOL    HW131430   3.011   0.328   5.026
10177SOL    HW231431   2.948   0.456   5.105
10178SOL     OW31432   6.008   1.470   2.010
10178SOL    HW131433   6.006   1.521   1.924
10178SOL    HW231434   6.031   1.374   1.992
10179SOL     OW31435   6.797   6.113   0.842
10179SOL    HW131436   6.707   6.080   0.812
10179SOL    HW231437   6.788   6.161   0.929
10180SOL     OW31438   2.177   0.303   6.411
10180SOL    HW131439   2.168   0.402   6.413
10180SOL    HW231440   2.195   0.273   6.317
10181SOL     OW31441   0.181   4.087   2.407
10181SOL    HW131442   0.220   4.012   2.459
10181SOL    HW231443   0.196   4.173   2.456
10182SOL     OW31444   2.663   7.010   6.617
10182SOL    HW131445   2.687   0.045   6.697
10182SOL    HW231446   2.593   0.037   6.564
10183SOL     OW31447   3.683   5.972   6.750
10183SOL    HW131448   3.751   5.983   6.823
10183SOL    HW231449   3.645   5.880   6.753
10184SOL     OW31450   4.871   3.339   4.394
10184SOL    HW131451   4.949   3.311   4.338
10184SOL    HW231452   4.791   3.284   4.369
10185SOL     OW31453   2.776   4.799   1.803
10185SOL    HW131454   2.781   4.722   1.867
10185SOL    HW231455   2.820   4.879   1.844
10186SOL     OW31456   3.408   3.251   1.731
10186SOL    HW131457   3.353   3.274   1.811
10186SOL    HW231458   3.357   3.272   1.648
10187SOL     OW31459   1.235   3.454   4.772
10187SOL    HW131460   1.302   3.503   4.827
10187SOL    HW231461   1.144   3.491   4.790
10188SOL     OW31462   2.538   6.552   6.945
10188SOL    HW131463   2.450   6.512   6.972
10188SOL    HW231464   2.533   6.651   6.951
10189SOL     OW31465   1.941   1.679   5.400
10189SOL    HW131466   1.934   1.768   5.354
10189SOL    HW231467   1.869   1.619   5.366
10190SOL     OW31468   2.686   4.224   0.950
10190SOL    HW131469   2.654   4.187   1.037
10190SOL    HW231470   2.682   4.152   0.880
10191SOL     OW31471   6.531   0.438   6.932
10191SOL    HW131472   6.462   0.365   6.932
10191SOL    HW231473   6.545   0.471   0.005
10192SOL     OW31474   3.126   0.936   3.901
10192SOL    HW131475   3.072   0.853   3.884
10192SOL    HW231476   3.220   0.910   3.923
10193SOL     OW31477   4.157   3.561   3.787
10193SOL    HW131478   4.126   3.479   3.738
10193SOL    HW231479   4.240   3.596   3.742
10194SOL     OW31480   2.838   5.942   3.248
10194SOL    HW131481   2.827   5.997   3.165
10194SOL    HW231482   2.910   5.982   3.305
10195SOL     OW31483   5.566   6.465   2.166
10195SOL    HW131484   5.550   6.547   2.220
10195SOL    HW231485   5.654   6.425   2.191
10196SOL     OW31486   4.722   4.682   3.880
10196SOL    HW131487   4.764   4.773   3.883
10196SOL    HW231488   4.632   4.685   3.923
10197SOL     OW31489   5.810   1.888   2.527
10197SOL    HW131490   5.735   1.954   2.527
10197SOL    HW231491   5.799   1.826   2.605
10198SOL     OW31492   3.404   1.196   1.933
10198SOL    HW131493   3.451   1.261   1.992
10198SOL    HW231494   3.427   1.103   1.961
10199SOL     OW31495   1.540   1.842   6.852
10199SOL    HW131496   1.573   1.920   6.906
10199SOL    HW231497   1.562   1.857   6.755
10200SOL     OW31498   4.237   6.899   3.979
10200SOL    HW131499   4.328   6.940   3.971
10200SOL    HW231500   4.244   6.800   3.963
10201SOL     OW31501   0.492   5.139   2.965
10201SOL    HW131502   0.434   5.218   2.943
10201SOL    HW231503   0.539   5.156   3.051
10202SOL     OW31504   1.278   3.051   3.778
10202SOL    HW131505   1.312   2.961   3.804
10202SOL    HW231506   1.265   3.055   3.679
10203SOL     OW31507   6.384   2.335   1.352
10203SOL    HW131508   6.481   2.342   1.375
10203SOL    HW231509   6.338   2.421   1.373
10204SOL     OW31510   1.450   5.825   4.134
10204SOL    HW131511   1.441   5.739   4.184
10204SOL    HW231512   1.359   5.855   4.104
10205SOL     OW31513   3.915   6.883   1.552
10205SOL    HW131514   3.853   6.960   1.565
10205SOL    HW231515   3.871   6.813   1.495
10206SOL     OW31516   6.107   5.701   6.844
10206SOL    HW131517   6.130   5.716   6.940
10206SOL    HW231518   6.008   5.694   6.833
10207SOL     OW31519   3.535   1.433   2.001
10207SOL    HW131520   3.522   1.523   2.043
10207SOL    HW231521   3.530   1.441   1.902
10208SOL     OW31522   1.066   2.038   6.114
10208SOL    HW131523   1.120   2.122   6.119
10208SOL    HW231524   1.092   1.977   6.189
10209SOL     OW31525   4.177   6.149   0.407
10209SOL    HW131526   4.089   6.138   0.454
10209SOL    HW231527   4.236   6.072   0.430
10210SOL     OW31528   4.164   6.413   6.576
10210SOL    HW131529   4.095   6.393   6.646
10210SOL    HW231530   4.197   6.507   6.588
10211SOL     OW31531   4.041   4.817   4.443
10211SOL    HW131532   4.065   4.886   4.512
10211SOL    HW231533   4.125   4.783   4.400
10212SOL     OW31534   6.656   5.944   5.505
10212SOL    HW131535   6.632   5.914   5.412
10212SOL    HW231536   6.754   5.930   5.520
10213SOL     OW31537   3.337   0.103   4.747
10213SOL    HW131538   3.435   0.090   4.766
10213SOL    HW231539   3.311   0.197   4.768
10214SOL     OW31540   6.797   0.045   0.454
10214SOL    HW131541   6.852   6.993   0.495
10214SOL    HW231542   6.837   0.073   0.367
10215SOL     OW31543   4.675   2.302   6.939
10215SOL    HW131544   4.738   2.368   6.980
10215SOL    HW231545   4.584   2.316   6.976
10216SOL     OW31546   4.963   0.341   3.183
10216SOL    HW131547   5.006   0.430   3.165
10216SOL    HW231548   5.033   0.270   3.186
10217SOL     OW31549   2.477   1.805   5.961
10217SOL    HW131550   2.565   1.799   5.914
10217SOL    HW231551   2.413   1.740   5.921
10218SOL     OW31552   3.488   0.660   5.923
10218SOL    HW131553   3.427   0.586   5.894
10218SOL    HW231554   3.554   0.625   5.990
10219SOL     OW31555   6.969   5.575   0.967
10219SOL    HW131556   6.937   5.590   0.874
10219SOL    HW231557   6.894   5.543   1.025
10220SOL     OW31558   4.593   2.567   6.387
10220SOL    HW131559   4.584   2.609   6.296
10220SOL    HW231560   4.513   2.590   6.442
10221SOL     OW31561   1.844   0.037   4.780
10221SOL    HW131562   1.892   0.019   4.694
10221SOL    HW231563   1.747   0.053   4.761
10222SOL     OW31564   2.883   5.088   5.203
10222SOL    HW131565   2.904   5.066   5.108
10222SOL    HW231566   2.834   5.175   5.207
10223SOL     OW31567   2.424   5.907   5.755
10223SOL    HW131568   2.383   5.993   5.724
10223SOL    HW231569   2.520   5.905   5.729
10224SOL     OW31570   4.097   6.010   5.483
10224SOL    HW131571   4.001   6.033   5.462
10224SOL    HW231572   4.145   6.093   5.513
10225SOL     OW31573   4.641   0.918   5.203
10225SOL    HW131574   4.726   0.867   5.191
10225SOL    HW231575   4.633   0.986   5.130
10226SOL     OW31576   6.693   2.266   6.399
10226SOL    HW131577   6.712   2.300   6.491
10226SOL    HW231578   6.600   2.291   6.373
10227SOL     OW31579   4.467   4.839   5.230
10227SOL    HW131580   4.457   4.850   5.131
10227SOL    HW231581   4.494   4.927   5.270
10228SOL     OW31582   0.922   2.800   1.403
10228SOL    HW131583   0.920   2.705   1.434
10228SOL    HW231584   0.830   2.830   1.380
10229SOL     OW31585   2.660   0.374   1.845
10229SOL    HW131586   2.671   0.388   1.746
10229SOL    HW231587   2.565   0.391   1.871
10230SOL     OW31588   5.319   0.191   3.347
10230SOL    HW131589   5.390   0.253   3.378
10230SOL    HW231590   5.308   0.117   3.414
10231SOL     OW31591   5.060   0.081   4.798
10231SOL    HW131592   5.136   0.071   4.734
10231SOL    HW231593   5.057   0.001   4.858
10232SOL     OW31594   4.075   2.092   2.758
10232SOL    HW131595   4.154   2.107   2.817
10232SOL    HW231596   4.060   2.173   2.702
10233SOL     OW31597   5.263   0.020   5.098
10233SOL    HW131598   5.257   6.977   5.021
10233SOL    HW231599   5.358   0.026   5.129
10234SOL     OW31600   4.253   4.348   1.104
10234SOL    HW131601   4.340   4.367   1.149
10234SOL    HW231602   4.262   4.364   1.006
10235SOL     OW31603   4.958   6.698   6.900
10235SOL    HW131604   4.962   6.603   6.867
10235SOL    HW231605   4.873   6.740   6.869
10236SOL     OW31606   0.991   5.193   1.367
10236SOL    HW131607   0.913   5.250   1.394
10236SOL    HW231608   1.040   5.163   1.449
10237SOL     OW31609   5.763   2.283   2.409
10237SOL    HW131610   5.682   2.332   2.378
10237SOL    HW231611   5.773   2.198   2.357
10238SOL     OW31612   4.915   4.563   5.924
10238SOL    HW131613   4.947   4.495   5.991
10238SOL    HW231614   4.815   4.562   5.921
10239SOL     OW31615   5.667   4.159   3.728
10239SOL    HW131616   5.684   4.172   3.826
10239SOL    HW231617   5.661   4.248   3.683
10240SOL     OW31618   5.295   3.860   2.683
10240SOL    HW131619   5.202   3.873   2.717
10240SOL    HW231620   5.309   3.764   2.659
10241SOL     OW31621   1.064   2.406   2.612
10241SOL    HW131622   1.157   2.375   2.631
10241SOL    HW231623   1.057   2.504   2.631
10242SOL     OW31624   0.903   5.673   6.567
10242SOL    HW131625   0.984   5.674   6.626
10242SOL    HW231626   0.842   5.747   6.595
10243SOL     OW31627   6.736   5.765   3.681
10243SOL    HW131628   6.689   5.689   3.725
10243SOL    HW231629   6.760   5.834   3.749
10244SOL     OW31630   2.775   6.017   0.027
10244SOL    HW131631   2.743   6.054   0.114
10244SOL    HW231632   2.872   5.996   0.033
10245SOL     OW31633   4.104   3.652   1.048
10245SOL    HW131634   4.196   3.617   1.029
10245SOL    HW231635   4.054   3.586   1.102
10246SOL     OW31636   3.355   3.735   4.872
10246SOL    HW131637   3.427   3.734   4.941
10246SOL    HW231638   3.392   3.771   4.786
10247SOL     OW31639   1.035   5.366   6.717
10247SOL    HW131640   1.102   5.388   6.787
10247SOL    HW231641   0.943   5.380   6.753
10248SOL     OW31642   6.103   6.673   3.975
10248SOL    HW131643   6.019   6.728   3.967
10248SOL    HW231644   6.126   6.636   3.885
10249SOL     OW31645   4.206   1.554   6.044
10249SOL    HW131646   4.196   1.456   6.065
10249SOL    HW231647   4.269   1.565   5.967
10250SOL     OW31648   4.700   5.635   0.720
10250SOL    HW131649   4.619   5.645   0.778
10250SOL    HW231650   4.767   5.576   0.765
10251SOL     OW31651   4.017   4.508   1.230
10251SOL    HW131652   4.083   4.510   1.305
10251SOL    HW231653   4.060   4.473   1.147
10252SOL     OW31654   6.905   4.585   0.420
10252SOL    HW131655   6.971   4.511   0.429
10252SOL    HW231656   6.918   4.649   0.496
10253SOL     OW31657   5.737   3.963   0.286
10253SOL    HW131658   5.693   3.996   0.202
10253SOL    HW231659   5.766   4.041   0.341
10254SOL     OW31660   3.418   1.981   5.619
10254SOL    HW131661   3.377   1.978   5.527
10254SOL    HW231662   3.383   1.905   5.673
10255SOL     OW31663   2.808   4.926   3.840
10255SOL    HW131664   2.847   5.004   3.888
10255SOL    HW231665   2.879   4.879   3.788
10256SOL     OW31666   5.412   4.968   0.270
10256SOL    HW131667   5.431   4.892   0.331
10256SOL    HW231668   5.320   5.004   0.287
10257SOL     OW31669   1.825   4.390   4.634
10257SOL    HW131670   1.891   4.463   4.651
10257SOL    HW231671   1.743   4.429   4.591
10258SOL     OW31672   3.884   1.527   2.232
10258SOL    HW131673   3.977   1.542   2.199
10258SOL    HW231674   3.853   1.609   2.281
10259SOL     OW31675   5.656   3.029   3.664
10259SOL    HW131676   5.604   3.000   3.583
10259SOL    HW231677   5.602   3.095   3.716
10260SOL     OW31678   6.905   5.682   2.467
10260SOL    HW131679   6.919   5.656   2.372
10260SOL    HW231680   6.807   5.689   2.487
10261SOL     OW31681   1.593   0.095   2.575
10261SOL    HW131682   1.599   7.015   2.569
10261SOL    HW231683   1.507   0.126   2.537
10262SOL     OW31684   6.641   5.934   3.889
10262SOL    HW131685   6.669   5.922   3.984
10262SOL    HW231686   6.685   6.015   3.851
10263SOL     OW31687   6.689   4.005   5.124
10263SOL    HW131688   6.755   3.936   5.154
10263SOL    HW231689   6.599   3.983   5.161
10264SOL     OW31690   0.510   0.428   1.218
10264SOL    HW131691   0.414   0.453   1.205
10264SOL    HW231692   0.517   0.329   1.230
10265SOL     OW31693   5.173   2.215   4.649
10265SOL    HW131694   5.077   2.239   4.663
10265SOL    HW231695   5.183   2.115   4.656
10266SOL     OW31696   3.202   3.835   0.174
10266SOL    HW131697   3.195   3.764   0.104
10266SOL    HW231698   3.111   3.859   0.207
10267SOL     OW31699   6.943   0.835   6.099
10267SOL    HW131700   6.977   0.741   6.106
10267SOL    HW231701   0.000   0.898   6.104
10268SOL     OW31702   6.797   4.690   0.170
10268SOL    HW131703   6.828   4.674   0.264
10268SOL    HW231704   6.823   4.612   0.113
10269SOL     OW31705   4.149   1.813   5.627
10269SOL    HW131706   4.229   1.862   5.662
10269SOL    HW231707   4.179   1.728   5.583
10270SOL     OW31708   3.418   6.093   3.526
10270SOL    HW131709   3.380   6.132   3.442
10270SOL    HW231710   3.470   6.010   3.503
10271SOL     OW31711   1.188   4.887   0.994
10271SOL    HW131712   1.215   4.798   1.031
10271SOL    HW231713   1.169   4.878   0.896
10272SOL     OW31714   1.382   3.700   4.482
10272SOL    HW131715   1.391   3.605   4.512
10272SOL    HW231716   1.432   3.760   4.545
10273SOL     OW31717   4.694   0.379   4.343
10273SOL    HW131718   4.671   0.435   4.423
10273SOL    HW231719   4.770   0.318   4.366
10274SOL     OW31720   1.650   4.771   6.777
10274SOL    HW131721   1.592   4.816   6.845
10274SOL    HW231722   1.593   4.714   6.717
10275SOL     OW31723   6.991   5.526   1.897
10275SOL    HW131724   6.907   5.486   1.860
10275SOL    HW231725   7.001   5.619   1.864
10276SOL     OW31726   3.208   7.017   0.517
10276SOL    HW131727   3.112   0.017   0.540
10276SOL    HW231728   3.238   0.057   0.443
10277SOL     OW31729   5.948   5.478   1.906
10277SOL    HW131730   5.902   5.390   1.901
10277SOL    HW231731   6.039   5.466   1.947
10278SOL     OW31732   6.284   1.215   4.868
10278SOL    HW131733   6.335   1.136   4.836
10278SOL    HW231734   6.334   1.260   4.942
10279SOL     OW31735   3.822   6.811   4.157
10279SOL    HW131736   3.770   6.785   4.239
10279SOL    HW231737   3.813   6.738   4.089
10280SOL     OW31738   2.725   2.497   6.861
10280SOL    HW131739   2.820   2.494   6.891
10280SOL    HW231740   2.718   2.550   6.776
10281SOL     OW31741   4.235   1.092   4.221
10281SOL    HW131742   4.193   1.070   4.309
10281SOL    HW231743   4.282   1.180   4.227
10282SOL     OW31744   1.474   3.290   4.097
10282SOL    HW131745   1.466   3.274   3.998
10282SOL    HW231746   1.520   3.212   4.139
10283SOL     OW31747   1.754   5.502   6.605
10283SOL    HW131748   1.734   5.405   6.592
10283SOL    HW231749   1.846   5.522   6.571
10284SOL     OW31750   5.795   2.680   0.445
10284SOL    HW131751   5.742   2.618   0.503
10284SOL    HW231752   5.882   2.703   0.491
10285SOL     OW31753   5.034   1.266   0.529
10285SOL    HW131754   5.028   1.304   0.437
10285SOL    HW231755   5.129   1.271   0.561
10286SOL     OW31756   2.915   6.691   3.736
10286SOL    HW131757   2.878   6.599   3.744
10286SOL    HW231758   2.916   6.736   3.825
10287SOL     OW31759   2.015   4.003   2.611
10287SOL    HW131760   1.940   3.940   2.633
10287SOL    HW231761   1.982   4.073   2.547
10288SOL     OW31762   4.864   7.013   4.618
10288SOL    HW131763   4.856   6.913   4.621
10288SOL    HW231764   4.938   0.023   4.677
10289SOL     OW31765   2.284   1.650   2.597
10289SOL    HW131766   2.351   1.668   2.670
10289SOL    HW231767   2.324   1.672   2.509
10290SOL     OW31768   2.906   3.300   2.935
10290SOL    HW131769   2.925   3.378   2.995
10290SOL    HW231770   2.978   3.293   2.866
10291SOL     OW31771   4.016   0.386   3.405
10291SOL    HW131772   3.995   0.291   3.382
10291SOL    HW231773   4.085   0.421   3.342
10292SOL     OW31774   6.652   3.033   4.409
10292SOL    HW131775   6.733   3.022   4.466
10292SOL    HW231776   6.607   3.120   4.431
10293SOL     OW31777   1.618   4.985   3.327
10293SOL    HW131778   1.528   4.946   3.348
10293SOL    HW231779   1.690   4.921   3.354
10294SOL     OW31780   6.390   0.592   2.955
10294SOL    HW131781   6.422   0.682   2.983
10294SOL    HW231782   6.300   0.574   2.994
10295SOL     OW31783   1.604   4.364   3.284
10295SOL    HW131784   1.612   4.356   3.383
10295SOL    HW231785   1.649   4.448   3.253
10296SOL     OW31786   6.851   3.225   1.341
10296SOL    HW131787   6.771   3.183   1.383
10296SOL    HW231788   6.874   3.309   1.391
10297SOL     OW31789   3.892   4.333   5.935
10297SOL    HW131790   3.837   4.259   5.973
10297SOL    HW231791   3.922   4.308   5.843
10298SOL     OW31792   5.782   2.985   3.027
10298SOL    HW131793   5.758   2.896   2.987
10298SOL    HW231794   5.709   3.014   3.090
10299SOL     OW31795   4.288   4.816   2.510
10299SOL    HW131796   4.266   4.732   2.559
10299SOL    HW231797   4.254   4.810   2.416
10300SOL     OW31798   0.087   5.801   2.593
10300SOL    HW131799   0.003   5.759   2.559
10300SOL    HW231800   0.146   5.826   2.516
10301SOL     OW31801   4.431   0.864   1.940
10301SOL    HW131802   4.458   0.775   1.906
10301SOL    HW231803   4.511   0.924   1.946
10302SOL     OW31804   0.028   4.076   3.458
10302SOL    HW131805   0.086   4.031   3.390
10302SOL    HW231806   0.020   4.173   3.437
10303SOL     OW31807   4.855   3.560   0.933
10303SOL    HW131808   4.849   3.574   1.031
10303SOL    HW231809   4.951   3.563   0.905
10304SOL     OW31810   5.575   6.317   4.224
10304SOL    HW131811   5.633   6.251   4.176
10304SOL    HW231812   5.515   6.268   4.288
10305SOL     OW31813   1.187   5.076   1.195
10305SOL    HW131814   1.172   5.016   1.116
10305SOL    HW231815   1.101   5.089   1.244
10306SOL     OW31816   4.899   3.572   6.728
10306SOL    HW131817   4.853   3.501   6.675
10306SOL    HW231818   4.909   3.655   6.672
10307SOL     OW31819   2.896   2.317   6.127
10307SOL    HW131820   2.989   2.330   6.161
10307SOL    HW231821   2.834   2.379   6.176
10308SOL     OW31822   3.169   4.914   4.028
10308SOL    HW131823   3.110   4.844   3.988
10308SOL    HW231824   3.118   4.967   4.095
10309SOL     OW31825   6.857   6.493   4.101
10309SOL    HW131826   6.806   6.570   4.062
10309SOL    HW231827   6.948   6.523   4.128
10310SOL     OW31828   3.858   3.909   4.617
10310SOL    HW131829   3.809   3.982   4.571
10310SOL    HW231830   3.828   3.820   4.582
10311SOL     OW31831   1.653   0.395   0.558
10311SOL    HW131832   1.726   0.460   0.535
10311SOL    HW231833   1.641   0.332   0.482
10312SOL     OW31834   3.299   4.402   0.590
10312SOL    HW131835   3.357   4.406   0.672
10312SOL    HW231836   3.286   4.494   0.555
10313SOL     OW31837   6.582   5.651   3.329
10313SOL    HW131838   6.531   5.649   3.415
10313SOL    HW231839   6.639   5.569   3.322
10314SOL     OW31840   6.487   5.468   5.177
10314SOL    HW131841   6.550   5.391   5.187
10314SOL    HW231842   6.460   5.501   5.268
10315SOL     OW31843   4.130   5.349   5.311
10315SOL    HW131844   4.133   5.377   5.407
10315SOL    HW231845   4.218   5.310   5.284
10316SOL     OW31846   0.165   2.873   3.937
10316SOL    HW131847   0.183   2.783   3.978
10316SOL    HW231848   0.105   2.862   3.858
10317SOL     OW31849   6.107   4.088   6.145
10317SOL    HW131850   6.070   4.066   6.235
10317SOL    HW231851   6.197   4.130   6.154
10318SOL     OW31852   4.989   4.717   2.277
10318SOL    HW131853   4.933   4.767   2.343
10318SOL    HW231854   5.086   4.725   2.303
10319SOL     OW31855   6.286   6.674   3.658
10319SOL    HW131856   6.222   6.632   3.593
10319SOL    HW231857   6.377   6.678   3.617
10320SOL     OW31858   3.170   6.627   1.724
10320SOL    HW131859   3.269   6.627   1.710
10320SOL    HW231860   3.149   6.659   1.816
10321SOL     OW31861   4.878   6.884   5.355
10321SOL    HW131862   4.824   6.810   5.315
10321SOL    HW231863   4.939   6.846   5.425
10322SOL     OW31864   0.104   1.522   5.997
10322SOL    HW131865   0.099   1.620   6.013
10322SOL    HW231866   0.165   1.504   5.920
10323SOL     OW31867   0.143   2.174   5.173
10323SOL    HW131868   0.100   2.109   5.236
10323SOL    HW231869   0.240   2.183   5.196
10324SOL     OW31870   3.147   3.667   5.067
10324SOL    HW131871   3.202   3.702   4.990
10324SOL    HW231872   3.185   3.702   5.153
10325SOL     OW31873   0.677   3.101   4.069
10325SOL    HW131874   0.592   3.048   4.061
10325SOL    HW231875   0.672   3.160   4.149
10326SOL     OW31876   6.155   1.014   0.867
10326SOL    HW131877   6.228   1.030   0.801
10326SOL    HW231878   6.068   0.999   0.819
10327SOL     OW31879   6.254   1.926   3.936
10327SOL    HW131880   6.336   1.982   3.923
10327SOL    HW231881   6.192   1.939   3.858
10328SOL     OW31882   6.922   3.423   1.582
10328SOL    HW131883   6.854   3.484   1.623
10328SOL    HW231884   6.953   3.356   1.650
10329SOL     OW31885   2.101   5.979   2.612
10329SOL    HW131886   2.002   5.971   2.600
10329SOL    HW231887   2.135   6.052   2.553
10330SOL     OW31888   4.130   3.335   0.648
10330SOL    HW131889   4.184   3.402   0.598
10330SOL    HW231890   4.034   3.344   0.623
10331SOL     OW31891   5.036   2.202   4.098
10331SOL    HW131892   5.008   2.155   4.182
10331SOL    HW231893   5.087   2.285   4.122
10332SOL     OW31894   1.839   2.839   6.460
10332SOL    HW131895   1.806   2.932   6.480
10332SOL    HW231896   1.927   2.825   6.506
10333SOL     OW31897   6.899   4.313   5.453
10333SOL    HW131898   6.935   4.402   5.482
10333SOL    HW231899   6.821   4.326   5.392
10334SOL     OW31900   0.592   4.922   5.935
10334SOL    HW131901   0.545   4.985   5.997
10334SOL    HW231902   0.580   4.828   5.967
10335SOL     OW31903   2.710   5.357   2.767
10335SOL    HW131904   2.713   5.282   2.834
10335SOL    HW231905   2.802   5.395   2.756
10336SOL     OW31906   4.200   0.531   3.233
10336SOL    HW131907   4.177   0.487   3.146
10336SOL    HW231908   4.296   0.560   3.232
10337SOL     OW31909   1.553   3.012   5.654
10337SOL    HW131910   1.576   2.943   5.586
10337SOL    HW231911   1.622   3.012   5.727
10338SOL     OW31912   2.142   3.805   3.018
10338SOL    HW131913   2.128   3.738   2.946
10338SOL    HW231914   2.155   3.895   2.978
10339SOL     OW31915   3.437   6.478   6.624
10339SOL    HW131916   3.404   6.450   6.714
10339SOL    HW231917   3.365   6.527   6.576
10340SOL     OW31918   2.014   5.772   0.906
10340SOL    HW131919   2.031   5.836   0.981
10340SOL    HW231920   2.060   5.685   0.925
10341SOL     OW31921   0.034   2.681   1.957
10341SOL    HW131922   6.956   2.677   1.975
10341SOL    HW231923   0.080   2.727   2.033
10342SOL     OW31924   3.230   5.079   3.747
10342SOL    HW131925   3.328   5.065   3.757
10342SOL    HW231926   3.181   5.010   3.800
10343SOL     OW31927   2.814   2.137   4.700
10343SOL    HW131928   2.896   2.163   4.751
10343SOL    HW231929   2.743   2.206   4.714
10344SOL     OW31930   5.158   4.506   1.170
10344SOL    HW131931   5.078   4.562   1.148
10344SOL    HW231932   5.150   4.473   1.264
10345SOL     OW31933   2.578   1.958   6.380
10345SOL    HW131934   2.522   1.942   6.299
10345SOL    HW231935   2.586   1.873   6.432
10346SOL     OW31936   6.875   4.757   6.399
10346SOL    HW131937   6.949   4.727   6.340
10346SOL    HW231938   6.890   4.722   6.492
10347SOL     OW31939   3.730   6.405   2.173
10347SOL    HW131940   3.667   6.351   2.229
10347SOL    HW231941   3.678   6.467   2.114
10348SOL     OW31942   0.457   3.051   4.319
10348SOL    HW131943   0.445   2.970   4.262
10348SOL    HW231944   0.497   3.025   4.407
10349SOL     OW31945   6.369   1.662   0.327
10349SOL    HW131946   6.308   1.685   0.251
10349SOL    HW231947   6.409   1.746   0.363
10350SOL     OW31948   1.972   5.548   4.152
10350SOL    HW131949   1.902   5.616   4.131
10350SOL    HW231950   2.053   5.564   4.095
10351SOL     OW31951   3.936   5.728   5.514
10351SOL    HW131952   3.843   5.762   5.510
10351SOL    HW231953   3.971   5.740   5.607
10352SOL     OW31954   0.731   1.402   1.963
10352SOL    HW131955   0.693   1.460   1.891
10352SOL    HW231956   0.744   1.309   1.927
10353SOL     OW31957   5.221   2.749   3.538
10353SOL    HW131958   5.135   2.708   3.569
10353SOL    HW231959   5.238   2.723   3.443
10354SOL     OW31960   6.899   2.406   2.044
10354SOL    HW131961   6.840   2.443   1.972
10354SOL    HW231962   6.894   2.306   2.043
10355SOL     OW31963   6.700   1.796   0.584
10355SOL    HW131964   6.773   1.839   0.530
10355SOL    HW231965   6.667   1.861   0.652
10356SOL     OW31966   6.421   2.289   6.386
10356SOL    HW131967   6.345   2.338   6.428
10356SOL    HW231968   6.387   2.208   6.339
10357SOL     OW31969   0.382   6.507   6.471
10357SOL    HW131970   0.386   6.448   6.552
10357SOL    HW231971   0.453   6.480   6.406
10358SOL     OW31972   0.221   3.583   3.942
10358SOL    HW131973   0.284   3.507   3.928
10358SOL    HW231974   0.171   3.570   4.027
10359SOL     OW31975   0.577   2.607   2.158
10359SOL    HW131976   0.647   2.541   2.133
10359SOL    HW231977   0.552   2.595   2.254
10360SOL     OW31978   5.810   4.492   1.390
10360SOL    HW131979   5.778   4.398   1.378
10360SOL    HW231980   5.736   4.556   1.369
10361SOL     OW31981   5.769   2.041   3.912
10361SOL    HW131982   5.671   2.025   3.904
10361SOL    HW231983   5.788   2.138   3.899
10362SOL     OW31984   6.835   6.391   2.281
10362SOL    HW131985   6.759   6.358   2.338
10362SOL    HW231986   6.846   6.489   2.296
10363SOL     OW31987   4.708   5.256   6.438
10363SOL    HW131988   4.697   5.321   6.363
10363SOL    HW231989   4.730   5.304   6.523
10364SOL     OW31990   6.182   5.339   1.268
10364SOL    HW131991   6.209   5.294   1.353
10364SOL    HW231992   6.160   5.435   1.286
10365SOL     OW31993   6.351   6.305   6.518
10365SOL    HW131994   6.261   6.269   6.540
10365SOL    HW231995   6.412   6.230   6.493
10366SOL     OW31996   2.271   0.336   3.466
10366SOL    HW131997   2.350   0.328   3.406
10366SOL    HW231998   2.213   0.411   3.435
10367SOL     OW31999   4.085   5.887   2.536
10367SOL    HW132000   4.071   5.789   2.520
10367SOL    HW232001   4.147   5.924   2.467
10368SOL     OW32002   1.326   5.584   2.260
10368SOL    HW132003   1.350   5.651   2.189
10368SOL    HW232004   1.359   5.615   2.349
10369SOL     OW32005   2.641   0.804   5.611
10369SOL    HW132006   2.549   0.835   5.634
10369SOL    HW232007   2.695   0.881   5.578
10370SOL     OW32008   2.397   2.002   6.803
10370SOL    HW132009   2.399   1.931   6.733
10370SOL    HW232010   2.484   2.050   6.804
10371SOL     OW32011   3.942   5.627   2.572
10371SOL    HW132012   3.889   5.698   2.619
10371SOL    HW232013   3.946   5.545   2.629
10372SOL     OW32014   1.168   6.328   0.981
10372SOL    HW132015   1.224   6.360   0.905
10372SOL    HW232016   1.197   6.237   1.009
10373SOL     OW32017   6.805   0.996   5.186
10373SOL    HW132018   6.707   0.979   5.196
10373SOL    HW232019   6.848   0.920   5.138
10374SOL     OW32020   2.202   5.310   2.077
10374SOL    HW132021   2.138   5.286   2.150
10374SOL    HW232022   2.158   5.295   1.988
10375SOL     OW32023   2.429   5.553   6.348
10375SOL    HW132024   2.369   5.480   6.313
10375SOL    HW232025   2.463   5.607   6.271
10376SOL     OW32026   2.137   4.733   3.586
10376SOL    HW132027   2.193   4.652   3.570
10376SOL    HW232028   2.112   4.738   3.683
10377SOL     OW32029   3.171   1.177   3.789
10377SOL    HW132030   3.155   1.094   3.842
10377SOL    HW232031   3.193   1.253   3.851
10378SOL     OW32032   6.854   0.035   5.217
10378SOL    HW132033   6.775   0.043   5.278
10378SOL    HW232034   6.908   6.975   5.242
10379SOL     OW32035   0.360   5.356   3.364
10379SOL    HW132036   0.278   5.409   3.381
10379SOL    HW232037   0.404   5.387   3.280
10380SOL     OW32038   3.162   1.400   3.943
10380SOL    HW132039   3.069   1.424   3.970
10380SOL    HW232040   3.223   1.410   4.021
10381SOL     OW32041   2.250   6.718   3.934
10381SOL    HW132042   2.215   6.668   4.013
10381SOL    HW232043   2.248   6.816   3.952
10382SOL     OW32044   3.885   5.848   2.706
10382SOL    HW132045   3.933   5.885   2.627
10382SOL    HW232046   3.912   5.897   2.788
10383SOL     OW32047   0.481   6.878   0.055
10383SOL    HW132048   0.418   6.899   7.000
10383SOL    HW232049   0.428   6.851   0.136
10384SOL     OW32050   5.602   5.007   1.183
10384SOL    HW132051   5.541   5.034   1.258
10384SOL    HW232052   5.584   5.063   1.103
10385SOL     OW32053   3.797   4.306   6.583
10385SOL    HW132054   3.887   4.291   6.624
10385SOL    HW232055   3.803   4.300   6.484
10386SOL     OW32056   0.172   0.399   2.019
10386SOL    HW132057   0.082   0.357   2.006
10386SOL    HW232058   0.228   0.383   1.938
10387SOL     OW32059   5.320   0.705   2.158
10387SOL    HW132060   5.399   0.672   2.107
10387SOL    HW232061   5.271   0.628   2.197
10388SOL     OW32062   1.053   6.831   4.993
10388SOL    HW132063   1.078   6.735   4.981
10388SOL    HW232064   0.963   6.836   5.037
10389SOL     OW32065   0.671   4.043   0.822
10389SOL    HW132066   0.726   4.127   0.818
10389SOL    HW232067   0.668   4.010   0.916
10390SOL     OW32068   1.603   2.460   2.252
10390SOL    HW132069   1.604   2.398   2.330
10390SOL    HW232070   1.661   2.539   2.271
10391SOL     OW32071   6.172   0.190   3.505
10391SOL    HW132072   6.198   0.281   3.475
10391SOL    HW232073   6.096   0.157   3.449
10392SOL     OW32074   5.548   3.326   4.169
10392SOL    HW132075   5.640   3.306   4.203
10392SOL    HW232076   5.527   3.422   4.185
10393SOL     OW32077   1.928   2.510   1.320
10393SOL    HW132078   1.971   2.424   1.348
10393SOL    HW232079   1.996   2.566   1.272
10394SOL     OW32080   2.731   5.542   3.923
10394SOL    HW132081   2.763   5.567   4.015
10394SOL    HW232082   2.754   5.615   3.859
10395SOL     OW32083   0.559   1.337   1.281
10395SOL    HW132084   0.656   1.341   1.256
10395SOL    HW232085   0.517   1.427   1.267
10396SOL     OW32086   3.509   1.802   5.301
10396SOL    HW132087   3.524   1.799   5.202
10396SOL    HW232088   3.450   1.879   5.323
10397SOL     OW32089   4.704   1.207   3.947
10397SOL    HW132090   4.629   1.269   3.923
10397SOL    HW232091   4.675   1.147   4.021
10398SOL     OW32092   4.673   2.721   2.654
10398SOL    HW132093   4.609   2.714   2.577
10398SOL    HW232094   4.732   2.800   2.641
10399SOL     OW32095   0.917   2.747   1.928
10399SOL    HW132096   1.009   2.781   1.907
10399SOL    HW232097   0.860   2.752   1.846
10400SOL     OW32098   1.965   6.527   0.522
10400SOL    HW132099   2.028   6.596   0.487
10400SOL    HW232100   1.872   6.564   0.522
10401SOL     OW32101   6.527   1.011   5.246
10401SOL    HW132102   6.530   1.052   5.337
10401SOL    HW232103   6.458   0.938   5.244
10402SOL     OW32104   6.466   4.554   5.509
10402SOL    HW132105   6.367   4.546   5.499
10402SOL    HW232106   6.492   4.534   5.604
10403SOL     OW32107   3.636   0.182   1.352
10403SOL    HW132108   3.614   0.204   1.257
10403SOL    HW232109   3.625   0.264   1.408
10404SOL     OW32110   0.749   5.380   5.670
10404SOL    HW132111   0.769   5.398   5.766
10404SOL    HW232112   0.674   5.314   5.663
10405SOL     OW32113   0.235   1.282   0.149
10405SOL    HW132114   0.226   1.183   0.163
10405SOL    HW232115   0.144   1.324   0.156
10406SOL     OW32116   1.832   5.442   1.338
10406SOL    HW132117   1.789   5.514   1.392
10406SOL    HW232118   1.763   5.396   1.282
10407SOL     OW32119   2.126   5.898   0.393
10407SOL    HW132120   2.174   5.932   0.474
10407SOL    HW232121   2.160   5.945   0.312
10408SOL     OW32122   4.760   0.696   7.000
10408SOL    HW132123   4.850   0.728   6.970
10408SOL    HW232124   4.770   0.609   0.028
10409SOL     OW32125   6.804   3.935   0.306
10409SOL    HW132126   6.818   3.916   0.404
10409SOL    HW232127   6.793   3.848   0.258
10410SOL     OW32128   3.926   6.601   0.729
10410SOL    HW132129   3.944   6.512   0.770
10410SOL    HW232130   3.989   6.616   0.653
10411SOL     OW32131   1.638   5.138   3.999
10411SOL    HW132132   1.695   5.068   4.042
10411SOL    HW232133   1.647   5.224   4.049
10412SOL     OW32134   4.856   0.481   2.108
10412SOL    HW132135   4.779   0.431   2.148
10412SOL    HW232136   4.821   0.547   2.041
10413SOL     OW32137   6.095   3.657   1.428
10413SOL    HW132138   6.060   3.652   1.335
10413SOL    HW232139   6.144   3.744   1.440
10414SOL     OW32140   4.909   3.789   3.919
10414SOL    HW132141   5.006   3.815   3.927
10414SOL    HW232142   4.858   3.863   3.875
10415SOL     OW32143   0.844   0.593   6.964
10415SOL    HW132144   0.772   0.638   7.018
10415SOL    HW232145   0.932   0.638   6.982
10416SOL     OW32146   4.942   2.746   2.991
10416SOL    HW132147   4.850   2.729   3.028
10416SOL    HW232148   4.992   2.807   3.052
10417SOL     OW32149   1.731   3.777   2.390
10417SOL    HW132150   1.762   3.797   2.483
10417SOL    HW232151   1.714   3.863   2.342
10418SOL     OW32152   1.602   5.796   5.840
10418SOL    HW132153   1.602   5.833   5.747
10418SOL    HW232154   1.637   5.865   5.904
10419SOL     OW32155   1.299   0.870   6.174
10419SOL    HW132156   1.343   0.797   6.122
10419SOL    HW232157   1.272   0.943   6.111
10420SOL     OW32158   0.430   3.173   2.406
10420SOL    HW132159   0.485   3.257   2.407
10420SOL    HW232160   0.483   3.098   2.445
10421SOL     OW32161   1.006   2.077   3.018
10421SOL    HW132162   0.959   2.017   2.953
10421SOL    HW232163   1.013   2.169   2.979
10422SOL     OW32164   5.840   1.830   0.213
10422SOL    HW132165   5.813   1.835   0.309
10422SOL    HW232166   5.794   1.904   0.162
10423SOL     OW32167   4.473   5.315   2.600
10423SOL    HW132168   4.459   5.341   2.504
10423SOL    HW232169   4.386   5.285   2.640
10424SOL     OW32170   4.422   1.286   6.346
10424SOL    HW132171   4.497   1.265   6.409
10424SOL    HW232172   4.334   1.266   6.390
10425SOL     OW32173   1.800   6.530   2.019
10425SOL    HW132174   1.797   6.480   2.106
10425SOL    HW232175   1.863   6.485   1.957
10426SOL     OW32176   6.227   3.723   6.354
10426SOL    HW132177   6.312   3.689   6.393
10426SOL    HW232178   6.246   3.795   6.288
10427SOL     OW32179   4.753   0.846   0.753
10427SOL    HW132180   4.754   0.890   0.663
10427SOL    HW232181   4.781   0.913   0.823
10428SOL     OW32182   4.770   2.227   3.389
10428SOL    HW132183   4.807   2.319   3.403
10428SOL    HW232184   4.677   2.233   3.353
10429SOL     OW32185   5.637   5.564   2.419
10429SOL    HW132186   5.687   5.602   2.340
10429SOL    HW232187   5.638   5.631   2.493
10430SOL     OW32188   3.851   5.960   3.088
10430SOL    HW132189   3.946   5.975   3.061
10430SOL    HW232190   3.843   5.962   3.187
10431SOL     OW32191   3.101   1.705   5.662
10431SOL    HW132192   3.171   1.672   5.725
10431SOL    HW232193   3.143   1.766   5.595
10432SOL     OW32194   3.841   0.441   4.756
10432SOL    HW132195   3.919   0.379   4.751
10432SOL    HW232196   3.794   0.429   4.844
10433SOL     OW32197   2.292   5.889   1.636
10433SOL    HW132198   2.371   5.945   1.610
10433SOL    HW232199   2.323   5.809   1.687
10434SOL     OW32200   3.584   2.266   5.269
10434SOL    HW132201   3.590   2.199   5.194
10434SOL    HW232202   3.498   2.255   5.318
10435SOL     OW32203   5.923   5.334   6.518
10435SOL    HW132204   5.976   5.330   6.433
10435SOL    HW232205   5.838   5.282   6.507
10436SOL     OW32206   0.366   1.625   2.646
10436SOL    HW132207   0.341   1.531   2.626
10436SOL    HW232208   0.465   1.636   2.637
10437SOL     OW32209   1.345   2.843   0.379
10437SOL    HW132210   1.285   2.902   0.324
10437SOL    HW232211   1.305   2.751   0.384
10438SOL     OW32212   3.253   6.928   5.751
10438SOL    HW132213   3.182   6.998   5.751
10438SOL    HW232214   3.236   6.864   5.676
10439SOL     OW32215   3.203   0.174   5.609
10439SOL    HW132216   3.144   0.149   5.531
10439SOL    HW232217   3.155   0.155   5.694
10440SOL     OW32218   1.047   5.947   0.615
10440SOL    HW132219   0.951   5.966   0.636
10440SOL    HW232220   1.053   5.867   0.557
10441SOL     OW32221   4.974   6.497   1.471
10441SOL    HW132222   4.876   6.504   1.484
10441SOL    HW232223   5.016   6.588   1.479
10442SOL     OW32224   3.829   6.102   6.537
10442SOL    HW132225   3.887   6.156   6.599
10442SOL    HW232226   3.746   6.075   6.586
10443SOL     OW32227   6.962   2.841   5.019
10443SOL    HW132228   0.018   2.801   5.070
10443SOL    HW232229   6.967   2.940   5.022
10444SOL     OW32230   4.059   4.830   5.206
10444SOL    HW132231   3.970   4.873   5.190
10444SOL    HW232232   4.128   4.876   5.150
10445SOL     OW32233   6.600   6.274   1.738
10445SOL    HW132234   6.700   6.277   1.750
10445SOL    HW232235   6.579   6.264   1.641
10446SOL     OW32236   1.077   6.814   5.913
10446SOL    HW132237   1.173   6.844   5.914
10446SOL    HW232238   1.073   6.715   5.903
10447SOL     OW32239   5.288   2.341   6.557
10447SOL    HW132240   5.245   2.405   6.621
10447SOL    HW232241   5.304   2.387   6.470
10448SOL     OW32242   3.640   3.533   2.582
10448SOL    HW132243   3.740   3.526   2.588
10448SOL    HW232244   3.607   3.602   2.647
10449SOL     OW32245   1.374   5.190   5.012
10449SOL    HW132246   1.314   5.241   4.951
10449SOL    HW232247   1.360   5.221   5.106
10450SOL     OW32248   0.715   3.306   0.226
10450SOL    HW132249   0.705   3.315   0.325
10450SOL    HW232250   0.728   3.210   0.203
10451SOL     OW32251   1.963   4.192   2.427
10451SOL    HW132252   2.031   4.184   2.354
10451SOL    HW232253   1.900   4.267   2.406
10452SOL     OW32254   1.755   3.451   6.010
10452SOL    HW132255   1.658   3.462   6.028
10452SOL    HW232256   1.793   3.536   5.973
10453SOL     OW32257   5.086   0.567   2.290
10453SOL    HW132258   5.032   0.501   2.237
10453SOL    HW232259   5.036   0.653   2.296
10454SOL     OW32260   3.584   5.363   2.431
10454SOL    HW132261   3.582   5.459   2.457
10454SOL    HW232262   3.602   5.307   2.512
10455SOL     OW32263   0.972   4.952   3.512
10455SOL    HW132264   0.926   4.902   3.439
10455SOL    HW232265   0.938   4.920   3.600
10456SOL     OW32266   3.521   6.934   1.230
10456SOL    HW132267   3.452   6.955   1.161
10456SOL    HW232268   3.603   6.988   1.214
10457SOL     OW32269   3.900   3.014   3.668
10457SOL    HW132270   3.982   2.992   3.721
10457SOL    HW232271   3.827   2.950   3.692
10458SOL     OW32272   6.419   6.034   2.677
10458SOL    HW132273   6.359   5.955   2.662
10458SOL    HW232274   6.514   6.005   2.665
10459SOL     OW32275   0.062   5.261   1.628
10459SOL    HW132276   0.082   5.357   1.646
10459SOL    HW232277   6.995   5.254   1.578
10460SOL     OW32278   1.169   4.156   1.208
10460SOL    HW132279   1.222   4.072   1.218
10460SOL    HW232280   1.230   4.235   1.221
10461SOL     OW32281   3.969   0.366   6.409
10461SOL    HW132282   4.029   0.304   6.459
10461SOL    HW232283   3.890   0.316   6.374
10462SOL     OW32284   5.114   6.739   1.430
10462SOL    HW132285   5.147   6.787   1.511
10462SOL    HW232286   5.169   6.766   1.351
10463SOL     OW32287   4.473   3.372   0.500
10463SOL    HW132288   4.417   3.382   0.418
10463SOL    HW232289   4.448   3.442   0.566
10464SOL     OW32290   5.828   6.788   2.181
10464SOL    HW132291   5.808   6.721   2.110
10464SOL    HW232292   5.864   6.872   2.140
10465SOL     OW32293   0.160   4.638   5.544
10465SOL    HW132294   0.259   4.642   5.549
10465SOL    HW232295   0.121   4.657   5.634
10466SOL     OW32296   4.218   5.591   5.478
10466SOL    HW132297   4.123   5.617   5.467
10466SOL    HW232298   4.229   5.539   5.563
10467SOL     OW32299   4.213   1.769   4.024
10467SOL    HW132300   4.145   1.739   4.091
10467SOL    HW232301   4.197   1.864   3.999
10468SOL     OW32302   2.597   5.199   3.218
10468SOL    HW132303   2.683   5.200   3.268
10468SOL    HW232304   2.526   5.244   3.273
10469SOL     OW32305   1.367   4.815   6.007
10469SOL    HW132306   1.313   4.831   5.924
10469SOL    HW232307   1.359   4.720   6.034
10470SOL     OW32308   2.523   1.849   4.531
10470SOL    HW132309   2.490   1.921   4.469
10470SOL    HW232310   2.447   1.789   4.555
10471SOL     OW32311   4.785   4.087   6.727
10471SOL    HW132312   4.861   4.032   6.762
10471SOL    HW232313   4.781   4.078   6.627
10472SOL     OW32314   4.072   1.911   3.730
10472SOL    HW132315   4.140   1.981   3.751
10472SOL    HW232316   3.999   1.915   3.799
10473SOL     OW32317   4.810   4.647   6.687
10473SOL    HW132318   4.716   4.675   6.706
10473SOL    HW232319   4.815   4.547   6.682
10474SOL     OW32320   4.401   0.867   4.218
10474SOL    HW132321   4.337   0.792   4.236
10474SOL    HW232322   4.365   0.926   4.146
10475SOL     OW32323   4.053   6.588   1.204
10475SOL    HW132324   4.107   6.507   1.181
10475SOL    HW232325   4.079   6.621   1.295
10476SOL     OW32326   0.507   4.864   6.723
10476SOL    HW132327   0.550   4.828   6.806
10476SOL    HW232328   0.439   4.932   6.748
10477SOL     OW32329   4.685   4.661   4.617
10477SOL    HW132330   4.691   4.583   4.555
10477SOL    HW232331   4.625   4.638   4.694
10478SOL     OW32332   0.696   0.077   2.781
10478SOL    HW132333   0.793   0.082   2.757
10478SOL    HW232334   0.646   0.145   2.728
10479SOL     OW32335   0.829   4.070   2.547
10479SOL    HW132336   0.900   4.041   2.611
10479SOL    HW232337   0.828   4.170   2.542
10480SOL     OW32338   4.668   1.317   0.018
10480SOL    HW132339   4.678   1.235   0.076
10480SOL    HW232340   4.571   1.340   0.009
10481SOL     OW32341   3.540   1.454   3.431
10481SOL    HW132342   3.477   1.377   3.437
10481SOL    HW232343   3.553   1.494   3.521
10482SOL     OW32344   0.524   6.588   6.076
10482SOL    HW132345   0.567   6.569   5.987
10482SOL    HW232346   0.594   6.585   6.148
10483SOL     OW32347   0.948   6.258   0.803
10483SOL    HW132348   1.021   6.300   0.856
10483SOL    HW232349   0.932   6.310   0.720
10484SOL     OW32350   6.864   1.601   1.539
10484SOL    HW132351   6.951   1.594   1.490
10484SOL    HW232352   6.819   1.512   1.540
10485SOL     OW32353   3.675   4.131   4.990
10485SOL    HW132354   3.605   4.133   4.919
10485SOL    HW232355   3.634   4.155   5.079
10486SOL     OW32356   5.989   4.784   5.651
10486SOL    HW132357   5.950   4.731   5.727
10486SOL    HW232358   5.943   4.872   5.645
10487SOL     OW32359   5.555   3.775   2.765
10487SOL    HW132360   5.490   3.848   2.744
10487SOL    HW232361   5.562   3.763   2.864
10488SOL     OW32362   0.746   2.017   5.427
10488SOL    HW132363   0.664   1.962   5.412
10488SOL    HW232364   0.792   1.986   5.510
10489SOL     OW32365   5.939   4.847   2.918
10489SOL    HW132366   5.946   4.779   2.845
10489SOL    HW232367   6.030   4.866   2.954
10490SOL     OW32368   5.299   6.295   6.430
10490SOL    HW132369   5.215   6.349   6.423
10490SOL    HW232370   5.354   6.308   6.348
10491SOL     OW32371   2.337   2.066   5.502
10491SOL    HW132372   2.404   2.007   5.548
10491SOL    HW232373   2.292   2.014   5.429
10492SOL     OW32374   3.311   6.426   6.910
10492SOL    HW132375   3.318   6.344   6.966
10492SOL    HW232376   3.239   6.485   6.946
10493SOL     OW32377   3.804   6.376   0.500
10493SOL    HW132378   3.749   6.445   0.547
10493SOL    HW232379   3.752   6.340   0.422
10494SOL     OW32380   6.951   5.629   3.547
10494SOL    HW132381   6.868   5.683   3.534
10494SOL    HW232382   6.945   5.579   3.633
10495SOL     OW32383   6.405   6.561   0.081
10495SOL    HW132384   6.469   6.536   0.154
10495SOL    HW232385   6.451   6.622   0.016
10496SOL     OW32386   0.970   4.065   6.137
10496SOL    HW132387   0.977   4.133   6.210
10496SOL    HW232388   1.060   4.027   6.118
10497SOL     OW32389   4.202   6.812   0.026
10497SOL    HW132390   4.248   6.725   0.043
10497SOL    HW232391   4.193   6.862   0.112
10498SOL     OW32392   3.454   3.749   0.337
10498SOL    HW132393   3.373   3.774   0.285
10498SOL    HW232394   3.531   3.734   0.275
10499SOL     OW32395   4.065   4.830   3.573
10499SOL    HW132396   4.079   4.782   3.486
10499SOL    HW232397   4.118   4.785   3.645
10500SOL     OW32398   1.815   2.747   5.313
10500SOL    HW132399   1.779   2.663   5.354
10500SOL    HW232400   1.739   2.801   5.277
10501SOL     OW32401   3.781   4.906   3.148
10501SOL    HW132402   3.793   4.888   3.050
10501SOL    HW232403   3.714   4.979   3.160
10502SOL     OW32404   3.614   3.098   3.050
10502SOL    HW132405   3.587   3.129   2.958
10502SOL    HW232406   3.564   3.015   3.073
10503SOL     OW32407   6.806   6.460   0.642
10503SOL    HW132408   6.882   6.509   0.685
10503SOL    HW232409   6.728   6.456   0.705
10504SOL     OW32410   1.788   2.831   5.640
10504SOL    HW132411   1.826   2.762   5.702
10504SOL    HW232412   1.715   2.790   5.585
10505SOL     OW32413   5.397   6.473   1.893
10505SOL    HW132414   5.392   6.479   1.992
10505SOL    HW232415   5.487   6.439   1.866
10506SOL     OW32416   0.452   5.059   6.133
10506SOL    HW132417   0.439   5.142   6.189
10506SOL    HW232418   0.440   4.978   6.191
10507SOL     OW32419   1.867   6.650   6.274
10507SOL    HW132420   1.965   6.653   6.254
10507SOL    HW232421   1.836   6.555   6.273
10508SOL     OW32422   1.998   6.267   1.409
10508SOL    HW132423   1.994   6.317   1.322
10508SOL    HW232424   2.084   6.290   1.456
10509SOL     OW32425   4.857   3.654   2.069
10509SOL    HW132426   4.845   3.741   2.118
10509SOL    HW232427   4.789   3.648   1.996
10510SOL     OW32428   5.238   6.058   2.030
10510SOL    HW132429   5.297   6.100   1.962
10510SOL    HW232430   5.280   5.974   2.064
10511SOL     OW32431   3.600   1.754   0.771
10511SOL    HW132432   3.568   1.832   0.716
10511SOL    HW232433   3.546   1.748   0.855
10512SOL     OW32434   3.599   6.933   5.150
10512SOL    HW132435   3.569   7.017   5.194
10512SOL    HW232436   3.543   6.856   5.183
10513SOL     OW32437   3.886   3.536   0.868
10513SOL    HW132438   3.847   3.445   0.850
10513SOL    HW232439   3.977   3.526   0.907
10514SOL     OW32440   1.119   4.738   1.583
10514SOL    HW132441   1.058   4.781   1.649
10514SOL    HW232442   1.067   4.717   1.500
10515SOL     OW32443   2.063   3.424   4.949
10515SOL    HW132444   2.116   3.412   4.865
10515SOL    HW232445   2.057   3.522   4.970
10516SOL     OW32446   5.630   2.032   1.358
10516SOL    HW132447   5.688   1.990   1.428
10516SOL    HW232448   5.540   2.051   1.398
10517SOL     OW32449   0.010   2.183   2.339
10517SOL    HW132450   7.001   2.278   2.327
10517SOL    HW232451   0.064   2.154   2.259
10518SOL     OW32452   0.277   5.506   2.737
10518SOL    HW132453   0.259   5.484   2.641
10518SOL    HW232454   0.349   5.575   2.743
10519SOL     OW32455   1.805   6.337   0.662
10519SOL    HW132456   1.851   6.261   0.707
10519SOL    HW232457   1.873   6.398   0.621
10520SOL     OW32458   3.107   2.749   5.946
10520SOL    HW132459   3.040   2.818   5.918
10520SOL    HW232460   3.061   2.678   6.000
10521SOL     OW32461   5.992   1.974   2.292
10521SOL    HW132462   5.925   1.915   2.248
10521SOL    HW232463   5.970   1.983   2.389
10522SOL     OW32464   4.958   1.356   3.024
10522SOL    HW132465   4.893   1.394   3.089
10522SOL    HW232466   5.050   1.388   3.046
10523SOL     OW32467   0.558   3.990   1.327
10523SOL    HW132468   0.619   4.069   1.341
10523SOL    HW232469   0.588   3.914   1.385
10524SOL     OW32470   5.848   6.564   4.751
10524SOL    HW132471   5.875   6.514   4.834
10524SOL    HW232472   5.892   6.523   4.672
10525SOL     OW32473   5.152   2.247   3.389
10525SOL    HW132474   5.179   2.153   3.414
10525SOL    HW232475   5.118   2.247   3.295
10526SOL     OW32476   1.506   6.399   6.306
10526SOL    HW132477   1.447   6.352   6.240
10526SOL    HW232478   1.602   6.383   6.281
10527SOL     OW32479   0.741   6.717   5.891
10527SOL    HW132480   0.771   6.789   5.828
10527SOL    HW232481   0.820   6.661   5.917
10528SOL     OW32482   2.583   6.024   5.271
10528SOL    HW132483   2.628   5.987   5.190
10528SOL    HW232484   2.491   6.057   5.247
10529SOL     OW32485   0.020   5.098   6.109
10529SOL    HW132486   0.041   5.047   6.025
10529SOL    HW232487   0.096   5.159   6.130
10530SOL     OW32488   5.615   0.405   1.574
10530SOL    HW132489   5.677   0.333   1.543
10530SOL    HW232490   5.647   0.441   1.661
10531SOL     OW32491   3.346   1.085   6.524
10531SOL    HW132492   3.386   1.148   6.591
10531SOL    HW232493   3.417   1.029   6.483
10532SOL     OW32494   4.572   5.467   5.769
10532SOL    HW132495   4.521   5.487   5.685
10532SOL    HW232496   4.670   5.470   5.751
10533SOL     OW32497   4.263   6.103   3.805
10533SOL    HW132498   4.362   6.117   3.806
10533SOL    HW232499   4.217   6.191   3.796
10534SOL     OW32500   0.535   5.851   4.703
10534SOL    HW132501   0.558   5.871   4.798
10534SOL    HW232502   0.491   5.761   4.698
10535SOL     OW32503   3.807   1.736   2.412
10535SOL    HW132504   3.840   1.667   2.478
10535SOL    HW232505   3.878   1.805   2.398
10536SOL     OW32506   5.818   3.320   4.249
10536SOL    HW132507   5.900   3.282   4.204
10536SOL    HW232508   5.814   3.287   4.343
10537SOL     OW32509   2.544   1.468   2.479
10537SOL    HW132510   2.520   1.516   2.563
10537SOL    HW232511   2.468   1.409   2.451
10538SOL     OW32512   6.611   2.714   3.318
10538SOL    HW132513   6.561   2.705   3.232
10538SOL    HW232514   6.556   2.678   3.393
10539SOL     OW32515   6.696   0.476   1.900
10539SOL    HW132516   6.607   0.489   1.943
10539SOL    HW232517   6.686   0.423   1.816
10540SOL     OW32518   1.648   2.624   6.042
10540SOL    HW132519   1.662   2.691   6.115
10540SOL    HW232520   1.677   2.533   6.073
10541SOL     OW32521   3.801   2.658   6.454
10541SOL    HW132522   3.806   2.571   6.404
10541SOL    HW232523   3.890   2.703   6.454
10542SOL     OW32524   3.574   6.210   2.608
10542SOL    HW132525   3.628   6.143   2.659
10542SOL    HW232526   3.505   6.250   2.668
10543SOL     OW32527   1.051   2.974   4.175
10543SOL    HW132528   0.975   2.936   4.122
10543SOL    HW232529   1.015   3.019   4.257
10544SOL     OW32530   2.822   2.253   2.280
10544SOL    HW132531   2.857   2.327   2.223
10544SOL    HW232532   2.755   2.200   2.228
10545SOL     OW32533   1.025   3.398   1.138
10545SOL    HW132534   0.972   3.371   1.057
10545SOL    HW232535   1.089   3.470   1.114
10546SOL     OW32536   1.838   0.400   5.019
10546SOL    HW132537   1.797   0.311   4.998
10546SOL    HW232538   1.881   0.397   5.109
10547SOL     OW32539   3.116   5.735   6.362
10547SOL    HW132540   3.079   5.643   6.371
10547SOL    HW232541   3.041   5.801   6.355
10548SOL     OW32542   1.347   4.949   3.095
10548SOL    HW132543   1.366   4.852   3.111
10548SOL    HW232544   1.322   4.993   3.181
10549SOL     OW32545   0.012   1.576   2.924
10549SOL    HW132546   0.042   1.639   2.996
10549SOL    HW232547   7.008   1.628   2.842
10550SOL     OW32548   0.123   4.414   2.789
10550SOL    HW132549   0.027   4.429   2.765
10550SOL    HW232550   0.158   4.495   2.836
10551SOL     OW32551   4.639   0.521   4.562
10551SOL    HW132552   4.599   0.587   4.499
10551SOL    HW232553   4.709   0.566   4.617
10552SOL     OW32554   2.442   0.013   3.787
10552SOL    HW132555   2.490   0.033   3.702
10552SOL    HW232556   2.383   0.091   3.810
10553SOL     OW32557   5.933   5.493   1.499
10553SOL    HW132558   6.015   5.512   1.554
10553SOL    HW232559   5.913   5.396   1.502
10554SOL     OW32560   5.538   5.819   1.467
10554SOL    HW132561   5.523   5.784   1.375
10554SOL    HW232562   5.509   5.915   1.471
10555SOL     OW32563   3.143   3.146   2.096
10555SOL    HW132564   3.140   3.047   2.079
10555SOL    HW232565   3.117   3.195   2.013
10556SOL     OW32566   2.293   2.137   2.011
10556SOL    HW132567   2.352   2.203   2.057
10556SOL    HW232568   2.343   2.051   1.999
10557SOL     OW32569   0.926   4.356   3.026
10557SOL    HW132570   0.942   4.422   3.100
10557SOL    HW232571   0.998   4.287   3.027
10558SOL     OW32572   4.935   5.247   4.439
10558SOL    HW132573   4.964   5.300   4.359
10558SOL    HW232574   5.015   5.199   4.477
10559SOL     OW32575   3.834   5.661   1.729
10559SOL    HW132576   3.822   5.622   1.638
10559SOL    HW232577   3.923   5.707   1.734
10560SOL     OW32578   5.887   6.798   4.080
10560SOL    HW132579   5.875   6.773   4.176
10560SOL    HW232580   5.938   6.885   4.074
10561SOL     OW32581   0.743   5.776   5.594
10561SOL    HW132582   0.729   5.872   5.621
10561SOL    HW232583   0.833   5.765   5.554
10562SOL     OW32584   2.856   1.271   2.663
10562SOL    HW132585   2.775   1.235   2.616
10562SOL    HW232586   2.925   1.200   2.668
10563SOL     OW32587   1.413   5.180   2.391
10563SOL    HW132588   1.407   5.257   2.455
10563SOL    HW232589   1.485   5.197   2.325
10564SOL     OW32590   5.338   5.663   3.364
10564SOL    HW132591   5.265   5.636   3.427
10564SOL    HW232592   5.304   5.660   3.270
10565SOL     OW32593   6.947   0.989   4.445
10565SOL    HW132594   6.962   0.989   4.346
10565SOL    HW232595   6.993   1.069   4.485
10566SOL     OW32596   3.359   1.201   0.602
10566SOL    HW132597   3.294   1.128   0.623
10566SOL    HW232598   3.445   1.184   0.649
10567SOL     OW32599   3.206   1.451   6.430
10567SOL    HW132600   3.178   1.535   6.385
10567SOL    HW232601   3.305   1.439   6.418
10568SOL     OW32602   6.199   1.377   6.712
10568SOL    HW132603   6.232   1.467   6.741
10568SOL    HW232604   6.100   1.372   6.724
10569SOL     OW32605   3.922   0.427   1.669
10569SOL    HW132606   4.015   0.454   1.643
10569SOL    HW232607   3.878   0.502   1.718
10570SOL     OW32608   1.022   3.712   2.491
10570SOL    HW132609   0.996   3.676   2.581
10570SOL    HW232610   1.004   3.811   2.489
10571SOL     OW32611   0.699   4.002   4.727
10571SOL    HW132612   0.602   4.022   4.716
10571SOL    HW232613   0.727   3.933   4.660
10572SOL     OW32614   6.916   5.583   0.700
10572SOL    HW132615   7.012   5.564   0.679
10572SOL    HW232616   6.884   5.658   0.642
10573SOL     OW32617   5.845   2.122   3.066
10573SOL    HW132618   5.755   2.166   3.065
10573SOL    HW232619   5.886   2.133   3.156
10574SOL     OW32620   5.447   2.490   2.844
10574SOL    HW132621   5.540   2.455   2.841
10574SOL    HW232622   5.450   2.590   2.853
10575SOL     OW32623   4.902   0.072   3.392
10575SOL    HW132624   4.934   0.129   3.468
10575SOL    HW232625   4.838   0.125   3.335
10576SOL     OW32626   1.106   3.192   5.083
10576SOL    HW132627   1.097   3.110   5.027
10576SOL    HW232628   1.050   3.265   5.043
10577SOL     OW32629   4.166   4.821   6.450
10577SOL    HW132630   4.133   4.753   6.515
10577SOL    HW232631   4.095   4.889   6.433
10578SOL     OW32632   1.387   3.169   2.142
10578SOL    HW132633   1.326   3.136   2.214
10578SOL    HW232634   1.396   3.268   2.149
10579SOL     OW32635   0.193   3.103   0.299
10579SOL    HW132636   0.193   3.032   0.370
10579SOL    HW232637   0.287   3.134   0.283
10580SOL     OW32638   4.631   6.446   6.041
10580SOL    HW132639   4.620   6.531   5.989
10580SOL    HW232640   4.632   6.369   5.978
10581SOL     OW32641   3.966   0.299   2.708
10581SOL    HW132642   3.897   0.366   2.733
10581SOL    HW232643   3.975   0.231   2.780
10582SOL     OW32644   0.481   3.623   0.441
10582SOL    HW132645   0.419   3.560   0.393
10582SOL    HW232646   0.427   3.687   0.495
10583SOL     OW32647   3.678   1.907   5.914
10583SOL    HW132648   3.752   1.933   5.977
10583SOL    HW232649   3.717   1.878   5.827
10584SOL     OW32650   6.819   0.530   3.981
10584SOL    HW132651   6.902   0.504   4.031
10584SOL    HW232652   6.840   0.603   3.916
10585SOL     OW32653   1.987   0.952   4.677
10585SOL    HW132654   1.953   1.015   4.607
10585SOL    HW232655   1.962   0.858   4.653
10586SOL     OW32656   4.889   3.401   6.244
10586SOL    HW132657   4.929   3.420   6.154
10586SOL    HW232658   4.962   3.397   6.313
10587SOL     OW32659   2.004   5.129   6.001
10587SOL    HW132660   2.083   5.180   5.966
10587SOL    HW232661   1.962   5.078   5.926
10588SOL     OW32662   0.883   4.738   4.431
10588SOL    HW132663   0.881   4.713   4.335
10588SOL    HW232664   0.896   4.655   4.487
10589SOL     OW32665   6.377   0.698   3.354
10589SOL    HW132666   6.395   0.730   3.447
10589SOL    HW232667   6.289   0.734   3.323
10590SOL     OW32668   6.693   6.007   2.377
10590SOL    HW132669   6.733   5.943   2.312
10590SOL    HW232670   6.611   6.047   2.337
10591SOL     OW32671   6.383   4.396   2.518
10591SOL    HW132672   6.447   4.409   2.442
10591SOL    HW232673   6.312   4.466   2.514
10592SOL     OW32674   6.468   4.137   5.354
10592SOL    HW132675   6.460   4.045   5.315
10592SOL    HW232676   6.387   4.158   5.409
10593SOL     OW32677   3.799   5.637   2.955
10593SOL    HW132678   3.890   5.602   2.936
10593SOL    HW232679   3.801   5.736   2.962
10594SOL     OW32680   3.681   5.898   3.817
10594SOL    HW132681   3.703   5.859   3.727
10594SOL    HW232682   3.753   5.963   3.844
10595SOL     OW32683   5.987   5.441   0.393
10595SOL    HW132684   6.082   5.433   0.362
10595SOL    HW232685   5.935   5.361   0.365
10596SOL     OW32686   6.462   3.633   0.874
10596SOL    HW132687   6.474   3.729   0.849
10596SOL    HW232688   6.471   3.576   0.792
10597SOL     OW32689   1.095   6.589   5.244
10597SOL    HW132690   1.122   6.596   5.148
10597SOL    HW232691   1.121   6.672   5.292
10598SOL     OW32692   2.819   1.580   1.309
10598SOL    HW132693   2.770   1.585   1.222
10598SOL    HW232694   2.828   1.485   1.337
10599SOL     OW32695   0.809   1.778   0.910
10599SOL    HW132696   0.739   1.847   0.929
10599SOL    HW232697   0.768   1.687   0.910
10600SOL     OW32698   4.503   1.276   2.095
10600SOL    HW132699   4.560   1.204   2.134
10600SOL    HW232700   4.407   1.260   2.120
10601SOL     OW32701   1.619   1.983   5.258
10601SOL    HW132702   1.579   2.025   5.339
10601SOL    HW232703   1.548   1.938   5.204
10602SOL     OW32704   6.949   6.714   1.162
10602SOL    HW132705   6.976   6.622   1.134
10602SOL    HW232706   6.860   6.736   1.121
10603SOL     OW32707   5.593   0.190   2.922
10603SOL    HW132708   5.578   0.245   2.840
10603SOL    HW232709   5.564   0.242   3.003
10604SOL     OW32710   5.613   1.991   4.885
10604SOL    HW132711   5.517   2.013   4.904
10604SOL    HW232712   5.669   2.074   4.895
10605SOL     OW32713   4.941   1.663   1.219
10605SOL    HW132714   4.925   1.596   1.292
10605SOL    HW232715   4.980   1.617   1.139
10606SOL     OW32716   5.622   1.438   0.968
10606SOL    HW132717   5.708   1.434   0.917
10606SOL    HW232718   5.639   1.414   1.063
10607SOL     OW32719   2.020   5.049   1.132
10607SOL    HW132720   2.067   5.002   1.207
10607SOL    HW232721   2.058   5.140   1.121
10608SOL     OW32722   5.385   4.031   2.474
10608SOL    HW132723   5.478   4.005   2.503
10608SOL    HW232724   5.320   3.964   2.508
10609SOL     OW32725   5.814   6.241   6.813
10609SOL    HW132726   5.836   6.335   6.839
10609SOL    HW232727   5.895   6.184   6.821
10610SOL     OW32728   0.316   2.508   3.198
10610SOL    HW132729   0.273   2.564   3.269
10610SOL    HW232730   0.268   2.420   3.193
10611SOL     OW32731   4.011   5.465   6.351
10611SOL    HW132732   4.026   5.368   6.371
10611SOL    HW232733   4.070   5.493   6.276
10612SOL     OW32734   5.236   2.470   3.899
10612SOL    HW132735   5.163   2.534   3.925
10612SOL    HW232736   5.299   2.516   3.837
10613SOL     OW32737   5.192   4.868   6.014
10613SOL    HW132738   5.227   4.845   5.923
10613SOL    HW232739   5.147   4.788   6.053
10614SOL     OW32740   4.290   2.013   0.263
10614SOL    HW132741   4.382   1.993   0.298
10614SOL    HW232742   4.298   2.062   0.176
10615SOL     OW32743   3.582   2.677   5.964
10615SOL    HW132744   3.597   2.747   6.033
10615SOL    HW232745   3.612   2.588   5.999
10616SOL     OW32746   1.527   5.468   0.177
10616SOL    HW132747   1.547   5.448   0.081
10616SOL    HW232748   1.605   5.516   0.217
10617SOL     OW32749   2.433   3.401   6.989
10617SOL    HW132750   2.383   3.382   6.905
10617SOL    HW232751   2.372   3.446   0.034
10618SOL     OW32752   0.382   4.794   5.009
10618SOL    HW132753   0.442   4.835   4.940
10618SOL    HW232754   0.289   4.789   4.973
10619SOL     OW32755   1.350   2.348   1.140
10619SOL    HW132756   1.337   2.429   1.198
10619SOL    HW232757   1.395   2.375   1.055
10620SOL     OW32758   4.133   1.190   5.558
10620SOL    HW132759   4.098   1.247   5.632
10620SOL    HW232760   4.058   1.137   5.518
10621SOL     OW32761   1.124   5.126   4.709
10621SOL    HW132762   1.114   5.039   4.660
10621SOL    HW232763   1.036   5.150   4.751
10622SOL     OW32764   3.820   2.203   6.239
10622SOL    HW132765   3.853   2.123   6.190
10622SOL    HW232766   3.866   2.210   6.327
10623SOL     OW32767   5.496   4.878   4.979
10623SOL    HW132768   5.447   4.808   5.033
10623SOL    HW232769   5.483   4.860   4.882
10624SOL     OW32770   0.102   1.566   5.535
10624SOL    HW132771   0.133   1.485   5.584
10624SOL    HW232772   0.163   1.582   5.456
10625SOL     OW32773   6.512   5.030   6.736
10625SOL    HW132774   6.579   4.968   6.695
10625SOL    HW232775   6.537   5.125   6.716
10626SOL     OW32776   5.829   3.811   1.949
10626SOL    HW132777   5.879   3.737   1.904
10626SOL    HW232778   5.731   3.801   1.932
10627SOL     OW32779   5.112   5.293   5.523
10627SOL    HW132780   5.086   5.212   5.577
10627SOL    HW232781   5.036   5.319   5.464
10628SOL     OW32782   2.656   5.999   2.037
10628SOL    HW132783   2.725   5.979   1.968
10628SOL    HW232784   2.658   5.928   2.108
10629SOL     OW32785   4.316   5.990   4.202
10629SOL    HW132786   4.280   6.047   4.276
10629SOL    HW232787   4.409   6.018   4.180
10630SOL     OW32788   4.359   0.896   1.652
10630SOL    HW132789   4.407   0.966   1.599
10630SOL    HW232790   4.398   0.891   1.744
10631SOL     OW32791   3.666   6.107   1.877
10631SOL    HW132792   3.720   6.183   1.913
10631SOL    HW232793   3.597   6.081   1.945
10632SOL     OW32794   6.072   0.813   4.471
10632SOL    HW132795   6.172   0.804   4.478
10632SOL    HW232796   6.045   0.805   4.375
10633SOL     OW32797   2.878   3.446   0.074
10633SOL    HW132798   2.801   3.383   0.086
10633SOL    HW232799   2.865   3.500   7.011
10634SOL     OW32800   1.120   4.392   0.539
10634SOL    HW132801   1.068   4.323   0.590
10634SOL    HW232802   1.202   4.351   0.501
10635SOL     OW32803   3.115   4.437   0.319
10635SOL    HW132804   3.139   4.513   0.379
10635SOL    HW232805   3.163   4.354   0.349
10636SOL     OW32806   0.675   2.469   0.637
10636SOL    HW132807   0.612   2.432   0.706
10636SOL    HW232808   0.719   2.551   0.674
10637SOL     OW32809   1.670   6.961   5.541
10637SOL    HW132810   1.727   0.020   5.518
10637SOL    HW232811   1.580   6.992   5.570
10638SOL     OW32812   5.859   4.248   6.618
10638SOL    HW132813   5.883   4.296   6.702
10638SOL    HW232814   5.871   4.149   6.631
10639SOL     OW32815   6.906   4.955   6.724
10639SOL    HW132816   6.863   4.950   6.814
10639SOL    HW232817   6.836   4.960   6.654
10640SOL     OW32818   4.277   5.665   4.962
10640SOL    HW132819   4.207   5.696   4.898
10640SOL    HW232820   4.278   5.565   4.964
10641SOL     OW32821   1.383   1.518   3.617
10641SOL    HW132822   1.310   1.480   3.673
10641SOL    HW232823   1.373   1.486   3.522
10642SOL     OW32824   6.529   2.088   5.637
10642SOL    HW132825   6.536   2.010   5.575
10642SOL    HW232826   6.444   2.080   5.690
10643SOL     OW32827   3.301   5.587   4.666
10643SOL    HW132828   3.276   5.551   4.577
10643SOL    HW232829   3.314   5.512   4.730
10644SOL     OW32830   1.505   3.946   3.628
10644SOL    HW132831   1.527   3.983   3.718
10644SOL    HW232832   1.551   3.858   3.615
10645SOL     OW32833   1.853   3.304   3.777
10645SOL    HW132834   1.841   3.311   3.876
10645SOL    HW232835   1.928   3.241   3.757
10646SOL     OW32836   5.508   1.353   3.140
10646SOL    HW132837   5.553   1.282   3.194
10646SOL    HW232838   5.574   1.394   3.077
10647SOL     OW32839   4.467   5.884   4.767
10647SOL    HW132840   4.498   5.835   4.849
10647SOL    HW232841   4.377   5.924   4.783
10648SOL     OW32842   4.740   3.372   5.812
10648SOL    HW132843   4.662   3.326   5.855
10648SOL    HW232844   4.709   3.425   5.734
10649SOL     OW32845   6.011   3.286   3.178
10649SOL    HW132846   6.025   3.198   3.132
10649SOL    HW232847   6.099   3.322   3.209
10650SOL     OW32848   0.553   0.645   2.808
10650SOL    HW132849   0.619   0.689   2.869
10650SOL    HW232850   0.600   0.611   2.727
10651SOL     OW32851   2.372   5.748   4.875
10651SOL    HW132852   2.282   5.733   4.914
10651SOL    HW232853   2.430   5.669   4.894
10652SOL     OW32854   3.689   0.320   0.343
10652SOL    HW132855   3.659   0.412   0.368
10652SOL    HW232856   3.619   0.253   0.369
10653SOL     OW32857   6.255   5.919   4.612
10653SOL    HW132858   6.167   5.872   4.618
10653SOL    HW232859   6.302   5.910   4.700
10654SOL     OW32860   0.011   1.607   3.789
10654SOL    HW132861   0.078   1.646   3.727
10654SOL    HW232862   6.958   1.563   3.736
10655SOL     OW32863   6.241   4.876   0.191
10655SOL    HW132864   6.317   4.873   0.125
10655SOL    HW232865   6.188   4.959   0.177
10656SOL     OW32866   5.731   0.860   5.874
10656SOL    HW132867   5.651   0.866   5.934
10656SOL    HW232868   5.801   0.802   5.917
10657SOL     OW32869   4.193   0.148   5.523
10657SOL    HW132870   4.220   0.196   5.607
10657SOL    HW232871   4.178   0.051   5.543
10658SOL     OW32872   1.397   1.005   5.214
10658SOL    HW132873   1.369   1.040   5.304
10658SOL    HW232874   1.467   1.065   5.176
10659SOL     OW32875   1.064   5.708   6.803
10659SOL    HW132876   1.051   5.649   6.883
10659SOL    HW232877   0.979   5.757   6.783
10660SOL     OW32878   6.368   2.075   6.203
10660SOL    HW132879   6.351   1.999   6.140
10660SOL    HW232880   6.454   2.058   6.252
10661SOL     OW32881   3.647   5.424   5.609
10661SOL    HW132882   3.561   5.380   5.635
10661SOL    HW232883   3.633   5.523   5.603
10662SOL     OW32884   3.453   1.770   1.031
10662SOL    HW132885   3.383   1.827   0.988
10662SOL    HW232886   3.474   1.807   1.122
10663SOL     OW32887   6.601   3.126   3.909
10663SOL    HW132888   6.687   3.077   3.904
10663SOL    HW232889   6.613   3.219   3.873
10664SOL     OW32890   0.694   6.276   4.616
10664SOL    HW132891   0.769   6.215   4.592
10664SOL    HW232892   0.677   6.339   4.540
10665SOL     OW32893   4.587   3.734   0.562
10665SOL    HW132894   4.637   3.748   0.648
10665SOL    HW232895   4.490   3.720   0.582
10666SOL     OW32896   5.031   3.569   1.649
10666SOL    HW132897   4.953   3.564   1.712
10666SOL    HW232898   5.002   3.609   1.562
10667SOL     OW32899   5.192   2.847   4.087
10667SOL    HW132900   5.258   2.772   4.084
10667SOL    HW232901   5.218   2.911   4.159
10668SOL     OW32902   3.077   3.118   5.794
10668SOL    HW132903   3.022   3.177   5.854
10668SOL    HW232904   3.166   3.101   5.837
10669SOL     OW32905   6.308   2.978   2.088
10669SOL    HW132906   6.306   2.967   1.989
10669SOL    HW232907   6.214   2.985   2.122
10670SOL     OW32908   4.652   4.812   4.218
10670SOL    HW132909   4.641   4.853   4.309
10670SOL    HW232910   4.738   4.761   4.215
10671SOL     OW32911   1.725   3.066   4.405
10671SOL    HW132912   1.695   3.161   4.415
10671SOL    HW232913   1.809   3.052   4.459
10672SOL     OW32914   6.509   5.027   1.335
10672SOL    HW132915   6.562   4.952   1.376
10672SOL    HW232916   6.539   5.114   1.374
10673SOL     OW32917   3.058   0.878   1.633
10673SOL    HW132918   3.139   0.828   1.666
10673SOL    HW232919   3.087   0.954   1.575
10674SOL     OW32920   4.033   3.173   3.457
10674SOL    HW132921   4.060   3.151   3.363
10674SOL    HW232922   3.993   3.092   3.500
10675SOL     OW32923   3.660   6.107   6.034
10675SOL    HW132924   3.752   6.145   6.025
10675SOL    HW232925   3.593   6.178   6.009
10676SOL     OW32926   1.202   1.310   4.247
10676SOL    HW132927   1.116   1.265   4.274
10676SOL    HW232928   1.182   1.405   4.223
10677SOL     OW32929   0.348   1.332   6.906
10677SOL    HW132930   0.279   1.383   6.856
10677SOL    HW232931   0.314   1.309   6.997
10678SOL     OW32932   3.443   4.912   2.591
10678SOL    HW132933   3.356   4.868   2.572
10678SOL    HW232934   3.513   4.877   2.528
10679SOL     OW32935   5.211   3.912   0.457
10679SOL    HW132936   5.196   3.868   0.546
10679SOL    HW232937   5.289   3.973   0.463
10680SOL     OW32938   3.935   1.679   5.263
10680SOL    HW132939   3.906   1.583   5.260
10680SOL    HW232940   4.035   1.684   5.256
10681SOL     OW32941   2.800   3.324   5.469
10681SOL    HW132942   2.714   3.366   5.440
10681SOL    HW232943   2.815   3.239   5.417
10682SOL     OW32944   5.209   3.024   6.333
10682SOL    HW132945   5.126   3.025   6.278
10682SOL    HW232946   5.276   2.963   6.291
10683SOL     OW32947   1.545   0.262   3.278
10683SOL    HW132948   1.636   0.295   3.251
10683SOL    HW232949   1.496   0.334   3.326
10684SOL     OW32950   4.946   4.133   1.561
10684SOL    HW132951   4.920   4.221   1.599
10684SOL    HW232952   4.863   4.080   1.540
10685SOL     OW32953   0.704   0.493   2.604
10685SOL    HW132954   0.732   0.547   2.524
10685SOL    HW232955   0.786   0.456   2.649
10686SOL     OW32956   2.849   1.945   6.878
10686SOL    HW132957   2.794   1.996   6.944
10686SOL    HW232958   2.804   1.947   6.788
10687SOL     OW32959   0.799   3.041   3.262
10687SOL    HW132960   0.896   3.061   3.250
10687SOL    HW232961   0.745   3.111   3.215
10688SOL     OW32962   4.906   1.335   3.824
10688SOL    HW132963   4.886   1.345   3.727
10688SOL    HW232964   4.838   1.275   3.867
10689SOL     OW32965   1.566   1.278   2.941
10689SOL    HW132966   1.488   1.307   2.886
10689SOL    HW232967   1.600   1.355   2.995
10690SOL     OW32968   1.020   6.599   4.734
10690SOL    HW132969   1.055   6.536   4.665
10690SOL    HW232970   0.924   6.580   4.752
10691SOL     OW32971   3.452   6.615   1.675
10691SOL    HW132972   3.529   6.561   1.709
10691SOL    HW232973   3.482   6.672   1.598
10692SOL     OW32974   2.855   2.219   4.383
10692SOL    HW132975   2.948   2.222   4.420
10692SOL    HW232976   2.789   2.209   4.457
10693SOL     OW32977   1.485   4.393   0.184
10693SOL    HW132978   1.442   4.449   0.255
10693SOL    HW232979   1.434   4.401   0.099
10694SOL     OW32980   5.450   2.053   5.697
10694SOL    HW132981   5.470   2.145   5.664
10694SOL    HW232982   5.381   2.057   5.769
10695SOL     OW32983   4.944   4.874   1.416
10695SOL    HW132984   4.944   4.864   1.515
10695SOL    HW232985   4.850   4.884   1.384
10696SOL     OW32986   6.879   5.097   4.385
10696SOL    HW132987   6.949   5.099   4.314
10696SOL    HW232988   6.824   5.014   4.375
10697SOL     OW32989   2.962   4.996   4.652
10697SOL    HW132990   2.955   4.897   4.656
10697SOL    HW232991   2.900   5.036   4.720
10698SOL     OW32992   4.134   4.539   6.978
10698SOL    HW132993   4.065   4.474   7.011
10698SOL    HW232994   4.196   4.562   0.033
10699SOL     OW32995   4.358   3.971   1.559
10699SOL    HW132996   4.311   4.032   1.623
10699SOL    HW232997   4.453   3.961   1.587
10700SOL     OW32998   4.973   0.244   1.714
10700SOL    HW132999   4.886   0.214   1.677
10700SOL    HW233000   5.046   0.223   1.649
10701SOL     OW33001   3.174   6.539   5.829
10701SOL    HW133002   3.193   6.587   5.744
10701SOL    HW233003   3.214   6.447   5.825
10702SOL     OW33004   5.618   2.756   2.358
10702SOL    HW133005   5.650   2.785   2.449
10702SOL    HW233006   5.569   2.669   2.367
10703SOL     OW33007   0.871   1.990   5.672
10703SOL    HW133008   0.892   2.073   5.723
10703SOL    HW233009   0.877   1.911   5.733
10704SOL     OW33010   5.303   6.713   2.065
10704SOL    HW133011   5.387   6.750   2.105
10704SOL    HW233012   5.225   6.764   2.100
10705SOL     OW33013   4.630   3.737   1.641
10705SOL    HW133014   4.654   3.799   1.716
10705SOL    HW233015   4.710   3.683   1.615
10706SOL     OW33016   3.016   0.714   2.223
10706SOL    HW133017   2.998   0.660   2.305
10706SOL    HW233018   3.008   0.811   2.244
10707SOL     OW33019   3.877   6.891   3.459
10707SOL    HW133020   3.925   6.978   3.457
10707SOL    HW233021   3.850   6.866   3.366
10708SOL     OW33022   4.297   1.184   1.376
10708SOL    HW133023   4.252   1.095   1.368
10708SOL    HW233024   4.393   1.170   1.401
10709SOL     OW33025   5.562   4.201   2.758
10709SOL    HW133026   5.640   4.201   2.821
10709SOL    HW233027   5.498   4.130   2.785
10710SOL     OW33028   4.852   1.442   3.532
10710SOL    HW133029   4.875   1.463   3.437
10710SOL    HW233030   4.764   1.395   3.536
10711SOL     OW33031   2.417   6.423   3.243
10711SOL    HW133032   2.373   6.483   3.310
10711SOL    HW233033   2.512   6.407   3.270
10712SOL     OW33034   5.441   0.812   3.664
10712SOL    HW133035   5.482   0.902   3.649
10712SOL    HW233036   5.350   0.810   3.623
10713SOL     OW33037   1.013   3.817   1.161
10713SOL    HW133038   0.942   3.857   1.102
10713SOL    HW233039   1.062   3.747   1.110
10714SOL     OW33040   3.187   4.051   5.067
10714SOL    HW133041   3.133   4.125   5.107
10714SOL    HW233042   3.244   4.010   5.137
10715SOL     OW33043   6.224   0.978   1.974
10715SOL    HW133044   6.295   0.973   1.903
10715SOL    HW233045   6.232   0.898   2.034
10716SOL     OW33046   5.255   0.987   3.263
10716SOL    HW133047   5.343   0.983   3.311
10716SOL    HW233048   5.202   1.065   3.297
10717SOL     OW33049   3.589   3.121   0.496
10717SOL    HW133050   3.558   3.062   0.422
10717SOL    HW233051   3.630   3.064   0.568
10718SOL     OW33052   1.800   5.327   6.327
10718SOL    HW133053   1.761   5.408   6.285
10718SOL    HW233054   1.771   5.321   6.423
10719SOL     OW33055   0.073   4.709   5.316
10719SOL    HW133056   0.132   4.779   5.276
10719SOL    HW233057   0.099   4.693   5.411
10720SOL     OW33058   6.928   5.417   2.713
10720SOL    HW133059   6.986   5.494   2.736
10720SOL    HW233060   6.843   5.450   2.672
10721SOL     OW33061   5.045   2.734   6.043
10721SOL    HW133062   4.959   2.752   6.091
10721SOL    HW233063   5.088   2.820   6.017
10722SOL     OW33064   0.169   3.603   5.308
10722SOL    HW133065   0.258   3.619   5.265
10722SOL    HW233066   0.118   3.536   5.255
10723SOL     OW33067   5.926   5.965   0.767
10723SOL    HW133068   5.899   6.056   0.737
10723SOL    HW233069   5.919   5.901   0.691
10724SOL     OW33070   0.322   6.346   5.861
10724SOL    HW133071   0.255   6.352   5.787
10724SOL    HW233072   0.305   6.263   5.914
10725SOL     OW33073   2.675   6.800   6.056
10725SOL    HW133074   2.742   6.845   6.115
10725SOL    HW233075   2.646   6.713   6.098
10726SOL     OW33076   3.616   0.673   4.118
10726SOL    HW133077   3.650   0.767   4.126
10726SOL    HW233078   3.656   0.617   4.191
10727SOL     OW33079   2.615   6.115   6.782
10727SOL    HW133080   2.550   6.190   6.790
10727SOL    HW233081   2.639   6.082   6.874
10728SOL     OW33082   5.574   5.918   1.883
10728SOL    HW133083   5.516   5.997   1.863
10728SOL    HW233084   5.535   5.837   1.839
10729SOL     OW33085   6.507   2.159   0.499
10729SOL    HW133086   6.459   2.245   0.514
10729SOL    HW233087   6.532   2.118   0.587
10730SOL     OW33088   4.491   0.581   3.249
10730SOL    HW133089   4.495   0.563   3.347
10730SOL    HW233090   4.530   0.503   3.200
10731SOL     OW33091   3.329   0.081   1.058
10731SOL    HW133092   3.245   0.103   1.107
10731SOL    HW233093   3.309   0.067   0.961
10732SOL     OW33094   0.536   3.317   6.245
10732SOL    HW133095   0.600   3.290   6.316
10732SOL    HW233096   0.544   3.254   6.167
10733SOL     OW33097   5.922   0.462   0.164
10733SOL    HW133098   5.967   0.372   0.167
10733SOL    HW233099   5.845   0.462   0.228
10734SOL     OW33100   5.862   2.768   1.907
10734SOL    HW133101   5.846   2.804   1.999
10734SOL    HW233102   5.882   2.844   1.845
10735SOL     OW33103   0.159   5.376   2.513
10735SOL    HW133104   0.147   5.436   2.434
10735SOL    HW233105   0.078   5.383   2.572
10736SOL     OW33106   2.029   1.516   4.849
10736SOL    HW133107   2.016   1.417   4.847
10736SOL    HW233108   2.110   1.538   4.904
10737SOL     OW33109   6.932   1.938   6.186
10737SOL    HW133110   6.931   1.936   6.086
10737SOL    HW233111   6.902   1.850   6.222
10738SOL     OW33112   4.062   0.417   4.282
10738SOL    HW133113   3.998   0.489   4.308
10738SOL    HW233114   4.149   0.431   4.331
10739SOL     OW33115   2.326   1.687   2.317
10739SOL    HW133116   2.248   1.707   2.257
10739SOL    HW233117   2.344   1.589   2.316
10740SOL     OW33118   4.325   5.965   3.554
10740SOL    HW133119   4.349   5.870   3.573
10740SOL    HW233120   4.285   6.006   3.636
10741SOL     OW33121   2.465   0.380   3.268
10741SOL    HW133122   2.564   0.393   3.260
10741SOL    HW233123   2.431   0.338   3.184
10742SOL     OW33124   6.964   5.918   6.779
10742SOL    HW133125   6.935   6.010   6.806
10742SOL    HW233126   6.907   5.850   6.824
10743SOL     OW33127   2.979   1.338   5.187
10743SOL    HW133128   2.940   1.246   5.179
10743SOL    HW233129   3.029   1.361   5.104
10744SOL     OW33130   6.270   1.414   0.494
10744SOL    HW133131   6.280   1.321   0.457
10744SOL    HW233132   6.302   1.480   0.426
10745SOL     OW33133   0.103   5.835   5.781
10745SOL    HW133134   0.199   5.838   5.812
10745SOL    HW233135   0.086   5.749   5.734
10746SOL     OW33136   1.981   4.493   5.176
10746SOL    HW133137   1.958   4.575   5.229
10746SOL    HW233138   2.067   4.455   5.209
10747SOL     OW33139   2.949   2.217   4.926
10747SOL    HW133140   3.026   2.238   4.986
10747SOL    HW233141   2.866   2.205   4.982
10748SOL     OW33142   5.885   1.426   2.552
10748SOL    HW133143   5.968   1.377   2.580
10748SOL    HW233144   5.904   1.477   2.468
10749SOL     OW33145   3.481   0.151   0.398
10749SOL    HW133146   3.505   0.055   0.414
10749SOL    HW233147   3.397   0.155   0.343
10750SOL     OW33148   4.502   6.412   6.293
10750SOL    HW133149   4.441   6.335   6.275
10750SOL    HW233150   4.559   6.429   6.213
10751SOL     OW33151   2.722   5.738   2.927
10751SOL    HW133152   2.812   5.734   2.884
10751SOL    HW233153   2.652   5.730   2.857
10752SOL     OW33154   5.154   5.046   3.913
10752SOL    HW133155   5.181   4.956   3.881
10752SOL    HW233156   5.193   5.063   4.004
10753SOL     OW33157   5.494   4.248   4.387
10753SOL    HW133158   5.572   4.204   4.431
10753SOL    HW233159   5.409   4.216   4.430
10754SOL     OW33160   1.164   6.961   2.659
10754SOL    HW133161   1.128   6.874   2.693
10754SOL    HW233162   1.218   6.945   2.576
10755SOL     OW33163   6.068   5.611   1.286
10755SOL    HW133164   6.099   5.695   1.331
10755SOL    HW233165   6.001   5.565   1.344
10756SOL     OW33166   0.631   0.086   5.262
10756SOL    HW133167   0.613   0.020   5.336
10756SOL    HW233168   0.546   0.132   5.238
10757SOL     OW33169   3.006   2.956   1.813
10757SOL    HW133170   2.945   2.897   1.760
10757SOL    HW233171   3.099   2.919   1.810
10758SOL     OW33172   0.299   5.429   4.400
10758SOL    HW133173   0.333   5.336   4.411
10758SOL    HW233174   0.324   5.463   4.309
10759SOL     OW33175   6.906   1.018   0.012
10759SOL    HW133176   6.836   0.967   6.983
10759SOL    HW233177   6.883   1.023   0.109
10760SOL     OW33178   5.782   1.943   4.663
10760SOL    HW133179   5.753   1.989   4.579
10760SOL    HW233180   5.702   1.923   4.720
10761SOL     OW33181   3.057   5.369   5.544
10761SOL    HW133182   3.056   5.439   5.615
10761SOL    HW233183   3.086   5.281   5.583
10762SOL     OW33184   3.173   1.213   6.340
10762SOL    HW133185   3.230   1.155   6.398
10762SOL    HW233186   3.178   1.308   6.372
10763SOL     OW33187   4.870   5.840   4.150
10763SOL    HW133188   4.891   5.794   4.236
10763SOL    HW233189   4.808   5.784   4.096
10764SOL     OW33190   3.986   0.091   4.844
10764SOL    HW133191   4.080   0.056   4.854
10764SOL    HW233192   3.922   0.025   4.881
10765SOL     OW33193   6.982   3.538   6.905
10765SOL    HW133194   0.053   3.577   6.892
10765SOL    HW233195   6.913   3.609   6.896
10766SOL     OW33196   3.150   3.691   1.693
10766SOL    HW133197   3.105   3.601   1.688
10766SOL    HW233198   3.244   3.682   1.661
10767SOL     OW33199   4.732   2.056   1.987
10767SOL    HW133200   4.688   2.120   2.050
10767SOL    HW233201   4.663   1.996   1.947
10768SOL     OW33202   5.681   4.614   6.109
10768SOL    HW133203   5.622   4.690   6.137
10768SOL    HW233204   5.758   4.606   6.172
10769SOL     OW33205   1.600   3.396   4.932
10769SOL    HW133206   1.505   3.426   4.922
10769SOL    HW233207   1.649   3.459   4.993
10770SOL     OW33208   4.085   5.802   3.685
10770SOL    HW133209   4.151   5.841   3.749
10770SOL    HW233210   4.007   5.765   3.735
10771SOL     OW33211   2.651   1.808   4.183
10771SOL    HW133212   2.737   1.780   4.225
10771SOL    HW233213   2.588   1.841   4.254
10772SOL     OW33214   5.029   6.051   4.076
10772SOL    HW133215   4.979   6.128   4.115
10772SOL    HW233216   4.989   5.965   4.107
10773SOL     OW33217   5.636   5.354   3.110
10773SOL    HW133218   5.623   5.256   3.101
10773SOL    HW233219   5.560   5.393   3.162
10774SOL     OW33220   0.171   0.013   3.512
10774SOL    HW133221   0.121   6.961   3.464
10774SOL    HW233222   0.266   0.013   3.482
10775SOL     OW33223   0.342   3.327   0.869
10775SOL    HW133224   0.335   3.230   0.845
10775SOL    HW233225   0.331   3.337   0.967
10776SOL     OW33226   1.621   0.395   5.746
10776SOL    HW133227   1.666   0.358   5.827
10776SOL    HW233228   1.662   0.483   5.723
10777SOL     OW33229   3.257   5.794   1.411
10777SOL    HW133230   3.269   5.772   1.508
10777SOL    HW233231   3.337   5.764   1.360
10778SOL     OW33232   5.828   5.787   1.917
10778SOL    HW133233   5.733   5.819   1.910
10778SOL    HW233234   5.829   5.696   1.959
10779SOL     OW33235   5.191   3.019   3.604
10779SOL    HW133236   5.187   2.953   3.529
10779SOL    HW233237   5.234   2.976   3.683
10780SOL     OW33238   6.796   0.582   2.174
10780SOL    HW133239   6.776   0.493   2.134
10780SOL    HW233240   6.883   0.578   2.222
10781SOL     OW33241   3.020   0.066   4.033
10781SOL    HW133242   3.065   0.136   3.978
10781SOL    HW233243   2.956   0.015   3.975
10782SOL     OW33244   6.664   5.394   3.629
10782SOL    HW133245   6.722   5.337   3.688
10782SOL    HW233246   6.603   5.449   3.686
10783SOL     OW33247   6.377   2.453   2.764
10783SOL    HW133248   6.365   2.355   2.777
10783SOL    HW233249   6.431   2.469   2.682
10784SOL     OW33250   1.800   1.758   4.913
10784SOL    HW133251   1.878   1.820   4.923
10784SOL    HW233252   1.770   1.728   5.004
10785SOL     OW33253   1.003   2.845   6.133
10785SOL    HW133254   1.085   2.788   6.136
10785SOL    HW233255   0.929   2.795   6.089
10786SOL     OW33256   6.392   4.364   4.820
10786SOL    HW133257   6.382   4.303   4.899
10786SOL    HW233258   6.395   4.311   4.736
10787SOL     OW33259   1.983   2.459   6.083
10787SOL    HW133260   1.924   2.397   6.030
10787SOL    HW233261   1.934   2.491   6.164
10788SOL     OW33262   5.621   3.783   6.231
10788SOL    HW133263   5.623   3.883   6.237
10788SOL    HW233264   5.598   3.745   6.321
10789SOL     OW33265   5.062   0.801   6.984
10789SOL    HW133266   5.076   0.868   6.911
10789SOL    HW233267   5.140   0.739   6.988
10790SOL     OW33268   6.094   6.631   2.820
10790SOL    HW133269   6.183   6.643   2.864
10790SOL    HW233270   6.072   6.533   2.817
10791SOL     OW33271   0.709   6.039   2.402
10791SOL    HW133272   0.683   5.961   2.345
10791SOL    HW233273   0.639   6.055   2.472
10792SOL     OW33274   3.881   4.742   6.239
10792SOL    HW133275   3.821   4.804   6.289
10792SOL    HW233276   3.834   4.710   6.156
10793SOL     OW33277   5.298   4.138   4.618
10793SOL    HW133278   5.311   4.218   4.676
10793SOL    HW233279   5.208   4.144   4.573
10794SOL     OW33280   3.238   3.352   4.622
10794SOL    HW133281   3.220   3.315   4.713
10794SOL    HW233282   3.311   3.299   4.579
10795SOL     OW33283   6.996   4.809   2.894
10795SOL    HW133284   6.914   4.792   2.839
10795SOL    HW233285   7.018   4.727   2.946
10796SOL     OW33286   0.823   6.595   5.552
10796SOL    HW133287   0.884   6.592   5.631
10796SOL    HW233288   0.837   6.680   5.502
10797SOL     OW33289   4.107   3.009   0.360
10797SOL    HW133290   4.173   3.050   0.297
10797SOL    HW233291   4.039   2.957   0.308
10798SOL     OW33292   5.877   1.336   0.886
10798SOL    HW133293   5.936   1.399   0.834
10798SOL    HW233294   5.930   1.255   0.912
10799SOL     OW33295   5.311   1.477   1.120
10799SOL    HW133296   5.328   1.494   1.217
10799SOL    HW233297   5.350   1.389   1.094
10800SOL     OW33298   6.754   6.582   0.954
10800SOL    HW133299   6.687   6.529   0.902
10800SOL    HW233300   6.814   6.520   1.004
10801SOL     OW33301   2.191   0.539   1.216
10801SOL    HW133302   2.159   0.607   1.281
10801SOL    HW233303   2.120   0.470   1.203
10802SOL     OW33304   5.762   1.706   3.543
10802SOL    HW133305   5.803   1.715   3.634
10802SOL    HW233306   5.663   1.696   3.552
10803SOL     OW33307   2.281   5.065   5.203
10803SOL    HW133308   2.356   5.044   5.266
10803SOL    HW233309   2.265   4.986   5.144
10804SOL     OW33310   6.087   3.648   4.143
10804SOL    HW133311   6.159   3.641   4.074
10804SOL    HW233312   6.017   3.579   4.125
10805SOL     OW33313   6.913   6.923   6.756
10805SOL    HW133314   6.877   7.013   6.731
10805SOL    HW233315   6.983   6.934   6.827
10806SOL     OW33316   1.655   5.353   1.153
10806SOL    HW133317   1.630   5.430   1.094
10806SOL    HW233318   1.574   5.296   1.169
10807SOL     OW33319   3.227   5.408   4.428
10807SOL    HW133320   3.220   5.314   4.462
10807SOL    HW233321   3.135   5.442   4.407
10808SOL     OW33322   1.512   3.458   6.972
10808SOL    HW133323   1.480   3.380   0.005
10808SOL    HW233324   1.466   3.458   6.883
10809SOL     OW33325   1.435   0.953   4.915
10809SOL    HW133326   1.527   0.913   4.907
10809SOL    HW233327   1.418   0.976   5.011
10810SOL     OW33328   6.179   0.844   3.615
10810SOL    HW133329   6.087   0.806   3.621
10810SOL    HW233330   6.208   0.846   3.519
10811SOL     OW33331   5.472   5.636   5.346
10811SOL    HW133332   5.545   5.611   5.409
10811SOL    HW233333   5.505   5.629   5.252
10812SOL     OW33334   0.541   2.953   0.972
10812SOL    HW133335   0.550   2.983   1.067
10812SOL    HW233336   0.471   3.009   0.927
10813SOL     OW33337   1.193   3.852   6.996
10813SOL    HW133338   1.098   3.886   6.996
10813SOL    HW233339   1.195   3.759   0.013
10814SOL     OW33340   3.254   1.985   1.907
10814SOL    HW133341   3.344   1.973   1.949
10814SOL    HW233342   3.198   1.904   1.926
10815SOL     OW33343   5.106   0.981   4.728
10815SOL    HW133344   5.090   1.071   4.768
10815SOL    HW233345   5.021   0.929   4.729
10816SOL     OW33346   3.393   3.042   5.281
10816SOL    HW133347   3.382   2.985   5.199
10816SOL    HW233348   3.406   2.982   5.360
10817SOL     OW33349   1.339   6.352   4.531
10817SOL    HW133350   1.393   6.272   4.508
10817SOL    HW233351   1.398   6.423   4.569
10818SOL     OW33352   4.351   3.916   0.188
10818SOL    HW133353   4.427   3.889   0.248
10818SOL    HW233354   4.362   4.011   0.161
10819SOL     OW33355   6.250   5.638   5.345
10819SOL    HW133356   6.336   5.602   5.381
10819SOL    HW233357   6.185   5.652   5.421
10820SOL     OW33358   1.657   4.817   6.221
10820SOL    HW133359   1.667   4.829   6.123
10820SOL    HW233360   1.729   4.868   6.268
10821SOL     OW33361   4.104   5.646   3.993
10821SOL    HW133362   4.031   5.649   3.925
10821SOL    HW233363   4.154   5.733   3.993
10822SOL     OW33364   5.484   0.300   2.595
10822SOL    HW133365   5.417   0.359   2.551
10822SOL    HW233366   5.546   0.356   2.651
10823SOL     OW33367   5.849   6.721   2.721
10823SOL    HW133368   5.940   6.686   2.742
10823SOL    HW233369   5.781   6.651   2.741
10824SOL     OW33370   1.590   2.608   2.863
10824SOL    HW133371   1.614   2.601   2.766
10824SOL    HW233372   1.646   2.678   2.906
10825SOL     OW33373   0.017   1.367   0.801
10825SOL    HW133374   7.016   1.440   0.867
10825SOL    HW233375   0.013   1.279   0.847
10826SOL     OW33376   6.625   3.251   2.390
10826SOL    HW133377   6.684   3.291   2.320
10826SOL    HW233378   6.557   3.192   2.346
10827SOL     OW33379   0.023   3.069   4.077
10827SOL    HW133380   0.079   3.003   4.027
10827SOL    HW233381   6.948   3.061   4.049
10828SOL     OW33382   0.052   4.077   4.894
10828SOL    HW133383   7.005   4.150   4.879
10828SOL    HW233384   0.098   4.091   4.982
10829SOL     OW33385   3.971   2.974   5.517
10829SOL    HW133386   3.999   2.908   5.447
10829SOL    HW233387   3.871   2.978   5.522
10830SOL     OW33388   5.204   1.991   3.451
10830SOL    HW133389   5.196   1.932   3.532
10830SOL    HW233390   5.232   1.936   3.373
10831SOL     OW33391   4.050   0.103   3.406
10831SOL    HW133392   4.097   0.118   3.319
10831SOL    HW233393   4.107   0.137   3.481
10832SOL     OW33394   6.882   3.013   6.636
10832SOL    HW133395   6.907   3.106   6.662
10832SOL    HW233396   6.965   2.961   6.612
10833SOL     OW33397   0.679   1.170   6.551
10833SOL    HW133398   0.661   1.191   6.647
10833SOL    HW233399   0.699   1.255   6.502
10834SOL     OW33400   6.884   6.306   1.638
10834SOL    HW133401   6.941   6.233   1.677
10834SOL    HW233402   6.941   6.386   1.619
10835SOL     OW33403   6.465   2.624   5.830
10835SOL    HW133404   6.506   2.534   5.814
10835SOL    HW233405   6.429   2.628   5.923
10836SOL     OW33406   6.932   1.701   3.524
10836SOL    HW133407   7.016   1.670   3.479
10836SOL    HW233408   6.947   1.792   3.563
10837SOL     OW33409   6.827   2.965   3.869
10837SOL    HW133410   6.834   2.893   3.938
10837SOL    HW233411   6.843   2.927   3.778
10838SOL     OW33412   0.417   6.534   2.567
10838SOL    HW133413   0.468   6.518   2.652
10838SOL    HW233414   0.319   6.527   2.585
10839SOL     OW33415   4.690   2.661   0.115
10839SOL    HW133416   4.751   2.582   0.114
10839SOL    HW233417   4.722   2.729   0.049
10840SOL     OW33418   2.994   0.543   2.428
10840SOL    HW133419   2.947   0.456   2.412
10840SOL    HW233420   2.951   0.590   2.506
10841SOL     OW33421   2.014   5.380   4.866
10841SOL    HW133422   2.042   5.295   4.912
10841SOL    HW233423   1.915   5.388   4.868
10842SOL     OW33424   6.861   4.720   1.516
10842SOL    HW133425   6.845   4.642   1.577
10842SOL    HW233426   6.958   4.727   1.494
10843SOL     OW33427   2.812   1.290   1.738
10843SOL    HW133428   2.832   1.193   1.753
10843SOL    HW233429   2.881   1.346   1.784
10844SOL     OW33430   1.973   5.170   4.653
10844SOL    HW133431   2.013   5.259   4.676
10844SOL    HW233432   2.039   5.098   4.671
10845SOL     OW33433   3.749   0.928   4.092
10845SOL    HW133434   3.738   0.918   3.993
10845SOL    HW233435   3.730   1.022   4.118
10846SOL     OW33436   5.602   6.498   6.251
10846SOL    HW133437   5.631   6.526   6.160
10846SOL    HW233438   5.649   6.554   6.320
10847SOL     OW33439   3.461   0.089   6.983
10847SOL    HW133440   3.492   0.052   6.895
10847SOL    HW233441   3.381   0.148   6.968
10848SOL     OW33442   1.789   3.255   1.835
10848SOL    HW133443   1.874   3.243   1.887
10848SOL    HW233444   1.714   3.278   1.897
10849SOL     OW33445   1.282   6.510   3.525
10849SOL    HW133446   1.323   6.420   3.513
10849SOL    HW233447   1.298   6.565   3.442
10850SOL     OW33448   4.588   4.509   0.346
10850SOL    HW133449   4.538   4.506   0.259
10850SOL    HW233450   4.597   4.416   0.381
10851SOL     OW33451   1.475   4.715   0.602
10851SOL    HW133452   1.557   4.664   0.627
10851SOL    HW233453   1.501   4.797   0.550
10852SOL     OW33454   3.219   0.767   1.844
10852SOL    HW133455   3.141   0.770   1.907
10852SOL    HW233456   3.233   0.672   1.813
10853SOL     OW33457   3.514   0.881   6.098
10853SOL    HW133458   3.528   0.805   6.035
10853SOL    HW233459   3.561   0.962   6.064
10854SOL     OW33460   2.931   5.816   6.064
10854SOL    HW133461   2.970   5.729   6.034
10854SOL    HW233462   3.004   5.882   6.079
10855SOL     OW33463   4.354   1.241   6.741
10855SOL    HW133464   4.423   1.189   6.790
10855SOL    HW233465   4.363   1.338   6.763
10856SOL     OW33466   0.520   0.560   0.916
10856SOL    HW133467   0.566   0.485   0.965
10856SOL    HW233468   0.577   0.589   0.840
10857SOL     OW33469   0.084   2.042   2.105
10857SOL    HW133470   7.016   2.071   2.068
10857SOL    HW233471   0.074   1.955   2.154
10858SOL     OW33472   2.114   6.173   2.161
10858SOL    HW133473   2.060   6.245   2.118
10858SOL    HW233474   2.068   6.085   2.149
10859SOL     OW33475   1.658   4.567   3.802
10859SOL    HW133476   1.732   4.611   3.853
10859SOL    HW233477   1.660   4.598   3.707
10860SOL     OW33478   0.005   3.482   3.014
10860SOL    HW133479   6.970   3.405   2.981
10860SOL    HW233480   6.966   3.562   3.025
10861SOL     OW33481   4.592   3.189   5.445
10861SOL    HW133482   4.633   3.103   5.416
10861SOL    HW233483   4.578   3.189   5.544
10862SOL     OW33484   1.314   0.810   5.779
10862SOL    HW133485   1.223   0.819   5.821
10862SOL    HW233486   1.377   0.773   5.846
10863SOL     OW33487   1.917   6.542   4.167
10863SOL    HW133488   1.849   6.496   4.110
10863SOL    HW233489   1.985   6.476   4.197
10864SOL     OW33490   3.486   6.728   3.442
10864SOL    HW133491   3.395   6.690   3.459
10864SOL    HW233492   3.523   6.765   3.528
10865SOL     OW33493   6.678   1.058   6.054
10865SOL    HW133494   6.595   1.023   6.010
10865SOL    HW233495   6.696   1.151   6.023
10866SOL     OW33496   5.883   4.949   6.803
10866SOL    HW133497   5.976   4.916   6.822
10866SOL    HW233498   5.872   4.962   6.704
10867SOL     OW33499   3.202   2.082   0.069
10867SOL    HW133500   3.110   2.121   0.073
10867SOL    HW233501   3.231   2.073   6.993
10868SOL     OW33502   1.501   2.542   3.459
10868SOL    HW133503   1.594   2.578   3.451
10868SOL    HW233504   1.487   2.471   3.389
10869NA      NA33505   6.322   2.205   5.234
10870NA      NA33506   4.414   4.592   5.240
10871NA      NA33507   2.094   3.397   1.842
10872NA      NA33508   5.027   3.611   5.124
10873NA      NA33509   4.056   2.353   5.292
10874NA      NA33510   3.592   5.030   1.870
10875NA      NA33511   6.718   6.630   4.910
10876NA      NA33512   3.854   3.255   5.059
10877NA      NA33513   4.722   6.097   6.017
10878NA      NA33514   2.529   6.936   4.897
10879NA      NA33515   0.194   4.874   2.776
10880NA      NA33516   2.023   0.519   2.293
10881NA      NA33517   3.791   4.522   1.307
10882NA      NA33518   3.895   3.819   3.065
   7.02016   7.02016   7.02016
