Generated by trjconv : CNT in water t= 110.00000
33518
    1C        C    1   2.842   2.766   4.748
    1C        C    2   2.899   2.719   4.869
    1C        C    3   2.842   2.776   4.983
    1C        C    4   2.848   2.772   4.261
    1C        C    5   2.902   2.726   4.384
    1C        C    6   2.843   2.767   4.505
    1C        C    7   3.014   2.640   4.626
    1C        C    8   2.896   2.718   4.627
    1C        C    9   3.079   2.606   4.747
    1C        C   10   3.011   2.633   4.868
    1C        C   11   3.178   2.483   4.972
    1C        C   12   3.059   2.558   4.976
    1C        C   13   2.851   2.770   3.772
    1C        C   14   2.902   2.725   3.895
    1C        C   15   2.850   2.773   4.017
    1C        C   16   3.020   2.646   4.137
    1C        C   17   2.904   2.727   4.139
    1C        C   18   3.082   2.613   4.260
    1C        C   19   3.022   2.652   4.382
    1C        C   20   3.207   2.551   4.505
    1C        C   21   3.077   2.608   4.504
    1C        C   22   3.277   2.528   4.625
    1C        C   23   3.207   2.544   4.746
    1C        C   24   3.413   2.485   4.863
    1C        C   25   3.271   2.497   4.864
    1C        C   26   3.486   2.477   4.982
    1C        C   27   2.849   2.765   3.282
    1C        C   28   2.905   2.722   3.404
    1C        C   29   2.853   2.772   3.526
    1C        C   30   3.014   2.637   3.649
    1C        C   31   2.902   2.722   3.649
    1C        C   32   3.074   2.602   3.772
    1C        C   33   3.011   2.635   3.895
    1C        C   34   3.209   2.555   4.015
    1C        C   35   3.077   2.603   4.016
    1C        C   36   3.278   2.531   4.137
    1C        C   37   3.212   2.558   4.259
    1C        C   38   3.414   2.508   4.379
    1C        C   39   3.275   2.532   4.383
    1C        C   40   3.486   2.504   4.500
    1C        C   41   3.416   2.501   4.623
    1C        C   42   3.631   2.484   4.742
    1C        C   43   3.489   2.484   4.743
    1C        C   44   3.704   2.490   4.863
    1C        C   45   3.625   2.484   4.978
    1C        C   46   2.830   2.747   2.793
    1C        C   47   2.890   2.706   2.915
    1C        C   48   2.839   2.758   3.036
    1C        C   49   3.014   2.638   3.160
    1C        C   50   2.897   2.717   3.158
    1C        C   51   3.078   2.604   3.281
    1C        C   52   3.017   2.636   3.404
    1C        C   53   3.206   2.546   3.528
    1C        C   54   3.076   2.601   3.527
    1C        C   55   3.275   2.526   3.650
    1C        C   56   3.204   2.548   3.770
    1C        C   57   3.413   2.507   3.891
    1C        C   58   3.274   2.533   3.892
    1C        C   59   3.485   2.499   4.013
    1C        C   60   3.417   2.508   4.136
    1C        C   61   3.629   2.498   4.256
    1C        C   62   3.487   2.500   4.258
    1C        C   63   3.698   2.507   4.379
    1C        C   64   3.627   2.504   4.501
    1C        C   65   3.835   2.543   4.620
    1C        C   66   3.701   2.498   4.621
    1C        C   67   3.906   2.559   4.741
    1C        C   68   3.840   2.529   4.862
    1C        C   69   4.047   2.589   4.978
    1C        C   70   3.923   2.525   4.975
    1C        C   71   2.820   2.729   2.307
    1C        C   72   2.882   2.692   2.429
    1C        C   73   2.828   2.745   2.548
    1C        C   74   3.001   2.623   2.673
    1C        C   75   2.882   2.699   2.670
    1C        C   76   3.070   2.597   2.793
    1C        C   77   3.010   2.633   2.916
    1C        C   78   3.206   2.548   3.037
    1C        C   79   3.076   2.603   3.038
    1C        C   80   3.274   2.524   3.159
    1C        C   81   3.208   2.548   3.281
    1C        C   82   3.413   2.508   3.400
    1C        C   83   3.274   2.530   3.405
    1C        C   84   3.482   2.501   3.523
    1C        C   85   3.414   2.502   3.647
    1C        C   86   3.626   2.500   3.768
    1C        C   87   3.484   2.496   3.769
    1C        C   88   3.696   2.507   3.890
    1C        C   89   3.626   2.502   4.013
    1C        C   90   3.835   2.545   4.133
    1C        C   91   3.699   2.508   4.134
    1C        C   92   3.903   2.570   4.255
    1C        C   93   3.835   2.539   4.375
    1C        C   94   4.027   2.626   4.498
    1C        C   95   3.903   2.559   4.498
    1C        C   96   4.089   2.669   4.618
    1C        C   97   4.033   2.624   4.739
    1C        C   98   4.194   2.761   4.863
    1C        C   99   4.100   2.653   4.861
    1C        C  100   4.212   2.844   4.974
    1C        C  101   2.823   2.731   2.069
    1C        C  102   2.986   2.587   2.190
    1C        C  103   2.872   2.673   2.187
    1C        C  104   3.062   2.572   2.309
    1C        C  105   3.001   2.616   2.429
    1C        C  106   3.197   2.538   2.550
    1C        C  107   3.066   2.589   2.552
    1C        C  108   3.269   2.523   2.671
    1C        C  109   3.200   2.542   2.793
    1C        C  110   3.410   2.498   2.914
    1C        C  111   3.271   2.524   2.914
    1C        C  112   3.482   2.490   3.035
    1C        C  113   3.414   2.502   3.158
    1C        C  114   3.628   2.499   3.278
    1C        C  115   3.486   2.500   3.279
    1C        C  116   3.695   2.503   3.402
    1C        C  117   3.624   2.503   3.524
    1C        C  118   3.833   2.541   3.644
    1C        C  119   3.696   2.505   3.645
    1C        C  120   3.895   2.572   3.767
    1C        C  121   3.831   2.547   3.890
    1C        C  122   4.028   2.632   4.011
    1C        C  123   3.901   2.570   4.011
    1C        C  124   4.090   2.666   4.133
    1C        C  125   4.030   2.631   4.256
    1C        C  126   4.197   2.760   4.377
    1C        C  127   4.090   2.668   4.379
    1C        C  128   4.239   2.819   4.498
    1C        C  129   4.196   2.761   4.619
    1C        C  130   4.322   2.934   4.740
    1C        C  131   4.242   2.817   4.741
    1C        C  132   4.350   3.003   4.859
    1C        C  133   4.274   2.968   4.971
    1C        C  134   3.169   2.469   2.082
    1C        C  135   3.034   2.509   2.079
    1C        C  136   3.257   2.476   2.191
    1C        C  137   3.193   2.516   2.310
    1C        C  138   3.404   2.482   2.428
    1C        C  139   3.265   2.504   2.431
    1C        C  140   3.478   2.482   2.548
    1C        C  141   3.407   2.495   2.670
    1C        C  142   3.620   2.494   2.789
    1C        C  143   3.479   2.486   2.791
    1C        C  144   3.693   2.503   2.910
    1C        C  145   3.624   2.494   3.033
    1C        C  146   3.833   2.534   3.154
    1C        C  147   3.696   2.502   3.154
    1C        C  148   3.899   2.559   3.276
    1C        C  149   3.832   2.538   3.399
    1C        C  150   4.027   2.623   3.523
    1C        C  151   3.899   2.563   3.521
    1C        C  152   4.084   2.665   3.645
    1C        C  153   4.022   2.635   3.768
    1C        C  154   4.193   2.763   3.887
    1C        C  155   4.087   2.669   3.889
    1C        C  156   4.242   2.811   4.010
    1C        C  157   4.195   2.761   4.133
    1C        C  158   4.330   2.924   4.252
    1C        C  159   4.248   2.809   4.255
    1C        C  160   4.370   2.984   4.374
    1C        C  161   4.323   2.933   4.497
    1C        C  162   4.430   3.118   4.615
    1C        C  163   4.360   2.995   4.618
    1C        C  164   4.455   3.186   4.736
    1C        C  165   4.429   3.120   4.858
    1C        C  166   4.520   3.319   4.972
    1C        C  167   4.474   3.188   4.972
    1C        C  168   3.473   2.433   2.073
    1C        C  169   3.396   2.450   2.189
    1C        C  170   3.616   2.468   2.304
    1C        C  171   3.474   2.464   2.306
    1C        C  172   3.690   2.490   2.423
    1C        C  173   3.619   2.487   2.545
    1C        C  174   3.826   2.539   2.663
    1C        C  175   3.689   2.505   2.666
    1C        C  176   3.894   2.567   2.785
    1C        C  177   3.828   2.545   2.908
    1C        C  178   4.024   2.622   3.030
    1C        C  179   3.894   2.565   3.030
    1C        C  180   4.086   2.657   3.152
    1C        C  181   4.025   2.621   3.275
    1C        C  182   4.192   2.748   3.396
    1C        C  183   4.085   2.656   3.398
    1C        C  184   4.242   2.801   3.517
    1C        C  185   4.197   2.750   3.641
    1C        C  186   4.331   2.917   3.763
    1C        C  187   4.245   2.804   3.762
    1C        C  188   4.368   2.980   3.884
    1C        C  189   4.330   2.922   4.007
    1C        C  190   4.438   3.105   4.128
    1C        C  191   4.369   2.982   4.129
    1C        C  192   4.463   3.172   4.250
    1C        C  193   4.436   3.109   4.373
    1C        C  194   4.504   3.315   4.489
    1C        C  195   4.463   3.180   4.492
    1C        C  196   4.513   3.387   4.610
    1C        C  197   4.500   3.321   4.734
    1C        C  198   4.551   3.535   4.848
    1C        C  199   4.527   3.394   4.854
    1C        C  200   4.586   3.620   4.958
    1C        C  201   3.611   2.413   2.075
    1C        C  202   3.826   2.508   2.181
    1C        C  203   3.691   2.461   2.184
    1C        C  204   3.897   2.538   2.300
    1C        C  205   3.827   2.521   2.422
    1C        C  206   4.022   2.619   2.539
    1C        C  207   3.896   2.555   2.541
    1C        C  208   4.084   2.654   2.660
    1C        C  209   4.022   2.627   2.784
    1C        C  210   4.195   2.745   2.906
    1C        C  211   4.082   2.661   2.907
    1C        C  212   4.248   2.791   3.029
    1C        C  213   4.197   2.744   3.152
    1C        C  214   4.335   2.906   3.270
    1C        C  215   4.245   2.797   3.274
    1C        C  216   4.370   2.966   3.393
    1C        C  217   4.329   2.912   3.517
    1C        C  218   4.427   3.100   3.638
    1C        C  219   4.366   2.973   3.639
    1C        C  220   4.457   3.169   3.758
    1C        C  221   4.434   3.105   3.881
    1C        C  222   4.496   3.306   4.001
    1C        C  223   4.463   3.169   4.004
    1C        C  224   4.513   3.376   4.122
    1C        C  225   4.504   3.307   4.245
    1C        C  226   4.517   3.523   4.365
    1C        C  227   4.516   3.381   4.365
    1C        C  228   4.510   3.597   4.485
    1C        C  229   4.524   3.528   4.607
    1C        C  230   4.510   3.744   4.722
    1C        C  231   4.536   3.604   4.725
    1C        C  232   4.497   3.817   4.842
    1C        C  233   4.545   3.754   4.958
    1C        C  234   4.014   2.608   2.060
    1C        C  235   3.890   2.546   2.062
    1C        C  236   4.079   2.651   2.176
    1C        C  237   4.020   2.609   2.297
    1C        C  238   4.200   2.733   2.417
    1C        C  239   4.084   2.650   2.416
    1C        C  240   4.252   2.783   2.539
    1C        C  241   4.198   2.738   2.661
    1C        C  242   4.338   2.899   2.782
    1C        C  243   4.248   2.790   2.783
    1C        C  244   4.372   2.961   2.904
    1C        C  245   4.335   2.902   3.026
    1C        C  246   4.431   3.093   3.148
    1C        C  247   4.375   2.963   3.147
    1C        C  248   4.450   3.162   3.270
    1C        C  249   4.426   3.096   3.392
    1C        C  250   4.488   3.299   3.511
    1C        C  251   4.453   3.163   3.514
    1C        C  252   4.496   3.372   3.632
    1C        C  253   4.488   3.307   3.757
    1C        C  254   4.520   3.517   3.875
    1C        C  255   4.507   3.377   3.879
    1C        C  256   4.513   3.587   3.997
    1C        C  257   4.512   3.517   4.120
    1C        C  258   4.495   3.730   4.241
    1C        C  259   4.510   3.590   4.241
    1C        C  260   4.479   3.805   4.359
    1C        C  261   4.489   3.737   4.482
    1C        C  262   4.424   3.940   4.600
    1C        C  263   4.482   3.812   4.602
    1C        C  264   4.395   4.007   4.721
    1C        C  265   4.436   3.944   4.841
    1C        C  266   4.317   4.128   4.956
    1C        C  267   4.399   4.015   4.956
    1C        C  268   4.268   2.766   2.061
    1C        C  269   4.199   2.726   2.176
    1C        C  270   4.340   2.892   2.296
    1C        C  271   4.253   2.780   2.295
    1C        C  272   4.384   2.953   2.416
    1C        C  273   4.341   2.892   2.536
    1C        C  274   4.444   3.079   2.662
    1C        C  275   4.378   2.954   2.658
    1C        C  276   4.465   3.150   2.782
    1C        C  277   4.439   3.086   2.905
    1C        C  278   4.493   3.294   3.023
    1C        C  279   4.461   3.156   3.025
    1C        C  280   4.508   3.366   3.143
    1C        C  281   4.488   3.298   3.266
    1C        C  282   4.511   3.509   3.387
    1C        C  283   4.499   3.368   3.388
    1C        C  284   4.514   3.581   3.509
    1C        C  285   4.508   3.513   3.632
    1C        C  286   4.491   3.727   3.750
    1C        C  287   4.511   3.587   3.752
    1C        C  288   4.476   3.794   3.873
    1C        C  289   4.492   3.727   3.996
    1C        C  290   4.430   3.930   4.115
    1C        C  291   4.480   3.798   4.118
    1C        C  292   4.398   4.000   4.234
    1C        C  293   4.427   3.937   4.357
    1C        C  294   4.328   4.128   4.477
    1C        C  295   4.391   4.002   4.477
    1C        C  296   4.284   4.187   4.597
    1C        C  297   4.323   4.129   4.720
    1C        C  298   4.199   4.313   4.836
    1C        C  299   4.278   4.193   4.839
    1C        C  300   4.166   4.400   4.944
    1C        C  301   4.350   2.879   2.059
    1C        C  302   4.470   3.065   2.177
    1C        C  303   4.392   2.945   2.175
    1C        C  304   4.485   3.141   2.296
    1C        C  305   4.441   3.082   2.416
    1C        C  306   4.505   3.282   2.535
    1C        C  307   4.465   3.146   2.540
    1C        C  308   4.509   3.357   2.654
    1C        C  309   4.492   3.289   2.777
    1C        C  310   4.517   3.500   2.896
    1C        C  311   4.505   3.360   2.898
    1C        C  312   4.517   3.572   3.017
    1C        C  313   4.518   3.507   3.143
    1C        C  314   4.487   3.718   3.262
    1C        C  315   4.508   3.579   3.264
    1C        C  316   4.471   3.786   3.385
    1C        C  317   4.493   3.721   3.508
    1C        C  318   4.427   3.927   3.628
    1C        C  319   4.478   3.795   3.627
    1C        C  320   4.401   3.992   3.750
    1C        C  321   4.430   3.928   3.873
    1C        C  322   4.324   4.115   3.988
    1C        C  323   4.396   3.993   3.993
    1C        C  324   4.278   4.171   4.109
    1C        C  325   4.323   4.120   4.233
    1C        C  326   4.188   4.284   4.353
    1C        C  327   4.287   4.183   4.353
    1C        C  328   4.133   4.335   4.473
    1C        C  329   4.187   4.291   4.596
    1C        C  330   4.025   4.437   4.710
    1C        C  331   4.140   4.354   4.714
    1C        C  332   3.970   4.494   4.827
    1C        C  333   4.047   4.475   4.942
    1C        C  334   4.547   3.265   2.061
    1C        C  335   4.529   3.126   2.062
    1C        C  336   4.536   3.349   2.173
    1C        C  337   4.514   3.280   2.294
    1C        C  338   4.521   3.496   2.409
    1C        C  339   4.519   3.354   2.414
    1C        C  340   4.518   3.569   2.530
    1C        C  341   4.518   3.498   2.652
    1C        C  342   4.493   3.710   2.771
    1C        C  343   4.517   3.570   2.773
    1C        C  344   4.475   3.777   2.893
    1C        C  345   4.490   3.711   3.017
    1C        C  346   4.427   3.917   3.137
    1C        C  347   4.472   3.783   3.137
    1C        C  348   4.399   3.982   3.258
    1C        C  349   4.430   3.921   3.382
    1C        C  350   4.321   4.105   3.499
    1C        C  351   4.400   3.988   3.503
    1C        C  352   4.283   4.167   3.620
    1C        C  353   4.324   4.110   3.743
    1C        C  354   4.175   4.262   3.863
    1C        C  355   4.279   4.167   3.865
    1C        C  356   4.123   4.310   3.986
    1C        C  357   4.174   4.266   4.109
    1C        C  358   4.014   4.405   4.227
    1C        C  359   4.126   4.319   4.231
    1C        C  360   3.954   4.447   4.348
    1C        C  361   4.018   4.416   4.470
    1C        C  362   3.827   4.518   4.591
    1C        C  363   3.956   4.460   4.589
    1C        C  364   3.761   4.552   4.711
    1C        C  365   3.838   4.544   4.829
    1C        C  366   3.627   4.589   4.946
    1C        C  367   3.765   4.570   4.946
    1C        C  368   4.511   3.563   2.047
    1C        C  369   4.524   3.490   2.166
    1C        C  370   4.504   3.705   2.283
    1C        C  371   4.519   3.564   2.286
    1C        C  372   4.492   3.778   2.404
    1C        C  373   4.500   3.709   2.527
    1C        C  374   4.432   3.912   2.647
    1C        C  375   4.477   3.778   2.648
    1C        C  376   4.400   3.975   2.769
    1C        C  377   4.432   3.912   2.891
    1C        C  378   4.328   4.098   3.010
    1C        C  379   4.406   3.980   3.012
    1C        C  380   4.282   4.158   3.130
    1C        C  381   4.320   4.100   3.253
    1C        C  382   4.177   4.257   3.375
    1C        C  383   4.274   4.154   3.375
    1C        C  384   4.124   4.305   3.497
    1C        C  385   4.177   4.261   3.620
    1C        C  386   4.003   4.385   3.740
    1C        C  387   4.121   4.307   3.741
    1C        C  388   3.943   4.424   3.862
    1C        C  389   4.007   4.391   3.983
    1C        C  390   3.814   4.479   4.107
    1C        C  391   3.947   4.430   4.105
    1C        C  392   3.749   4.508   4.228
    1C        C  393   3.821   4.496   4.349
    1C        C  394   3.615   4.545   4.469
    1C        C  395   3.755   4.526   4.470
    1C        C  396   3.546   4.561   4.592
    1C        C  397   3.620   4.567   4.712
    1C        C  398   3.408   4.554   4.836
    1C        C  399   3.547   4.580   4.832
    1C        C  400   3.340   4.526   4.955
    1C        C  401   4.500   3.701   2.046
    1C        C  402   4.457   3.915   2.163
    1C        C  403   4.491   3.778   2.163
    1C        C  404   4.416   3.977   2.283
    1C        C  405   4.439   3.909   2.404
    1C        C  406   4.331   4.096   2.523
    1C        C  407   4.408   3.977   2.524
    1C        C  408   4.279   4.146   2.644
    1C        C  409   4.320   4.091   2.768
    1C        C  410   4.174   4.247   2.885
    1C        C  411   4.278   4.151   2.889
    1C        C  412   4.122   4.292   3.009
    1C        C  413   4.181   4.256   3.132
    1C        C  414   4.006   4.381   3.251
    1C        C  415   4.123   4.302   3.253
    1C        C  416   3.942   4.412   3.373
    1C        C  417   4.005   4.382   3.496
    1C        C  418   3.814   4.475   3.615
    1C        C  419   3.943   4.419   3.617
    1C        C  420   3.747   4.500   3.738
    1C        C  421   3.811   4.476   3.861
    1C        C  422   3.607   4.526   3.983
    1C        C  423   3.746   4.499   3.985
    1C        C  424   3.538   4.535   4.106
    1C        C  425   3.610   4.535   4.227
    1C        C  426   3.399   4.540   4.354
    1C        C  427   3.540   4.545   4.349
    1C        C  428   3.330   4.542   4.477
    1C        C  429   3.405   4.553   4.595
    1C        C  430   3.194   4.514   4.724
    1C        C  431   3.333   4.543   4.717
    1C        C  432   3.123   4.488   4.844
    1C        C  433   3.205   4.491   4.956
    1C        C  434   4.390   4.126   2.050
    1C        C  435   4.446   3.997   2.050
    1C        C  436   4.306   4.164   2.160
    1C        C  437   4.337   4.095   2.281
    1C        C  438   4.180   4.243   2.400
    1C        C  439   4.284   4.148   2.401
    1C        C  440   4.127   4.292   2.522
    1C        C  441   4.177   4.243   2.645
    1C        C  442   4.006   4.377   2.763
    1C        C  443   4.122   4.296   2.764
    1C        C  444   3.944   4.412   2.885
    1C        C  445   4.006   4.372   3.005
    1C        C  446   3.811   4.457   3.126
    1C        C  447   3.944   4.409   3.127
    1C        C  448   3.744   4.482   3.248
    1C        C  449   3.811   4.465   3.371
    1C        C  450   3.608   4.525   3.493
    1C        C  451   3.746   4.494   3.493
    1C        C  452   3.539   4.538   3.615
    1C        C  453   3.609   4.530   3.738
    1C        C  454   3.397   4.537   3.862
    1C        C  455   3.539   4.536   3.860
    1C        C  456   3.330   4.528   3.986
    1C        C  457   3.397   4.537   4.109
    1C        C  458   3.189   4.501   4.236
    1C        C  459   3.327   4.531   4.232
    1C        C  460   3.123   4.485   4.360
    1C        C  461   3.192   4.511   4.480
    1C        C  462   2.994   4.436   4.602
    1C        C  463   3.125   4.491   4.603
    1C        C  464   2.928   4.401   4.722
    1C        C  465   2.987   4.440   4.845
    1C        C  466   2.801   4.333   4.960
    1C        C  467   2.909   4.422   4.964
    1C        C  468   4.127   4.285   2.040
    1C        C  469   4.189   4.246   2.159
    1C        C  470   4.005   4.365   2.276
    1C        C  471   4.128   4.293   2.279
    1C        C  472   3.941   4.395   2.399
    1C        C  473   4.009   4.369   2.520
    1C        C  474   3.816   4.467   2.640
    1C        C  475   3.945   4.410   2.640
    1C        C  476   3.749   4.489   2.762
    1C        C  477   3.813   4.465   2.886
    1C        C  478   3.604   4.519   3.006
    1C        C  479   3.741   4.482   3.006
    1C        C  480   3.534   4.525   3.128
    1C        C  481   3.606   4.511   3.248
    1C        C  482   3.396   4.525   3.374
    1C        C  483   3.537   4.528   3.371
    1C        C  484   3.326   4.519   3.497
    1C        C  485   3.398   4.533   3.618
    1C        C  486   3.189   4.495   3.744
    1C        C  487   3.327   4.525   3.740
    1C        C  488   3.124   4.470   3.867
    1C        C  489   3.193   4.493   3.989
    1C        C  490   2.998   4.416   4.116
    1C        C  491   3.126   4.476   4.113
    1C        C  492   2.938   4.380   4.239
    1C        C  493   2.996   4.423   4.361
    1C        C  494   2.824   4.301   4.483
    1C        C  495   2.932   4.392   4.483
    1C        C  496   2.770   4.254   4.605
    1C        C  497   2.816   4.313   4.724
    1C        C  498   2.668   4.160   4.847
    1C        C  499   2.753   4.273   4.844
    1C        C  500   2.599   4.114   4.960
    1C        C  501   4.003   4.347   2.036
    1C        C  502   3.816   4.457   2.153
    1C        C  503   3.943   4.396   2.153
    1C        C  504   3.744   4.473   2.273
    1C        C  505   3.811   4.449   2.396
    1C        C  506   3.607   4.506   2.519
    1C        C  507   3.745   4.473   2.518
    1C        C  508   3.537   4.506   2.641
    1C        C  509   3.609   4.509   2.763
    1C        C  510   3.394   4.519   2.884
    1C        C  511   3.535   4.522   2.882
    1C        C  512   3.321   4.514   3.005
    1C        C  513   3.392   4.522   3.127
    1C        C  514   3.187   4.490   3.256
    1C        C  515   3.326   4.516   3.252
    1C        C  516   3.118   4.471   3.377
    1C        C  517   3.187   4.493   3.499
    1C        C  518   2.994   4.414   3.621
    1C        C  519   3.121   4.476   3.622
    1C        C  520   2.938   4.374   3.745
    1C        C  521   2.998   4.406   3.869
    1C        C  522   2.832   4.284   3.997
    1C        C  523   2.942   4.374   3.994
    1C        C  524   2.779   4.236   4.119
    1C        C  525   2.830   4.290   4.239
    1C        C  526   2.694   4.132   4.363
    1C        C  527   2.773   4.249   4.362
    1C        C  528   2.652   4.076   4.486
    1C        C  529   2.681   4.144   4.606
    1C        C  530   2.582   3.958   4.728
    1C        C  531   2.638   4.089   4.728
    1C        C  532   2.536   3.902   4.850
    1C        C  533   2.530   3.992   4.960
    1C        C  534   3.620   4.557   2.042
    1C        C  535   3.753   4.514   2.041
    1C        C  536   3.537   4.529   2.156
    1C        C  537   3.606   4.506   2.278
    1C        C  538   3.393   4.517   2.397
    1C        C  539   3.534   4.517   2.399
    1C        C  540   3.321   4.506   2.518
    1C        C  541   3.396   4.509   2.638
    1C        C  542   3.187   4.483   2.765
    1C        C  543   3.326   4.507   2.761
    1C        C  544   3.118   4.462   2.886
    1C        C  545   3.184   4.481   3.010
    1C        C  546   2.994   4.398   3.135
    1C        C  547   3.121   4.462   3.134
    1C        C  548   2.933   4.365   3.258
    1C        C  549   2.993   4.406   3.379
    1C        C  550   2.822   4.282   3.507
    1C        C  551   2.932   4.370   3.502
    1C        C  552   2.774   4.235   3.631
    1C        C  553   2.828   4.286   3.751
    1C        C  554   2.698   4.121   3.876
    1C        C  555   2.783   4.233   3.875
    1C        C  556   2.657   4.061   3.997
    1C        C  557   2.690   4.126   4.118
    1C        C  558   2.598   3.940   4.245
    1C        C  559   2.655   4.069   4.243
    1C        C  560   2.569   3.877   4.368
    1C        C  561   2.589   3.949   4.487
    1C        C  562   2.533   3.745   4.614
    1C        C  563   2.564   3.883   4.610
    1C        C  564   2.515   3.681   4.738
    1C        C  565   2.515   3.760   4.856
    1C        C  566   2.537   3.547   4.976
    1C        C  567   2.525   3.686   4.974
    1C        C  568   3.327   4.475   2.040
    1C        C  569   3.396   4.509   2.157
    1C        C  570   3.183   4.474   2.280
    1C        C  571   3.319   4.515   2.277
    1C        C  572   3.114   4.452   2.402
    1C        C  573   3.182   4.479   2.522
    1C        C  574   2.990   4.396   2.648
    1C        C  575   3.115   4.462   2.645
    1C        C  576   2.930   4.355   2.770
    1C        C  577   2.994   4.394   2.889
    1C        C  578   2.824   4.273   3.016
    1C        C  579   2.934   4.362   3.013
    1C        C  580   2.775   4.225   3.139
    1C        C  581   2.825   4.274   3.262
    1C        C  582   2.691   4.114   3.383
    1C        C  583   2.776   4.227   3.386
    1C        C  584   2.658   4.058   3.509
    1C        C  585   2.693   4.118   3.631
    1C        C  586   2.594   3.934   3.753
    1C        C  587   2.655   4.062   3.755
    1C        C  588   2.566   3.871   3.876
    1C        C  589   2.596   3.934   3.999
    1C        C  590   2.533   3.736   4.123
    1C        C  591   2.573   3.872   4.124
    1C        C  592   2.525   3.669   4.247
    1C        C  593   2.530   3.741   4.369
    1C        C  594   2.508   3.533   4.497
    1C        C  595   2.518   3.674   4.493
    1C        C  596   2.515   3.462   4.620
    1C        C  597   2.512   3.538   4.739
    1C        C  598   2.537   3.328   4.862
    1C        C  599   2.523   3.469   4.861
    1C        C  600   2.532   3.248   4.977
    1C        C  601   3.194   4.437   2.040
    1C        C  602   2.985   4.386   2.158
    1C        C  603   3.119   4.436   2.158
    1C        C  604   2.922   4.357   2.283
    1C        C  605   2.987   4.392   2.404
    1C        C  606   2.814   4.274   2.528
    1C        C  607   2.927   4.359   2.527
    1C        C  608   2.768   4.220   2.650
    1C        C  609   2.820   4.267   2.773
    1C        C  610   2.680   4.111   2.897
    1C        C  611   2.770   4.219   2.896
    1C        C  612   2.646   4.054   3.022
    1C        C  613   2.688   4.113   3.143
    1C        C  614   2.584   3.926   3.262
    1C        C  615   2.651   4.050   3.264
    1C        C  616   2.559   3.866   3.388
    1C        C  617   2.593   3.932   3.508
    1C        C  618   2.531   3.731   3.638
    1C        C  619   2.568   3.867   3.631
    1C        C  620   2.519   3.660   3.759
    1C        C  621   2.529   3.735   3.879
    1C        C  622   2.514   3.525   4.012
    1C        C  623   2.517   3.666   4.002
    1C        C  624   2.516   3.455   4.134
    1C        C  625   2.511   3.528   4.255
    1C        C  626   2.542   3.321   4.380
    1C        C  627   2.510   3.458   4.378
    1C        C  628   2.556   3.248   4.501
    1C        C  629   2.534   3.322   4.619
    1C        C  630   2.595   3.120   4.742
    1C        C  631   2.548   3.255   4.742
    1C        C  632   2.616   3.047   4.862
    1C        C  633   2.565   3.112   4.979
    1C        C  634   2.781   4.300   2.053
    1C        C  635   2.894   4.383   2.048
    1C        C  636   2.745   4.229   2.168
    1C        C  637   2.809   4.271   2.287
    1C        C  638   2.672   4.111   2.409
    1C        C  639   2.756   4.225   2.409
    1C        C  640   2.636   4.049   2.530
    1C        C  641   2.681   4.109   2.650
    1C        C  642   2.580   3.926   2.777
    1C        C  643   2.642   4.053   2.774
    1C        C  644   2.555   3.859   2.899
    1C        C  645   2.586   3.926   3.019
    1C        C  646   2.530   3.720   3.145
    1C        C  647   2.564   3.857   3.141
    1C        C  648   2.520   3.656   3.271
    1C        C  649   2.529   3.728   3.392
    1C        C  650   2.507   3.520   3.518
    1C        C  651   2.518   3.661   3.515
    1C        C  652   2.515   3.450   3.640
    1C        C  653   2.520   3.519   3.763
    1C        C  654   2.539   3.315   3.887
    1C        C  655   2.520   3.455   3.889
    1C        C  656   2.554   3.249   4.011
    1C        C  657   2.540   3.316   4.134
    1C        C  658   2.603   3.117   4.259
    1C        C  659   2.559   3.251   4.259
    1C        C  660   2.633   3.051   4.380
    1C        C  661   2.599   3.114   4.502
    1C        C  662   2.707   2.932   4.626
    1C        C  663   2.630   3.050   4.625
    1C        C  664   2.749   2.873   4.747
    1C        C  665   2.693   2.927   4.866
    1C        C  666   2.743   2.874   4.986
    1C        C  667   2.675   4.021   2.052
    1C        C  668   2.688   4.101   2.167
    1C        C  669   2.588   3.912   2.288
    1C        C  670   2.647   4.041   2.288
    1C        C  671   2.553   3.852   2.411
    1C        C  672   2.581   3.919   2.533
    1C        C  673   2.519   3.720   2.658
    1C        C  674   2.559   3.855   2.657
    1C        C  675   2.511   3.648   2.779
    1C        C  676   2.527   3.721   2.899
    1C        C  677   2.508   3.511   3.028
    1C        C  678   2.516   3.652   3.022
    1C        C  679   2.512   3.443   3.152
    1C        C  680   2.509   3.515   3.273
    1C        C  681   2.524   3.307   3.398
    1C        C  682   2.503   3.447   3.397
    1C        C  683   2.550   3.240   3.519
    1C        C  684   2.532   3.309   3.641
    1C        C  685   2.607   3.115   3.769
    1C        C  686   2.551   3.245   3.765
    1C        C  687   2.643   3.056   3.892
    1C        C  688   2.607   3.117   4.013
    1C        C  689   2.714   2.936   4.138
    1C        C  690   2.636   3.054   4.136
    1C        C  691   2.759   2.881   4.260
    1C        C  692   2.711   2.934   4.382
    1C        C  693   2.754   2.877   4.504
    1C        C  694   2.629   3.889   2.055
    1C        C  695   2.529   3.701   2.172
    1C        C  696   2.571   3.836   2.171
    1C        C  697   2.512   3.637   2.297
    1C        C  698   2.521   3.714   2.415
    1C        C  699   2.492   3.506   2.539
    1C        C  700   2.502   3.647   2.538
    1C        C  701   2.504   3.437   2.661
    1C        C  702   2.502   3.507   2.784
    1C        C  703   2.525   3.299   2.910
    1C        C  704   2.502   3.438   2.907
    1C        C  705   2.543   3.232   3.033
    1C        C  706   2.530   3.303   3.154
    1C        C  707   2.600   3.105   3.276
    1C        C  708   2.548   3.236   3.278
    1C        C  709   2.635   3.047   3.401
    1C        C  710   2.608   3.111   3.524
    1C        C  711   2.710   2.928   3.649
    1C        C  712   2.640   3.051   3.647
    1C        C  713   2.757   2.875   3.771
    1C        C  714   2.716   2.935   3.893
    1C        C  715   2.757   2.881   4.016
    1C        C  716   2.450   3.496   2.061
    1C        C  717   2.499   3.627   2.057
    1C        C  718   2.468   3.420   2.181
    1C        C  719   2.486   3.498   2.298
    1C        C  720   2.514   3.290   2.422
    1C        C  721   2.487   3.428   2.421
    1C        C  722   2.538   3.226   2.546
    1C        C  723   2.527   3.298   2.667
    1C        C  724   2.592   3.096   2.788
    1C        C  725   2.543   3.228   2.789
    1C        C  726   2.625   3.033   2.911
    1C        C  727   2.595   3.100   3.031
    1C        C  728   2.706   2.922   3.160
    1C        C  729   2.627   3.039   3.154
    1C        C  730   2.753   2.869   3.282
    1C        C  731   2.714   2.930   3.403
    1C        C  732   2.755   2.874   3.526
    1C        C  733   2.486   3.197   2.070
    1C        C  734   2.485   3.278   2.185
    1C        C  735   2.579   3.081   2.303
    1C        C  736   2.519   3.210   2.305
    1C        C  737   2.610   3.019   2.426
    1C        C  738   2.585   3.093   2.544
    1C        C  739   2.699   2.913   2.669
    1C        C  740   2.625   3.033   2.666
    1C        C  741   2.735   2.851   2.791
    1C        C  742   2.696   2.911   2.913
    1C        C  743   2.748   2.866   3.037
    1C        C  744   2.533   3.066   2.075
    1C        C  745   2.686   2.897   2.186
    1C        C  746   2.605   3.014   2.182
    1C        C  747   2.725   2.835   2.306
    1C        C  748   2.687   2.901   2.425
    1C        C  749   2.735   2.851   2.548
    1C        C  750   2.740   2.842   2.069
    1C        C  751   3.660   2.299   1.994
    1C        O  752   3.736   2.212   2.043
    1C        O  753   3.674   2.303   1.855
    1C        C  754   4.635   3.057   1.985
    1C        O  755   4.621   3.048   1.860
    1C        O  756   4.773   3.066   2.006
    1C        C  757   4.467   4.229   1.978
    1C        O  758   4.574   4.267   2.034
    1C        O  759   4.459   4.235   1.839
    1C        C  760   3.598   4.681   1.965
    1C        O  761   3.570   4.789   2.025
    1C        O  762   3.555   4.683   1.832
    1C        C  763   2.897   4.493   1.949
    1C        O  764   2.938   4.473   1.832
    1C        O  765   2.799   4.593   1.954
    1C        C  766   2.333   3.475   1.972
    1C        O  767   2.337   3.427   1.855
    1C        O  768   2.200   3.497   2.010
    1C        C  769   4.693   3.591   5.056
    1C        O  770   4.680   3.596   5.181
    1C        O  771   4.813   3.540   5.006
    1C        C  772   4.267   4.453   5.038
    1C        O  773   4.293   4.401   5.150
    1C        O  774   4.372   4.525   4.980
    1C        C  775   4.131   2.549   5.093
    1C        O  776   4.192   2.439   5.077
    1C        O  777   4.107   2.585   5.226
    1C        C  778   2.895   4.524   5.070
    1C        O  779   2.849   4.637   5.037
    1C        O  780   2.853   4.481   5.196
    1C        C  781   2.496   3.037   5.087
    1C        O  782   2.384   2.980   5.074
    1C        O  783   2.558   3.025   5.210
    1C        C  784   2.408   3.987   5.044
    1C        O  785   2.291   4.015   5.005
    1C        O  786   2.423   3.956   5.180
    1C        C  787   2.953   2.407   2.009
    1C        O  788   2.910   2.435   1.894
    1C        O  789   2.934   2.278   2.055
    1C        C  790   3.194   2.373   5.070
    1C        O  791   3.181   2.253   5.036
    1C        O  792   3.177   2.387   5.209
    1C        H  793   4.291   3.017   5.065
    1C        H  794   4.133   2.849   5.047
    1C        H  795   4.467   3.140   5.068
    1C        H  796   4.540   3.365   5.067
    1C        H  797   4.536   3.802   5.054
    1C        H  798   4.463   3.999   5.040
    1C        H  799   4.247   4.127   5.037
    1C        H  800   4.026   4.536   5.028
    1C        H  801   3.815   4.579   5.040
    1C        H  802   3.591   4.652   5.025
    1C        H  803   3.399   4.487   5.035
    1C        H  804   3.170   4.467   5.054
    1C        H  805   3.918   2.434   5.031
    1C        H  806   3.669   2.443   5.067
    1C        H  807   2.994   2.560   5.061
    1C        H  808   3.440   2.447   5.074
    1C        H  809   2.848   2.714   5.070
    1C        H  810   2.738   2.932   5.075
    1C        H  811   2.488   3.284   5.068
    1C        H  812   2.567   3.501   5.068
    1C        H  813   2.506   3.733   5.068
    1C        H  814   2.573   4.183   5.038
    1C        H  815   2.741   4.321   5.048
    1C        H  816   2.729   2.897   1.978
    1C        H  817   2.885   2.713   1.984
    1C        H  818   3.204   2.405   2.004
    1C        H  819   3.424   2.394   1.986
    1C        H  820   3.840   2.522   1.970
    1C        H  821   4.063   2.608   1.964
    1C        H  822   4.274   2.699   1.978
    1C        H  823   4.358   2.931   1.966
    1C        H  824   4.609   3.303   1.981
    1C        H  825   4.530   3.514   1.954
    1C        H  826   4.444   3.743   1.965
    1C        H  827   3.769   4.465   1.947
    1C        H  828   3.946   4.345   1.946
    1C        H  829   4.176   4.281   1.944
    1C        H  830   4.465   3.956   1.953
    1C        H  831   2.639   3.824   1.970
    1C        H  832   2.741   4.040   1.971
    1C        H  833   2.704   4.306   1.979
    1C        H  834   3.358   4.522   1.950
    1C        H  835   3.183   4.347   1.983
    1C        H  836   2.501   2.996   2.000
    1C        H  837   2.485   3.243   1.974
    1C        H  838   2.534   3.659   1.961
    2V3OU   H29  839   2.805   3.541   1.557
    2V3OU   C27  840   2.784   3.502   1.660
    2V3OU   H27  841   2.721   3.555   1.735
    2V3OU   H28  842   2.734   3.402   1.658
    2V3OU   O11  843   2.906   3.473   1.728
    2V3OU   C15  844   2.916   3.393   1.840
    2V3OU   C13  845   3.047   3.374   1.889
    2V3OU   C14  846   3.074   3.269   1.979
    2V3OU   C16  847   2.971   3.188   2.024
    2V3OU    H6  848   2.989   3.104   2.092
    2V3OU   C12  849   3.213   3.235   2.017
    2V3OU    O2  850   3.237   3.132   2.083
    2V3OU   C10  851   3.323   3.306   1.951
    2V3OU    C8  852   3.455   3.269   1.976
    2V3OU   O10  853   3.484   3.151   2.036
    2V3OU   H26  854   3.398   3.116   2.063
    2V3OU    C6  855   3.566   3.348   1.932
    2V3OU    C5  856   3.537   3.467   1.867
    2V3OU    C4  857   3.703   3.289   1.939
    2V3OU    H4  858   3.721   3.235   2.037
    2V3OU    H5  859   3.709   3.216   1.854
    2V3OU    C2  860   3.814   3.393   1.925
    2V3OU    O6  861   3.805   3.470   2.045
    2V3OU   H21  862   3.766   3.554   2.016
    2V3OU    C3  863   3.782   3.488   1.809
    2V3OU    H2  864   3.857   3.572   1.810
    2V3OU    H3  865   3.782   3.438   1.709
    2V3OU   C25  866   3.949   3.323   1.905
    2V3OU    O7  867   4.006   3.297   1.799
    2V3OU   C26  868   4.030   3.288   2.029
    2V3OU   H22  869   4.062   3.383   2.077
    2V3OU   H23  870   4.120   3.227   2.000
    2V3OU    O8  871   3.962   3.210   2.124
    2V3OU   H24  872   3.934   3.266   2.199
    2V3OU    C1  873   3.649   3.559   1.831
    2V3OU    H1  874   3.624   3.613   1.735
    2V3OU    O3  875   3.656   3.656   1.935
    2V3OU   C19  876   3.615   3.791   1.912
    2V3OU    H9  877   3.517   3.790   1.856
    2V3OU    O4  878   3.711   3.851   1.828
    2V3OU   C20  879   3.842   3.871   1.883
    2V3OU   H10  880   3.892   3.771   1.898
    2V3OU   C24  881   3.610   3.854   2.051
    2V3OU   H16  882   3.544   3.788   2.113
    2V3OU   H17  883   3.560   3.953   2.035
    2V3OU   C23  884   3.749   3.870   2.113
    2V3OU   H15  885   3.786   3.764   2.131
    2V3OU    N1  886   3.735   3.950   2.233
    2V3OU   H19  887   3.812   3.916   2.287
    2V3OU   H20  888   3.646   3.925   2.271
    2V3OU   C21  889   3.848   3.943   2.018
    2V3OU   H11  890   3.954   3.929   2.056
    2V3OU    O5  891   3.817   4.082   2.025
    2V3OU   H18  892   3.780   4.101   2.113
    2V3OU   C22  893   3.909   3.950   1.772
    2V3OU   H12  894   3.865   4.053   1.770
    2V3OU   H13  895   3.895   3.895   1.676
    2V3OU   H14  896   4.018   3.964   1.794
    2V3OU   C11  897   3.159   3.462   1.854
    2V3OU    O1  898   3.135   3.577   1.812
    2V3OU    C9  899   3.301   3.425   1.877
    2V3OU    C7  900   3.404   3.508   1.834
    2V3OU    O9  901   3.386   3.618   1.753
    2V3OU   H25  902   3.289   3.628   1.750
    2V3OU   C17  903   2.814   3.313   1.895
    2V3OU    H7  904   2.713   3.334   1.862
    2V3OU   C18  905   2.839   3.208   1.983
    2V3OU    H8  906   2.761   3.140   2.021
    3SOL     OW  907   1.681   3.866   1.382
    3SOL    HW1  908   1.731   3.845   1.466
    3SOL    HW2  909   1.745   3.896   1.312
    4SOL     OW  910   6.167   0.649   1.953
    4SOL    HW1  911   6.099   0.639   1.881
    4SOL    HW2  912   6.141   0.724   2.014
    5SOL     OW  913   4.062   1.212   1.142
    5SOL    HW1  914   4.148   1.250   1.175
    5SOL    HW2  915   4.036   1.134   1.199
    6SOL     OW  916   3.027   2.149   2.278
    6SOL    HW1  917   2.943   2.115   2.321
    6SOL    HW2  918   3.004   2.221   2.212
    7SOL     OW  919   5.850   2.551   2.385
    7SOL    HW1  920   5.773   2.490   2.404
    7SOL    HW2  921   5.827   2.644   2.416
    8SOL     OW  922   2.402   6.799   4.225
    8SOL    HW1  923   2.405   6.715   4.280
    8SOL    HW2  924   2.367   6.777   4.134
    9SOL     OW  925   1.515   5.470   5.754
    9SOL    HW1  926   1.573   5.445   5.831
    9SOL    HW2  927   1.420   5.445   5.774
   10SOL     OW  928   0.752   4.640   5.909
   10SOL    HW1  929   0.809   4.666   5.987
   10SOL    HW2  930   0.799   4.662   5.824
   11SOL     OW  931   3.668   6.612   0.310
   11SOL    HW1  932   3.768   6.603   0.307
   11SOL    HW2  933   3.626   6.534   0.264
   12SOL     OW  934   4.982   5.391   3.215
   12SOL    HW1  935   4.990   5.340   3.129
   12SOL    HW2  936   4.928   5.474   3.200
   13SOL     OW  937   2.886   6.367   4.128
   13SOL    HW1  938   2.787   6.376   4.127
   13SOL    HW2  939   2.927   6.442   4.076
   14SOL     OW  940   3.620   6.056   6.956
   14SOL    HW1  941   3.597   5.976   7.012
   14SOL    HW2  942   3.689   6.111   7.003
   15SOL     OW  943   1.208   5.993   6.864
   15SOL    HW1  944   1.135   5.978   6.931
   15SOL    HW2  945   1.231   6.090   6.862
   16SOL     OW  946   6.667   2.402   5.947
   16SOL    HW1  947   6.752   2.399   5.999
   16SOL    HW2  948   6.683   2.447   5.859
   17SOL     OW  949   5.138   6.576   4.188
   17SOL    HW1  950   5.060   6.514   4.193
   17SOL    HW2  951   5.105   6.671   4.195
   18SOL     OW  952   2.147   2.135   5.727
   18SOL    HW1  953   2.246   2.147   5.720
   18SOL    HW2  954   2.103   2.172   5.645
   19SOL     OW  955   0.250   0.192   2.642
   19SOL    HW1  956   0.198   0.186   2.557
   19SOL    HW2  957   0.225   0.116   2.702
   20SOL     OW  958   3.612   1.323   4.339
   20SOL    HW1  959   3.658   1.300   4.253
   20SOL    HW2  960   3.514   1.332   4.323
   21SOL     OW  961   2.916   1.518   2.003
   21SOL    HW1  962   2.920   1.436   2.060
   21SOL    HW2  963   2.877   1.593   2.057
   22SOL     OW  964   2.303   6.566   6.494
   22SOL    HW1  965   2.327   6.483   6.443
   22SOL    HW2  966   2.220   6.606   6.456
   23SOL     OW  967   4.313   6.228   3.654
   23SOL    HW1  968   4.389   6.164   3.651
   23SOL    HW2  969   4.347   6.321   3.643
   24SOL     OW  970   5.138   0.840   4.571
   24SOL    HW1  971   5.059   0.812   4.625
   24SOL    HW2  972   5.211   0.773   4.582
   25SOL     OW  973   3.067   5.449   0.596
   25SOL    HW1  974   3.159   5.412   0.602
   25SOL    HW2  975   3.071   5.549   0.590
   26SOL     OW  976   6.311   1.533   1.800
   26SOL    HW1  977   6.403   1.504   1.823
   26SOL    HW2  978   6.313   1.583   1.713
   27SOL     OW  979   6.366   0.107   2.183
   27SOL    HW1  980   6.385   0.187   2.126
   27SOL    HW2  981   6.334   0.032   2.125
   28SOL     OW  982   4.506   0.854   6.990
   28SOL    HW1  983   4.439   0.780   6.994
   28SOL    HW2  984   4.501   0.899   6.900
   29SOL     OW  985   5.070   2.500   2.011
   29SOL    HW1  986   5.147   2.560   2.034
   29SOL    HW2  987   5.065   2.426   2.077
   30SOL     OW  988   3.051   6.932   5.350
   30SOL    HW1  989   3.075   6.924   5.447
   30SOL    HW2  990   2.953   6.921   5.339
   31SOL     OW  991   0.901   1.108   5.209
   31SOL    HW1  992   0.820   1.139   5.260
   31SOL    HW2  993   0.983   1.127   5.261
   32SOL     OW  994   0.838   1.948   2.456
   32SOL    HW1  995   0.745   1.983   2.448
   32SOL    HW2  996   0.843   1.887   2.535
   33SOL     OW  997   1.789   2.565   5.878
   33SOL    HW1  998   1.858   2.492   5.873
   33SOL    HW2  999   1.834   2.654   5.870
   34SOL     OW 1000   1.945   0.002   4.861
   34SOL    HW1 1001   1.927   6.973   4.776
   34SOL    HW2 1002   1.888   6.985   4.934
   35SOL     OW 1003   4.620   1.324   0.286
   35SOL    HW1 1004   4.556   1.399   0.295
   35SOL    HW2 1005   4.624   1.293   0.191
   36SOL     OW 1006   1.493   0.767   6.116
   36SOL    HW1 1007   1.533   0.835   6.055
   36SOL    HW2 1008   1.452   0.693   6.062
   37SOL     OW 1009   2.540   6.400   1.342
   37SOL    HW1 1010   2.486   6.476   1.303
   37SOL    HW2 1011   2.552   6.329   1.273
   38SOL     OW 1012   6.864   6.102   3.099
   38SOL    HW1 1013   6.879   6.166   3.023
   38SOL    HW2 1014   6.916   6.018   3.081
   39SOL     OW 1015   6.469   3.492   5.732
   39SOL    HW1 1016   6.459   3.434   5.812
   39SOL    HW2 1017   6.386   3.487   5.676
   40SOL     OW 1018   6.253   1.190   2.605
   40SOL    HW1 1019   6.221   1.285   2.597
   40SOL    HW2 1020   6.352   1.188   2.596
   41SOL     OW 1021   1.728   6.714   4.543
   41SOL    HW1 1022   1.689   6.649   4.608
   41SOL    HW2 1023   1.668   6.722   4.464
   42SOL     OW 1024   3.568   0.057   6.191
   42SOL    HW1 1025   3.475   0.047   6.154
   42SOL    HW2 1026   3.572   0.013   6.280
   43SOL     OW 1027   5.489   6.264   5.951
   43SOL    HW1 1028   5.583   6.245   5.979
   43SOL    HW2 1029   5.475   6.230   5.858
   44SOL     OW 1030   0.418   2.802   6.350
   44SOL    HW1 1031   0.382   2.777   6.440
   44SOL    HW2 1032   0.379   2.890   6.322
   45SOL     OW 1033   3.151   0.922   2.009
   45SOL    HW1 1034   3.054   0.919   2.033
   45SOL    HW2 1035   3.188   1.011   2.032
   46SOL     OW 1036   1.545   3.536   4.015
   46SOL    HW1 1037   1.446   3.527   4.003
   46SOL    HW2 1038   1.585   3.445   4.027
   47SOL     OW 1039   6.251   4.135   3.520
   47SOL    HW1 1040   6.154   4.149   3.500
   47SOL    HW2 1041   6.262   4.061   3.586
   48SOL     OW 1042   0.039   2.807   4.627
   48SOL    HW1 1043   6.990   2.736   4.638
   48SOL    HW2 1044   0.060   2.848   4.716
   49SOL     OW 1045   4.639   4.113   0.780
   49SOL    HW1 1046   4.725   4.103   0.730
   49SOL    HW2 1047   4.631   4.040   0.848
   50SOL     OW 1048   6.571   3.289   4.666
   50SOL    HW1 1049   6.504   3.327   4.602
   50SOL    HW2 1050   6.659   3.335   4.652
   51SOL     OW 1051   3.399   5.091   2.627
   51SOL    HW1 1052   3.315   5.137   2.599
   51SOL    HW2 1053   3.385   5.044   2.714
   52SOL     OW 1054   2.790   1.562   2.569
   52SOL    HW1 1055   2.863   1.551   2.636
   52SOL    HW2 1056   2.811   1.508   2.487
   53SOL     OW 1057   4.969   6.669   3.798
   53SOL    HW1 1058   4.994   6.738   3.867
   53SOL    HW2 1059   4.884   6.624   3.826
   54SOL     OW 1060   2.896   5.080   5.898
   54SOL    HW1 1061   2.910   5.025   5.816
   54SOL    HW2 1062   2.969   5.149   5.904
   55SOL     OW 1063   3.730   1.626   5.855
   55SOL    HW1 1064   3.726   1.616   5.755
   55SOL    HW2 1065   3.793   1.701   5.878
   56SOL     OW 1066   1.614   0.980   2.416
   56SOL    HW1 1067   1.604   0.900   2.358
   56SOL    HW2 1068   1.524   1.023   2.429
   57SOL     OW 1069   4.855   0.956   0.696
   57SOL    HW1 1070   4.900   0.961   0.785
   57SOL    HW2 1071   4.856   1.046   0.653
   58SOL     OW 1072   0.469   6.480   6.884
   58SOL    HW1 1073   0.424   6.430   6.958
   58SOL    HW2 1074   0.485   6.574   6.913
   59SOL     OW 1075   1.655   0.608   5.889
   59SOL    HW1 1076   1.690   0.669   5.818
   59SOL    HW2 1077   1.729   0.583   5.951
   60SOL     OW 1078   4.348   0.119   5.511
   60SOL    HW1 1079   4.254   0.084   5.507
   60SOL    HW2 1080   4.349   0.205   5.563
   61SOL     OW 1081   5.241   0.136   4.099
   61SOL    HW1 1082   5.200   0.096   4.017
   61SOL    HW2 1083   5.170   0.153   4.167
   62SOL     OW 1084   1.324   0.532   4.098
   62SOL    HW1 1085   1.319   0.527   3.999
   62SOL    HW2 1086   1.328   0.628   4.127
   63SOL     OW 1087   6.717   2.373   3.450
   63SOL    HW1 1088   6.807   2.333   3.469
   63SOL    HW2 1089   6.708   2.460   3.498
   64SOL     OW 1090   6.653   3.664   6.218
   64SOL    HW1 1091   6.745   3.663   6.256
   64SOL    HW2 1092   6.631   3.756   6.184
   65SOL     OW 1093   6.632   4.772   5.014
   65SOL    HW1 1094   6.639   4.860   5.060
   65SOL    HW2 1095   6.537   4.754   4.991
   66SOL     OW 1096   3.405   0.743   6.511
   66SOL    HW1 1097   3.469   0.785   6.447
   66SOL    HW2 1098   3.451   0.673   6.564
   67SOL     OW 1099   5.831   6.118   5.334
   67SOL    HW1 1100   5.735   6.112   5.305
   67SOL    HW2 1101   5.886   6.156   5.260
   68SOL     OW 1102   6.054   1.514   6.622
   68SOL    HW1 1103   6.067   1.419   6.595
   68SOL    HW2 1104   5.975   1.521   6.683
   69SOL     OW 1105   2.083   4.399   6.147
   69SOL    HW1 1106   2.041   4.411   6.057
   69SOL    HW2 1107   2.022   4.348   6.206
   70SOL     OW 1108   6.790   5.460   2.831
   70SOL    HW1 1109   6.707   5.457   2.888
   70SOL    HW2 1110   6.765   5.484   2.738
   71SOL     OW 1111   2.519   2.562   3.240
   71SOL    HW1 1112   2.438   2.507   3.262
   71SOL    HW2 1113   2.576   2.571   3.321
   72SOL     OW 1114   3.131   5.675   4.086
   72SOL    HW1 1115   3.205   5.723   4.040
   72SOL    HW2 1116   3.168   5.601   4.141
   73SOL     OW 1117   3.183   1.638   6.712
   73SOL    HW1 1118   3.098   1.614   6.759
   73SOL    HW2 1119   3.201   1.736   6.723
   74SOL     OW 1120   5.437   6.674   6.700
   74SOL    HW1 1121   5.450   6.766   6.737
   74SOL    HW2 1122   5.453   6.606   6.772
   75SOL     OW 1123   3.341   5.641   5.343
   75SOL    HW1 1124   3.322   5.558   5.396
   75SOL    HW2 1125   3.426   5.683   5.376
   76SOL     OW 1126   2.201   2.476   1.117
   76SOL    HW1 1127   2.180   2.459   1.021
   76SOL    HW2 1128   2.147   2.414   1.174
   77SOL     OW 1129   5.308   5.273   5.122
   77SOL    HW1 1130   5.248   5.333   5.175
   77SOL    HW2 1131   5.343   5.200   5.180
   78SOL     OW 1132   6.479   6.140   6.076
   78SOL    HW1 1133   6.390   6.147   6.030
   78SOL    HW2 1134   6.542   6.087   6.019
   79SOL     OW 1135   3.264   6.876   0.842
   79SOL    HW1 1136   3.243   6.973   0.853
   79SOL    HW2 1137   3.228   6.844   0.755
   80SOL     OW 1138   6.318   0.776   5.270
   80SOL    HW1 1139   6.349   0.817   5.184
   80SOL    HW2 1140   6.298   0.849   5.335
   81SOL     OW 1141   1.998   0.925   2.748
   81SOL    HW1 1142   1.969   0.890   2.659
   81SOL    HW2 1143   2.066   0.997   2.735
   82SOL     OW 1144   6.573   5.023   6.932
   82SOL    HW1 1145   6.589   5.017   6.833
   82SOL    HW2 1146   6.637   5.089   6.972
   83SOL     OW 1147   6.766   6.612   0.522
   83SOL    HW1 1148   6.826   6.541   0.558
   83SOL    HW2 1149   6.761   6.604   0.422
   84SOL     OW 1150   5.289   3.869   2.178
   84SOL    HW1 1151   5.282   3.874   2.278
   84SOL    HW2 1152   5.233   3.793   2.145
   85SOL     OW 1153   0.555   1.561   5.083
   85SOL    HW1 1154   0.606   1.495   5.137
   85SOL    HW2 1155   0.604   1.648   5.081
   86SOL     OW 1156   0.444   0.361   5.672
   86SOL    HW1 1157   0.539   0.392   5.683
   86SOL    HW2 1158   0.387   0.402   5.743
   87SOL     OW 1159   5.017   2.930   0.367
   87SOL    HW1 1160   5.098   2.979   0.400
   87SOL    HW2 1161   5.036   2.894   0.276
   88SOL     OW 1162   5.066   1.587   0.281
   88SOL    HW1 1163   4.969   1.580   0.301
   88SOL    HW2 1164   5.108   1.497   0.287
   89SOL     OW 1165   1.485   2.513   6.479
   89SOL    HW1 1166   1.422   2.538   6.552
   89SOL    HW2 1167   1.481   2.414   6.464
   90SOL     OW 1168   5.672   6.611   3.355
   90SOL    HW1 1169   5.672   6.697   3.406
   90SOL    HW2 1170   5.765   6.592   3.322
   91SOL     OW 1171   4.682   4.492   3.963
   91SOL    HW1 1172   4.748   4.417   3.961
   91SOL    HW2 1173   4.656   4.511   4.058
   92SOL     OW 1174   3.295   5.325   0.673
   92SOL    HW1 1175   3.392   5.339   0.653
   92SOL    HW2 1176   3.280   5.228   0.695
   93SOL     OW 1177   3.192   4.679   5.822
   93SOL    HW1 1178   3.149   4.638   5.902
   93SOL    HW2 1179   3.126   4.684   5.747
   94SOL     OW 1180   3.173   5.408   7.018
   94SOL    HW1 1181   3.132   5.339   0.058
   94SOL    HW2 1182   3.161   5.499   0.037
   95SOL     OW 1183   0.375   1.065   3.387
   95SOL    HW1 1184   0.322   0.986   3.418
   95SOL    HW2 1185   0.472   1.042   3.389
   96SOL     OW 1186   2.406   0.146   5.438
   96SOL    HW1 1187   2.463   0.089   5.497
   96SOL    HW2 1188   2.461   0.223   5.403
   97SOL     OW 1189   6.275   4.026   4.311
   97SOL    HW1 1190   6.352   4.079   4.346
   97SOL    HW2 1191   6.234   3.973   4.385
   98SOL     OW 1192   5.616   2.523   6.378
   98SOL    HW1 1193   5.539   2.587   6.390
   98SOL    HW2 1194   5.656   2.502   6.468
   99SOL     OW 1195   4.189   2.930   1.084
   99SOL    HW1 1196   4.112   2.939   1.147
   99SOL    HW2 1197   4.183   3.002   1.014
  100SOL     OW 1198   0.557   6.663   6.578
  100SOL    HW1 1199   0.557   6.684   6.676
  100SOL    HW2 1200   0.496   6.586   6.560
  101SOL     OW 1201   0.711   5.880   3.308
  101SOL    HW1 1202   0.803   5.920   3.305
  101SOL    HW2 1203   0.652   5.936   3.366
  102SOL     OW 1204   4.159   0.162   3.235
  102SOL    HW1 1205   4.168   0.062   3.240
  102SOL    HW2 1206   4.107   0.195   3.314
  103SOL     OW 1207   4.058   1.548   1.804
  103SOL    HW1 1208   4.134   1.537   1.739
  103SOL    HW2 1209   4.028   1.643   1.804
  104SOL     OW 1210   6.317   5.472   2.736
  104SOL    HW1 1211   6.267   5.539   2.790
  104SOL    HW2 1212   6.360   5.405   2.797
  105SOL     OW 1213   6.694   1.147   6.815
  105SOL    HW1 1214   6.679   1.147   6.914
  105SOL    HW2 1215   6.656   1.063   6.776
  106SOL     OW 1216   2.226   6.270   6.351
  106SOL    HW1 1217   2.131   6.272   6.383
  106SOL    HW2 1218   2.246   6.179   6.314
  107SOL     OW 1219   1.594   2.504   1.253
  107SOL    HW1 1220   1.517   2.480   1.193
  107SOL    HW2 1221   1.613   2.428   1.315
  108SOL     OW 1222   4.759   4.963   0.042
  108SOL    HW1 1223   4.817   5.042   0.022
  108SOL    HW2 1224   4.681   4.963   7.000
  109SOL     OW 1225   0.447   0.359   1.098
  109SOL    HW1 1226   0.467   0.446   1.144
  109SOL    HW2 1227   0.425   0.376   1.002
  110SOL     OW 1228   3.719   5.763   5.650
  110SOL    HW1 1229   3.674   5.674   5.646
  110SOL    HW2 1230   3.804   5.755   5.702
  111SOL     OW 1231   3.786   0.608   3.970
  111SOL    HW1 1232   3.819   0.691   3.925
  111SOL    HW2 1233   3.864   0.556   4.004
  112SOL     OW 1234   5.704   6.039   5.793
  112SOL    HW1 1235   5.655   6.065   5.710
  112SOL    HW2 1236   5.639   6.012   5.864
  113SOL     OW 1237   6.688   4.715   3.586
  113SOL    HW1 1238   6.693   4.680   3.680
  113SOL    HW2 1239   6.617   4.665   3.536
  114SOL     OW 1240   0.296   6.837   0.598
  114SOL    HW1 1241   0.210   6.791   0.577
  114SOL    HW2 1242   0.277   6.922   0.647
  115SOL     OW 1243   5.288   1.047   4.194
  115SOL    HW1 1244   5.242   1.073   4.279
  115SOL    HW2 1245   5.306   1.129   4.139
  116SOL     OW 1246   6.130   4.478   2.204
  116SOL    HW1 1247   6.068   4.526   2.266
  116SOL    HW2 1248   6.224   4.492   2.234
  117SOL     OW 1249   0.618   0.922   6.238
  117SOL    HW1 1250   0.601   1.016   6.269
  117SOL    HW2 1251   0.702   0.888   6.278
  118SOL     OW 1252   0.594   1.317   1.706
  118SOL    HW1 1253   0.618   1.230   1.663
  118SOL    HW2 1254   0.536   1.370   1.645
  119SOL     OW 1255   6.990   2.189   6.194
  119SOL    HW1 1256   6.928   2.110   6.189
  119SOL    HW2 1257   6.936   2.272   6.209
  120SOL     OW 1258   5.965   0.378   0.783
  120SOL    HW1 1259   6.023   0.378   0.702
  120SOL    HW2 1260   6.020   0.403   0.863
  121SOL     OW 1261   2.399   3.344   6.742
  121SOL    HW1 1262   2.384   3.275   6.812
  121SOL    HW2 1263   2.335   3.329   6.666
  122SOL     OW 1264   1.507   3.946   4.873
  122SOL    HW1 1265   1.456   4.015   4.924
  122SOL    HW2 1266   1.445   3.877   4.837
  123SOL     OW 1267   0.099   2.050   1.114
  123SOL    HW1 1268   0.061   2.138   1.140
  123SOL    HW2 1269   0.026   1.990   1.081
  124SOL     OW 1270   4.903   3.864   0.387
  124SOL    HW1 1271   4.885   3.768   0.408
  124SOL    HW2 1272   4.993   3.890   0.421
  125SOL     OW 1273   1.805   1.593   2.485
  125SOL    HW1 1274   1.791   1.674   2.428
  125SOL    HW2 1275   1.901   1.586   2.510
  126SOL     OW 1276   2.962   4.188   0.931
  126SOL    HW1 1277   2.982   4.094   0.958
  126SOL    HW2 1278   2.864   4.205   0.938
  127SOL     OW 1279   6.711   4.847   6.300
  127SOL    HW1 1280   6.762   4.905   6.237
  127SOL    HW2 1281   6.738   4.751   6.286
  128SOL     OW 1282   4.570   2.668   1.552
  128SOL    HW1 1283   4.604   2.727   1.625
  128SOL    HW2 1284   4.619   2.581   1.554
  129SOL     OW 1285   3.556   3.345   6.321
  129SOL    HW1 1286   3.500   3.396   6.386
  129SOL    HW2 1287   3.627   3.405   6.284
  130SOL     OW 1288   1.486   0.837   4.396
  130SOL    HW1 1289   1.518   0.767   4.460
  130SOL    HW2 1290   1.451   0.915   4.446
  131SOL     OW 1291   4.940   1.334   3.377
  131SOL    HW1 1292   5.029   1.380   3.378
  131SOL    HW2 1293   4.938   1.267   3.302
  132SOL     OW 1294   1.451   3.102   1.283
  132SOL    HW1 1295   1.365   3.128   1.327
  132SOL    HW2 1296   1.439   3.103   1.184
  133SOL     OW 1297   5.392   6.565   2.676
  133SOL    HW1 1298   5.301   6.528   2.695
  133SOL    HW2 1299   5.427   6.610   2.758
  134SOL     OW 1300   5.971   2.459   3.122
  134SOL    HW1 1301   6.008   2.483   3.212
  134SOL    HW2 1302   5.927   2.369   3.127
  135SOL     OW 1303   5.180   1.863   3.486
  135SOL    HW1 1304   5.238   1.821   3.556
  135SOL    HW2 1305   5.237   1.892   3.409
  136SOL     OW 1306   5.414   4.348   5.762
  136SOL    HW1 1307   5.419   4.428   5.702
  136SOL    HW2 1308   5.363   4.371   5.844
  137SOL     OW 1309   4.964   6.832   5.306
  137SOL    HW1 1310   5.021   6.790   5.377
  137SOL    HW2 1311   4.970   6.779   5.222
  138SOL     OW 1312   0.539   5.009   4.397
  138SOL    HW1 1313   0.440   4.995   4.392
  138SOL    HW2 1314   0.576   5.014   4.304
  139SOL     OW 1315   2.366   5.382   5.055
  139SOL    HW1 1316   2.295   5.451   5.048
  139SOL    HW2 1317   2.442   5.418   5.110
  140SOL     OW 1318   6.084   5.271   4.383
  140SOL    HW1 1319   6.030   5.276   4.468
  140SOL    HW2 1320   6.180   5.258   4.406
  141SOL     OW 1321   0.697   1.792   5.092
  141SOL    HW1 1322   0.759   1.762   5.165
  141SOL    HW2 1323   0.671   1.888   5.108
  142SOL     OW 1324   1.669   6.143   1.763
  142SOL    HW1 1325   1.719   6.216   1.810
  142SOL    HW2 1326   1.705   6.133   1.670
  143SOL     OW 1327   5.481   4.534   2.315
  143SOL    HW1 1328   5.504   4.456   2.256
  143SOL    HW2 1329   5.401   4.581   2.278
  144SOL     OW 1330   1.231   6.658   6.292
  144SOL    HW1 1331   1.247   6.595   6.216
  144SOL    HW2 1332   1.151   6.629   6.344
  145SOL     OW 1333   0.936   5.597   0.676
  145SOL    HW1 1334   0.997   5.537   0.727
  145SOL    HW2 1335   0.978   5.619   0.588
  146SOL     OW 1336   4.923   6.796   0.157
  146SOL    HW1 1337   5.016   6.773   0.129
  146SOL    HW2 1338   4.920   6.809   0.256
  147SOL     OW 1339   6.522   2.753   0.495
  147SOL    HW1 1340   6.465   2.814   0.439
  147SOL    HW2 1341   6.613   2.747   0.455
  148SOL     OW 1342   0.363   5.316   5.045
  148SOL    HW1 1343   0.367   5.337   5.142
  148SOL    HW2 1344   0.298   5.243   5.028
  149SOL     OW 1345   3.252   1.136   4.082
  149SOL    HW1 1346   3.177   1.147   4.016
  149SOL    HW2 1347   3.261   1.220   4.136
  150SOL     OW 1348   7.006   4.995   6.509
  150SOL    HW1 1349   7.002   4.926   6.436
  150SOL    HW2 1350   6.940   5.067   6.490
  151SOL     OW 1351   3.519   1.694   1.371
  151SOL    HW1 1352   3.483   1.602   1.381
  151SOL    HW2 1353   3.598   1.693   1.309
  152SOL     OW 1354   2.593   0.585   4.612
  152SOL    HW1 1355   2.652   0.663   4.592
  152SOL    HW2 1356   2.535   0.606   4.691
  153SOL     OW 1357   2.314   0.135   2.263
  153SOL    HW1 1358   2.341   0.207   2.199
  153SOL    HW2 1359   2.221   0.153   2.295
  154SOL     OW 1360   0.103   3.031   1.840
  154SOL    HW1 1361   0.143   2.942   1.822
  154SOL    HW2 1362   0.131   3.095   1.769
  155SOL     OW 1363   0.295   1.340   3.369
  155SOL    HW1 1364   0.373   1.381   3.321
  155SOL    HW2 1365   0.304   1.240   3.367
  156SOL     OW 1366   6.124   1.748   1.358
  156SOL    HW1 1367   6.033   1.770   1.322
  156SOL    HW2 1368   6.173   1.833   1.378
  157SOL     OW 1369   6.195   3.054   2.222
  157SOL    HW1 1370   6.167   3.122   2.154
  157SOL    HW2 1371   6.288   3.073   2.252
  158SOL     OW 1372   3.302   0.610   2.690
  158SOL    HW1 1373   3.288   0.671   2.611
  158SOL    HW2 1374   3.253   0.647   2.769
  159SOL     OW 1375   4.819   4.492   1.691
  159SOL    HW1 1376   4.829   4.569   1.628
  159SOL    HW2 1377   4.724   4.462   1.692
  160SOL     OW 1378   6.887   4.672   6.785
  160SOL    HW1 1379   6.844   4.691   6.873
  160SOL    HW2 1380   6.836   4.717   6.712
  161SOL     OW 1381   2.197   4.794   4.947
  161SOL    HW1 1382   2.202   4.748   4.859
  161SOL    HW2 1383   2.101   4.804   4.974
  162SOL     OW 1384   4.403   6.008   0.406
  162SOL    HW1 1385   4.306   6.024   0.387
  162SOL    HW2 1386   4.458   6.074   0.356
  163SOL     OW 1387   3.881   6.022   1.740
  163SOL    HW1 1388   3.905   6.100   1.682
  163SOL    HW2 1389   3.791   5.987   1.712
  164SOL     OW 1390   6.717   4.233   1.160
  164SOL    HW1 1391   6.793   4.268   1.106
  164SOL    HW2 1392   6.747   4.154   1.213
  165SOL     OW 1393   4.773   3.418   7.010
  165SOL    HW1 1394   4.684   3.374   7.005
  165SOL    HW2 1395   4.772   3.487   0.063
  166SOL     OW 1396   0.367   5.997   3.380
  166SOL    HW1 1397   0.426   6.012   3.460
  166SOL    HW2 1398   0.282   6.049   3.391
  167SOL     OW 1399   6.000   2.609   0.086
  167SOL    HW1 1400   5.948   2.556   0.152
  167SOL    HW2 1401   6.002   2.560   7.019
  168SOL     OW 1402   2.701   4.205   0.911
  168SOL    HW1 1403   2.650   4.119   0.900
  168SOL    HW2 1404   2.656   4.262   0.979
  169SOL     OW 1405   3.018   0.144   1.925
  169SOL    HW1 1406   3.049   0.220   1.868
  169SOL    HW2 1407   2.921   0.157   1.948
  170SOL     OW 1408   0.134   2.062   3.871
  170SOL    HW1 1409   0.158   1.969   3.845
  170SOL    HW2 1410   0.152   2.075   3.968
  171SOL     OW 1411   3.424   3.719   0.602
  171SOL    HW1 1412   3.345   3.682   0.554
  171SOL    HW2 1413   3.421   3.689   0.698
  172SOL     OW 1414   6.535   1.887   4.991
  172SOL    HW1 1415   6.526   1.788   4.978
  172SOL    HW2 1416   6.628   1.908   5.021
  173SOL     OW 1417   6.877   6.680   4.488
  173SOL    HW1 1418   6.835   6.766   4.516
  173SOL    HW2 1419   6.806   6.615   4.461
  174SOL     OW 1420   2.520   5.371   3.502
  174SOL    HW1 1421   2.549   5.321   3.583
  174SOL    HW2 1422   2.596   5.424   3.466
  175SOL     OW 1423   1.874   6.583   1.937
  175SOL    HW1 1424   1.812   6.649   1.981
  175SOL    HW2 1425   1.934   6.632   1.874
  176SOL     OW 1426   2.057   4.041   1.391
  176SOL    HW1 1427   2.122   4.088   1.332
  176SOL    HW2 1428   1.989   3.993   1.336
  177SOL     OW 1429   5.434   2.410   3.407
  177SOL    HW1 1430   5.512   2.439   3.352
  177SOL    HW2 1431   5.409   2.316   3.382
  178SOL     OW 1432   4.883   4.321   6.383
  178SOL    HW1 1433   4.877   4.393   6.313
  178SOL    HW2 1434   4.919   4.360   6.468
  179SOL     OW 1435   2.478   0.573   0.399
  179SOL    HW1 1436   2.500   0.502   0.332
  179SOL    HW2 1437   2.541   0.566   0.476
  180SOL     OW 1438   1.038   1.209   6.902
  180SOL    HW1 1439   1.052   1.259   6.816
  180SOL    HW2 1440   0.955   1.153   6.895
  181SOL     OW 1441   3.366   1.923   6.624
  181SOL    HW1 1442   3.417   1.995   6.576
  181SOL    HW2 1443   3.382   1.835   6.578
  182SOL     OW 1444   4.286   2.028   4.383
  182SOL    HW1 1445   4.320   2.122   4.390
  182SOL    HW2 1446   4.259   1.995   4.473
  183SOL     OW 1447   4.181   0.951   1.955
  183SOL    HW1 1448   4.093   0.930   1.912
  183SOL    HW2 1449   4.253   0.896   1.913
  184SOL     OW 1450   1.394   5.707   3.629
  184SOL    HW1 1451   1.409   5.803   3.605
  184SOL    HW2 1452   1.448   5.648   3.569
  185SOL     OW 1453   1.285   3.609   6.802
  185SOL    HW1 1454   1.230   3.630   6.883
  185SOL    HW2 1455   1.271   3.681   6.733
  186SOL     OW 1456   6.051   0.232   3.188
  186SOL    HW1 1457   6.102   0.271   3.266
  186SOL    HW2 1458   6.096   0.259   3.103
  187SOL     OW 1459   5.790   1.037   4.163
  187SOL    HW1 1460   5.691   1.048   4.163
  187SOL    HW2 1461   5.831   1.104   4.226
  188SOL     OW 1462   5.603   2.070   3.496
  188SOL    HW1 1463   5.649   2.159   3.501
  188SOL    HW2 1464   5.511   2.083   3.458
  189SOL     OW 1465   2.152   5.728   2.823
  189SOL    HW1 1466   2.193   5.819   2.827
  189SOL    HW2 1467   2.207   5.665   2.878
  190SOL     OW 1468   3.754   1.136   5.098
  190SOL    HW1 1469   3.853   1.148   5.088
  190SOL    HW2 1470   3.730   1.141   5.195
  191SOL     OW 1471   6.091   5.700   6.166
  191SOL    HW1 1472   6.178   5.727   6.126
  191SOL    HW2 1473   6.106   5.636   6.241
  192SOL     OW 1474   6.745   6.859   2.174
  192SOL    HW1 1475   6.674   6.823   2.114
  192SOL    HW2 1476   6.704   6.919   2.242
  193SOL     OW 1477   5.059   2.887   6.275
  193SOL    HW1 1478   5.089   2.805   6.323
  193SOL    HW2 1479   4.990   2.935   6.329
  194SOL     OW 1480   3.621   0.707   3.044
  194SOL    HW1 1481   3.623   0.803   3.072
  194SOL    HW2 1482   3.592   0.700   2.949
  195SOL     OW 1483   1.945   5.485   3.536
  195SOL    HW1 1484   1.945   5.421   3.459
  195SOL    HW2 1485   1.852   5.501   3.566
  196SOL     OW 1486   1.672   2.201   6.758
  196SOL    HW1 1487   1.609   2.279   6.756
  196SOL    HW2 1488   1.737   2.208   6.683
  197SOL     OW 1489   2.197   1.422   1.060
  197SOL    HW1 1490   2.134   1.498   1.045
  197SOL    HW2 1491   2.208   1.407   1.158
  198SOL     OW 1492   4.490   1.128   3.364
  198SOL    HW1 1493   4.462   1.182   3.444
  198SOL    HW2 1494   4.501   1.188   3.285
  199SOL     OW 1495   1.270   2.579   4.478
  199SOL    HW1 1496   1.337   2.512   4.450
  199SOL    HW2 1497   1.264   2.581   4.578
  200SOL     OW 1498   0.282   2.563   0.634
  200SOL    HW1 1499   0.294   2.508   0.716
  200SOL    HW2 1500   0.297   2.506   0.553
  201SOL     OW 1501   0.706   0.472   5.702
  201SOL    HW1 1502   0.804   0.477   5.686
  201SOL    HW2 1503   0.680   0.539   5.772
  202SOL     OW 1504   4.565   0.153   6.049
  202SOL    HW1 1505   4.534   0.064   6.016
  202SOL    HW2 1506   4.617   0.141   6.134
  203SOL     OW 1507   5.721   2.962   5.427
  203SOL    HW1 1508   5.713   2.993   5.333
  203SOL    HW2 1509   5.677   2.873   5.437
  204SOL     OW 1510   0.489   0.096   5.664
  204SOL    HW1 1511   0.468   0.193   5.653
  204SOL    HW2 1512   0.551   0.066   5.591
  205SOL     OW 1513   1.034   2.698   2.193
  205SOL    HW1 1514   1.059   2.613   2.147
  205SOL    HW2 1515   0.935   2.708   2.192
  206SOL     OW 1516   0.376   3.352   1.287
  206SOL    HW1 1517   0.307   3.390   1.226
  206SOL    HW2 1518   0.396   3.258   1.260
  207SOL     OW 1519   4.810   2.140   3.110
  207SOL    HW1 1520   4.769   2.057   3.149
  207SOL    HW2 1521   4.742   2.186   3.052
  208SOL     OW 1522   0.741   4.106   5.109
  208SOL    HW1 1523   0.708   4.075   5.020
  208SOL    HW2 1524   0.672   4.085   5.179
  209SOL     OW 1525   6.583   4.315   2.651
  209SOL    HW1 1526   6.505   4.371   2.623
  209SOL    HW2 1527   6.554   4.252   2.723
  210SOL     OW 1528   4.560   2.441   0.268
  210SOL    HW1 1529   4.593   2.532   0.243
  210SOL    HW2 1530   4.626   2.397   0.329
  211SOL     OW 1531   1.880   0.536   3.249
  211SOL    HW1 1532   1.822   0.596   3.304
  211SOL    HW2 1533   1.886   0.446   3.292
  212SOL     OW 1534   1.236   3.536   3.039
  212SOL    HW1 1535   1.151   3.572   2.999
  212SOL    HW2 1536   1.300   3.512   2.966
  213SOL     OW 1537   1.663   5.432   1.410
  213SOL    HW1 1538   1.685   5.466   1.318
  213SOL    HW2 1539   1.691   5.336   1.418
  214SOL     OW 1540   4.344   5.554   2.392
  214SOL    HW1 1541   4.386   5.469   2.361
  214SOL    HW2 1542   4.361   5.566   2.490
  215SOL     OW 1543   1.994   5.191   1.929
  215SOL    HW1 1544   2.087   5.159   1.916
  215SOL    HW2 1545   1.941   5.123   1.979
  216SOL     OW 1546   1.565   0.263   2.764
  216SOL    HW1 1547   1.661   0.270   2.736
  216SOL    HW2 1548   1.526   0.354   2.776
  217SOL     OW 1549   1.081   3.397   5.728
  217SOL    HW1 1550   1.028   3.479   5.745
  217SOL    HW2 1551   1.124   3.367   5.814
  218SOL     OW 1552   0.915   2.319   5.334
  218SOL    HW1 1553   0.912   2.401   5.276
  218SOL    HW2 1554   0.957   2.244   5.284
  219SOL     OW 1555   3.589   0.536   0.316
  219SOL    HW1 1556   3.642   0.593   0.378
  219SOL    HW2 1557   3.648   0.501   0.244
  220SOL     OW 1558   3.291   0.150   1.119
  220SOL    HW1 1559   3.284   0.239   1.074
  220SOL    HW2 1560   3.203   0.102   1.114
  221SOL     OW 1561   5.448   5.662   1.175
  221SOL    HW1 1562   5.545   5.662   1.147
  221SOL    HW2 1563   5.432   5.588   1.240
  222SOL     OW 1564   1.861   4.423   6.648
  222SOL    HW1 1565   1.843   4.509   6.600
  222SOL    HW2 1566   1.943   4.432   6.704
  223SOL     OW 1567   6.851   2.677   5.140
  223SOL    HW1 1568   6.795   2.644   5.064
  223SOL    HW2 1569   6.804   2.658   5.226
  224SOL     OW 1570   2.479   1.933   5.962
  224SOL    HW1 1571   2.448   2.024   5.989
  224SOL    HW2 1572   2.425   1.901   5.885
  225SOL     OW 1573   4.864   3.712   6.086
  225SOL    HW1 1574   4.806   3.758   6.019
  225SOL    HW2 1575   4.924   3.779   6.130
  226SOL     OW 1576   1.021   1.617   6.491
  226SOL    HW1 1577   0.932   1.629   6.535
  226SOL    HW2 1578   1.023   1.669   6.406
  227SOL     OW 1579   1.984   4.140   2.337
  227SOL    HW1 1580   2.082   4.123   2.345
  227SOL    HW2 1581   1.935   4.053   2.331
  228SOL     OW 1582   1.583   0.737   2.812
  228SOL    HW1 1583   1.547   0.829   2.796
  228SOL    HW2 1584   1.644   0.738   2.891
  229SOL     OW 1585   5.308   4.652   6.779
  229SOL    HW1 1586   5.361   4.663   6.695
  229SOL    HW2 1587   5.356   4.592   6.842
  230SOL     OW 1588   4.334   6.141   4.629
  230SOL    HW1 1589   4.257   6.077   4.631
  230SOL    HW2 1590   4.419   6.091   4.612
  231SOL     OW 1591   5.319   1.372   0.015
  231SOL    HW1 1592   5.257   1.308   6.989
  231SOL    HW2 1593   5.411   1.334   0.016
  232SOL     OW 1594   0.694   2.639   6.079
  232SOL    HW1 1595   0.720   2.564   6.140
  232SOL    HW2 1596   0.695   2.725   6.130
  233SOL     OW 1597   3.188   1.452   3.672
  233SOL    HW1 1598   3.233   1.390   3.737
  233SOL    HW2 1599   3.251   1.473   3.598
  234SOL     OW 1600   5.669   1.156   6.149
  234SOL    HW1 1601   5.664   1.249   6.112
  234SOL    HW2 1602   5.583   1.134   6.194
  235SOL     OW 1603   4.939   3.373   2.378
  235SOL    HW1 1604   4.923   3.295   2.318
  235SOL    HW2 1605   5.024   3.361   2.428
  236SOL     OW 1606   4.323   3.285   6.696
  236SOL    HW1 1607   4.397   3.322   6.639
  236SOL    HW2 1608   4.239   3.283   6.643
  237SOL     OW 1609   6.509   3.938   2.701
  237SOL    HW1 1610   6.494   3.971   2.608
  237SOL    HW2 1611   6.507   4.016   2.765
  238SOL     OW 1612   6.385   1.412   0.352
  238SOL    HW1 1613   6.358   1.318   0.330
  238SOL    HW2 1614   6.341   1.440   0.437
  239SOL     OW 1615   1.335   4.233   0.533
  239SOL    HW1 1616   1.340   4.330   0.510
  239SOL    HW2 1617   1.405   4.211   0.601
  240SOL     OW 1618   6.538   3.630   2.960
  240SOL    HW1 1619   6.465   3.576   3.003
  240SOL    HW2 1620   6.552   3.714   3.013
  241SOL     OW 1621   2.593   1.605   3.914
  241SOL    HW1 1622   2.512   1.647   3.873
  241SOL    HW2 1623   2.675   1.650   3.878
  242SOL     OW 1624   3.371   3.890   3.537
  242SOL    HW1 1625   3.440   3.848   3.596
  242SOL    HW2 1626   3.375   3.848   3.446
  243SOL     OW 1627   4.680   2.401   6.952
  243SOL    HW1 1628   4.698   2.498   6.969
  243SOL    HW2 1629   4.602   2.392   6.891
  244SOL     OW 1630   5.961   3.350   6.574
  244SOL    HW1 1631   5.999   3.404   6.650
  244SOL    HW2 1632   5.952   3.254   6.603
  245SOL     OW 1633   3.358   1.796   3.607
  245SOL    HW1 1634   3.294   1.819   3.681
  245SOL    HW2 1635   3.308   1.758   3.530
  246SOL     OW 1636   5.701   1.639   3.511
  246SOL    HW1 1637   5.715   1.732   3.479
  246SOL    HW2 1638   5.786   1.605   3.553
  247SOL     OW 1639   2.368   1.997   0.573
  247SOL    HW1 1640   2.467   1.992   0.565
  247SOL    HW2 1641   2.329   1.905   0.567
  248SOL     OW 1642   2.468   1.356   2.409
  248SOL    HW1 1643   2.516   1.335   2.494
  248SOL    HW2 1644   2.387   1.298   2.401
  249SOL     OW 1645   5.257   6.974   5.058
  249SOL    HW1 1646   5.170   6.973   5.010
  249SOL    HW2 1647   5.248   0.002   5.145
  250SOL     OW 1648   3.564   2.653   1.006
  250SOL    HW1 1649   3.530   2.559   1.009
  250SOL    HW2 1650   3.487   2.715   0.989
  251SOL     OW 1651   4.630   3.623   5.601
  251SOL    HW1 1652   4.644   3.690   5.528
  251SOL    HW2 1653   4.704   3.556   5.599
  252SOL     OW 1654   6.125   6.606   5.738
  252SOL    HW1 1655   6.134   6.705   5.735
  252SOL    HW2 1656   6.040   6.578   5.693
  253SOL     OW 1657   4.205   4.993   5.658
  253SOL    HW1 1658   4.113   5.008   5.694
  253SOL    HW2 1659   4.210   4.902   5.617
  254SOL     OW 1660   6.899   2.865   4.253
  254SOL    HW1 1661   6.839   2.860   4.173
  254SOL    HW2 1662   6.981   2.918   4.229
  255SOL     OW 1663   1.474   4.571   6.000
  255SOL    HW1 1664   1.491   4.475   5.977
  255SOL    HW2 1665   1.561   4.617   6.019
  256SOL     OW 1666   4.876   2.902   5.999
  256SOL    HW1 1667   4.898   2.912   6.096
  256SOL    HW2 1668   4.960   2.901   5.946
  257SOL     OW 1669   4.987   6.248   2.707
  257SOL    HW1 1670   4.968   6.275   2.613
  257SOL    HW2 1671   5.069   6.190   2.709
  258SOL     OW 1672   2.682   3.898   5.752
  258SOL    HW1 1673   2.642   3.980   5.793
  258SOL    HW2 1674   2.623   3.865   5.677
  259SOL     OW 1675   4.620   0.641   2.352
  259SOL    HW1 1676   4.609   0.732   2.310
  259SOL    HW2 1677   4.594   0.646   2.448
  260SOL     OW 1678   4.037   4.876   3.194
  260SOL    HW1 1679   3.988   4.950   3.148
  260SOL    HW2 1680   4.054   4.802   3.128
  261SOL     OW 1681   5.199   4.984   0.973
  261SOL    HW1 1682   5.124   5.049   0.983
  261SOL    HW2 1683   5.218   4.971   0.876
  262SOL     OW 1684   2.043   3.619   1.233
  262SOL    HW1 1685   2.067   3.642   1.327
  262SOL    HW2 1686   2.112   3.657   1.171
  263SOL     OW 1687   1.131   0.063   4.007
  263SOL    HW1 1688   1.102   0.018   3.923
  263SOL    HW2 1689   1.224   0.096   3.997
  264SOL     OW 1690   6.948   2.792   0.126
  264SOL    HW1 1691   6.987   2.819   0.214
  264SOL    HW2 1692   6.872   2.729   0.141
  265SOL     OW 1693   6.290   6.789   3.692
  265SOL    HW1 1694   6.208   6.810   3.639
  265SOL    HW2 1695   6.333   6.706   3.656
  266SOL     OW 1696   5.180   2.471   5.885
  266SOL    HW1 1697   5.120   2.420   5.822
  266SOL    HW2 1698   5.275   2.442   5.872
  267SOL     OW 1699   1.080   0.883   4.970
  267SOL    HW1 1700   1.109   0.936   5.050
  267SOL    HW2 1701   1.082   0.942   4.889
  268SOL     OW 1702   4.228   1.065   6.649
  268SOL    HW1 1703   4.171   0.991   6.684
  268SOL    HW2 1704   4.172   1.145   6.630
  269SOL     OW 1705   3.105   1.932   0.100
  269SOL    HW1 1706   3.116   1.915   0.002
  269SOL    HW2 1707   3.171   2.001   0.129
  270SOL     OW 1708   0.596   6.731   6.879
  270SOL    HW1 1709   0.695   6.740   6.878
  270SOL    HW2 1710   0.560   6.770   6.964
  271SOL     OW 1711   0.351   1.290   6.295
  271SOL    HW1 1712   0.328   1.312   6.200
  271SOL    HW2 1713   0.288   1.338   6.356
  272SOL     OW 1714   3.358   5.735   4.351
  272SOL    HW1 1715   3.379   5.662   4.417
  272SOL    HW2 1716   3.395   5.711   4.262
  273SOL     OW 1717   1.579   4.917   5.877
  273SOL    HW1 1718   1.518   4.913   5.798
  273SOL    HW2 1719   1.661   4.968   5.853
  274SOL     OW 1720   3.821   0.905   3.941
  274SOL    HW1 1721   3.881   0.985   3.936
  274SOL    HW2 1722   3.739   0.920   3.887
  275SOL     OW 1723   0.079   6.593   2.562
  275SOL    HW1 1724   0.176   6.605   2.584
  275SOL    HW2 1725   0.070   6.543   2.476
  276SOL     OW 1726   0.389   6.996   4.246
  276SOL    HW1 1727   0.461   6.927   4.249
  276SOL    HW2 1728   0.322   6.978   4.319
  277SOL     OW 1729   1.908   2.927   0.567
  277SOL    HW1 1730   1.966   2.986   0.624
  277SOL    HW2 1731   1.860   2.861   0.625
  278SOL     OW 1732   0.266   3.075   2.999
  278SOL    HW1 1733   0.255   3.169   3.031
  278SOL    HW2 1734   0.267   3.073   2.900
  279SOL     OW 1735   5.727   2.759   4.633
  279SOL    HW1 1736   5.732   2.740   4.535
  279SOL    HW2 1737   5.807   2.719   4.678
  280SOL     OW 1738   1.943   5.460   1.721
  280SOL    HW1 1739   1.901   5.436   1.808
  280SOL    HW2 1740   1.974   5.555   1.724
  281SOL     OW 1741   2.306   3.895   1.799
  281SOL    HW1 1742   2.232   3.920   1.738
  281SOL    HW2 1743   2.282   3.920   1.893
  282SOL     OW 1744   3.319   1.515   5.934
  282SOL    HW1 1745   3.252   1.579   5.972
  282SOL    HW2 1746   3.306   1.508   5.835
  283SOL     OW 1747   5.349   2.572   6.534
  283SOL    HW1 1748   5.350   2.472   6.540
  283SOL    HW2 1749   5.258   2.603   6.508
  284SOL     OW 1750   0.768   3.680   3.499
  284SOL    HW1 1751   0.714   3.731   3.432
  284SOL    HW2 1752   0.745   3.583   3.493
  285SOL     OW 1753   5.705   4.434   4.060
  285SOL    HW1 1754   5.617   4.396   4.033
  285SOL    HW2 1755   5.769   4.426   3.984
  286SOL     OW 1756   3.321   3.862   7.011
  286SOL    HW1 1757   3.417   3.845   6.985
  286SOL    HW2 1758   3.263   3.790   6.974
  287SOL     OW 1759   1.622   3.717   0.579
  287SOL    HW1 1760   1.644   3.644   0.515
  287SOL    HW2 1761   1.696   3.784   0.581
  288SOL     OW 1762   4.362   1.493   0.103
  288SOL    HW1 1763   4.409   1.581   0.097
  288SOL    HW2 1764   4.309   1.478   0.019
  289SOL     OW 1765   1.973   4.725   5.860
  289SOL    HW1 1766   1.958   4.801   5.797
  289SOL    HW2 1767   2.055   4.743   5.915
  290SOL     OW 1768   0.348   2.005   5.451
  290SOL    HW1 1769   0.251   1.983   5.452
  290SOL    HW2 1770   0.391   1.971   5.535
  291SOL     OW 1771   0.526   1.475   3.284
  291SOL    HW1 1772   0.579   1.475   3.369
  291SOL    HW2 1773   0.528   1.566   3.243
  292SOL     OW 1774   2.325   0.524   3.415
  292SOL    HW1 1775   2.378   0.609   3.413
  292SOL    HW2 1776   2.309   0.493   3.321
  293SOL     OW 1777   4.601   5.297   4.016
  293SOL    HW1 1778   4.696   5.300   3.983
  293SOL    HW2 1779   4.596   5.236   4.095
  294SOL     OW 1780   5.520   6.452   6.460
  294SOL    HW1 1781   5.458   6.510   6.406
  294SOL    HW2 1782   5.612   6.456   6.420
  295SOL     OW 1783   5.299   0.673   3.863
  295SOL    HW1 1784   5.257   0.661   3.773
  295SOL    HW2 1785   5.232   0.713   3.926
  296SOL     OW 1786   3.046   1.531   2.698
  296SOL    HW1 1787   3.119   1.463   2.687
  296SOL    HW2 1788   3.070   1.593   2.772
  297SOL     OW 1789   1.609   3.664   3.181
  297SOL    HW1 1790   1.556   3.742   3.148
  297SOL    HW2 1791   1.701   3.694   3.205
  298SOL     OW 1792   6.345   5.523   0.789
  298SOL    HW1 1793   6.280   5.599   0.794
  298SOL    HW2 1794   6.417   5.537   0.857
  299SOL     OW 1795   6.301   2.784   5.105
  299SOL    HW1 1796   6.218   2.797   5.052
  299SOL    HW2 1797   6.355   2.868   5.105
  300SOL     OW 1798   6.146   0.995   3.370
  300SOL    HW1 1799   6.136   1.043   3.283
  300SOL    HW2 1800   6.220   0.929   3.362
  301SOL     OW 1801   5.665   3.381   6.706
  301SOL    HW1 1802   5.668   3.430   6.793
  301SOL    HW2 1803   5.729   3.423   6.641
  302SOL     OW 1804   0.775   0.328   3.998
  302SOL    HW1 1805   0.872   0.317   4.020
  302SOL    HW2 1806   0.755   0.277   3.914
  303SOL     OW 1807   5.006   0.801   3.483
  303SOL    HW1 1808   5.047   0.783   3.394
  303SOL    HW2 1809   5.001   0.716   3.536
  304SOL     OW 1810   2.276   0.012   3.432
  304SOL    HW1 1811   2.275   6.935   3.415
  304SOL    HW2 1812   2.341   0.032   3.506
  305SOL     OW 1813   1.246   4.114   0.298
  305SOL    HW1 1814   1.155   4.136   0.264
  305SOL    HW2 1815   1.267   4.170   0.378
  306SOL     OW 1816   2.272   0.909   4.125
  306SOL    HW1 1817   2.192   0.855   4.149
  306SOL    HW2 1818   2.280   0.986   4.188
  307SOL     OW 1819   4.237   0.068   1.106
  307SOL    HW1 1820   4.329   0.063   1.144
  307SOL    HW2 1821   4.176   0.113   1.171
  308SOL     OW 1822   0.918   6.139   3.132
  308SOL    HW1 1823   0.984   6.187   3.074
  308SOL    HW2 1824   0.967   6.074   3.190
  309SOL     OW 1825   3.607   4.703   5.359
  309SOL    HW1 1826   3.676   4.750   5.303
  309SOL    HW2 1827   3.518   4.746   5.346
  310SOL     OW 1828   0.048   6.424   5.575
  310SOL    HW1 1829   0.101   6.348   5.613
  310SOL    HW2 1830   0.006   6.396   5.489
  311SOL     OW 1831   0.561   6.055   1.740
  311SOL    HW1 1832   0.651   6.017   1.763
  311SOL    HW2 1833   0.538   6.128   1.804
  312SOL     OW 1834   4.895   1.877   5.324
  312SOL    HW1 1835   4.873   1.938   5.247
  312SOL    HW2 1836   4.909   1.932   5.406
  313SOL     OW 1837   1.712   4.043   2.055
  313SOL    HW1 1838   1.773   4.077   1.983
  313SOL    HW2 1839   1.731   3.946   2.072
  314SOL     OW 1840   3.546   5.711   0.399
  314SOL    HW1 1841   3.627   5.750   0.443
  314SOL    HW2 1842   3.468   5.716   0.463
  315SOL     OW 1843   0.742   2.384   3.409
  315SOL    HW1 1844   0.694   2.459   3.362
  315SOL    HW2 1845   0.810   2.422   3.471
  316SOL     OW 1846   2.328   2.864   3.831
  316SOL    HW1 1847   2.341   2.791   3.899
  316SOL    HW2 1848   2.398   2.857   3.761
  317SOL     OW 1849   6.800   1.748   7.018
  317SOL    HW1 1850   6.726   1.797   0.043
  317SOL    HW2 1851   6.848   1.691   0.064
  318SOL     OW 1852   2.239   3.765   1.020
  318SOL    HW1 1853   2.225   3.828   0.943
  318SOL    HW2 1854   2.300   3.808   1.086
  319SOL     OW 1855   1.744   6.259   0.855
  319SOL    HW1 1856   1.779   6.345   0.892
  319SOL    HW2 1857   1.663   6.231   0.907
  320SOL     OW 1858   6.293   3.075   0.725
  320SOL    HW1 1859   6.354   3.124   0.788
  320SOL    HW2 1860   6.306   2.977   0.735
  321SOL     OW 1861   2.334   2.874   1.389
  321SOL    HW1 1862   2.368   2.872   1.296
  321SOL    HW2 1863   2.374   2.952   1.437
  322SOL     OW 1864   3.735   3.068   5.440
  322SOL    HW1 1865   3.673   3.146   5.438
  322SOL    HW2 1866   3.718   3.009   5.361
  323SOL     OW 1867   6.936   4.278   1.022
  323SOL    HW1 1868   6.993   4.292   1.103
  323SOL    HW2 1869   6.952   4.352   0.957
  324SOL     OW 1870   1.329   2.935   4.801
  324SOL    HW1 1871   1.321   3.009   4.734
  324SOL    HW2 1872   1.379   2.967   4.881
  325SOL     OW 1873   2.026   2.852   2.049
  325SOL    HW1 1874   2.089   2.816   1.981
  325SOL    HW2 1875   1.933   2.852   2.013
  326SOL     OW 1876   1.615   5.429   6.330
  326SOL    HW1 1877   1.559   5.485   6.391
  326SOL    HW2 1878   1.608   5.333   6.356
  327SOL     OW 1879   6.468   4.725   5.978
  327SOL    HW1 1880   6.505   4.664   6.049
  327SOL    HW2 1881   6.500   4.695   5.888
  328SOL     OW 1882   4.070   5.051   2.324
  328SOL    HW1 1883   3.994   5.060   2.388
  328SOL    HW2 1884   4.034   5.028   2.233
  329SOL     OW 1885   3.620   3.750   3.231
  329SOL    HW1 1886   3.646   3.653   3.237
  329SOL    HW2 1887   3.665   3.801   3.304
  330SOL     OW 1888   3.588   6.787   1.877
  330SOL    HW1 1889   3.505   6.836   1.851
  330SOL    HW2 1890   3.636   6.838   1.948
  331SOL     OW 1891   5.060   5.140   5.718
  331SOL    HW1 1892   5.022   5.050   5.697
  331SOL    HW2 1893   5.137   5.158   5.657
  332SOL     OW 1894   3.272   2.120   3.495
  332SOL    HW1 1895   3.274   2.174   3.411
  332SOL    HW2 1896   3.362   2.077   3.509
  333SOL     OW 1897   4.104   5.724   6.357
  333SOL    HW1 1898   4.084   5.815   6.395
  333SOL    HW2 1899   4.176   5.731   6.288
  334SOL     OW 1900   4.044   0.350   2.338
  334SOL    HW1 1901   4.011   0.285   2.269
  334SOL    HW2 1902   4.071   0.435   2.293
  335SOL     OW 1903   3.050   6.622   3.589
  335SOL    HW1 1904   3.108   6.543   3.608
  335SOL    HW2 1905   2.984   6.599   3.518
  336SOL     OW 1906   3.527   0.999   3.815
  336SOL    HW1 1907   3.538   1.007   3.914
  336SOL    HW2 1908   3.581   1.070   3.770
  337SOL     OW 1909   6.962   4.138   1.363
  337SOL    HW1 1910   6.916   4.152   1.450
  337SOL    HW2 1911   6.913   4.068   1.310
  338SOL     OW 1912   3.103   2.483   1.448
  338SOL    HW1 1913   3.110   2.456   1.544
  338SOL    HW2 1914   3.190   2.521   1.417
  339SOL     OW 1915   4.445   6.492   2.664
  339SOL    HW1 1916   4.399   6.527   2.582
  339SOL    HW2 1917   4.423   6.395   2.676
  340SOL     OW 1918   4.985   3.581   4.600
  340SOL    HW1 1919   4.981   3.535   4.689
  340SOL    HW2 1920   5.080   3.590   4.571
  341SOL     OW 1921   5.268   5.833   4.442
  341SOL    HW1 1922   5.284   5.850   4.540
  341SOL    HW2 1923   5.184   5.879   4.414
  342SOL     OW 1924   5.783   5.095   0.866
  342SOL    HW1 1925   5.784   5.138   0.956
  342SOL    HW2 1926   5.877   5.089   0.831
  343SOL     OW 1927   3.713   0.281   1.890
  343SOL    HW1 1928   3.784   0.211   1.884
  343SOL    HW2 1929   3.755   0.370   1.910
  344SOL     OW 1930   2.435   4.505   0.775
  344SOL    HW1 1931   2.527   4.473   0.752
  344SOL    HW2 1932   2.436   4.605   0.782
  345SOL     OW 1933   0.776   0.445   5.153
  345SOL    HW1 1934   0.706   0.517   5.152
  345SOL    HW2 1935   0.786   0.407   5.061
  346SOL     OW 1936   1.196   0.275   2.990
  346SOL    HW1 1937   1.100   0.271   2.965
  346SOL    HW2 1938   1.235   0.363   2.963
  347SOL     OW 1939   5.071   0.041   6.309
  347SOL    HW1 1940   5.072   0.089   6.397
  347SOL    HW2 1941   5.071   0.107   6.235
  348SOL     OW 1942   3.477   5.345   1.333
  348SOL    HW1 1943   3.542   5.383   1.398
  348SOL    HW2 1944   3.488   5.390   1.244
  349SOL     OW 1945   0.813   5.082   2.368
  349SOL    HW1 1946   0.859   4.998   2.339
  349SOL    HW2 1947   0.758   5.064   2.450
  350SOL     OW 1948   4.269   3.380   1.424
  350SOL    HW1 1949   4.363   3.354   1.448
  350SOL    HW2 1950   4.231   3.438   1.496
  351SOL     OW 1951   2.915   1.728   0.195
  351SOL    HW1 1952   2.839   1.677   0.154
  351SOL    HW2 1953   2.928   1.814   0.145
  352SOL     OW 1954   3.214   0.857   6.182
  352SOL    HW1 1955   3.124   0.824   6.153
  352SOL    HW2 1956   3.210   0.878   6.280
  353SOL     OW 1957   1.900   6.089   0.727
  353SOL    HW1 1958   1.837   6.159   0.761
  353SOL    HW2 1959   1.939   6.039   0.804
  354SOL     OW 1960   4.179   1.563   0.870
  354SOL    HW1 1961   4.209   1.527   0.782
  354SOL    HW2 1962   4.231   1.646   0.891
  355SOL     OW 1963   6.873   3.301   2.801
  355SOL    HW1 1964   6.927   3.232   2.849
  355SOL    HW2 1965   6.776   3.289   2.822
  356SOL     OW 1966   4.171   5.403   3.334
  356SOL    HW1 1967   4.178   5.306   3.311
  356SOL    HW2 1968   4.220   5.458   3.266
  357SOL     OW 1969   6.911   5.951   5.140
  357SOL    HW1 1970   6.893   5.854   5.121
  357SOL    HW2 1971   6.988   5.959   5.203
  358SOL     OW 1972   5.292   0.412   1.619
  358SOL    HW1 1973   5.235   0.491   1.596
  358SOL    HW2 1974   5.389   0.437   1.610
  359SOL     OW 1975   1.374   1.784   1.985
  359SOL    HW1 1976   1.416   1.873   2.002
  359SOL    HW2 1977   1.332   1.751   2.069
  360SOL     OW 1978   4.087   6.891   0.069
  360SOL    HW1 1979   3.994   6.920   0.089
  360SOL    HW2 1980   4.151   6.942   0.126
  361SOL     OW 1981   4.625   6.674   2.293
  361SOL    HW1 1982   4.699   6.644   2.232
  361SOL    HW2 1983   4.549   6.709   2.238
  362SOL     OW 1984   3.199   3.215   0.794
  362SOL    HW1 1985   3.282   3.160   0.807
  362SOL    HW2 1986   3.208   3.301   0.845
  363SOL     OW 1987   4.398   4.565   4.333
  363SOL    HW1 1988   4.395   4.658   4.368
  363SOL    HW2 1989   4.330   4.509   4.380
  364SOL     OW 1990   1.061   5.182   6.018
  364SOL    HW1 1991   1.112   5.126   5.952
  364SOL    HW2 1992   1.011   5.253   5.970
  365SOL     OW 1993   4.761   6.613   1.612
  365SOL    HW1 1994   4.758   6.633   1.710
  365SOL    HW2 1995   4.848   6.643   1.574
  366SOL     OW 1996   5.747   0.873   6.820
  366SOL    HW1 1997   5.737   0.940   6.747
  366SOL    HW2 1998   5.725   0.782   6.785
  367SOL     OW 1999   5.391   2.558   1.871
  367SOL    HW1 2000   5.423   2.486   1.933
  367SOL    HW2 2001   5.433   2.645   1.896
  368SOL     OW 2002   0.911   4.952   5.096
  368SOL    HW1 2003   0.968   4.946   5.014
  368SOL    HW2 2004   0.815   4.962   5.070
  369SOL     OW 2005   0.868   4.010   1.800
  369SOL    HW1 2006   0.819   4.084   1.755
  369SOL    HW2 2007   0.965   4.015   1.777
  370SOL     OW 2008   3.275   1.477   5.676
  370SOL    HW1 2009   3.186   1.499   5.635
  370SOL    HW2 2010   3.306   1.388   5.642
  371SOL     OW 2011   3.376   2.839   0.281
  371SOL    HW1 2012   3.444   2.769   0.259
  371SOL    HW2 2013   3.397   2.923   0.231
  372SOL     OW 2014   0.091   6.188   6.399
  372SOL    HW1 2015   0.180   6.151   6.373
  372SOL    HW2 2016   0.029   6.185   6.321
  373SOL     OW 2017   6.810   6.890   0.384
  373SOL    HW1 2018   6.824   6.820   0.314
  373SOL    HW2 2019   6.736   6.862   0.444
  374SOL     OW 2020   3.456   0.683   1.576
  374SOL    HW1 2021   3.448   0.778   1.604
  374SOL    HW2 2022   3.476   0.626   1.655
  375SOL     OW 2023   6.575   4.837   3.273
  375SOL    HW1 2024   6.649   4.903   3.266
  375SOL    HW2 2025   6.613   4.744   3.271
  376SOL     OW 2026   1.954   2.690   3.924
  376SOL    HW1 2027   1.968   2.783   3.956
  376SOL    HW2 2028   1.987   2.682   3.830
  377SOL     OW 2029   4.941   2.008   3.459
  377SOL    HW1 2030   5.014   1.946   3.486
  377SOL    HW2 2031   4.918   2.069   3.535
  378SOL     OW 2032   5.183   2.961   4.994
  378SOL    HW1 2033   5.133   3.028   5.050
  378SOL    HW2 2034   5.127   2.934   4.916
  379SOL     OW 2035   6.132   3.348   0.947
  379SOL    HW1 2036   6.170   3.428   0.901
  379SOL    HW2 2037   6.142   3.359   1.046
  380SOL     OW 2038   1.220   1.953   1.229
  380SOL    HW1 2039   1.156   2.022   1.198
  380SOL    HW2 2040   1.313   1.979   1.202
  381SOL     OW 2041   3.833   3.346   1.421
  381SOL    HW1 2042   3.799   3.429   1.465
  381SOL    HW2 2043   3.802   3.266   1.473
  382SOL     OW 2044   2.736   5.619   0.386
  382SOL    HW1 2045   2.775   5.570   0.308
  382SOL    HW2 2046   2.809   5.643   0.450
  383SOL     OW 2047   6.348   2.600   0.241
  383SOL    HW1 2048   6.350   2.581   0.143
  383SOL    HW2 2049   6.261   2.644   0.264
  384SOL     OW 2050   1.414   5.688   4.969
  384SOL    HW1 2051   1.462   5.604   4.994
  384SOL    HW2 2052   1.315   5.671   4.973
  385SOL     OW 2053   4.886   5.979   0.608
  385SOL    HW1 2054   4.984   5.986   0.628
  385SOL    HW2 2055   4.864   6.038   0.530
  386SOL     OW 2056   3.265   6.266   5.887
  386SOL    HW1 2057   3.181   6.295   5.933
  386SOL    HW2 2058   3.316   6.347   5.857
  387SOL     OW 2059   0.288   0.668   5.431
  387SOL    HW1 2060   0.319   0.577   5.405
  387SOL    HW2 2061   0.215   0.697   5.368
  388SOL     OW 2062   6.105   2.525   5.134
  388SOL    HW1 2063   6.069   2.607   5.090
  388SOL    HW2 2064   6.034   2.454   5.135
  389SOL     OW 2065   4.189   4.759   1.510
  389SOL    HW1 2066   4.228   4.668   1.517
  389SOL    HW2 2067   4.096   4.753   1.474
  390SOL     OW 2068   3.384   1.757   0.530
  390SOL    HW1 2069   3.320   1.715   0.594
  390SOL    HW2 2070   3.478   1.740   0.562
  391SOL     OW 2071   3.298   4.541   5.595
  391SOL    HW1 2072   3.243   4.458   5.596
  391SOL    HW2 2073   3.267   4.603   5.667
  392SOL     OW 2074   1.302   3.599   2.007
  392SOL    HW1 2075   1.261   3.690   1.998
  392SOL    HW2 2076   1.396   3.602   1.975
  393SOL     OW 2077   0.979   4.453   1.748
  393SOL    HW1 2078   1.053   4.464   1.815
  393SOL    HW2 2079   1.003   4.380   1.684
  394SOL     OW 2080   6.922   1.072   6.533
  394SOL    HW1 2081   6.846   1.136   6.548
  394SOL    HW2 2082   6.971   1.058   6.618
  395SOL     OW 2083   5.605   4.882   1.355
  395SOL    HW1 2084   5.651   4.831   1.428
  395SOL    HW2 2085   5.631   4.843   1.266
  396SOL     OW 2086   2.377   0.622   1.932
  396SOL    HW1 2087   2.467   0.649   1.898
  396SOL    HW2 2088   2.318   0.702   1.940
  397SOL     OW 2089   4.519   1.943   5.233
  397SOL    HW1 2090   4.529   2.042   5.236
  397SOL    HW2 2091   4.563   1.907   5.151
  398SOL     OW 2092   1.771   1.214   4.129
  398SOL    HW1 2093   1.740   1.121   4.150
  398SOL    HW2 2094   1.870   1.215   4.122
  399SOL     OW 2095   6.094   6.126   3.929
  399SOL    HW1 2096   6.125   6.206   3.980
  399SOL    HW2 2097   5.994   6.123   3.928
  400SOL     OW 2098   6.473   0.599   4.663
  400SOL    HW1 2099   6.381   0.565   4.642
  400SOL    HW2 2100   6.540   0.526   4.651
  401SOL     OW 2101   6.837   5.434   6.023
  401SOL    HW1 2102   6.851   5.417   5.925
  401SOL    HW2 2103   6.862   5.528   6.045
  402SOL     OW 2104   6.312   0.300   2.708
  402SOL    HW1 2105   6.287   0.239   2.783
  402SOL    HW2 2106   6.297   0.395   2.736
  403SOL     OW 2107   2.386   1.249   5.223
  403SOL    HW1 2108   2.336   1.330   5.254
  403SOL    HW2 2109   2.400   1.187   5.301
  404SOL     OW 2110   3.888   5.313   3.748
  404SOL    HW1 2111   3.800   5.351   3.778
  404SOL    HW2 2112   3.933   5.270   3.826
  405SOL     OW 2113   2.765   4.689   4.194
  405SOL    HW1 2114   2.852   4.656   4.232
  405SOL    HW2 2115   2.743   4.778   4.233
  406SOL     OW 2116   0.517   5.580   5.801
  406SOL    HW1 2117   0.469   5.497   5.772
  406SOL    HW2 2118   0.589   5.602   5.735
  407SOL     OW 2119   1.973   3.122   4.478
  407SOL    HW1 2120   2.050   3.157   4.531
  407SOL    HW2 2121   1.888   3.161   4.513
  408SOL     OW 2122   2.570   1.600   3.600
  408SOL    HW1 2123   2.588   1.606   3.699
  408SOL    HW2 2124   2.533   1.687   3.567
  409SOL     OW 2125   0.612   3.688   2.953
  409SOL    HW1 2126   0.687   3.750   2.929
  409SOL    HW2 2127   0.619   3.604   2.900
  410SOL     OW 2128   1.876   1.474   1.565
  410SOL    HW1 2129   1.930   1.433   1.491
  410SOL    HW2 2130   1.819   1.403   1.607
  411SOL     OW 2131   0.878   2.996   1.489
  411SOL    HW1 2132   0.893   3.089   1.523
  411SOL    HW2 2133   0.925   2.931   1.548
  412SOL     OW 2134   1.826   5.689   1.984
  412SOL    HW1 2135   1.807   5.782   1.955
  412SOL    HW2 2136   1.776   5.625   1.926
  413SOL     OW 2137   5.545   5.793   2.227
  413SOL    HW1 2138   5.485   5.865   2.262
  413SOL    HW2 2139   5.567   5.729   2.301
  414SOL     OW 2140   2.119   6.426   3.546
  414SOL    HW1 2141   2.139   6.522   3.567
  414SOL    HW2 2142   2.172   6.397   3.466
  415SOL     OW 2143   6.260   1.170   0.253
  415SOL    HW1 2144   6.161   1.180   0.250
  415SOL    HW2 2145   6.287   1.134   0.343
  416SOL     OW 2146   5.045   2.945   4.757
  416SOL    HW1 2147   5.030   2.878   4.684
  416SOL    HW2 2148   5.131   2.992   4.741
  417SOL     OW 2149   2.205   1.992   6.213
  417SOL    HW1 2150   2.186   1.897   6.187
  417SOL    HW2 2151   2.188   2.051   6.134
  418SOL     OW 2152   4.018   6.546   4.517
  418SOL    HW1 2153   3.947   6.484   4.484
  418SOL    HW2 2154   4.076   6.574   4.441
  419SOL     OW 2155   0.206   0.332   0.879
  419SOL    HW1 2156   0.279   0.265   0.864
  419SOL    HW2 2157   0.120   0.283   0.897
  420SOL     OW 2158   4.903   1.108   6.427
  420SOL    HW1 2159   4.936   1.013   6.428
  420SOL    HW2 2160   4.803   1.108   6.419
  421SOL     OW 2161   5.387   3.192   2.529
  421SOL    HW1 2162   5.327   3.240   2.465
  421SOL    HW2 2163   5.345   3.192   2.620
  422SOL     OW 2164   4.888   3.296   1.915
  422SOL    HW1 2165   4.982   3.274   1.944
  422SOL    HW2 2166   4.831   3.215   1.925
  423SOL     OW 2167   3.629   1.277   6.817
  423SOL    HW1 2168   3.602   1.308   6.726
  423SOL    HW2 2169   3.548   1.250   6.868
  424SOL     OW 2170   0.990   3.611   3.325
  424SOL    HW1 2171   1.021   3.677   3.256
  424SOL    HW2 2172   0.921   3.654   3.383
  425SOL     OW 2173   2.846   0.991   5.798
  425SOL    HW1 2174   2.803   0.997   5.708
  425SOL    HW2 2175   2.858   0.895   5.823
  426SOL     OW 2176   2.653   2.164   4.301
  426SOL    HW1 2177   2.672   2.090   4.366
  426SOL    HW2 2178   2.643   2.250   4.350
  427SOL     OW 2179   4.016   2.120   3.257
  427SOL    HW1 2180   3.997   2.156   3.166
  427SOL    HW2 2181   4.020   2.020   3.252
  428SOL     OW 2182   2.792   2.149   5.860
  428SOL    HW1 2183   2.745   2.162   5.773
  428SOL    HW2 2184   2.810   2.051   5.875
  429SOL     OW 2185   0.708   5.722   3.884
  429SOL    HW1 2186   0.806   5.740   3.884
  429SOL    HW2 2187   0.661   5.789   3.941
  430SOL     OW 2188   1.404   0.086   3.954
  430SOL    HW1 2189   1.430   0.133   3.870
  430SOL    HW2 2190   1.471   0.015   3.975
  431SOL     OW 2191   2.673   1.933   1.444
  431SOL    HW1 2192   2.654   1.852   1.499
  431SOL    HW2 2193   2.593   1.957   1.390
  432SOL     OW 2194   4.619   2.364   2.275
  432SOL    HW1 2195   4.667   2.312   2.205
  432SOL    HW2 2196   4.590   2.452   2.238
  433SOL     OW 2197   2.113   5.351   0.602
  433SOL    HW1 2198   2.113   5.423   0.533
  433SOL    HW2 2199   2.207   5.330   0.629
  434SOL     OW 2200   4.148   5.908   3.809
  434SOL    HW1 2201   4.139   5.816   3.845
  434SOL    HW2 2202   4.212   5.908   3.732
  435SOL     OW 2203   3.526   1.597   6.074
  435SOL    HW1 2204   3.445   1.582   6.017
  435SOL    HW2 2205   3.591   1.655   6.025
  436SOL     OW 2206   4.590   0.369   2.645
  436SOL    HW1 2207   4.663   0.333   2.703
  436SOL    HW2 2208   4.560   0.298   2.580
  437SOL     OW 2209   6.517   0.886   5.075
  437SOL    HW1 2210   6.531   0.984   5.067
  437SOL    HW2 2211   6.556   0.840   4.994
  438SOL     OW 2212   0.326   4.342   2.813
  438SOL    HW1 2213   0.233   4.328   2.849
  438SOL    HW2 2214   0.343   4.277   2.739
  439SOL     OW 2215   6.952   0.240   4.238
  439SOL    HW1 2216   0.022   0.241   4.196
  439SOL    HW2 2217   6.940   0.322   4.294
  440SOL     OW 2218   4.110   1.175   0.864
  440SOL    HW1 2219   4.107   1.213   0.956
  440SOL    HW2 2220   4.193   1.121   0.852
  441SOL     OW 2221   0.333   3.963   2.454
  441SOL    HW1 2222   0.369   3.932   2.366
  441SOL    HW2 2223   0.370   3.906   2.527
  442SOL     OW 2224   5.343   3.056   5.726
  442SOL    HW1 2225   5.376   2.962   5.714
  442SOL    HW2 2226   5.411   3.109   5.777
  443SOL     OW 2227   4.899   3.525   2.086
  443SOL    HW1 2228   4.886   3.454   2.017
  443SOL    HW2 2229   4.857   3.495   2.172
  444SOL     OW 2230   4.062   0.829   1.580
  444SOL    HW1 2231   4.030   0.739   1.610
  444SOL    HW2 2232   4.010   0.901   1.626
  445SOL     OW 2233   1.559   6.037   2.359
  445SOL    HW1 2234   1.570   6.034   2.459
  445SOL    HW2 2235   1.559   5.945   2.322
  446SOL     OW 2236   5.415   0.138   1.622
  446SOL    HW1 2237   5.324   0.180   1.616
  446SOL    HW2 2238   5.484   0.209   1.632
  447SOL     OW 2239   5.922   4.831   1.246
  447SOL    HW1 2240   5.899   4.916   1.293
  447SOL    HW2 2241   5.996   4.784   1.294
  448SOL     OW 2242   2.528   0.368   3.156
  448SOL    HW1 2243   2.557   0.328   3.242
  448SOL    HW2 2244   2.608   0.390   3.101
  449SOL     OW 2245   1.656   4.100   4.643
  449SOL    HW1 2246   1.720   4.172   4.673
  449SOL    HW2 2247   1.596   4.075   4.718
  450SOL     OW 2248   0.597   4.669   3.657
  450SOL    HW1 2249   0.523   4.707   3.713
  450SOL    HW2 2250   0.567   4.581   3.619
  451SOL     OW 2251   0.759   1.849   2.206
  451SOL    HW1 2252   0.714   1.765   2.176
  451SOL    HW2 2253   0.793   1.837   2.299
  452SOL     OW 2254   4.705   5.339   2.101
  452SOL    HW1 2255   4.680   5.300   2.012
  452SOL    HW2 2256   4.771   5.413   2.087
  453SOL     OW 2257   3.421   0.726   5.990
  453SOL    HW1 2258   3.371   0.795   6.042
  453SOL    HW2 2259   3.456   0.656   6.054
  454SOL     OW 2260   6.677   3.221   6.131
  454SOL    HW1 2261   6.638   3.286   6.065
  454SOL    HW2 2262   6.655   3.128   6.103
  455SOL     OW 2263   6.154   4.678   5.913
  455SOL    HW1 2264   6.213   4.675   5.831
  455SOL    HW2 2265   6.204   4.723   5.987
  456SOL     OW 2266   2.693   0.825   2.664
  456SOL    HW1 2267   2.676   0.913   2.621
  456SOL    HW2 2268   2.607   0.782   2.689
  457SOL     OW 2269   2.719   0.123   0.375
  457SOL    HW1 2270   2.774   0.205   0.391
  457SOL    HW2 2271   2.714   0.105   0.277
  458SOL     OW 2272   3.227   1.647   3.403
  458SOL    HW1 2273   3.286   1.617   3.327
  458SOL    HW2 2274   3.133   1.654   3.371
  459SOL     OW 2275   3.322   6.849   3.788
  459SOL    HW1 2276   3.319   6.883   3.694
  459SOL    HW2 2277   3.389   6.902   3.840
  460SOL     OW 2278   0.786   1.292   6.143
  460SOL    HW1 2279   0.748   1.293   6.050
  460SOL    HW2 2280   0.878   1.255   6.141
  461SOL     OW 2281   0.883   4.838   5.418
  461SOL    HW1 2282   0.919   4.818   5.509
  461SOL    HW2 2283   0.958   4.871   5.359
  462SOL     OW 2284   3.149   4.076   4.667
  462SOL    HW1 2285   3.059   4.045   4.637
  462SOL    HW2 2286   3.216   4.060   4.595
  463SOL     OW 2287   5.386   6.710   3.288
  463SOL    HW1 2288   5.483   6.692   3.304
  463SOL    HW2 2289   5.332   6.672   3.364
  464SOL     OW 2290   4.023   4.994   6.186
  464SOL    HW1 2291   3.997   4.898   6.176
  464SOL    HW2 2292   4.000   5.025   6.278
  465SOL     OW 2293   0.832   3.868   1.453
  465SOL    HW1 2294   0.775   3.799   1.499
  465SOL    HW2 2295   0.831   3.851   1.355
  466SOL     OW 2296   3.856   5.591   4.703
  466SOL    HW1 2297   3.927   5.660   4.710
  466SOL    HW2 2298   3.769   5.629   4.734
  467SOL     OW 2299   5.947   6.840   1.717
  467SOL    HW1 2300   5.984   6.881   1.800
  467SOL    HW2 2301   5.851   6.816   1.731
  468SOL     OW 2302   2.964   6.701   6.683
  468SOL    HW1 2303   2.980   6.606   6.708
  468SOL    HW2 2304   3.048   6.754   6.697
  469SOL     OW 2305   3.508   5.221   5.138
  469SOL    HW1 2306   3.501   5.128   5.101
  469SOL    HW2 2307   3.417   5.253   5.164
  470SOL     OW 2308   2.226   4.539   2.559
  470SOL    HW1 2309   2.203   4.506   2.651
  470SOL    HW2 2310   2.153   4.598   2.525
  471SOL     OW 2311   1.469   2.195   4.115
  471SOL    HW1 2312   1.461   2.241   4.027
  471SOL    HW2 2313   1.543   2.237   4.168
  472SOL     OW 2314   5.621   3.618   6.457
  472SOL    HW1 2315   5.659   3.684   6.522
  472SOL    HW2 2316   5.655   3.637   6.365
  473SOL     OW 2317   6.142   2.781   2.222
  473SOL    HW1 2318   6.168   2.877   2.224
  473SOL    HW2 2319   6.220   2.726   2.193
  474SOL     OW 2320   4.570   6.409   3.999
  474SOL    HW1 2321   4.596   6.441   4.091
  474SOL    HW2 2322   4.486   6.456   3.971
  475SOL     OW 2323   5.861   1.772   0.445
  475SOL    HW1 2324   5.808   1.836   0.500
  475SOL    HW2 2325   5.824   1.769   0.352
  476SOL     OW 2326   1.295   4.551   1.441
  476SOL    HW1 2327   1.286   4.650   1.433
  476SOL    HW2 2328   1.205   4.510   1.454
  477SOL     OW 2329   1.325   4.662   3.673
  477SOL    HW1 2330   1.332   4.637   3.770
  477SOL    HW2 2331   1.291   4.584   3.621
  478SOL     OW 2332   5.110   5.548   2.137
  478SOL    HW1 2333   5.195   5.591   2.165
  478SOL    HW2 2334   5.054   5.528   2.217
  479SOL     OW 2335   3.109   3.953   3.745
  479SOL    HW1 2336   3.110   4.005   3.659
  479SOL    HW2 2337   3.200   3.916   3.763
  480SOL     OW 2338   1.182   0.843   3.046
  480SOL    HW1 2339   1.178   0.829   3.145
  480SOL    HW2 2340   1.232   0.768   3.004
  481SOL     OW 2341   6.984   0.057   0.537
  481SOL    HW1 2342   6.927   7.016   0.483
  481SOL    HW2 2343   6.970   0.151   0.506
  482SOL     OW 2344   3.927   4.901   1.757
  482SOL    HW1 2345   3.836   4.910   1.717
  482SOL    HW2 2346   3.960   4.807   1.743
  483SOL     OW 2347   5.641   2.021   4.256
  483SOL    HW1 2348   5.649   2.118   4.233
  483SOL    HW2 2349   5.620   1.970   4.173
  484SOL     OW 2350   2.310   4.366   4.206
  484SOL    HW1 2351   2.330   4.313   4.124
  484SOL    HW2 2352   2.302   4.463   4.182
  485SOL     OW 2353   5.662   3.300   1.557
  485SOL    HW1 2354   5.724   3.227   1.528
  485SOL    HW2 2355   5.622   3.344   1.477
  486SOL     OW 2356   5.921   6.030   6.126
  486SOL    HW1 2357   5.824   6.007   6.120
  486SOL    HW2 2358   5.950   6.028   6.221
  487SOL     OW 2359   6.824   6.651   5.939
  487SOL    HW1 2360   6.787   6.579   5.997
  487SOL    HW2 2361   6.913   6.680   5.975
  488SOL     OW 2362   2.064   5.696   3.112
  488SOL    HW1 2363   2.108   5.761   3.049
  488SOL    HW2 2364   2.121   5.686   3.194
  489SOL     OW 2365   1.436   5.802   6.362
  489SOL    HW1 2366   1.447   5.873   6.431
  489SOL    HW2 2367   1.522   5.790   6.312
  490SOL     OW 2368   1.088   4.212   4.287
  490SOL    HW1 2369   0.992   4.227   4.312
  490SOL    HW2 2370   1.147   4.260   4.351
  491SOL     OW 2371   0.511   2.775   0.699
  491SOL    HW1 2372   0.542   2.701   0.759
  491SOL    HW2 2373   0.418   2.756   0.669
  492SOL     OW 2374   0.999   2.374   5.585
  492SOL    HW1 2375   0.971   2.344   5.494
  492SOL    HW2 2376   1.056   2.456   5.577
  493SOL     OW 2377   2.284   5.586   4.304
  493SOL    HW1 2378   2.340   5.668   4.294
  493SOL    HW2 2379   2.277   5.539   4.216
  494SOL     OW 2380   2.342   6.603   4.769
  494SOL    HW1 2381   2.340   6.682   4.708
  494SOL    HW2 2382   2.430   6.600   4.816
  495SOL     OW 2383   3.784   4.069   6.036
  495SOL    HW1 2384   3.812   4.160   6.067
  495SOL    HW2 2385   3.739   4.076   5.947
  496SOL     OW 2386   4.916   1.165   3.197
  496SOL    HW1 2387   4.865   1.103   3.255
  496SOL    HW2 2388   5.008   1.128   3.181
  497SOL     OW 2389   4.851   1.789   0.225
  497SOL    HW1 2390   4.766   1.764   0.271
  497SOL    HW2 2391   4.832   1.814   0.130
  498SOL     OW 2392   0.606   7.011   1.644
  498SOL    HW1 2393   0.674   6.939   1.655
  498SOL    HW2 2394   0.518   6.980   1.679
  499SOL     OW 2395   2.682   5.750   0.084
  499SOL    HW1 2396   2.689   5.758   0.184
  499SOL    HW2 2397   2.764   5.789   0.042
  500SOL     OW 2398   5.495   2.302   0.257
  500SOL    HW1 2399   5.492   2.359   0.339
  500SOL    HW2 2400   5.402   2.276   0.231
  501SOL     OW 2401   1.269   1.350   4.741
  501SOL    HW1 2402   1.222   1.352   4.829
  501SOL    HW2 2403   1.365   1.377   4.753
  502SOL     OW 2404   2.254   4.875   6.902
  502SOL    HW1 2405   2.306   4.950   6.863
  502SOL    HW2 2406   2.315   4.798   6.922
  503SOL     OW 2407   4.169   5.038   0.473
  503SOL    HW1 2408   4.122   4.971   0.531
  503SOL    HW2 2409   4.114   5.057   0.393
  504SOL     OW 2410   6.132   6.154   1.897
  504SOL    HW1 2411   6.040   6.176   1.931
  504SOL    HW2 2412   6.172   6.234   1.854
  505SOL     OW 2413   4.567   6.061   5.007
  505SOL    HW1 2414   4.568   6.161   5.015
  505SOL    HW2 2415   4.576   6.036   4.910
  506SOL     OW 2416   4.075   5.292   2.070
  506SOL    HW1 2417   4.050   5.374   2.122
  506SOL    HW2 2418   4.174   5.293   2.053
  507SOL     OW 2419   2.652   0.835   0.872
  507SOL    HW1 2420   2.748   0.810   0.885
  507SOL    HW2 2421   2.643   0.935   0.872
  508SOL     OW 2422   6.982   4.044   3.607
  508SOL    HW1 2423   7.005   4.139   3.585
  508SOL    HW2 2424   0.013   4.016   3.689
  509SOL     OW 2425   4.761   0.133   6.230
  509SOL    HW1 2426   4.838   0.171   6.178
  509SOL    HW2 2427   4.787   0.123   6.326
  510SOL     OW 2428   6.358   3.744   6.773
  510SOL    HW1 2429   6.423   3.750   6.849
  510SOL    HW2 2430   6.282   3.806   6.790
  511SOL     OW 2431   0.664   2.465   0.688
  511SOL    HW1 2432   0.707   2.376   0.704
  511SOL    HW2 2433   0.663   2.517   0.773
  512SOL     OW 2434   6.843   2.190   4.723
  512SOL    HW1 2435   6.862   2.199   4.820
  512SOL    HW2 2436   6.911   2.130   4.681
  513SOL     OW 2437   5.340   0.917   3.081
  513SOL    HW1 2438   5.280   0.888   3.006
  513SOL    HW2 2439   5.408   0.981   3.045
  514SOL     OW 2440   6.125   0.215   4.918
  514SOL    HW1 2441   6.202   0.193   4.858
  514SOL    HW2 2442   6.143   0.181   5.010
  515SOL     OW 2443   3.732   0.317   5.600
  515SOL    HW1 2444   3.707   0.369   5.517
  515SOL    HW2 2445   3.700   0.223   5.591
  516SOL     OW 2446   2.542   5.777   2.574
  516SOL    HW1 2447   2.523   5.838   2.651
  516SOL    HW2 2448   2.517   5.683   2.598
  517SOL     OW 2449   3.509   5.724   1.477
  517SOL    HW1 2450   3.516   5.647   1.540
  517SOL    HW2 2451   3.490   5.690   1.384
  518SOL     OW 2452   2.129   3.690   3.950
  518SOL    HW1 2453   2.089   3.599   3.946
  518SOL    HW2 2454   2.135   3.728   3.858
  519SOL     OW 2455   0.053   0.145   1.985
  519SOL    HW1 2456   0.008   0.088   2.054
  519SOL    HW2 2457   0.120   0.204   2.030
  520SOL     OW 2458   1.722   4.008   0.876
  520SOL    HW1 2459   1.745   4.061   0.958
  520SOL    HW2 2460   1.806   3.975   0.834
  521SOL     OW 2461   6.415   6.427   4.918
  521SOL    HW1 2462   6.458   6.337   4.907
  521SOL    HW2 2463   6.400   6.467   4.827
  522SOL     OW 2464   3.903   4.298   1.686
  522SOL    HW1 2465   3.981   4.243   1.656
  522SOL    HW2 2466   3.929   4.395   1.685
  523SOL     OW 2467   0.887   6.880   1.038
  523SOL    HW1 2468   0.942   6.964   1.037
  523SOL    HW2 2469   0.862   6.858   1.133
  524SOL     OW 2470   0.081   2.530   1.492
  524SOL    HW1 2471   0.109   2.454   1.432
  524SOL    HW2 2472   7.017   2.505   1.539
  525SOL     OW 2473   1.145   3.594   5.419
  525SOL    HW1 2474   1.159   3.536   5.499
  525SOL    HW2 2475   1.233   3.614   5.375
  526SOL     OW 2476   3.132   0.312   3.805
  526SOL    HW1 2477   3.169   0.351   3.721
  526SOL    HW2 2478   3.157   0.370   3.883
  527SOL     OW 2479   0.135   1.046   0.545
  527SOL    HW1 2480   0.181   1.073   0.630
  527SOL    HW2 2481   0.183   0.968   0.504
  528SOL     OW 2482   0.071   3.415   3.742
  528SOL    HW1 2483   0.069   3.419   3.842
  528SOL    HW2 2484   0.166   3.410   3.711
  529SOL     OW 2485   1.661   0.806   0.408
  529SOL    HW1 2486   1.673   0.868   0.485
  529SOL    HW2 2487   1.743   0.807   0.351
  530SOL     OW 2488   3.792   3.870   1.242
  530SOL    HW1 2489   3.865   3.808   1.213
  530SOL    HW2 2490   3.832   3.944   1.296
  531SOL     OW 2491   1.030   0.117   0.950
  531SOL    HW1 2492   0.973   0.194   0.922
  531SOL    HW2 2493   1.046   0.057   0.872
  532SOL     OW 2494   1.416   2.319   6.708
  532SOL    HW1 2495   1.389   2.243   6.767
  532SOL    HW2 2496   1.397   2.405   6.754
  533SOL     OW 2497   3.562   0.110   4.538
  533SOL    HW1 2498   3.605   0.075   4.622
  533SOL    HW2 2499   3.581   0.207   4.528
  534SOL     OW 2500   1.891   5.048   1.551
  534SOL    HW1 2501   1.844   5.004   1.628
  534SOL    HW2 2502   1.976   5.089   1.583
  535SOL     OW 2503   5.117   3.111   4.084
  535SOL    HW1 2504   5.037   3.113   4.144
  535SOL    HW2 2505   5.114   3.028   4.028
  536SOL     OW 2506   6.740   0.055   1.987
  536SOL    HW1 2507   6.790   6.997   2.024
  536SOL    HW2 2508   6.773   0.139   2.029
  537SOL     OW 2509   3.882   2.203   4.145
  537SOL    HW1 2510   3.794   2.213   4.192
  537SOL    HW2 2511   3.955   2.235   4.205
  538SOL     OW 2512   3.376   4.846   5.228
  538SOL    HW1 2513   3.422   4.846   5.139
  538SOL    HW2 2514   3.337   4.936   5.246
  539SOL     OW 2515   0.891   6.757   6.894
  539SOL    HW1 2516   0.912   6.684   6.960
  539SOL    HW2 2517   0.926   6.844   6.928
  540SOL     OW 2518   0.669   6.945   4.331
  540SOL    HW1 2519   0.654   6.910   4.239
  540SOL    HW2 2520   0.712   0.015   4.326
  541SOL     OW 2521   4.360   5.991   3.955
  541SOL    HW1 2522   4.285   5.978   3.890
  541SOL    HW2 2523   4.336   5.949   4.043
  542SOL     OW 2524   3.258   0.516   5.827
  542SOL    HW1 2525   3.263   0.576   5.907
  542SOL    HW2 2526   3.186   0.548   5.765
  543SOL     OW 2527   6.288   2.283   4.001
  543SOL    HW1 2528   6.326   2.301   4.092
  543SOL    HW2 2529   6.296   2.365   3.945
  544SOL     OW 2530   1.762   3.536   1.276
  544SOL    HW1 2531   1.860   3.555   1.278
  544SOL    HW2 2532   1.712   3.618   1.306
  545SOL     OW 2533   5.547   0.592   1.137
  545SOL    HW1 2534   5.617   0.586   1.207
  545SOL    HW2 2535   5.505   0.683   1.139
  546SOL     OW 2536   0.061   4.253   2.854
  546SOL    HW1 2537   0.010   4.297   2.928
  546SOL    HW2 2538   0.023   4.280   2.766
  547SOL     OW 2539   5.397   0.700   5.950
  547SOL    HW1 2540   5.424   0.735   6.040
  547SOL    HW2 2541   5.408   0.600   5.949
  548SOL     OW 2542   3.746   2.205   6.840
  548SOL    HW1 2543   3.727   2.303   6.848
  548SOL    HW2 2544   3.729   2.161   6.928
  549SOL     OW 2545   5.840   1.561   2.009
  549SOL    HW1 2546   5.769   1.566   1.938
  549SOL    HW2 2547   5.926   1.530   1.968
  550SOL     OW 2548   6.967   5.405   3.237
  550SOL    HW1 2549   7.001   5.335   3.299
  550SOL    HW2 2550   6.960   5.492   3.285
  551SOL     OW 2551   6.111   0.857   0.704
  551SOL    HW1 2552   6.144   0.891   0.792
  551SOL    HW2 2553   6.038   0.916   0.670
  552SOL     OW 2554   6.355   5.043   5.615
  552SOL    HW1 2555   6.442   5.068   5.658
  552SOL    HW2 2556   6.340   5.098   5.534
  553SOL     OW 2557   2.440   1.365   0.085
  553SOL    HW1 2558   2.357   1.420   0.096
  553SOL    HW2 2559   2.492   1.367   0.170
  554SOL     OW 2560   5.441   6.161   1.430
  554SOL    HW1 2561   5.467   6.066   1.414
  554SOL    HW2 2562   5.360   6.183   1.376
  555SOL     OW 2563   1.433   4.183   5.568
  555SOL    HW1 2564   1.395   4.260   5.620
  555SOL    HW2 2565   1.500   4.217   5.502
  556SOL     OW 2566   5.367   0.175   4.351
  556SOL    HW1 2567   5.318   0.198   4.267
  556SOL    HW2 2568   5.370   0.075   4.362
  557SOL     OW 2569   6.794   4.352   6.637
  557SOL    HW1 2570   6.886   4.390   6.645
  557SOL    HW2 2571   6.759   4.368   6.545
  558SOL     OW 2572   3.189   4.114   2.412
  558SOL    HW1 2573   3.173   4.210   2.436
  558SOL    HW2 2574   3.227   4.108   2.320
  559SOL     OW 2575   6.297   7.007   5.629
  559SOL    HW1 2576   6.321   0.064   5.687
  559SOL    HW2 2577   6.377   6.981   5.574
  560SOL     OW 2578   6.064   3.030   3.691
  560SOL    HW1 2579   6.159   3.001   3.701
  560SOL    HW2 2580   6.061   3.128   3.670
  561SOL     OW 2581   0.785   3.073   0.400
  561SOL    HW1 2582   0.831   2.987   0.382
  561SOL    HW2 2583   0.696   3.075   0.353
  562SOL     OW 2584   4.212   6.862   5.365
  562SOL    HW1 2585   4.278   6.901   5.302
  562SOL    HW2 2586   4.162   6.935   5.412
  563SOL     OW 2587   1.776   1.375   4.377
  563SOL    HW1 2588   1.843   1.448   4.393
  563SOL    HW2 2589   1.799   1.327   4.293
  564SOL     OW 2590   6.876   1.728   5.640
  564SOL    HW1 2591   6.968   1.748   5.675
  564SOL    HW2 2592   6.829   1.814   5.620
  565SOL     OW 2593   3.883   3.476   3.625
  565SOL    HW1 2594   3.878   3.378   3.608
  565SOL    HW2 2595   3.976   3.508   3.608
  566SOL     OW 2596   3.381   0.156   3.253
  566SOL    HW1 2597   3.310   0.204   3.305
  566SOL    HW2 2598   3.395   0.066   3.293
  567SOL     OW 2599   2.179   2.942   5.999
  567SOL    HW1 2600   2.264   2.927   6.050
  567SOL    HW2 2601   2.188   3.026   5.944
  568SOL     OW 2602   6.903   6.682   0.215
  568SOL    HW1 2603   6.891   6.662   0.118
  568SOL    HW2 2604   6.952   6.606   0.259
  569SOL     OW 2605   6.270   2.222   0.463
  569SOL    HW1 2606   6.284   2.159   0.540
  569SOL    HW2 2607   6.198   2.288   0.487
  570SOL     OW 2608   2.543   0.218   6.100
  570SOL    HW1 2609   2.519   0.210   6.003
  570SOL    HW2 2610   2.492   0.294   6.141
  571SOL     OW 2611   2.207   5.083   2.427
  571SOL    HW1 2612   2.272   5.079   2.504
  571SOL    HW2 2613   2.163   5.173   2.426
  572SOL     OW 2614   2.809   0.026   4.054
  572SOL    HW1 2615   2.836   0.088   3.980
  572SOL    HW2 2616   2.736   0.068   4.107
  573SOL     OW 2617   6.962   0.854   5.324
  573SOL    HW1 2618   0.021   0.882   5.270
  573SOL    HW2 2619   6.987   0.845   5.420
  574SOL     OW 2620   2.372   2.455   5.600
  574SOL    HW1 2621   2.442   2.515   5.563
  574SOL    HW2 2622   2.286   2.505   5.609
  575SOL     OW 2623   3.629   3.028   0.415
  575SOL    HW1 2624   3.706   3.080   0.452
  575SOL    HW2 2625   3.633   3.027   0.315
  576SOL     OW 2626   2.203   3.122   3.338
  576SOL    HW1 2627   2.155   3.137   3.252
  576SOL    HW2 2628   2.298   3.095   3.319
  577SOL     OW 2629   1.003   1.506   1.965
  577SOL    HW1 2630   1.093   1.494   1.923
  577SOL    HW2 2631   0.950   1.423   1.953
  578SOL     OW 2632   2.184   6.282   6.915
  578SOL    HW1 2633   2.170   6.204   6.976
  578SOL    HW2 2634   2.279   6.283   6.884
  579SOL     OW 2635   2.207   4.282   1.969
  579SOL    HW1 2636   2.284   4.317   2.022
  579SOL    HW2 2637   2.239   4.255   1.878
  580SOL     OW 2638   4.309   5.637   4.664
  580SOL    HW1 2639   4.288   5.695   4.585
  580SOL    HW2 2640   4.301   5.541   4.638
  581SOL     OW 2641   1.862   2.531   4.645
  581SOL    HW1 2642   1.780   2.570   4.603
  581SOL    HW2 2643   1.898   2.594   4.713
  582SOL     OW 2644   5.395   5.570   3.837
  582SOL    HW1 2645   5.385   5.661   3.797
  582SOL    HW2 2646   5.380   5.501   3.766
  583SOL     OW 2647   4.599   5.765   5.912
  583SOL    HW1 2648   4.609   5.854   5.868
  583SOL    HW2 2649   4.635   5.694   5.853
  584SOL     OW 2650   4.764   0.876   5.325
  584SOL    HW1 2651   4.668   0.899   5.312
  584SOL    HW2 2652   4.789   0.890   5.421
  585SOL     OW 2653   3.090   0.681   1.822
  585SOL    HW1 2654   3.110   0.724   1.734
  585SOL    HW2 2655   3.108   0.746   1.895
  586SOL     OW 2656   4.776   6.847   0.704
  586SOL    HW1 2657   4.850   6.838   0.771
  586SOL    HW2 2658   4.690   6.862   0.752
  587SOL     OW 2659   4.710   1.985   1.761
  587SOL    HW1 2660   4.678   1.906   1.812
  587SOL    HW2 2661   4.806   2.002   1.782
  588SOL     OW 2662   1.578   5.175   2.652
  588SOL    HW1 2663   1.538   5.203   2.739
  588SOL    HW2 2664   1.677   5.165   2.662
  589SOL     OW 2665   2.955   6.019   0.944
  589SOL    HW1 2666   2.973   5.926   0.913
  589SOL    HW2 2667   3.034   6.077   0.924
  590SOL     OW 2668   4.776   2.030   0.580
  590SOL    HW1 2669   4.717   2.047   0.659
  590SOL    HW2 2670   4.724   2.047   0.496
  591SOL     OW 2671   3.580   5.978   4.474
  591SOL    HW1 2672   3.565   6.074   4.451
  591SOL    HW2 2673   3.498   5.925   4.451
  592SOL     OW 2674   4.060   1.978   4.215
  592SOL    HW1 2675   4.132   1.991   4.283
  592SOL    HW2 2676   4.028   2.068   4.183
  593SOL     OW 2677   2.835   1.144   6.415
  593SOL    HW1 2678   2.916   1.200   6.398
  593SOL    HW2 2679   2.759   1.177   6.358
  594SOL     OW 2680   5.045   0.908   1.903
  594SOL    HW1 2681   5.032   0.928   2.000
  594SOL    HW2 2682   5.032   0.810   1.888
  595SOL     OW 2683   5.494   5.736   2.611
  595SOL    HW1 2684   5.545   5.754   2.695
  595SOL    HW2 2685   5.396   5.734   2.630
  596SOL     OW 2686   6.531   4.976   4.519
  596SOL    HW1 2687   6.481   4.964   4.605
  596SOL    HW2 2688   6.505   4.903   4.456
  597SOL     OW 2689   2.775   0.387   6.315
  597SOL    HW1 2690   2.790   0.346   6.225
  597SOL    HW2 2691   2.848   0.452   6.334
  598SOL     OW 2692   2.880   3.511   4.495
  598SOL    HW1 2693   2.844   3.591   4.447
  598SOL    HW2 2694   2.915   3.445   4.428
  599SOL     OW 2695   1.452   5.020   1.749
  599SOL    HW1 2696   1.504   4.962   1.686
  599SOL    HW2 2697   1.396   4.963   1.808
  600SOL     OW 2698   0.091   3.866   4.818
  600SOL    HW1 2699   0.108   3.776   4.780
  600SOL    HW2 2700   0.099   3.935   4.746
  601SOL     OW 2701   1.952   6.629   4.902
  601SOL    HW1 2702   2.002   6.676   4.975
  601SOL    HW2 2703   1.858   6.665   4.897
  602SOL     OW 2704   2.327   6.469   3.843
  602SOL    HW1 2705   2.362   6.376   3.826
  602SOL    HW2 2706   2.335   6.523   3.759
  603SOL     OW 2707   1.616   1.263   5.634
  603SOL    HW1 2708   1.638   1.228   5.543
  603SOL    HW2 2709   1.520   1.243   5.656
  604SOL     OW 2710   6.575   2.410   1.544
  604SOL    HW1 2711   6.629   2.327   1.532
  604SOL    HW2 2712   6.578   2.464   1.459
  605SOL     OW 2713   6.737   5.815   2.405
  605SOL    HW1 2714   6.801   5.890   2.389
  605SOL    HW2 2715   6.681   5.834   2.485
  606SOL     OW 2716   3.622   6.594   4.655
  606SOL    HW1 2717   3.650   6.508   4.699
  606SOL    HW2 2718   3.523   6.595   4.644
  607SOL     OW 2719   0.638   4.386   5.979
  607SOL    HW1 2720   0.683   4.320   5.919
  607SOL    HW2 2721   0.651   4.479   5.943
  608SOL     OW 2722   2.602   1.506   5.493
  608SOL    HW1 2723   2.612   1.408   5.505
  608SOL    HW2 2724   2.646   1.534   5.407
  609SOL     OW 2725   3.189   2.913   2.217
  609SOL    HW1 2726   3.119   2.865   2.165
  609SOL    HW2 2727   3.225   2.989   2.163
  610SOL     OW 2728   4.527   3.669   1.000
  610SOL    HW1 2729   4.527   3.653   1.099
  610SOL    HW2 2730   4.543   3.583   0.952
  611SOL     OW 2731   3.520   0.350   2.415
  611SOL    HW1 2732   3.451   0.353   2.488
  611SOL    HW2 2733   3.533   0.441   2.378
  612SOL     OW 2734   4.180   4.696   5.585
  612SOL    HW1 2735   4.097   4.641   5.589
  612SOL    HW2 2736   4.259   4.639   5.607
  613SOL     OW 2737   4.712   4.985   5.711
  613SOL    HW1 2738   4.732   5.050   5.784
  613SOL    HW2 2739   4.666   5.033   5.636
  614SOL     OW 2740   4.083   5.174   6.007
  614SOL    HW1 2741   4.053   5.110   6.077
  614SOL    HW2 2742   4.033   5.157   5.922
  615SOL     OW 2743   0.649   4.958   1.873
  615SOL    HW1 2744   0.638   4.859   1.864
  615SOL    HW2 2745   0.564   5.004   1.847
  616SOL     OW 2746   5.791   3.506   3.194
  616SOL    HW1 2747   5.886   3.508   3.224
  616SOL    HW2 2748   5.747   3.424   3.228
  617SOL     OW 2749   3.302   5.373   6.337
  617SOL    HW1 2750   3.226   5.419   6.291
  617SOL    HW2 2751   3.268   5.322   6.416
  618SOL     OW 2752   1.752   1.184   2.318
  618SOL    HW1 2753   1.671   1.134   2.351
  618SOL    HW2 2754   1.815   1.199   2.394
  619SOL     OW 2755   0.836   1.026   6.796
  619SOL    HW1 2756   0.869   0.936   6.768
  619SOL    HW2 2757   0.805   1.077   6.715
  620SOL     OW 2758   4.278   3.792   0.933
  620SOL    HW1 2759   4.375   3.766   0.936
  620SOL    HW2 2760   4.251   3.829   1.021
  621SOL     OW 2761   0.283   4.699   1.823
  621SOL    HW1 2762   0.262   4.645   1.742
  621SOL    HW2 2763   0.241   4.790   1.814
  622SOL     OW 2764   1.501   0.842   7.016
  622SOL    HW1 2765   1.445   0.919   6.988
  622SOL    HW2 2766   1.500   0.771   6.945
  623SOL     OW 2767   1.056   4.588   6.452
  623SOL    HW1 2768   0.973   4.558   6.405
  623SOL    HW2 2769   1.038   4.677   6.496
  624SOL     OW 2770   0.775   2.654   2.198
  624SOL    HW1 2771   0.705   2.583   2.189
  624SOL    HW2 2772   0.739   2.741   2.166
  625SOL     OW 2773   2.236   1.383   2.073
  625SOL    HW1 2774   2.152   1.413   2.119
  625SOL    HW2 2775   2.256   1.445   1.997
  626SOL     OW 2776   2.613   6.221   4.775
  626SOL    HW1 2777   2.533   6.249   4.722
  626SOL    HW2 2778   2.593   6.230   4.873
  627SOL     OW 2779   5.213   0.976   0.221
  627SOL    HW1 2780   5.154   0.943   0.148
  627SOL    HW2 2781   5.174   0.951   0.309
  628SOL     OW 2782   4.905   3.888   3.696
  628SOL    HW1 2783   4.930   3.868   3.601
  628SOL    HW2 2784   4.912   3.987   3.711
  629SOL     OW 2785   1.056   6.892   0.810
  629SOL    HW1 2786   1.015   6.860   0.895
  629SOL    HW2 2787   1.144   6.847   0.797
  630SOL     OW 2788   3.856   2.004   1.084
  630SOL    HW1 2789   3.832   1.944   1.008
  630SOL    HW2 2790   3.898   1.950   1.157
  631SOL     OW 2791   2.277   6.950   5.331
  631SOL    HW1 2792   2.328   0.012   5.354
  631SOL    HW2 2793   2.341   6.874   5.315
  632SOL     OW 2794   2.229   1.123   1.060
  632SOL    HW1 2795   2.311   1.127   1.003
  632SOL    HW2 2796   2.174   1.205   1.045
  633SOL     OW 2797   2.471   6.744   6.208
  633SOL    HW1 2798   2.411   6.665   6.220
  633SOL    HW2 2799   2.565   6.719   6.228
  634SOL     OW 2800   3.447   6.027   0.435
  634SOL    HW1 2801   3.420   5.932   0.452
  634SOL    HW2 2802   3.418   6.054   0.343
  635SOL     OW 2803   2.739   0.557   2.537
  635SOL    HW1 2804   2.724   0.630   2.604
  635SOL    HW2 2805   2.812   0.497   2.569
  636SOL     OW 2806   5.304   5.267   0.062
  636SOL    HW1 2807   5.256   5.353   0.082
  636SOL    HW2 2808   5.271   5.230   6.996
  637SOL     OW 2809   4.423   4.481   0.739
  637SOL    HW1 2810   4.323   4.476   0.736
  637SOL    HW2 2811   4.457   4.517   0.653
  638SOL     OW 2812   5.017   1.103   2.649
  638SOL    HW1 2813   5.110   1.068   2.655
  638SOL    HW2 2814   5.019   1.203   2.644
  639SOL     OW 2815   4.290   4.621   1.958
  639SOL    HW1 2816   4.367   4.584   2.011
  639SOL    HW2 2817   4.225   4.665   2.019
  640SOL     OW 2818   2.664   4.389   5.529
  640SOL    HW1 2819   2.700   4.296   5.529
  640SOL    HW2 2820   2.641   4.416   5.436
  641SOL     OW 2821   0.076   6.097   4.532
  641SOL    HW1 2822   0.173   6.106   4.512
  641SOL    HW2 2823   0.063   6.083   4.630
  642SOL     OW 2824   1.131   5.377   4.954
  642SOL    HW1 2825   1.040   5.335   4.956
  642SOL    HW2 2826   1.124   5.472   4.985
  643SOL     OW 2827   5.793   5.782   5.168
  643SOL    HW1 2828   5.706   5.793   5.119
  643SOL    HW2 2829   5.843   5.868   5.166
  644SOL     OW 2830   1.482   6.396   2.058
  644SOL    HW1 2831   1.536   6.426   2.137
  644SOL    HW2 2832   1.484   6.468   1.988
  645SOL     OW 2833   5.780   2.653   3.903
  645SOL    HW1 2834   5.858   2.715   3.891
  645SOL    HW2 2835   5.715   2.694   3.967
  646SOL     OW 2836   1.731   1.911   4.606
  646SOL    HW1 2837   1.797   1.954   4.544
  646SOL    HW2 2838   1.771   1.905   4.697
  647SOL     OW 2839   5.732   3.460   0.450
  647SOL    HW1 2840   5.824   3.472   0.487
  647SOL    HW2 2841   5.738   3.417   0.360
  648SOL     OW 2842   6.101   3.254   1.727
  648SOL    HW1 2843   6.023   3.211   1.772
  648SOL    HW2 2844   6.154   3.184   1.679
  649SOL     OW 2845   4.142   4.664   1.228
  649SOL    HW1 2846   4.112   4.711   1.144
  649SOL    HW2 2847   4.238   4.684   1.244
  650SOL     OW 2848   5.068   4.590   0.701
  650SOL    HW1 2849   5.113   4.586   0.791
  650SOL    HW2 2850   5.134   4.566   0.630
  651SOL     OW 2851   0.970   5.720   6.676
  651SOL    HW1 2852   1.028   5.782   6.622
  651SOL    HW2 2853   0.942   5.643   6.620
  652SOL     OW 2854   4.286   1.387   2.678
  652SOL    HW1 2855   4.258   1.302   2.634
  652SOL    HW2 2856   4.242   1.464   2.632
  653SOL     OW 2857   3.879   4.838   3.628
  653SOL    HW1 2858   3.819   4.783   3.686
  653SOL    HW2 2859   3.965   4.854   3.677
  654SOL     OW 2860   6.595   4.504   0.750
  654SOL    HW1 2861   6.540   4.429   0.787
  654SOL    HW2 2862   6.591   4.582   0.812
  655SOL     OW 2863   0.590   1.047   0.549
  655SOL    HW1 2864   0.533   1.082   0.474
  655SOL    HW2 2865   0.551   0.962   0.583
  656SOL     OW 2866   2.713   6.597   2.203
  656SOL    HW1 2867   2.646   6.645   2.260
  656SOL    HW2 2868   2.802   6.642   2.212
  657SOL     OW 2869   2.918   1.653   6.872
  657SOL    HW1 2870   2.899   1.721   6.942
  657SOL    HW2 2871   2.903   1.693   6.781
  658SOL     OW 2872   3.476   4.767   5.872
  658SOL    HW1 2873   3.381   4.746   5.848
  658SOL    HW2 2874   3.529   4.782   5.789
  659SOL     OW 2875   2.706   0.373   6.739
  659SOL    HW1 2876   2.616   0.377   6.782
  659SOL    HW2 2877   2.699   0.321   6.654
  660SOL     OW 2878   3.863   5.329   2.972
  660SOL    HW1 2879   3.777   5.342   2.923
  660SOL    HW2 2880   3.868   5.391   3.050
  661SOL     OW 2881   5.043   5.310   2.962
  661SOL    HW1 2882   5.048   5.227   2.906
  661SOL    HW2 2883   5.114   5.374   2.935
  662SOL     OW 2884   3.182   1.087   0.080
  662SOL    HW1 2885   3.091   1.062   0.112
  662SOL    HW2 2886   3.196   1.185   0.092
  663SOL     OW 2887   2.448   4.449   5.041
  663SOL    HW1 2888   2.461   4.483   4.948
  663SOL    HW2 2889   2.373   4.383   5.043
  664SOL     OW 2890   6.409   0.798   6.957
  664SOL    HW1 2891   6.328   0.744   6.934
  664SOL    HW2 2892   6.433   0.782   0.032
  665SOL     OW 2893   2.503   5.330   3.040
  665SOL    HW1 2894   2.546   5.241   3.026
  665SOL    HW2 2895   2.573   5.399   3.056
  666SOL     OW 2896   4.066   1.185   2.336
  666SOL    HW1 2897   4.137   1.163   2.269
  666SOL    HW2 2898   4.051   1.284   2.336
  667SOL     OW 2899   1.187   6.764   2.489
  667SOL    HW1 2900   1.101   6.785   2.535
  667SOL    HW2 2901   1.204   6.832   2.418
  668SOL     OW 2902   5.194   3.775   0.453
  668SOL    HW1 2903   5.231   3.802   0.364
  668SOL    HW2 2904   5.140   3.691   0.442
  669SOL     OW 2905   5.119   1.931   3.068
  669SOL    HW1 2906   5.096   2.028   3.079
  669SOL    HW2 2907   5.117   1.907   2.971
  670SOL     OW 2908   2.254   2.041   3.329
  670SOL    HW1 2909   2.214   1.950   3.314
  670SOL    HW2 2910   2.315   2.038   3.408
  671SOL     OW 2911   3.185   6.136   1.791
  671SOL    HW1 2912   3.185   6.229   1.755
  671SOL    HW2 2913   3.123   6.131   1.869
  672SOL     OW 2914   1.384   6.596   2.363
  672SOL    HW1 2915   1.356   6.646   2.445
  672SOL    HW2 2916   1.481   6.571   2.371
  673SOL     OW 2917   5.830   6.954   0.261
  673SOL    HW1 2918   5.927   6.962   0.242
  673SOL    HW2 2919   5.782   6.928   0.177
  674SOL     OW 2920   0.163   1.191   4.412
  674SOL    HW1 2921   0.071   1.152   4.416
  674SOL    HW2 2922   0.222   1.144   4.477
  675SOL     OW 2923   6.025   3.033   2.465
  675SOL    HW1 2924   6.043   3.060   2.370
  675SOL    HW2 2925   6.112   3.020   2.513
  676SOL     OW 2926   1.820   6.014   6.117
  676SOL    HW1 2927   1.841   5.978   6.208
  676SOL    HW2 2928   1.848   6.110   6.113
  677SOL     OW 2929   4.705   1.525   0.876
  677SOL    HW1 2930   4.750   1.549   0.962
  677SOL    HW2 2931   4.728   1.593   0.807
  678SOL     OW 2932   1.961   4.996   4.459
  678SOL    HW1 2933   1.870   4.955   4.453
  678SOL    HW2 2934   2.029   4.925   4.475
  679SOL     OW 2935   5.384   1.643   5.463
  679SOL    HW1 2936   5.431   1.685   5.540
  679SOL    HW2 2937   5.291   1.681   5.456
  680SOL     OW 2938   4.571   0.015   4.396
  680SOL    HW1 2939   4.657   0.057   4.369
  680SOL    HW2 2940   4.501   0.034   4.328
  681SOL     OW 2941   4.584   4.879   2.226
  681SOL    HW1 2942   4.491   4.850   2.249
  681SOL    HW2 2943   4.581   4.952   2.158
  682SOL     OW 2944   1.080   1.200   3.831
  682SOL    HW1 2945   1.044   1.147   3.908
  682SOL    HW2 2946   1.068   1.298   3.850
  683SOL     OW 2947   4.436   3.608   1.283
  683SOL    HW1 2948   4.356   3.581   1.229
  683SOL    HW2 2949   4.418   3.696   1.326
  684SOL     OW 2950   6.459   1.371   5.978
  684SOL    HW1 2951   6.386   1.394   5.914
  684SOL    HW2 2952   6.420   1.341   6.065
  685SOL     OW 2953   3.729   0.443   3.052
  685SOL    HW1 2954   3.670   0.384   3.107
  685SOL    HW2 2955   3.691   0.536   3.050
  686SOL     OW 2956   4.553   0.368   5.076
  686SOL    HW1 2957   4.498   0.298   5.122
  686SOL    HW2 2958   4.570   0.444   5.139
  687SOL     OW 2959   1.202   2.034   4.387
  687SOL    HW1 2960   1.281   1.973   4.392
  687SOL    HW2 2961   1.223   2.111   4.327
  688SOL     OW 2962   6.438   1.259   6.568
  688SOL    HW1 2963   6.536   1.246   6.583
  688SOL    HW2 2964   6.388   1.243   6.653
  689SOL     OW 2965   1.426   4.859   6.141
  689SOL    HW1 2966   1.355   4.813   6.086
  689SOL    HW2 2967   1.484   4.914   6.081
  690SOL     OW 2968   5.659   3.298   2.601
  690SOL    HW1 2969   5.692   3.313   2.694
  690SOL    HW2 2970   5.559   3.289   2.602
  691SOL     OW 2971   5.140   1.412   0.543
  691SOL    HW1 2972   5.128   1.511   0.548
  691SOL    HW2 2973   5.126   1.381   0.449
  692SOL     OW 2974   2.705   0.844   4.893
  692SOL    HW1 2975   2.719   0.843   4.794
  692SOL    HW2 2976   2.609   0.865   4.913
  693SOL     OW 2977   5.302   5.864   3.783
  693SOL    HW1 2978   5.284   5.879   3.880
  693SOL    HW2 2979   5.215   5.855   3.734
  694SOL     OW 2980   4.629   5.862   5.275
  694SOL    HW1 2981   4.725   5.836   5.268
  694SOL    HW2 2982   4.609   5.934   5.209
  695SOL     OW 2983   3.171   6.928   4.039
  695SOL    HW1 2984   3.146   6.965   4.129
  695SOL    HW2 2985   3.111   6.852   4.015
  696SOL     OW 2986   4.672   4.307   2.993
  696SOL    HW1 2987   4.677   4.348   2.902
  696SOL    HW2 2988   4.652   4.377   3.061
  697SOL     OW 2989   0.181   5.238   2.119
  697SOL    HW1 2990   0.273   5.252   2.155
  697SOL    HW2 2991   0.178   5.151   2.070
  698SOL     OW 2992   5.944   6.608   0.775
  698SOL    HW1 2993   6.038   6.610   0.810
  698SOL    HW2 2994   5.939   6.544   0.698
  699SOL     OW 2995   2.468   2.402   1.180
  699SOL    HW1 2996   2.379   2.446   1.169
  699SOL    HW2 2997   2.510   2.435   1.265
  700SOL     OW 2998   3.669   6.989   2.836
  700SOL    HW1 2999   3.636   0.060   2.860
  700SOL    HW2 3000   3.767   6.993   2.817
  701SOL     OW 3001   5.930   5.346   1.468
  701SOL    HW1 3002   5.848   5.403   1.458
  701SOL    HW2 3003   5.975   5.338   1.379
  702SOL     OW 3004   3.527   1.039   4.096
  702SOL    HW1 3005   3.430   1.059   4.109
  702SOL    HW2 3006   3.559   0.980   4.170
  703SOL     OW 3007   2.800   2.188   6.352
  703SOL    HW1 3008   2.723   2.161   6.296
  703SOL    HW2 3009   2.780   2.275   6.397
  704SOL     OW 3010   1.334   2.745   5.740
  704SOL    HW1 3011   1.325   2.704   5.831
  704SOL    HW2 3012   1.254   2.721   5.685
  705SOL     OW 3013   7.001   6.108   4.781
  705SOL    HW1 3014   6.906   6.085   4.760
  705SOL    HW2 3015   7.004   6.172   4.858
  706SOL     OW 3016   4.496   0.882   5.261
  706SOL    HW1 3017   4.517   0.919   5.170
  706SOL    HW2 3018   4.424   0.938   5.303
  707SOL     OW 3019   3.504   5.284   3.652
  707SOL    HW1 3020   3.482   5.186   3.642
  707SOL    HW2 3021   3.515   5.325   3.561
  708SOL     OW 3022   3.519   0.320   3.638
  708SOL    HW1 3023   3.512   0.323   3.738
  708SOL    HW2 3024   3.439   0.364   3.598
  709SOL     OW 3025   2.316   0.165   1.723
  709SOL    HW1 3026   2.348   0.108   1.647
  709SOL    HW2 3027   2.235   0.124   1.764
  710SOL     OW 3028   4.660   2.818   1.755
  710SOL    HW1 3029   4.731   2.769   1.804
  710SOL    HW2 3030   4.663   2.915   1.780
  711SOL     OW 3031   0.240   2.228   5.822
  711SOL    HW1 3032   0.274   2.260   5.911
  711SOL    HW2 3033   0.181   2.298   5.782
  712SOL     OW 3034   5.024   4.405   0.429
  712SOL    HW1 3035   4.998   4.347   0.506
  712SOL    HW2 3036   5.012   4.353   0.344
  713SOL     OW 3037   4.008   2.815   5.302
  713SOL    HW1 3038   3.918   2.831   5.262
  713SOL    HW2 3039   4.044   2.728   5.270
  714SOL     OW 3040   5.090   5.118   3.837
  714SOL    HW1 3041   5.109   5.132   3.740
  714SOL    HW2 3042   5.172   5.088   3.884
  715SOL     OW 3043   6.437   5.327   5.456
  715SOL    HW1 3044   6.364   5.380   5.501
  715SOL    HW2 3045   6.526   5.355   5.493
  716SOL     OW 3046   2.319   1.659   2.694
  716SOL    HW1 3047   2.411   1.622   2.682
  716SOL    HW2 3048   2.271   1.660   2.606
  717SOL     OW 3049   5.299   5.106   4.295
  717SOL    HW1 3050   5.386   5.113   4.245
  717SOL    HW2 3051   5.226   5.080   4.232
  718SOL     OW 3052   5.630   1.950   4.530
  718SOL    HW1 3053   5.631   1.957   4.430
  718SOL    HW2 3054   5.543   1.911   4.560
  719SOL     OW 3055   5.466   0.200   3.444
  719SOL    HW1 3056   5.529   0.163   3.512
  719SOL    HW2 3057   5.499   0.289   3.412
  720SOL     OW 3058   1.977   1.223   6.891
  720SOL    HW1 3059   2.029   1.138   6.883
  720SOL    HW2 3060   1.950   1.237   6.986
  721SOL     OW 3061   0.196   1.839   3.455
  721SOL    HW1 3062   0.101   1.869   3.461
  721SOL    HW2 3063   0.199   1.740   3.454
  722SOL     OW 3064   4.148   6.687   0.237
  722SOL    HW1 3065   4.109   6.746   0.166
  722SOL    HW2 3066   4.080   6.620   0.265
  723SOL     OW 3067   2.483   5.681   3.643
  723SOL    HW1 3068   2.527   5.607   3.593
  723SOL    HW2 3069   2.549   5.754   3.660
  724SOL     OW 3070   1.323   1.111   3.755
  724SOL    HW1 3071   1.227   1.140   3.750
  724SOL    HW2 3072   1.377   1.183   3.798
  725SOL     OW 3073   1.271   4.110   2.601
  725SOL    HW1 3074   1.175   4.129   2.617
  725SOL    HW2 3075   1.290   4.013   2.620
  726SOL     OW 3076   1.953   4.214   0.761
  726SOL    HW1 3077   1.990   4.125   0.787
  726SOL    HW2 3078   1.921   4.211   0.666
  727SOL     OW 3079   4.292   5.503   5.523
  727SOL    HW1 3080   4.390   5.509   5.542
  727SOL    HW2 3081   4.263   5.407   5.525
  728SOL     OW 3082   6.410   3.341   3.987
  728SOL    HW1 3083   6.477   3.355   4.060
  728SOL    HW2 3084   6.405   3.422   3.930
  729SOL     OW 3085   0.086   4.067   1.715
  729SOL    HW1 3086   0.006   4.120   1.686
  729SOL    HW2 3087   0.057   3.995   1.779
  730SOL     OW 3088   5.235   0.540   3.096
  730SOL    HW1 3089   5.242   0.459   3.154
  730SOL    HW2 3090   5.295   0.529   3.016
  731SOL     OW 3091   4.293   4.619   6.370
  731SOL    HW1 3092   4.372   4.567   6.337
  731SOL    HW2 3093   4.239   4.650   6.292
  732SOL     OW 3094   4.931   1.584   4.266
  732SOL    HW1 3095   4.930   1.484   4.266
  732SOL    HW2 3096   5.011   1.617   4.216
  733SOL     OW 3097   5.893   6.646   3.206
  733SOL    HW1 3098   5.861   6.675   3.116
  733SOL    HW2 3099   5.931   6.554   3.201
  734SOL     OW 3100   5.629   6.330   2.662
  734SOL    HW1 3101   5.705   6.341   2.726
  734SOL    HW2 3102   5.553   6.389   2.690
  735SOL     OW 3103   4.942   0.765   2.274
  735SOL    HW1 3104   5.007   0.840   2.268
  735SOL    HW2 3105   4.915   0.751   2.369
  736SOL     OW 3106   1.250   1.758   4.678
  736SOL    HW1 3107   1.187   1.834   4.663
  736SOL    HW2 3108   1.238   1.689   4.606
  737SOL     OW 3109   5.494   0.882   6.571
  737SOL    HW1 3110   5.465   0.787   6.571
  737SOL    HW2 3111   5.593   0.887   6.560
  738SOL     OW 3112   2.460   4.213   1.294
  738SOL    HW1 3113   2.520   4.267   1.352
  738SOL    HW2 3114   2.454   4.119   1.328
  739SOL     OW 3115   2.767   6.589   4.728
  739SOL    HW1 3116   2.805   6.501   4.756
  739SOL    HW2 3117   2.671   6.594   4.755
  740SOL     OW 3118   5.477   3.312   2.989
  740SOL    HW1 3119   5.570   3.349   2.978
  740SOL    HW2 3120   5.446   3.326   3.083
  741SOL     OW 3121   2.643   0.811   3.019
  741SOL    HW1 3122   2.607   0.737   2.962
  741SOL    HW2 3123   2.723   0.851   2.974
  742SOL     OW 3124   1.855   6.682   1.416
  742SOL    HW1 3125   1.822   6.592   1.445
  742SOL    HW2 3126   1.829   6.750   1.484
  743SOL     OW 3127   0.648   6.477   3.216
  743SOL    HW1 3128   0.599   6.416   3.155
  743SOL    HW2 3129   0.590   6.555   3.239
  744SOL     OW 3130   4.975   2.041   0.280
  744SOL    HW1 3131   4.881   2.063   0.306
  744SOL    HW2 3132   4.976   1.953   0.232
  745SOL     OW 3133   2.976   6.441   5.263
  745SOL    HW1 3134   3.070   6.439   5.229
  745SOL    HW2 3135   2.935   6.350   5.254
  746SOL     OW 3136   6.799   4.456   5.412
  746SOL    HW1 3137   6.842   4.461   5.502
  746SOL    HW2 3138   6.859   4.499   5.344
  747SOL     OW 3139   4.971   5.820   3.043
  747SOL    HW1 3140   4.915   5.785   2.967
  747SOL    HW2 3141   4.976   5.920   3.037
  748SOL     OW 3142   5.743   5.500   2.220
  748SOL    HW1 3143   5.710   5.405   2.221
  748SOL    HW2 3144   5.685   5.556   2.279
  749SOL     OW 3145   4.877   3.418   3.697
  749SOL    HW1 3146   4.964   3.408   3.648
  749SOL    HW2 3147   4.846   3.328   3.728
  750SOL     OW 3148   2.178   2.058   1.799
  750SOL    HW1 3149   2.142   1.969   1.770
  750SOL    HW2 3150   2.233   2.047   1.882
  751SOL     OW 3151   4.579   0.435   0.153
  751SOL    HW1 3152   4.545   0.501   0.219
  751SOL    HW2 3153   4.505   0.374   0.125
  752SOL     OW 3154   3.571   2.430   5.471
  752SOL    HW1 3155   3.598   2.512   5.422
  752SOL    HW2 3156   3.482   2.399   5.438
  753SOL     OW 3157   4.005   3.744   4.694
  753SOL    HW1 3158   4.005   3.726   4.793
  753SOL    HW2 3159   4.092   3.713   4.655
  754SOL     OW 3160   5.647   0.404   6.939
  754SOL    HW1 3161   5.709   0.350   6.996
  754SOL    HW2 3162   5.616   0.349   6.862
  755SOL     OW 3163   4.149   4.604   5.316
  755SOL    HW1 3164   4.231   4.557   5.285
  755SOL    HW2 3165   4.157   4.626   5.413
  756SOL     OW 3166   2.314   4.952   5.825
  756SOL    HW1 3167   2.283   4.993   5.740
  756SOL    HW2 3168   2.402   4.992   5.851
  757SOL     OW 3169   2.757   6.819   2.467
  757SOL    HW1 3170   2.823   6.861   2.405
  757SOL    HW2 3171   2.676   6.790   2.415
  758SOL     OW 3172   3.520   1.492   3.945
  758SOL    HW1 3173   3.538   1.520   3.851
  758SOL    HW2 3174   3.471   1.565   3.992
  759SOL     OW 3175   0.723   2.757   4.490
  759SOL    HW1 3176   0.780   2.810   4.428
  759SOL    HW2 3177   0.671   2.819   4.549
  760SOL     OW 3178   6.887   5.757   3.643
  760SOL    HW1 3179   6.862   5.852   3.661
  760SOL    HW2 3180   6.984   5.743   3.664
  761SOL     OW 3181   4.411   3.211   6.228
  761SOL    HW1 3182   4.364   3.247   6.147
  761SOL    HW2 3183   4.509   3.225   6.219
  762SOL     OW 3184   3.423   5.503   4.508
  762SOL    HW1 3185   3.365   5.516   4.589
  762SOL    HW2 3186   3.480   5.421   4.521
  763SOL     OW 3187   5.718   0.535   0.152
  763SOL    HW1 3188   5.664   0.590   0.216
  763SOL    HW2 3189   5.659   0.502   0.078
  764SOL     OW 3190   5.511   0.069   5.039
  764SOL    HW1 3191   5.468   7.010   5.082
  764SOL    HW2 3192   5.609   0.053   5.030
  765SOL     OW 3193   6.970   6.566   1.179
  765SOL    HW1 3194   0.005   6.623   1.118
  765SOL    HW2 3195   7.018   6.553   1.265
  766SOL     OW 3196   2.113   2.072   5.396
  766SOL    HW1 3197   2.115   2.167   5.365
  766SOL    HW2 3198   2.033   2.057   5.454
  767SOL     OW 3199   0.366   6.158   4.558
  767SOL    HW1 3200   0.333   6.189   4.647
  767SOL    HW2 3201   0.460   6.189   4.544
  768SOL     OW 3202   2.197   5.605   2.040
  768SOL    HW1 3203   2.126   5.535   2.042
  768SOL    HW2 3204   2.164   5.687   2.088
  769SOL     OW 3205   2.943   2.075   4.991
  769SOL    HW1 3206   2.923   2.023   5.074
  769SOL    HW2 3207   3.015   2.143   5.011
  770SOL     OW 3208   1.837   4.581   4.714
  770SOL    HW1 3209   1.753   4.572   4.767
  770SOL    HW2 3210   1.887   4.662   4.744
  771SOL     OW 3211   1.159   5.852   2.783
  771SOL    HW1 3212   1.154   5.898   2.872
  771SOL    HW2 3213   1.224   5.777   2.787
  772SOL     OW 3214   5.838   4.443   0.530
  772SOL    HW1 3215   5.752   4.479   0.494
  772SOL    HW2 3216   5.828   4.420   0.627
  773SOL     OW 3217   0.193   3.866   3.219
  773SOL    HW1 3218   0.125   3.795   3.241
  773SOL    HW2 3219   0.253   3.833   3.147
  774SOL     OW 3220   2.027   0.737   2.953
  774SOL    HW1 3221   2.114   0.736   3.002
  774SOL    HW2 3222   2.025   0.816   2.892
  775SOL     OW 3223   2.028   4.785   2.882
  775SOL    HW1 3224   1.977   4.866   2.912
  775SOL    HW2 3225   2.107   4.814   2.828
  776SOL     OW 3226   2.388   5.120   6.837
  776SOL    HW1 3227   2.439   5.204   6.853
  776SOL    HW2 3228   2.421   5.076   6.753
  777SOL     OW 3229   2.210   3.754   0.398
  777SOL    HW1 3230   2.161   3.681   0.350
  777SOL    HW2 3231   2.170   3.842   0.374
  778SOL     OW 3232   2.708   6.843   1.401
  778SOL    HW1 3233   2.802   6.876   1.409
  778SOL    HW2 3234   2.671   6.869   1.312
  779SOL     OW 3235   0.245   2.266   3.641
  779SOL    HW1 3236   0.313   2.192   3.641
  779SOL    HW2 3237   0.156   2.229   3.667
  780SOL     OW 3238   0.719   1.838   4.167
  780SOL    HW1 3239   0.768   1.861   4.251
  780SOL    HW2 3240   0.755   1.752   4.130
  781SOL     OW 3241   0.790   4.593   0.532
  781SOL    HW1 3242   0.864   4.531   0.556
  781SOL    HW2 3243   0.710   4.540   0.505
  782SOL     OW 3244   2.039   3.516   5.305
  782SOL    HW1 3245   2.110   3.465   5.257
  782SOL    HW2 3246   1.982   3.564   5.239
  783SOL     OW 3247   6.397   4.920   6.302
  783SOL    HW1 3248   6.488   4.890   6.273
  783SOL    HW2 3249   6.405   4.972   6.387
  784SOL     OW 3250   3.174   6.121   0.250
  784SOL    HW1 3251   3.145   6.196   0.190
  784SOL    HW2 3252   3.157   6.147   0.345
  785SOL     OW 3253   1.224   6.543   4.669
  785SOL    HW1 3254   1.254   6.637   4.679
  785SOL    HW2 3255   1.154   6.523   4.738
  786SOL     OW 3256   6.769   1.219   3.078
  786SOL    HW1 3257   6.823   1.245   3.158
  786SOL    HW2 3258   6.673   1.211   3.105
  787SOL     OW 3259   2.747   0.285   0.779
  787SOL    HW1 3260   2.670   0.326   0.828
  787SOL    HW2 3261   2.812   0.356   0.753
  788SOL     OW 3262   3.106   2.686   0.924
  788SOL    HW1 3263   3.184   2.731   0.880
  788SOL    HW2 3264   3.138   2.610   0.980
  789SOL     OW 3265   4.257   5.111   1.737
  789SOL    HW1 3266   4.246   5.015   1.762
  789SOL    HW2 3267   4.299   5.118   1.647
  790SOL     OW 3268   0.841   2.533   2.689
  790SOL    HW1 3269   0.832   2.605   2.620
  790SOL    HW2 3270   0.821   2.571   2.780
  791SOL     OW 3271   3.237   5.203   4.836
  791SOL    HW1 3272   3.329   5.242   4.842
  791SOL    HW2 3273   3.177   5.252   4.899
  792SOL     OW 3274   1.327   0.759   0.890
  792SOL    HW1 3275   1.353   0.847   0.850
  792SOL    HW2 3276   1.264   0.775   0.966
  793SOL     OW 3277   2.917   5.806   4.240
  793SOL    HW1 3278   2.891   5.902   4.225
  793SOL    HW2 3279   3.005   5.788   4.196
  794SOL     OW 3280   3.652   3.199   3.338
  794SOL    HW1 3281   3.659   3.103   3.367
  794SOL    HW2 3282   3.610   3.203   3.248
  795SOL     OW 3283   3.928   0.446   6.314
  795SOL    HW1 3284   3.904   0.444   6.217
  795SOL    HW2 3285   4.026   0.462   6.324
  796SOL     OW 3286   1.132   3.220   6.767
  796SOL    HW1 3287   1.137   3.171   6.854
  796SOL    HW2 3288   1.059   3.182   6.711
  797SOL     OW 3289   5.202   6.817   0.913
  797SOL    HW1 3290   5.260   6.783   0.839
  797SOL    HW2 3291   5.142   6.889   0.878
  798SOL     OW 3292   3.745   6.194   1.109
  798SOL    HW1 3293   3.823   6.225   1.163
  798SOL    HW2 3294   3.718   6.267   1.045
  799SOL     OW 3295   1.582   2.442   5.421
  799SOL    HW1 3296   1.530   2.430   5.506
  799SOL    HW2 3297   1.670   2.395   5.430
  800SOL     OW 3298   5.782   2.840   1.902
  800SOL    HW1 3299   5.844   2.779   1.952
  800SOL    HW2 3300   5.690   2.832   1.940
  801SOL     OW 3301   2.026   5.237   5.682
  801SOL    HW1 3302   1.930   5.261   5.668
  801SOL    HW2 3303   2.041   5.142   5.657
  802SOL     OW 3304   5.635   3.114   6.244
  802SOL    HW1 3305   5.601   3.020   6.257
  802SOL    HW2 3306   5.726   3.110   6.202
  803SOL     OW 3307   2.700   1.596   5.266
  803SOL    HW1 3308   2.635   1.671   5.278
  803SOL    HW2 3309   2.681   1.549   5.180
  804SOL     OW 3310   5.968   0.825   2.450
  804SOL    HW1 3311   6.047   0.866   2.495
  804SOL    HW2 3312   5.884   0.856   2.495
  805SOL     OW 3313   3.782   0.273   3.605
  805SOL    HW1 3314   3.830   0.344   3.656
  805SOL    HW2 3315   3.684   0.293   3.603
  806SOL     OW 3316   2.085   6.077   5.825
  806SOL    HW1 3317   1.997   6.123   5.811
  806SOL    HW2 3318   2.122   6.050   5.736
  807SOL     OW 3319   0.336   6.079   6.263
  807SOL    HW1 3320   0.324   6.011   6.191
  807SOL    HW2 3321   0.434   6.091   6.281
  808SOL     OW 3322   5.410   3.026   0.109
  808SOL    HW1 3323   5.335   3.070   0.059
  808SOL    HW2 3324   5.457   2.961   0.049
  809SOL     OW 3325   2.296   4.340   0.452
  809SOL    HW1 3326   2.248   4.255   0.432
  809SOL    HW2 3327   2.390   4.334   0.419
  810SOL     OW 3328   3.941   3.166   0.149
  810SOL    HW1 3329   3.846   3.134   0.148
  810SOL    HW2 3330   3.961   3.213   0.235
  811SOL     OW 3331   5.444   5.195   4.083
  811SOL    HW1 3332   5.396   5.281   4.068
  811SOL    HW2 3333   5.542   5.207   4.064
  812SOL     OW 3334   0.476   3.047   2.083
  812SOL    HW1 3335   0.484   3.131   2.028
  812SOL    HW2 3336   0.404   2.989   2.045
  813SOL     OW 3337   0.760   1.892   4.435
  813SOL    HW1 3338   0.701   1.810   4.435
  813SOL    HW2 3339   0.703   1.973   4.450
  814SOL     OW 3340   0.933   4.976   3.180
  814SOL    HW1 3341   0.947   4.900   3.117
  814SOL    HW2 3342   0.954   5.062   3.134
  815SOL     OW 3343   4.710   1.675   4.374
  815SOL    HW1 3344   4.797   1.644   4.337
  815SOL    HW2 3345   4.637   1.614   4.342
  816SOL     OW 3346   5.452   4.673   6.537
  816SOL    HW1 3347   5.509   4.732   6.481
  816SOL    HW2 3348   5.477   4.578   6.522
  817SOL     OW 3349   1.024   4.375   7.018
  817SOL    HW1 3350   1.046   4.418   6.931
  817SOL    HW2 3351   1.039   4.440   0.072
  818SOL     OW 3352   6.143   2.732   4.740
  818SOL    HW1 3353   6.121   2.827   4.764
  818SOL    HW2 3354   6.061   2.676   4.753
  819SOL     OW 3355   5.255   2.681   2.182
  819SOL    HW1 3356   5.227   2.726   2.097
  819SOL    HW2 3357   5.342   2.634   2.168
  820SOL     OW 3358   2.134   1.974   4.813
  820SOL    HW1 3359   2.194   2.026   4.874
  820SOL    HW2 3360   2.063   2.033   4.777
  821SOL     OW 3361   5.885   3.428   5.310
  821SOL    HW1 3362   5.861   3.389   5.221
  821SOL    HW2 3363   5.856   3.365   5.383
  822SOL     OW 3364   0.837   4.241   3.408
  822SOL    HW1 3365   0.824   4.144   3.432
  822SOL    HW2 3366   0.899   4.283   3.474
  823SOL     OW 3367   1.022   4.098   5.598
  823SOL    HW1 3368   0.981   4.052   5.677
  823SOL    HW2 3369   1.104   4.049   5.569
  824SOL     OW 3370   5.951   1.353   5.527
  824SOL    HW1 3371   5.974   1.334   5.623
  824SOL    HW2 3372   5.898   1.437   5.521
  825SOL     OW 3373   6.033   5.964   0.901
  825SOL    HW1 3374   5.983   5.958   0.988
  825SOL    HW2 3375   6.113   6.022   0.913
  826SOL     OW 3376   3.717   1.525   6.498
  826SOL    HW1 3377   3.661   1.442   6.500
  826SOL    HW2 3378   3.693   1.583   6.575
  827SOL     OW 3379   3.732   4.003   4.796
  827SOL    HW1 3380   3.809   4.012   4.734
  827SOL    HW2 3381   3.655   3.961   4.748
  828SOL     OW 3382   6.411   5.974   5.184
  828SOL    HW1 3383   6.463   5.890   5.168
  828SOL    HW2 3384   6.317   5.961   5.150
  829SOL     OW 3385   3.180   2.968   2.672
  829SOL    HW1 3386   3.117   3.044   2.658
  829SOL    HW2 3387   3.198   2.956   2.770
  830SOL     OW 3388   6.710   4.107   0.128
  830SOL    HW1 3389   6.754   4.090   0.216
  830SOL    HW2 3390   6.709   4.023   0.074
  831SOL     OW 3391   4.660   6.650   1.202
  831SOL    HW1 3392   4.692   6.557   1.222
  831SOL    HW2 3393   4.736   6.714   1.211
  832SOL     OW 3394   3.086   2.076   4.466
  832SOL    HW1 3395   3.020   2.080   4.540
  832SOL    HW2 3396   3.069   1.994   4.410
  833SOL     OW 3397   2.496   2.807   6.665
  833SOL    HW1 3398   2.549   2.892   6.677
  833SOL    HW2 3399   2.423   2.804   6.733
  834SOL     OW 3400   5.306   3.367   0.121
  834SOL    HW1 3401   5.368   3.433   0.077
  834SOL    HW2 3402   5.345   3.338   0.209
  835SOL     OW 3403   0.419   6.445   4.340
  835SOL    HW1 3404   0.379   6.444   4.248
  835SOL    HW2 3405   0.493   6.512   4.343
  836SOL     OW 3406   3.707   1.086   4.500
  836SOL    HW1 3407   3.694   1.179   4.468
  836SOL    HW2 3408   3.646   1.068   4.577
  837SOL     OW 3409   1.945   1.026   0.507
  837SOL    HW1 3410   1.989   1.101   0.558
  837SOL    HW2 3411   1.864   0.996   0.557
  838SOL     OW 3412   1.893   5.297   3.316
  838SOL    HW1 3413   1.881   5.314   3.218
  838SOL    HW2 3414   1.889   5.198   3.333
  839SOL     OW 3415   0.999   2.148   0.329
  839SOL    HW1 3416   1.084   2.144   0.276
  839SOL    HW2 3417   0.946   2.228   0.299
  840SOL     OW 3418   5.352   5.434   6.700
  840SOL    HW1 3419   5.305   5.418   6.613
  840SOL    HW2 3420   5.422   5.364   6.714
  841SOL     OW 3421   3.762   4.423   6.694
  841SOL    HW1 3422   3.769   4.515   6.654
  841SOL    HW2 3423   3.766   4.355   6.621
  842SOL     OW 3424   3.255   6.537   6.396
  842SOL    HW1 3425   3.331   6.542   6.460
  842SOL    HW2 3426   3.202   6.454   6.413
  843SOL     OW 3427   1.402   1.126   2.484
  843SOL    HW1 3428   1.376   1.169   2.398
  843SOL    HW2 3429   1.400   1.194   2.557
  844SOL     OW 3430   6.261   0.310   1.625
  844SOL    HW1 3431   6.332   0.380   1.633
  844SOL    HW2 3432   6.171   0.353   1.629
  845SOL     OW 3433   3.604   1.370   2.425
  845SOL    HW1 3434   3.696   1.389   2.461
  845SOL    HW2 3435   3.571   1.450   2.374
  846SOL     OW 3436   2.645   2.031   0.504
  846SOL    HW1 3437   2.687   2.108   0.552
  846SOL    HW2 3438   2.689   2.019   0.415
  847SOL     OW 3439   2.220   4.236   1.711
  847SOL    HW1 3440   2.148   4.268   1.648
  847SOL    HW2 3441   2.236   4.138   1.695
  848SOL     OW 3442   0.030   5.530   0.136
  848SOL    HW1 3443   0.077   5.603   0.087
  848SOL    HW2 3444   0.098   5.467   0.174
  849SOL     OW 3445   6.100   3.493   6.773
  849SOL    HW1 3446   6.175   3.530   6.718
  849SOL    HW2 3447   6.059   3.566   6.828
  850SOL     OW 3448   0.588   0.648   5.032
  850SOL    HW1 3449   0.648   0.613   4.959
  850SOL    HW2 3450   0.622   0.737   5.063
  851SOL     OW 3451   6.775   3.429   5.725
  851SOL    HW1 3452   6.684   3.409   5.688
  851SOL    HW2 3453   6.835   3.351   5.709
  852SOL     OW 3454   0.814   4.026   2.441
  852SOL    HW1 3455   0.848   4.059   2.353
  852SOL    HW2 3456   0.870   3.950   2.473
  853SOL     OW 3457   2.818   3.395   0.057
  853SOL    HW1 3458   2.730   3.443   0.049
  853SOL    HW2 3459   2.876   3.420   7.000
  854SOL     OW 3460   5.678   6.734   6.550
  854SOL    HW1 3461   5.602   6.678   6.584
  854SOL    HW2 3462   5.641   6.818   6.510
  855SOL     OW 3463   6.062   1.035   6.998
  855SOL    HW1 3464   6.030   1.004   6.908
  855SOL    HW2 3465   6.100   1.128   6.989
  856SOL     OW 3466   2.308   6.011   0.901
  856SOL    HW1 3467   2.230   5.951   0.885
  856SOL    HW2 3468   2.276   6.106   0.910
  857SOL     OW 3469   6.058   5.252   5.721
  857SOL    HW1 3470   5.977   5.268   5.665
  857SOL    HW2 3471   6.067   5.154   5.739
  858SOL     OW 3472   4.010   3.336   0.343
  858SOL    HW1 3473   4.027   3.326   0.441
  858SOL    HW2 3474   4.088   3.381   0.300
  859SOL     OW 3475   4.273   6.386   5.548
  859SOL    HW1 3476   4.301   6.400   5.453
  859SOL    HW2 3477   4.175   6.363   5.550
  860SOL     OW 3478   5.078   3.131   5.737
  860SOL    HW1 3479   5.004   3.079   5.695
  860SOL    HW2 3480   5.166   3.086   5.719
  861SOL     OW 3481   2.663   6.331   2.389
  861SOL    HW1 3482   2.617   6.372   2.309
  861SOL    HW2 3483   2.654   6.393   2.467
  862SOL     OW 3484   0.960   4.373   3.599
  862SOL    HW1 3485   0.939   4.418   3.686
  862SOL    HW2 3486   1.054   4.397   3.572
  863SOL     OW 3487   0.100   0.654   0.257
  863SOL    HW1 3488   0.168   0.595   0.213
  863SOL    HW2 3489   0.146   0.716   0.321
  864SOL     OW 3490   5.930   0.105   4.718
  864SOL    HW1 3491   5.929   0.152   4.630
  864SOL    HW2 3492   5.997   0.149   4.778
  865SOL     OW 3493   2.188   6.430   4.500
  865SOL    HW1 3494   2.127   6.351   4.505
  865SOL    HW2 3495   2.137   6.509   4.466
  866SOL     OW 3496   3.429   6.258   2.231
  866SOL    HW1 3497   3.492   6.328   2.198
  866SOL    HW2 3498   3.474   6.169   2.230
  867SOL     OW 3499   6.073   2.112   6.914
  867SOL    HW1 3500   5.973   2.112   6.918
  867SOL    HW2 3501   6.110   2.119   7.006
  868SOL     OW 3502   6.963   1.978   2.447
  868SOL    HW1 3503   6.910   2.045   2.396
  868SOL    HW2 3504   6.989   2.016   2.536
  869SOL     OW 3505   6.568   3.869   3.183
  869SOL    HW1 3506   6.596   3.791   3.239
  869SOL    HW2 3507   6.537   3.944   3.242
  870SOL     OW 3508   3.472   5.187   1.937
  870SOL    HW1 3509   3.533   5.153   1.866
  870SOL    HW2 3510   3.380   5.150   1.922
  871SOL     OW 3511   4.590   1.551   3.549
  871SOL    HW1 3512   4.556   1.475   3.605
  871SOL    HW2 3513   4.538   1.555   3.464
  872SOL     OW 3514   6.700   3.414   5.087
  872SOL    HW1 3515   6.633   3.486   5.070
  872SOL    HW2 3516   6.789   3.441   5.049
  873SOL     OW 3517   5.026   6.780   6.356
  873SOL    HW1 3518   5.084   6.747   6.430
  873SOL    HW2 3519   5.061   6.868   6.322
  874SOL     OW 3520   5.008   4.631   0.286
  874SOL    HW1 3521   5.032   4.570   0.361
  874SOL    HW2 3522   5.078   4.626   0.215
  875SOL     OW 3523   4.955   5.316   0.414
  875SOL    HW1 3524   5.021   5.263   0.361
  875SOL    HW2 3525   4.897   5.254   0.467
  876SOL     OW 3526   6.974   6.304   1.484
  876SOL    HW1 3527   0.021   6.238   1.452
  876SOL    HW2 3528   7.005   6.397   1.464
  877SOL     OW 3529   2.894   3.630   6.827
  877SOL    HW1 3530   2.897   3.694   6.750
  877SOL    HW2 3531   2.801   3.597   6.840
  878SOL     OW 3532   3.955   6.801   4.400
  878SOL    HW1 3533   3.988   6.820   4.492
  878SOL    HW2 3534   3.870   6.748   4.405
  879SOL     OW 3535   5.620   0.824   0.811
  879SOL    HW1 3536   5.624   0.779   0.900
  879SOL    HW2 3537   5.703   0.879   0.797
  880SOL     OW 3538   2.959   3.599   2.465
  880SOL    HW1 3539   2.990   3.693   2.458
  880SOL    HW2 3540   2.954   3.572   2.562
  881SOL     OW 3541   4.295   1.812   6.665
  881SOL    HW1 3542   4.392   1.808   6.640
  881SOL    HW2 3543   4.241   1.761   6.598
  882SOL     OW 3544   0.965   3.313   4.005
  882SOL    HW1 3545   0.958   3.215   4.022
  882SOL    HW2 3546   1.034   3.330   3.935
  883SOL     OW 3547   3.065   0.143   2.642
  883SOL    HW1 3548   3.116   0.093   2.572
  883SOL    HW2 3549   2.969   0.148   2.615
  884SOL     OW 3550   4.824   3.065   5.053
  884SOL    HW1 3551   4.853   3.001   5.124
  884SOL    HW2 3552   4.878   3.149   5.059
  885SOL     OW 3553   3.836   1.922   6.265
  885SOL    HW1 3554   3.814   1.827   6.242
  885SOL    HW2 3555   3.758   1.981   6.242
  886SOL     OW 3556   3.117   0.123   0.098
  886SOL    HW1 3557   3.085   0.216   0.116
  886SOL    HW2 3558   3.082   0.093   0.009
  887SOL     OW 3559   4.317   0.979   4.287
  887SOL    HW1 3560   4.311   0.904   4.222
  887SOL    HW2 3561   4.240   0.975   4.350
  888SOL     OW 3562   0.068   0.480   3.226
  888SOL    HW1 3563   0.139   0.410   3.213
  888SOL    HW2 3564   0.085   0.556   3.163
  889SOL     OW 3565   0.647   3.660   0.105
  889SOL    HW1 3566   0.652   3.634   0.201
  889SOL    HW2 3567   0.639   3.578   0.048
  890SOL     OW 3568   2.392   5.692   3.966
  890SOL    HW1 3569   2.308   5.701   3.913
  890SOL    HW2 3570   2.445   5.614   3.933
  891SOL     OW 3571   5.562   5.752   0.789
  891SOL    HW1 3572   5.635   5.794   0.842
  891SOL    HW2 3573   5.601   5.689   0.722
  892SOL     OW 3574   2.594   4.136   5.912
  892SOL    HW1 3575   2.610   4.214   5.852
  892SOL    HW2 3576   2.632   4.156   6.003
  893SOL     OW 3577   2.640   6.909   3.065
  893SOL    HW1 3578   2.712   6.979   3.070
  893SOL    HW2 3579   2.552   6.953   3.047
  894SOL     OW 3580   1.213   4.070   1.388
  894SOL    HW1 3581   1.169   3.983   1.406
  894SOL    HW2 3582   1.160   4.121   1.321
  895SOL     OW 3583   0.139   6.144   3.465
  895SOL    HW1 3584   0.081   6.100   3.533
  895SOL    HW2 3585   0.147   6.241   3.487
  896SOL     OW 3586   6.487   6.189   5.674
  896SOL    HW1 3587   6.431   6.266   5.707
  896SOL    HW2 3588   6.434   6.136   5.608
  897SOL     OW 3589   5.238   0.540   6.445
  897SOL    HW1 3590   5.296   0.459   6.451
  897SOL    HW2 3591   5.165   0.533   6.513
  898SOL     OW 3592   3.438   6.219   3.117
  898SOL    HW1 3593   3.474   6.293   3.173
  898SOL    HW2 3594   3.410   6.143   3.177
  899SOL     OW 3595   0.250   4.885   6.454
  899SOL    HW1 3596   0.157   4.914   6.477
  899SOL    HW2 3597   0.316   4.938   6.507
  900SOL     OW 3598   5.636   6.318   0.671
  900SOL    HW1 3599   5.690   6.299   0.588
  900SOL    HW2 3600   5.597   6.232   0.705
  901SOL     OW 3601   1.289   1.336   2.042
  901SOL    HW1 3602   1.341   1.345   2.127
  901SOL    HW2 3603   1.221   1.263   2.051
  902SOL     OW 3604   6.493   4.400   1.185
  902SOL    HW1 3605   6.421   4.331   1.196
  902SOL    HW2 3606   6.582   4.356   1.192
  903SOL     OW 3607   6.570   2.226   0.367
  903SOL    HW1 3608   6.651   2.173   0.340
  903SOL    HW2 3609   6.534   2.190   0.453
  904SOL     OW 3610   3.429   2.029   3.237
  904SOL    HW1 3611   3.338   1.988   3.229
  904SOL    HW2 3612   3.466   2.011   3.328
  905SOL     OW 3613   6.148   2.817   0.160
  905SOL    HW1 3614   6.141   2.894   0.096
  905SOL    HW2 3615   6.102   2.737   0.120
  906SOL     OW 3616   6.804   2.979   5.857
  906SOL    HW1 3617   6.894   2.977   5.902
  906SOL    HW2 3618   6.732   2.980   5.926
  907SOL     OW 3619   4.916   3.442   6.759
  907SOL    HW1 3620   4.997   3.397   6.797
  907SOL    HW2 3621   4.851   3.461   6.832
  908SOL     OW 3622   2.887   4.739   2.595
  908SOL    HW1 3623   2.803   4.791   2.613
  908SOL    HW2 3624   2.863   4.651   2.555
  909SOL     OW 3625   5.434   5.155   6.134
  909SOL    HW1 3626   5.501   5.159   6.208
  909SOL    HW2 3627   5.481   5.163   6.046
  910SOL     OW 3628   2.959   2.926   1.695
  910SOL    HW1 3629   2.864   2.906   1.716
  910SOL    HW2 3630   3.019   2.864   1.745
  911SOL     OW 3631   1.315   5.244   6.348
  911SOL    HW1 3632   1.355   5.297   6.274
  911SOL    HW2 3633   1.216   5.247   6.341
  912SOL     OW 3634   4.590   2.294   3.261
  912SOL    HW1 3635   4.608   2.238   3.342
  912SOL    HW2 3636   4.638   2.256   3.182
  913SOL     OW 3637   5.410   0.200   2.914
  913SOL    HW1 3638   5.384   0.106   2.937
  913SOL    HW2 3639   5.336   0.244   2.865
  914SOL     OW 3640   2.663   0.007   0.075
  914SOL    HW1 3641   2.584   0.005   0.013
  914SOL    HW2 3642   2.652   6.956   0.144
  915SOL     OW 3643   5.871   6.065   0.677
  915SOL    HW1 3644   5.915   6.155   0.667
  915SOL    HW2 3645   5.935   6.002   0.722
  916SOL     OW 3646   0.757   2.307   2.054
  916SOL    HW1 3647   0.832   2.372   2.068
  916SOL    HW2 3648   0.795   2.216   2.036
  917SOL     OW 3649   7.014   6.895   0.750
  917SOL    HW1 3650   0.011   6.810   0.701
  917SOL    HW2 3651   6.964   6.958   0.690
  918SOL     OW 3652   1.795   5.714   0.832
  918SOL    HW1 3653   1.718   5.759   0.787
  918SOL    HW2 3654   1.874   5.775   0.831
  919SOL     OW 3655   5.749   1.671   4.116
  919SOL    HW1 3656   5.832   1.706   4.160
  919SOL    HW2 3657   5.699   1.747   4.075
  920SOL     OW 3658   2.701   4.662   2.230
  920SOL    HW1 3659   2.634   4.730   2.199
  920SOL    HW2 3660   2.778   4.659   2.166
  921SOL     OW 3661   4.904   5.703   4.650
  921SOL    HW1 3662   4.811   5.666   4.648
  921SOL    HW2 3663   4.964   5.645   4.594
  922SOL     OW 3664   4.164   3.533   3.800
  922SOL    HW1 3665   4.116   3.614   3.767
  922SOL    HW2 3666   4.234   3.561   3.866
  923SOL     OW 3667   2.364   3.242   5.539
  923SOL    HW1 3668   2.281   3.209   5.584
  923SOL    HW2 3669   2.425   3.281   5.608
  924SOL     OW 3670   0.045   3.723   2.431
  924SOL    HW1 3671   7.003   3.657   2.474
  924SOL    HW2 3672   0.134   3.717   2.475
  925SOL     OW 3673   5.864   1.922   0.191
  925SOL    HW1 3674   5.790   1.856   0.205
  925SOL    HW2 3675   5.939   1.878   0.142
  926SOL     OW 3676   0.820   0.883   2.049
  926SOL    HW1 3677   0.744   0.821   2.027
  926SOL    HW2 3678   0.795   0.976   2.023
  927SOL     OW 3679   5.439   4.074   3.819
  927SOL    HW1 3680   5.511   4.021   3.864
  927SOL    HW2 3681   5.480   4.142   3.758
  928SOL     OW 3682   2.898   5.591   6.859
  928SOL    HW1 3683   2.872   5.676   6.903
  928SOL    HW2 3684   2.835   5.571   6.784
  929SOL     OW 3685   6.768   1.517   5.342
  929SOL    HW1 3686   6.747   1.613   5.322
  929SOL    HW2 3687   6.682   1.465   5.347
  930SOL     OW 3688   5.517   5.153   6.400
  930SOL    HW1 3689   5.580   5.217   6.355
  930SOL    HW2 3690   5.424   5.191   6.397
  931SOL     OW 3691   6.644   2.897   2.968
  931SOL    HW1 3692   6.544   2.895   2.959
  931SOL    HW2 3693   6.678   2.803   2.972
  932SOL     OW 3694   3.533   0.582   3.931
  932SOL    HW1 3695   3.630   0.601   3.946
  932SOL    HW2 3696   3.517   0.484   3.932
  933SOL     OW 3697   1.165   5.152   2.265
  933SOL    HW1 3698   1.190   5.175   2.171
  933SOL    HW2 3699   1.114   5.228   2.305
  934SOL     OW 3700   1.651   4.551   6.463
  934SOL    HW1 3701   1.635   4.643   6.498
  934SOL    HW2 3702   1.685   4.557   6.369
  935SOL     OW 3703   5.511   3.230   3.585
  935SOL    HW1 3704   5.506   3.308   3.647
  935SOL    HW2 3705   5.605   3.196   3.581
  936SOL     OW 3706   1.532   0.155   6.643
  936SOL    HW1 3707   1.526   0.215   6.723
  936SOL    HW2 3708   1.623   0.164   6.602
  937SOL     OW 3709   5.221   1.356   5.405
  937SOL    HW1 3710   5.239   1.287   5.335
  937SOL    HW2 3711   5.304   1.408   5.423
  938SOL     OW 3712   5.767   5.590   4.218
  938SOL    HW1 3713   5.788   5.685   4.194
  938SOL    HW2 3714   5.712   5.549   4.145
  939SOL     OW 3715   0.313   0.150   5.189
  939SOL    HW1 3716   0.297   0.115   5.282
  939SOL    HW2 3717   0.229   0.144   5.135
  940SOL     OW 3718   2.193   4.597   0.659
  940SOL    HW1 3719   2.276   4.554   0.696
  940SOL    HW2 3720   2.121   4.593   0.728
  941SOL     OW 3721   3.275   0.399   6.262
  941SOL    HW1 3722   3.256   0.303   6.282
  941SOL    HW2 3723   3.272   0.452   6.346
  942SOL     OW 3724   0.506   5.170   0.534
  942SOL    HW1 3725   0.419   5.127   0.560
  942SOL    HW2 3726   0.528   5.243   0.598
  943SOL     OW 3727   2.877   5.182   3.115
  943SOL    HW1 3728   2.826   5.268   3.112
  943SOL    HW2 3729   2.853   5.132   3.198
  944SOL     OW 3730   0.568   6.815   4.547
  944SOL    HW1 3731   0.592   6.883   4.478
  944SOL    HW2 3732   0.548   6.728   4.502
  945SOL     OW 3733   0.709   5.541   6.265
  945SOL    HW1 3734   0.767   5.582   6.194
  945SOL    HW2 3735   0.648   5.611   6.302
  946SOL     OW 3736   4.844   3.121   3.640
  946SOL    HW1 3737   4.934   3.135   3.681
  946SOL    HW2 3738   4.835   3.180   3.560
  947SOL     OW 3739   3.904   3.997   4.306
  947SOL    HW1 3740   3.833   3.941   4.263
  947SOL    HW2 3741   3.861   4.064   4.366
  948SOL     OW 3742   4.197   1.052   2.741
  948SOL    HW1 3743   4.253   1.092   2.813
  948SOL    HW2 3744   4.114   1.107   2.729
  949SOL     OW 3745   2.715   6.533   6.545
  949SOL    HW1 3746   2.799   6.483   6.567
  949SOL    HW2 3747   2.692   6.593   6.622
  950SOL     OW 3748   0.069   6.494   2.177
  950SOL    HW1 3749   0.011   6.567   2.212
  950SOL    HW2 3750   0.162   6.506   2.211
  951SOL     OW 3751   2.156   6.664   3.128
  951SOL    HW1 3752   2.070   6.708   3.104
  951SOL    HW2 3753   2.186   6.607   3.052
  952SOL     OW 3754   3.446   1.359   1.850
  952SOL    HW1 3755   3.468   1.454   1.872
  952SOL    HW2 3756   3.347   1.347   1.848
  953SOL     OW 3757   6.110   4.645   5.108
  953SOL    HW1 3758   6.045   4.625   5.180
  953SOL    HW2 3759   6.114   4.568   5.044
  954SOL     OW 3760   4.624   5.912   2.268
  954SOL    HW1 3761   4.554   5.874   2.208
  954SOL    HW2 3762   4.583   5.939   2.355
  955SOL     OW 3763   1.628   3.996   0.162
  955SOL    HW1 3764   1.607   4.020   0.257
  955SOL    HW2 3765   1.558   3.935   0.126
  956SOL     OW 3766   6.190   0.700   1.400
  956SOL    HW1 3767   6.252   0.665   1.471
  956SOL    HW2 3768   6.242   0.714   1.315
  957SOL     OW 3769   6.088   2.227   3.331
  957SOL    HW1 3770   5.994   2.223   3.364
  957SOL    HW2 3771   6.140   2.149   3.369
  958SOL     OW 3772   5.129   0.113   1.812
  958SOL    HW1 3773   5.106   0.156   1.900
  958SOL    HW2 3774   5.086   0.164   1.738
  959SOL     OW 3775   4.008   6.470   4.069
  959SOL    HW1 3776   4.043   6.413   4.143
  959SOL    HW2 3777   4.030   6.428   3.980
  960SOL     OW 3778   0.893   0.407   6.941
  960SOL    HW1 3779   0.864   0.481   7.002
  960SOL    HW2 3780   0.927   0.331   6.996
  961SOL     OW 3781   3.328   6.928   2.992
  961SOL    HW1 3782   3.418   6.961   3.020
  961SOL    HW2 3783   3.338   6.869   2.912
  962SOL     OW 3784   6.363   0.227   4.730
  962SOL    HW1 3785   6.441   0.171   4.757
  962SOL    HW2 3786   6.392   0.295   4.662
  963SOL     OW 3787   5.281   2.976   1.002
  963SOL    HW1 3788   5.309   3.037   0.927
  963SOL    HW2 3789   5.187   2.997   1.029
  964SOL     OW 3790   4.626   4.200   5.169
  964SOL    HW1 3791   4.585   4.118   5.208
  964SOL    HW2 3792   4.699   4.233   5.229
  965SOL     OW 3793   6.063   2.436   3.851
  965SOL    HW1 3794   5.989   2.407   3.912
  965SOL    HW2 3795   6.084   2.532   3.868
  966SOL     OW 3796   4.943   1.856   4.656
  966SOL    HW1 3797   4.979   1.776   4.702
  966SOL    HW2 3798   4.962   1.850   4.558
  967SOL     OW 3799   5.222   3.920   5.957
  967SOL    HW1 3800   5.283   3.982   6.006
  967SOL    HW2 3801   5.255   3.826   5.967
  968SOL     OW 3802   3.984   0.590   1.688
  968SOL    HW1 3803   3.954   0.494   1.681
  968SOL    HW2 3804   4.008   0.610   1.783
  969SOL     OW 3805   3.472   4.079   5.786
  969SOL    HW1 3806   3.500   3.983   5.786
  969SOL    HW2 3807   3.372   4.084   5.779
  970SOL     OW 3808   5.977   0.707   5.892
  970SOL    HW1 3809   5.912   0.631   5.900
  970SOL    HW2 3810   5.927   0.790   5.866
  971SOL     OW 3811   5.738   4.322   2.948
  971SOL    HW1 3812   5.796   4.305   3.029
  971SOL    HW2 3813   5.647   4.285   2.964
  972SOL     OW 3814   0.480   3.129   0.842
  972SOL    HW1 3815   0.486   3.165   0.749
  972SOL    HW2 3816   0.474   3.029   0.838
  973SOL     OW 3817   0.226   3.601   6.093
  973SOL    HW1 3818   0.180   3.547   6.023
  973SOL    HW2 3819   0.204   3.565   6.183
  974SOL     OW 3820   0.219   5.514   3.846
  974SOL    HW1 3821   0.306   5.549   3.879
  974SOL    HW2 3822   0.233   5.426   3.801
  975SOL     OW 3823   2.702   6.938   2.127
  975SOL    HW1 3824   2.639   6.951   2.204
  975SOL    HW2 3825   2.654   6.958   2.041
  976SOL     OW 3826   6.356   3.543   2.567
  976SOL    HW1 3827   6.338   3.494   2.481
  976SOL    HW2 3828   6.338   3.640   2.554
  977SOL     OW 3829   0.123   0.913   2.439
  977SOL    HW1 3830   0.215   0.890   2.407
  977SOL    HW2 3831   0.113   1.012   2.443
  978SOL     OW 3832   5.468   3.218   1.729
  978SOL    HW1 3833   5.547   3.199   1.670
  978SOL    HW2 3834   5.494   3.285   1.798
  979SOL     OW 3835   0.118   4.258   6.803
  979SOL    HW1 3836   0.067   4.343   6.789
  979SOL    HW2 3837   0.060   4.192   6.851
  980SOL     OW 3838   3.473   1.426   4.680
  980SOL    HW1 3839   3.402   1.496   4.691
  980SOL    HW2 3840   3.441   1.340   4.721
  981SOL     OW 3841   6.656   6.148   5.158
  981SOL    HW1 3842   6.700   6.131   5.246
  981SOL    HW2 3843   6.562   6.114   5.159
  982SOL     OW 3844   6.644   1.122   4.959
  982SOL    HW1 3845   6.646   1.220   4.939
  982SOL    HW2 3846   6.737   1.091   4.982
  983SOL     OW 3847   0.119   4.595   4.474
  983SOL    HW1 3848   0.076   4.664   4.414
  983SOL    HW2 3849   0.180   4.538   4.420
  984SOL     OW 3850   1.196   2.309   3.039
  984SOL    HW1 3851   1.102   2.317   3.072
  984SOL    HW2 3852   1.221   2.213   3.032
  985SOL     OW 3853   6.864   4.147   4.763
  985SOL    HW1 3854   6.795   4.175   4.696
  985SOL    HW2 3855   6.886   4.225   4.822
  986SOL     OW 3856   5.224   4.878   1.217
  986SOL    HW1 3857   5.253   4.927   1.135
  986SOL    HW2 3858   5.266   4.920   1.298
  987SOL     OW 3859   5.269   4.989   3.987
  987SOL    HW1 3860   5.347   5.025   4.039
  987SOL    HW2 3861   5.203   4.947   4.050
  988SOL     OW 3862   3.114   4.388   1.286
  988SOL    HW1 3863   3.075   4.426   1.370
  988SOL    HW2 3864   3.041   4.348   1.231
  989SOL     OW 3865   0.560   1.196   1.156
  989SOL    HW1 3866   0.526   1.219   1.065
  989SOL    HW2 3867   0.485   1.199   1.222
  990SOL     OW 3868   3.799   0.026   3.725
  990SOL    HW1 3869   3.849   0.008   3.809
  990SOL    HW2 3870   3.831   0.113   3.685
  991SOL     OW 3871   6.949   4.701   3.682
  991SOL    HW1 3872   7.017   4.774   3.678
  991SOL    HW2 3873   6.871   4.724   3.624
  992SOL     OW 3874   0.423   2.579   1.063
  992SOL    HW1 3875   0.340   2.567   1.008
  992SOL    HW2 3876   0.410   2.536   1.152
  993SOL     OW 3877   1.378   4.916   0.501
  993SOL    HW1 3878   1.447   4.980   0.467
  993SOL    HW2 3879   1.327   4.959   0.576
  994SOL     OW 3880   2.987   6.115   6.641
  994SOL    HW1 3881   2.970   6.018   6.658
  994SOL    HW2 3882   3.084   6.135   6.655
  995SOL     OW 3883   6.076   3.511   6.141
  995SOL    HW1 3884   6.064   3.589   6.079
  995SOL    HW2 3885   6.090   3.545   6.234
  996SOL     OW 3886   3.989   5.998   5.994
  996SOL    HW1 3887   4.083   5.970   6.013
  996SOL    HW2 3888   3.978   6.094   6.016
  997SOL     OW 3889   1.278   5.589   3.856
  997SOL    HW1 3890   1.357   5.591   3.916
  997SOL    HW2 3891   1.295   5.647   3.776
  998SOL     OW 3892   6.567   0.268   6.636
  998SOL    HW1 3893   6.550   0.354   6.586
  998SOL    HW2 3894   6.523   0.272   6.725
  999SOL     OW 3895   4.831   4.017   2.515
  999SOL    HW1 3896   4.777   3.934   2.503
  999SOL    HW2 3897   4.822   4.074   2.433
 1000SOL     OW 3898   4.423   1.675   1.496
 1000SOL    HW1 3899   4.373   1.634   1.572
 1000SOL    HW2 3900   4.369   1.668   1.412
 1001SOL     OW 3901   3.238   6.282   2.455
 1001SOL    HW1 3902   3.289   6.270   2.370
 1001SOL    HW2 3903   3.178   6.203   2.469
 1002SOL     OW 3904   5.411   2.338   1.269
 1002SOL    HW1 3905   5.466   2.389   1.203
 1002SOL    HW2 3906   5.356   2.270   1.221
 1003SOL     OW 3907   0.499   0.212   3.206
 1003SOL    HW1 3908   0.546   0.175   3.126
 1003SOL    HW2 3909   0.400   0.212   3.190
 1004SOL     OW 3910   5.429   1.435   3.761
 1004SOL    HW1 3911   5.340   1.447   3.804
 1004SOL    HW2 3912   5.502   1.457   3.826
 1005SOL     OW 3913   1.303   4.395   3.171
 1005SOL    HW1 3914   1.329   4.397   3.075
 1005SOL    HW2 3915   1.330   4.307   3.211
 1006SOL     OW 3916   2.946   3.344   1.266
 1006SOL    HW1 3917   3.022   3.321   1.206
 1006SOL    HW2 3918   2.949   3.442   1.288
 1007SOL     OW 3919   5.150   1.204   6.911
 1007SOL    HW1 3920   5.056   1.184   6.940
 1007SOL    HW2 3921   5.165   1.168   6.819
 1008SOL     OW 3922   0.038   5.036   4.937
 1008SOL    HW1 3923   6.997   5.099   4.984
 1008SOL    HW2 3924   7.008   4.955   4.907
 1009SOL     OW 3925   6.375   5.559   6.733
 1009SOL    HW1 3926   6.297   5.497   6.731
 1009SOL    HW2 3927   6.449   5.522   6.677
 1010SOL     OW 3928   2.804   3.101   1.329
 1010SOL    HW1 3929   2.713   3.099   1.371
 1010SOL    HW2 3930   2.844   3.192   1.340
 1011SOL     OW 3931   6.693   5.205   2.382
 1011SOL    HW1 3932   6.663   5.232   2.473
 1011SOL    HW2 3933   6.792   5.205   2.378
 1012SOL     OW 3934   4.917   0.454   2.615
 1012SOL    HW1 3935   4.882   0.436   2.707
 1012SOL    HW2 3936   4.859   0.407   2.548
 1013SOL     OW 3937   6.720   0.172   6.412
 1013SOL    HW1 3938   6.818   0.179   6.430
 1013SOL    HW2 3939   6.669   0.212   6.488
 1014SOL     OW 3940   1.221   5.042   4.368
 1014SOL    HW1 3941   1.250   5.061   4.462
 1014SOL    HW2 3942   1.185   5.125   4.327
 1015SOL     OW 3943   3.463   6.340   6.812
 1015SOL    HW1 3944   3.475   6.277   6.889
 1015SOL    HW2 3945   3.381   6.316   6.761
 1016SOL     OW 3946   6.220   4.224   1.671
 1016SOL    HW1 3947   6.193   4.256   1.581
 1016SOL    HW2 3948   6.170   4.141   1.694
 1017SOL     OW 3949   2.112   1.691   2.483
 1017SOL    HW1 3950   2.160   1.776   2.463
 1017SOL    HW2 3951   2.149   1.618   2.425
 1018SOL     OW 3952   0.307   5.398   3.411
 1018SOL    HW1 3953   0.238   5.334   3.377
 1018SOL    HW2 3954   0.354   5.358   3.490
 1019SOL     OW 3955   6.507   4.739   0.940
 1019SOL    HW1 3956   6.498   4.822   0.996
 1019SOL    HW2 3957   6.419   4.718   0.897
 1020SOL     OW 3958   6.702   0.499   0.812
 1020SOL    HW1 3959   6.707   0.421   0.750
 1020SOL    HW2 3960   6.717   0.468   0.906
 1021SOL     OW 3961   6.737   6.243   1.380
 1021SOL    HW1 3962   6.743   6.145   1.358
 1021SOL    HW2 3963   6.821   6.271   1.428
 1022SOL     OW 3964   1.967   6.319   6.422
 1022SOL    HW1 3965   1.971   6.410   6.463
 1022SOL    HW2 3966   1.881   6.275   6.447
 1023SOL     OW 3967   0.679   1.543   3.492
 1023SOL    HW1 3968   0.778   1.549   3.500
 1023SOL    HW2 3969   0.640   1.636   3.495
 1024SOL     OW 3970   1.455   1.954   4.970
 1024SOL    HW1 3971   1.485   1.968   5.065
 1024SOL    HW2 3972   1.476   1.861   4.942
 1025SOL     OW 3973   4.581   3.597   0.620
 1025SOL    HW1 3974   4.601   3.557   0.531
 1025SOL    HW2 3975   4.569   3.524   0.687
 1026SOL     OW 3976   3.441   2.595   1.321
 1026SOL    HW1 3977   3.421   2.559   1.230
 1026SOL    HW2 3978   3.538   2.581   1.341
 1027SOL     OW 3979   0.114   6.440   0.826
 1027SOL    HW1 3980   0.172   6.500   0.882
 1027SOL    HW2 3981   0.104   6.352   0.871
 1028SOL     OW 3982   1.270   6.213   2.441
 1028SOL    HW1 3983   1.289   6.190   2.345
 1028SOL    HW2 3984   1.327   6.156   2.501
 1029SOL     OW 3985   1.006   1.370   6.372
 1029SOL    HW1 3986   1.003   1.462   6.412
 1029SOL    HW2 3987   0.953   1.369   6.288
 1030SOL     OW 3988   3.617   3.197   1.609
 1030SOL    HW1 3989   3.552   3.121   1.620
 1030SOL    HW2 3990   3.568   3.280   1.585
 1031SOL     OW 3991   3.453   3.696   1.493
 1031SOL    HW1 3992   3.412   3.664   1.579
 1031SOL    HW2 3993   3.384   3.742   1.438
 1032SOL     OW 3994   2.074   2.072   5.979
 1032SOL    HW1 3995   2.126   2.105   5.900
 1032SOL    HW2 3996   1.995   2.020   5.947
 1033SOL     OW 3997   0.986   6.550   1.825
 1033SOL    HW1 3998   0.937   6.474   1.783
 1033SOL    HW2 3999   1.077   6.519   1.853
 1034SOL     OW 4000   2.989   6.777   4.395
 1034SOL    HW1 4001   3.063   6.710   4.401
 1034SOL    HW2 4002   2.932   6.771   4.476
 1035SOL     OW 4003   1.345   2.041   5.821
 1035SOL    HW1 4004   1.395   2.117   5.862
 1035SOL    HW2 4005   1.257   2.074   5.786
 1036SOL     OW 4006   4.742   1.816   0.941
 1036SOL    HW1 4007   4.742   1.747   1.013
 1036SOL    HW2 4008   4.835   1.849   0.926
 1037SOL     OW 4009   1.583   2.709   2.563
 1037SOL    HW1 4010   1.668   2.673   2.525
 1037SOL    HW2 4011   1.527   2.747   2.490
 1038SOL     OW 4012   3.139   6.432   6.859
 1038SOL    HW1 4013   3.202   6.412   6.785
 1038SOL    HW2 4014   3.163   6.520   6.901
 1039SOL     OW 4015   3.592   3.061   3.857
 1039SOL    HW1 4016   3.565   3.143   3.806
 1039SOL    HW2 4017   3.513   3.003   3.872
 1040SOL     OW 4018   4.181   0.609   3.160
 1040SOL    HW1 4019   4.141   0.675   3.223
 1040SOL    HW2 4020   4.111   0.541   3.136
 1041SOL     OW 4021   6.696   6.095   6.268
 1041SOL    HW1 4022   6.682   6.088   6.366
 1041SOL    HW2 4023   6.615   6.134   6.225
 1042SOL     OW 4024   5.261   4.739   2.748
 1042SOL    HW1 4025   5.175   4.761   2.702
 1042SOL    HW2 4026   5.309   4.667   2.697
 1043SOL     OW 4027   3.228   2.159   3.904
 1043SOL    HW1 4028   3.309   2.108   3.876
 1043SOL    HW2 4029   3.223   2.160   4.004
 1044SOL     OW 4030   5.386   4.757   1.555
 1044SOL    HW1 4031   5.374   4.855   1.536
 1044SOL    HW2 4032   5.461   4.721   1.501
 1045SOL     OW 4033   2.526   0.369   3.530
 1045SOL    HW1 4034   2.460   0.429   3.484
 1045SOL    HW2 4035   2.524   0.278   3.489
 1046SOL     OW 4036   3.024   1.250   0.949
 1046SOL    HW1 4037   3.100   1.306   0.981
 1046SOL    HW2 4038   2.972   1.301   0.880
 1047SOL     OW 4039   3.502   6.665   3.213
 1047SOL    HW1 4040   3.503   6.648   3.311
 1047SOL    HW2 4041   3.434   6.605   3.170
 1048SOL     OW 4042   1.490   6.609   1.895
 1048SOL    HW1 4043   1.518   6.625   1.800
 1048SOL    HW2 4044   1.436   6.687   1.927
 1049SOL     OW 4045   4.169   5.938   5.559
 1049SOL    HW1 4046   4.083   5.973   5.523
 1049SOL    HW2 4047   4.243   5.961   5.496
 1050SOL     OW 4048   3.335   5.051   3.178
 1050SOL    HW1 4049   3.262   5.118   3.162
 1050SOL    HW2 4050   3.418   5.098   3.206
 1051SOL     OW 4051   0.627   0.035   6.930
 1051SOL    HW1 4052   0.685   0.094   6.986
 1051SOL    HW2 4053   0.676   0.007   6.847
 1052SOL     OW 4054   3.627   0.912   6.678
 1052SOL    HW1 4055   3.720   0.916   6.716
 1052SOL    HW2 4056   3.585   0.824   6.703
 1053SOL     OW 4057   6.097   2.913   2.848
 1053SOL    HW1 4058   6.026   2.966   2.803
 1053SOL    HW2 4059   6.092   2.818   2.818
 1054SOL     OW 4060   3.167   4.544   6.407
 1054SOL    HW1 4061   3.250   4.595   6.383
 1054SOL    HW2 4062   3.138   4.571   6.498
 1055SOL     OW 4063   4.818   6.316   6.828
 1055SOL    HW1 4064   4.880   6.246   6.863
 1055SOL    HW2 4065   4.839   6.403   6.871
 1056SOL     OW 4066   2.766   3.567   6.558
 1056SOL    HW1 4067   2.724   3.656   6.544
 1056SOL    HW2 4068   2.817   3.541   6.476
 1057SOL     OW 4069   2.925   1.794   1.210
 1057SOL    HW1 4070   2.851   1.771   1.273
 1057SOL    HW2 4071   2.998   1.841   1.260
 1058SOL     OW 4072   2.474   2.588   2.627
 1058SOL    HW1 4073   2.495   2.504   2.578
 1058SOL    HW2 4074   2.482   2.666   2.564
 1059SOL     OW 4075   3.003   6.249   1.579
 1059SOL    HW1 4076   3.097   6.223   1.557
 1059SOL    HW2 4077   2.987   6.343   1.550
 1060SOL     OW 4078   5.995   6.239   5.144
 1060SOL    HW1 4079   6.082   6.231   5.192
 1060SOL    HW2 4080   6.002   6.193   5.056
 1061SOL     OW 4081   6.639   4.080   6.706
 1061SOL    HW1 4082   6.627   4.070   6.607
 1061SOL    HW2 4083   6.559   4.127   6.744
 1062SOL     OW 4084   3.630   6.525   5.433
 1062SOL    HW1 4085   3.545   6.511   5.483
 1062SOL    HW2 4086   3.633   6.464   5.354
 1063SOL     OW 4087   2.371   6.088   6.044
 1063SOL    HW1 4088   2.287   6.035   6.057
 1063SOL    HW2 4089   2.450   6.027   6.049
 1064SOL     OW 4090   1.538   4.046   0.405
 1064SOL    HW1 4091   1.484   4.120   0.447
 1064SOL    HW2 4092   1.492   3.959   0.421
 1065SOL     OW 4093   4.451   0.359   4.248
 1065SOL    HW1 4094   4.545   0.391   4.261
 1065SOL    HW2 4095   4.393   0.397   4.320
 1066SOL     OW 4096   4.752   0.202   1.964
 1066SOL    HW1 4097   4.833   0.143   1.953
 1066SOL    HW2 4098   4.762   0.283   1.907
 1067SOL     OW 4099   2.451   0.991   0.272
 1067SOL    HW1 4100   2.437   1.083   0.309
 1067SOL    HW2 4101   2.524   0.994   0.204
 1068SOL     OW 4102   5.849   3.338   0.954
 1068SOL    HW1 4103   5.830   3.304   1.046
 1068SOL    HW2 4104   5.948   3.348   0.943
 1069SOL     OW 4105   6.868   4.202   1.685
 1069SOL    HW1 4106   6.791   4.141   1.666
 1069SOL    HW2 4107   6.848   4.257   1.766
 1070SOL     OW 4108   1.229   0.213   1.863
 1070SOL    HW1 4109   1.175   0.199   1.780
 1070SOL    HW2 4110   1.311   0.266   1.841
 1071SOL     OW 4111   6.873   3.202   5.627
 1071SOL    HW1 4112   6.943   3.163   5.567
 1071SOL    HW2 4113   6.859   3.141   5.705
 1072SOL     OW 4114   2.541   1.405   2.036
 1072SOL    HW1 4115   2.459   1.350   2.027
 1072SOL    HW2 4116   2.614   1.350   2.078
 1073SOL     OW 4117   5.039   1.623   3.490
 1073SOL    HW1 4118   5.097   1.703   3.476
 1073SOL    HW2 4119   5.075   1.545   3.440
 1074SOL     OW 4120   2.626   4.740   1.778
 1074SOL    HW1 4121   2.695   4.681   1.821
 1074SOL    HW2 4122   2.671   4.799   1.710
 1075SOL     OW 4123   5.832   3.332   5.064
 1075SOL    HW1 4124   5.835   3.268   4.987
 1075SOL    HW2 4125   5.742   3.377   5.065
 1076SOL     OW 4126   2.087   3.798   5.091
 1076SOL    HW1 4127   2.144   3.881   5.086
 1076SOL    HW2 4128   2.008   3.816   5.149
 1077SOL     OW 4129   0.234   6.735   0.044
 1077SOL    HW1 4130   0.275   6.818   0.007
 1077SOL    HW2 4131   0.165   6.760   0.112
 1078SOL     OW 4132   7.002   6.386   3.704
 1078SOL    HW1 4133   6.937   6.312   3.685
 1078SOL    HW2 4134   6.958   6.456   3.760
 1079SOL     OW 4135   1.000   6.230   2.568
 1079SOL    HW1 4136   1.004   6.134   2.597
 1079SOL    HW2 4137   1.076   6.249   2.506
 1080SOL     OW 4138   1.963   5.065   6.359
 1080SOL    HW1 4139   1.929   4.987   6.307
 1080SOL    HW2 4140   2.015   5.032   6.438
 1081SOL     OW 4141   6.814   5.615   4.337
 1081SOL    HW1 4142   6.857   5.704   4.323
 1081SOL    HW2 4143   6.845   5.551   4.267
 1082SOL     OW 4144   5.307   0.285   5.980
 1082SOL    HW1 4145   5.302   0.350   6.056
 1082SOL    HW2 4146   5.215   0.269   5.944
 1083SOL     OW 4147   5.134   4.303   1.017
 1083SOL    HW1 4148   5.142   4.399   0.992
 1083SOL    HW2 4149   5.108   4.297   1.114
 1084SOL     OW 4150   0.392   0.328   6.339
 1084SOL    HW1 4151   0.396   0.383   6.256
 1084SOL    HW2 4152   0.449   0.247   6.328
 1085SOL     OW 4153   1.810   3.905   4.194
 1085SOL    HW1 4154   1.748   3.977   4.223
 1085SOL    HW2 4155   1.902   3.942   4.182
 1086SOL     OW 4156   6.171   5.256   0.417
 1086SOL    HW1 4157   6.239   5.245   0.345
 1086SOL    HW2 4158   6.099   5.187   0.405
 1087SOL     OW 4159   2.725   0.105   5.288
 1087SOL    HW1 4160   2.702   0.183   5.229
 1087SOL    HW2 4161   2.776   0.137   5.367
 1088SOL     OW 4162   0.018   4.662   3.252
 1088SOL    HW1 4163   6.999   4.737   3.305
 1088SOL    HW2 4164   7.015   4.575   3.295
 1089SOL     OW 4165   6.570   4.682   4.421
 1089SOL    HW1 4166   6.615   4.675   4.511
 1089SOL    HW2 4167   6.479   4.643   4.426
 1090SOL     OW 4168   5.357   1.345   4.952
 1090SOL    HW1 4169   5.412   1.347   4.868
 1090SOL    HW2 4170   5.375   1.428   5.005
 1091SOL     OW 4171   2.416   2.635   3.563
 1091SOL    HW1 4172   2.364   2.554   3.537
 1091SOL    HW2 4173   2.428   2.636   3.662
 1092SOL     OW 4174   0.960   5.222   0.751
 1092SOL    HW1 4175   0.997   5.235   0.659
 1092SOL    HW2 4176   0.868   5.182   0.744
 1093SOL     OW 4177   2.133   6.951   1.674
 1093SOL    HW1 4178   2.184   6.867   1.656
 1093SOL    HW2 4179   2.095   6.947   1.767
 1094SOL     OW 4180   0.932   0.235   2.897
 1094SOL    HW1 4181   0.901   0.319   2.852
 1094SOL    HW2 4182   0.985   0.180   2.832
 1095SOL     OW 4183   6.433   3.366   0.272
 1095SOL    HW1 4184   6.423   3.309   0.354
 1095SOL    HW2 4185   6.451   3.308   0.193
 1096SOL     OW 4186   2.973   5.572   1.645
 1096SOL    HW1 4187   2.937   5.479   1.647
 1096SOL    HW2 4188   2.898   5.637   1.634
 1097SOL     OW 4189   3.487   5.266   4.335
 1097SOL    HW1 4190   3.573   5.314   4.347
 1097SOL    HW2 4191   3.483   5.187   4.396
 1098SOL     OW 4192   6.030   5.094   0.775
 1098SOL    HW1 4193   6.098   5.052   0.715
 1098SOL    HW2 4194   6.054   5.190   0.791
 1099SOL     OW 4195   4.841   0.481   6.064
 1099SOL    HW1 4196   4.779   0.465   5.987
 1099SOL    HW2 4197   4.813   0.564   6.113
 1100SOL     OW 4198   3.276   1.898   4.058
 1100SOL    HW1 4199   3.321   1.830   4.116
 1100SOL    HW2 4200   3.277   1.987   4.104
 1101SOL     OW 4201   6.578   3.002   6.031
 1101SOL    HW1 4202   6.565   2.932   6.101
 1101SOL    HW2 4203   6.489   3.027   5.992
 1102SOL     OW 4204   3.177   1.226   4.418
 1102SOL    HW1 4205   3.081   1.221   4.392
 1102SOL    HW2 4206   3.231   1.259   4.341
 1103SOL     OW 4207   2.878   6.947   6.585
 1103SOL    HW1 4208   2.890   6.849   6.603
 1103SOL    HW2 4209   2.966   6.987   6.559
 1104SOL     OW 4210   0.297   3.409   3.553
 1104SOL    HW1 4211   0.280   3.465   3.473
 1104SOL    HW2 4212   0.274   3.313   3.533
 1105SOL     OW 4213   5.155   0.951   5.397
 1105SOL    HW1 4214   5.252   0.966   5.376
 1105SOL    HW2 4215   5.120   0.876   5.341
 1106SOL     OW 4216   0.477   1.819   0.767
 1106SOL    HW1 4217   0.503   1.861   0.680
 1106SOL    HW2 4218   0.553   1.824   0.831
 1107SOL     OW 4219   1.151   0.952   0.583
 1107SOL    HW1 4220   1.108   0.950   0.493
 1107SOL    HW2 4221   1.234   1.007   0.580
 1108SOL     OW 4222   2.572   6.322   4.379
 1108SOL    HW1 4223   2.521   6.313   4.465
 1108SOL    HW2 4224   2.632   6.243   4.367
 1109SOL     OW 4225   5.261   1.532   4.540
 1109SOL    HW1 4226   5.265   1.609   4.477
 1109SOL    HW2 4227   5.339   1.535   4.602
 1110SOL     OW 4228   3.779   0.998   2.514
 1110SOL    HW1 4229   3.778   0.900   2.533
 1110SOL    HW2 4230   3.738   1.015   2.424
 1111SOL     OW 4231   5.238   3.742   6.731
 1111SOL    HW1 4232   5.141   3.757   6.710
 1111SOL    HW2 4233   5.269   3.658   6.686
 1112SOL     OW 4234   5.149   0.155   2.489
 1112SOL    HW1 4235   5.164   0.238   2.434
 1112SOL    HW2 4236   5.057   0.121   2.472
 1113SOL     OW 4237   5.543   4.356   2.702
 1113SOL    HW1 4238   5.577   4.333   2.793
 1113SOL    HW2 4239   5.615   4.340   2.634
 1114SOL     OW 4240   4.187   3.479   5.477
 1114SOL    HW1 4241   4.150   3.561   5.433
 1114SOL    HW2 4242   4.179   3.401   5.415
 1115SOL     OW 4243   3.157   4.306   5.622
 1115SOL    HW1 4244   3.191   4.243   5.692
 1115SOL    HW2 4245   3.111   4.255   5.550
 1116SOL     OW 4246   4.819   0.120   6.501
 1116SOL    HW1 4247   4.914   0.114   6.532
 1116SOL    HW2 4248   4.762   0.061   6.558
 1117SOL     OW 4249   1.299   3.063   1.977
 1117SOL    HW1 4250   1.268   3.156   1.993
 1117SOL    HW2 4251   1.388   3.064   1.931
 1118SOL     OW 4252   3.082   4.618   6.684
 1118SOL    HW1 4253   3.143   4.605   6.762
 1118SOL    HW2 4254   2.987   4.618   6.715
 1119SOL     OW 4255   3.804   4.892   3.953
 1119SOL    HW1 4256   3.734   4.930   4.014
 1119SOL    HW2 4257   3.818   4.955   3.876
 1120SOL     OW 4258   6.448   5.280   1.200
 1120SOL    HW1 4259   6.422   5.266   1.295
 1120SOL    HW2 4260   6.547   5.271   1.191
 1121SOL     OW 4261   6.404   5.022   4.927
 1121SOL    HW1 4262   6.362   4.947   4.876
 1121SOL    HW2 4263   6.425   4.992   5.020
 1122SOL     OW 4264   5.169   2.805   1.943
 1122SOL    HW1 4265   5.199   2.894   1.910
 1122SOL    HW2 4266   5.192   2.735   1.876
 1123SOL     OW 4267   4.446   1.948   3.414
 1123SOL    HW1 4268   4.437   1.903   3.325
 1123SOL    HW2 4269   4.529   1.916   3.459
 1124SOL     OW 4270   2.235   2.990   4.812
 1124SOL    HW1 4271   2.287   2.994   4.897
 1124SOL    HW2 4272   2.149   3.040   4.823
 1125SOL     OW 4273   1.120   3.783   3.578
 1125SOL    HW1 4274   1.150   3.786   3.673
 1125SOL    HW2 4275   1.172   3.850   3.525
 1126SOL     OW 4276   3.697   5.186   5.358
 1126SOL    HW1 4277   3.630   5.226   5.296
 1126SOL    HW2 4278   3.789   5.202   5.324
 1127SOL     OW 4279   5.768   6.758   2.962
 1127SOL    HW1 4280   5.704   6.684   2.983
 1127SOL    HW2 4281   5.775   6.770   2.863
 1128SOL     OW 4282   6.113   1.540   3.174
 1128SOL    HW1 4283   6.120   1.512   3.270
 1128SOL    HW2 4284   6.058   1.474   3.123
 1129SOL     OW 4285   1.942   0.333   0.750
 1129SOL    HW1 4286   1.894   0.385   0.820
 1129SOL    HW2 4287   2.040   0.332   0.771
 1130SOL     OW 4288   2.068   4.874   2.316
 1130SOL    HW1 4289   2.129   4.944   2.355
 1130SOL    HW2 4290   2.122   4.793   2.292
 1131SOL     OW 4291   1.594   6.215   3.916
 1131SOL    HW1 4292   1.673   6.168   3.875
 1131SOL    HW2 4293   1.590   6.192   4.013
 1132SOL     OW 4294   3.488   1.496   2.647
 1132SOL    HW1 4295   3.517   1.588   2.619
 1132SOL    HW2 4296   3.525   1.428   2.584
 1133SOL     OW 4297   1.443   6.788   5.169
 1133SOL    HW1 4298   1.361   6.731   5.167
 1133SOL    HW2 4299   1.424   6.877   5.128
 1134SOL     OW 4300   4.109   6.822   1.552
 1134SOL    HW1 4301   4.057   6.886   1.494
 1134SOL    HW2 4302   4.055   6.739   1.566
 1135SOL     OW 4303   2.128   5.984   3.772
 1135SOL    HW1 4304   2.185   5.908   3.741
 1135SOL    HW2 4305   2.099   6.038   3.693
 1136SOL     OW 4306   2.701   6.010   1.810
 1136SOL    HW1 4307   2.720   6.108   1.799
 1136SOL    HW2 4308   2.652   5.995   1.896
 1137SOL     OW 4309   0.310   5.750   5.780
 1137SOL    HW1 4310   0.276   5.707   5.696
 1137SOL    HW2 4311   0.393   5.703   5.810
 1138SOL     OW 4312   2.273   2.891   4.558
 1138SOL    HW1 4313   2.270   2.970   4.496
 1138SOL    HW2 4314   2.256   2.922   4.651
 1139SOL     OW 4315   2.981   5.342   4.048
 1139SOL    HW1 4316   2.888   5.364   4.077
 1139SOL    HW2 4317   2.986   5.246   4.021
 1140SOL     OW 4318   1.226   1.854   1.704
 1140SOL    HW1 4319   1.144   1.859   1.762
 1140SOL    HW2 4320   1.302   1.817   1.757
 1141SOL     OW 4321   6.048   4.440   6.550
 1141SOL    HW1 4322   6.018   4.530   6.580
 1141SOL    HW2 4323   6.129   4.449   6.494
 1142SOL     OW 4324   2.595   0.136   2.683
 1142SOL    HW1 4325   2.518   0.077   2.707
 1142SOL    HW2 4326   2.641   0.168   2.766
 1143SOL     OW 4327   1.192   3.848   1.953
 1143SOL    HW1 4328   1.179   3.866   1.856
 1143SOL    HW2 4329   1.225   3.931   1.999
 1144SOL     OW 4330   5.092   4.027   2.089
 1144SOL    HW1 4331   5.182   3.985   2.082
 1144SOL    HW2 4332   5.050   4.031   1.999
 1145SOL     OW 4333   0.112   1.536   0.492
 1145SOL    HW1 4334   0.027   1.526   0.440
 1145SOL    HW2 4335   0.101   1.495   0.582
 1146SOL     OW 4336   0.799   1.349   1.494
 1146SOL    HW1 4337   0.752   1.273   1.537
 1146SOL    HW2 4338   0.859   1.314   1.421
 1147SOL     OW 4339   3.308   6.553   1.100
 1147SOL    HW1 4340   3.303   6.490   1.023
 1147SOL    HW2 4341   3.403   6.582   1.113
 1148SOL     OW 4342   4.459   5.599   2.640
 1148SOL    HW1 4343   4.485   5.506   2.667
 1148SOL    HW2 4344   4.540   5.646   2.604
 1149SOL     OW 4345   4.732   2.435   1.617
 1149SOL    HW1 4346   4.809   2.493   1.644
 1149SOL    HW2 4347   4.767   2.349   1.578
 1150SOL     OW 4348   1.946   4.220   6.977
 1150SOL    HW1 4349   1.912   4.136   6.936
 1150SOL    HW2 4350   2.008   4.198   0.032
 1151SOL     OW 4351   6.584   5.525   3.894
 1151SOL    HW1 4352   6.631   5.599   3.941
 1151SOL    HW2 4353   6.500   5.560   3.852
 1152SOL     OW 4354   4.137   6.946   6.279
 1152SOL    HW1 4355   4.128   6.931   6.180
 1152SOL    HW2 4356   4.083   0.004   6.306
 1153SOL     OW 4357   6.262   0.796   1.132
 1153SOL    HW1 4358   6.186   0.744   1.095
 1153SOL    HW2 4359   6.317   0.832   1.057
 1154SOL     OW 4360   2.124   2.466   1.556
 1154SOL    HW1 4361   2.140   2.417   1.641
 1154SOL    HW2 4362   2.169   2.555   1.559
 1155SOL     OW 4363   2.844   6.179   5.232
 1155SOL    HW1 4364   2.834   6.178   5.331
 1155SOL    HW2 4365   2.852   6.085   5.199
 1156SOL     OW 4366   3.517   1.943   4.245
 1156SOL    HW1 4367   3.604   1.987   4.268
 1156SOL    HW2 4368   3.445   1.976   4.306
 1157SOL     OW 4369   3.427   1.203   5.593
 1157SOL    HW1 4370   3.437   1.111   5.555
 1157SOL    HW2 4371   3.516   1.247   5.600
 1158SOL     OW 4372   5.679   6.179   2.936
 1158SOL    HW1 4373   5.734   6.232   3.000
 1158SOL    HW2 4374   5.595   6.230   2.916
 1159SOL     OW 4375   6.336   6.471   2.343
 1159SOL    HW1 4376   6.287   6.442   2.425
 1159SOL    HW2 4377   6.397   6.398   2.313
 1160SOL     OW 4378   4.910   1.286   0.863
 1160SOL    HW1 4379   4.845   1.362   0.866
 1160SOL    HW2 4380   4.926   1.260   0.768
 1161SOL     OW 4381   0.429   5.594   6.877
 1161SOL    HW1 4382   0.404   5.681   6.919
 1161SOL    HW2 4383   0.374   5.520   6.917
 1162SOL     OW 4384   2.207   2.355   4.947
 1162SOL    HW1 4385   2.156   2.366   4.862
 1162SOL    HW2 4386   2.143   2.356   5.024
 1163SOL     OW 4387   6.585   4.075   1.667
 1163SOL    HW1 4388   6.574   4.117   1.757
 1163SOL    HW2 4389   6.500   4.030   1.640
 1164SOL     OW 4390   4.707   1.977   4.703
 1164SOL    HW1 4391   4.650   1.896   4.687
 1164SOL    HW2 4392   4.803   1.952   4.694
 1165SOL     OW 4393   3.928   6.432   3.190
 1165SOL    HW1 4394   3.849   6.452   3.249
 1165SOL    HW2 4395   3.898   6.431   3.095
 1166SOL     OW 4396   2.264   5.834   6.977
 1166SOL    HW1 4397   2.247   5.745   7.018
 1166SOL    HW2 4398   2.244   5.906   0.022
 1167SOL     OW 4399   5.738   4.608   2.658
 1167SOL    HW1 4400   5.718   4.524   2.608
 1167SOL    HW2 4401   5.705   4.687   2.607
 1168SOL     OW 4402   6.304   2.156   3.054
 1168SOL    HW1 4403   6.395   2.185   3.083
 1168SOL    HW2 4404   6.272   2.083   3.114
 1169SOL     OW 4405   5.522   0.532   5.152
 1169SOL    HW1 4406   5.522   0.600   5.225
 1169SOL    HW2 4407   5.459   0.457   5.177
 1170SOL     OW 4408   4.860   6.856   3.566
 1170SOL    HW1 4409   4.779   6.835   3.621
 1170SOL    HW2 4410   4.912   6.772   3.550
 1171SOL     OW 4411   1.214   0.500   1.105
 1171SOL    HW1 4412   1.239   0.576   1.164
 1171SOL    HW2 4413   1.135   0.526   1.049
 1172SOL     OW 4414   0.284   3.699   6.714
 1172SOL    HW1 4415   0.340   3.765   6.765
 1172SOL    HW2 4416   0.341   3.653   6.646
 1173SOL     OW 4417   3.115   1.490   1.019
 1173SOL    HW1 4418   3.112   1.589   1.010
 1173SOL    HW2 4419   3.128   1.466   1.115
 1174SOL     OW 4420   3.782   3.352   1.157
 1174SOL    HW1 4421   3.773   3.362   1.256
 1174SOL    HW2 4422   3.784   3.255   1.134
 1175SOL     OW 4423   3.546   3.057   4.833
 1175SOL    HW1 4424   3.551   3.102   4.923
 1175SOL    HW2 4425   3.563   3.125   4.761
 1176SOL     OW 4426   5.123   3.989   6.344
 1176SOL    HW1 4427   5.136   4.047   6.425
 1176SOL    HW2 4428   5.085   4.044   6.270
 1177SOL     OW 4429   6.340   2.505   4.813
 1177SOL    HW1 4430   6.365   2.499   4.910
 1177SOL    HW2 4431   6.304   2.596   4.793
 1178SOL     OW 4432   3.042   4.794   0.125
 1178SOL    HW1 4433   3.108   4.771   0.054
 1178SOL    HW2 4434   2.988   4.873   0.096
 1179SOL     OW 4435   2.250   5.168   1.020
 1179SOL    HW1 4436   2.159   5.191   1.054
 1179SOL    HW2 4437   2.319   5.215   1.075
 1180SOL     OW 4438   3.307   5.792   0.524
 1180SOL    HW1 4439   3.233   5.790   0.458
 1180SOL    HW2 4440   3.270   5.788   0.617
 1181SOL     OW 4441   0.574   5.622   0.114
 1181SOL    HW1 4442   0.481   5.591   0.136
 1181SOL    HW2 4443   0.637   5.594   0.187
 1182SOL     OW 4444   4.377   5.333   3.007
 1182SOL    HW1 4445   4.457   5.326   2.948
 1182SOL    HW2 4446   4.294   5.326   2.952
 1183SOL     OW 4447   2.187   3.775   6.143
 1183SOL    HW1 4448   2.172   3.803   6.048
 1183SOL    HW2 4449   2.106   3.727   6.176
 1184SOL     OW 4450   1.644   0.069   5.075
 1184SOL    HW1 4451   1.645   0.085   5.173
 1184SOL    HW2 4452   1.705   7.013   5.053
 1185SOL     OW 4453   0.038   1.250   0.011
 1185SOL    HW1 4454   0.021   1.204   0.098
 1185SOL    HW2 4455   0.130   1.226   7.000
 1186SOL     OW 4456   4.879   6.161   4.626
 1186SOL    HW1 4457   4.823   6.231   4.583
 1186SOL    HW2 4458   4.884   6.081   4.566
 1187SOL     OW 4459   6.584   0.179   5.794
 1187SOL    HW1 4460   6.561   0.095   5.842
 1187SOL    HW2 4461   6.541   0.180   5.704
 1188SOL     OW 4462   2.756   6.551   5.381
 1188SOL    HW1 4463   2.699   6.538   5.300
 1188SOL    HW2 4464   2.851   6.527   5.359
 1189SOL     OW 4465   6.027   3.552   3.326
 1189SOL    HW1 4466   6.070   3.643   3.331
 1189SOL    HW2 4467   6.097   3.482   3.336
 1190SOL     OW 4468   1.923   6.376   2.592
 1190SOL    HW1 4469   1.992   6.448   2.583
 1190SOL    HW2 4470   1.923   6.319   2.510
 1191SOL     OW 4471   4.522   4.894   2.707
 1191SOL    HW1 4472   4.550   4.815   2.762
 1191SOL    HW2 4473   4.463   4.953   2.762
 1192SOL     OW 4474   4.301   6.061   3.045
 1192SOL    HW1 4475   4.307   6.156   3.015
 1192SOL    HW2 4476   4.207   6.041   3.075
 1193SOL     OW 4477   6.058   5.067   3.729
 1193SOL    HW1 4478   6.016   5.046   3.818
 1193SOL    HW2 4479   5.987   5.098   3.666
 1194SOL     OW 4480   4.586   0.567   1.209
 1194SOL    HW1 4481   4.568   0.647   1.266
 1194SOL    HW2 4482   4.583   0.484   1.265
 1195SOL     OW 4483   6.138   3.238   2.040
 1195SOL    HW1 4484   6.074   3.190   1.980
 1195SOL    HW2 4485   6.116   3.335   2.041
 1196SOL     OW 4486   6.517   6.723   3.860
 1196SOL    HW1 4487   6.576   6.798   3.891
 1196SOL    HW2 4488   6.445   6.760   3.801
 1197SOL     OW 4489   3.743   6.880   0.498
 1197SOL    HW1 4490   3.789   6.793   0.514
 1197SOL    HW2 4491   3.767   6.944   0.571
 1198SOL     OW 4492   1.315   2.500   0.825
 1198SOL    HW1 4493   1.356   2.477   0.737
 1198SOL    HW2 4494   1.314   2.419   0.883
 1199SOL     OW 4495   4.887   4.998   1.690
 1199SOL    HW1 4496   4.958   4.937   1.655
 1199SOL    HW2 4497   4.925   5.053   1.765
 1200SOL     OW 4498   3.167   3.577   2.171
 1200SOL    HW1 4499   3.213   3.504   2.221
 1200SOL    HW2 4500   3.068   3.558   2.168
 1201SOL     OW 4501   1.336   2.089   4.765
 1201SOL    HW1 4502   1.387   2.072   4.681
 1201SOL    HW2 4503   1.371   2.031   4.838
 1202SOL     OW 4504   0.078   5.676   6.461
 1202SOL    HW1 4505   0.142   5.647   6.532
 1202SOL    HW2 4506   0.100   5.768   6.431
 1203SOL     OW 4507   4.911   5.987   5.915
 1203SOL    HW1 4508   4.843   6.056   5.890
 1203SOL    HW2 4509   5.003   6.024   5.903
 1204SOL     OW 4510   2.044   0.536   2.047
 1204SOL    HW1 4511   1.973   0.599   2.080
 1204SOL    HW2 4512   2.115   0.528   2.117
 1205SOL     OW 4513   4.972   3.948   1.442
 1205SOL    HW1 4514   4.917   4.028   1.468
 1205SOL    HW2 4515   4.951   3.872   1.504
 1206SOL     OW 4516   3.191   3.474   4.586
 1206SOL    HW1 4517   3.236   3.551   4.631
 1206SOL    HW2 4518   3.101   3.459   4.627
 1207SOL     OW 4519   2.291   5.985   1.842
 1207SOL    HW1 4520   2.292   5.984   1.942
 1207SOL    HW2 4521   2.351   6.058   1.809
 1208SOL     OW 4522   3.640   3.489   6.952
 1208SOL    HW1 4523   3.577   3.468   0.006
 1208SOL    HW2 4524   3.734   3.483   6.985
 1209SOL     OW 4525   3.684   0.058   5.474
 1209SOL    HW1 4526   3.596   0.087   5.437
 1209SOL    HW2 4527   3.683   6.980   5.491
 1210SOL     OW 4528   3.211   0.582   3.155
 1210SOL    HW1 4529   3.207   0.489   3.118
 1210SOL    HW2 4530   3.302   0.597   3.195
 1211SOL     OW 4531   0.570   4.225   0.977
 1211SOL    HW1 4532   0.623   4.143   0.957
 1211SOL    HW2 4533   0.613   4.305   0.936
 1212SOL     OW 4534   0.811   0.020   6.711
 1212SOL    HW1 4535   0.783   0.116   6.709
 1212SOL    HW2 4536   0.907   0.013   6.684
 1213SOL     OW 4537   5.616   2.804   0.942
 1213SOL    HW1 4538   5.551   2.740   0.983
 1213SOL    HW2 4539   5.574   2.849   0.864
 1214SOL     OW 4540   6.886   2.229   0.926
 1214SOL    HW1 4541   6.867   2.145   0.975
 1214SOL    HW2 4542   6.800   2.266   0.889
 1215SOL     OW 4543   0.959   4.916   4.394
 1215SOL    HW1 4544   1.040   4.974   4.381
 1215SOL    HW2 4545   0.987   4.820   4.392
 1216SOL     OW 4546   4.607   0.399   6.256
 1216SOL    HW1 4547   4.622   0.413   6.353
 1216SOL    HW2 4548   4.691   0.365   6.214
 1217SOL     OW 4549   2.679   4.424   0.707
 1217SOL    HW1 4550   2.693   4.346   0.768
 1217SOL    HW2 4551   2.765   4.448   0.663
 1218SOL     OW 4552   1.557   3.939   3.534
 1218SOL    HW1 4553   1.483   3.995   3.495
 1218SOL    HW2 4554   1.550   3.941   3.634
 1219SOL     OW 4555   3.808   6.002   2.344
 1219SOL    HW1 4556   3.865   5.920   2.340
 1219SOL    HW2 4557   3.865   6.082   2.359
 1220SOL     OW 4558   1.213   4.601   2.825
 1220SOL    HW1 4559   1.236   4.504   2.834
 1220SOL    HW2 4560   1.116   4.615   2.845
 1221SOL     OW 4561   5.740   3.467   6.153
 1221SOL    HW1 4562   5.758   3.563   6.175
 1221SOL    HW2 4563   5.642   3.449   6.162
 1222SOL     OW 4564   6.717   6.564   6.862
 1222SOL    HW1 4565   6.668   6.633   6.808
 1222SOL    HW2 4566   6.816   6.577   6.851
 1223SOL     OW 4567   3.054   6.282   0.063
 1223SOL    HW1 4568   3.112   6.319   7.011
 1223SOL    HW2 4569   2.964   6.261   0.027
 1224SOL     OW 4570   2.295   0.225   1.298
 1224SOL    HW1 4571   2.212   0.282   1.298
 1224SOL    HW2 4572   2.335   0.225   1.206
 1225SOL     OW 4573   3.289   3.995   6.276
 1225SOL    HW1 4574   3.276   3.960   6.183
 1225SOL    HW2 4575   3.219   3.957   6.336
 1226SOL     OW 4576   1.700   5.167   1.412
 1226SOL    HW1 4577   1.617   5.113   1.423
 1226SOL    HW2 4578   1.774   5.127   1.466
 1227SOL     OW 4579   0.123   3.855   6.590
 1227SOL    HW1 4580   0.185   3.789   6.634
 1227SOL    HW2 4581   0.053   3.884   6.655
 1228SOL     OW 4582   4.107   2.359   5.930
 1228SOL    HW1 4583   4.039   2.313   5.987
 1228SOL    HW2 4584   4.143   2.439   5.978
 1229SOL     OW 4585   3.722   4.763   6.571
 1229SOL    HW1 4586   3.653   4.835   6.586
 1229SOL    HW2 4587   3.707   4.721   6.481
 1230SOL     OW 4588   4.143   6.642   3.473
 1230SOL    HW1 4589   4.238   6.674   3.476
 1230SOL    HW2 4590   4.141   6.549   3.436
 1231SOL     OW 4591   1.981   3.085   4.886
 1231SOL    HW1 4592   1.918   3.115   4.958
 1231SOL    HW2 4593   1.947   3.118   4.797
 1232SOL     OW 4594   1.358   2.647   5.355
 1232SOL    HW1 4595   1.454   2.618   5.357
 1232SOL    HW2 4596   1.312   2.605   5.277
 1233SOL     OW 4597   0.820   3.026   5.551
 1233SOL    HW1 4598   0.759   2.948   5.544
 1233SOL    HW2 4599   0.844   3.058   5.459
 1234SOL     OW 4600   5.730   4.240   4.913
 1234SOL    HW1 4601   5.801   4.283   4.968
 1234SOL    HW2 4602   5.665   4.309   4.883
 1235SOL     OW 4603   6.547   5.471   3.443
 1235SOL    HW1 4604   6.609   5.505   3.513
 1235SOL    HW2 4605   6.571   5.513   3.355
 1236SOL     OW 4606   5.787   0.555   6.771
 1236SOL    HW1 4607   5.732   0.490   6.823
 1236SOL    HW2 4608   5.868   0.580   6.823
 1237SOL     OW 4609   2.715   4.566   6.394
 1237SOL    HW1 4610   2.731   4.478   6.440
 1237SOL    HW2 4611   2.795   4.624   6.404
 1238SOL     OW 4612   1.964   1.457   0.875
 1238SOL    HW1 4613   2.001   1.452   0.782
 1238SOL    HW2 4614   1.937   1.552   0.894
 1239SOL     OW 4615   6.707   6.078   6.535
 1239SOL    HW1 4616   6.772   6.051   6.606
 1239SOL    HW2 4617   6.632   6.012   6.531
 1240SOL     OW 4618   4.824   5.944   1.944
 1240SOL    HW1 4619   4.741   5.935   1.889
 1240SOL    HW2 4620   4.903   5.913   1.890
 1241SOL     OW 4621   6.611   3.991   4.110
 1241SOL    HW1 4622   6.569   3.903   4.136
 1241SOL    HW2 4623   6.669   4.023   4.184
 1242SOL     OW 4624   2.347   3.540   0.530
 1242SOL    HW1 4625   2.433   3.549   0.481
 1242SOL    HW2 4626   2.287   3.617   0.507
 1243SOL     OW 4627   1.775   5.321   5.609
 1243SOL    HW1 4628   1.806   5.402   5.559
 1243SOL    HW2 4629   1.694   5.284   5.565
 1244SOL     OW 4630   0.485   0.834   3.755
 1244SOL    HW1 4631   0.550   0.865   3.686
 1244SOL    HW2 4632   0.453   0.742   3.732
 1245SOL     OW 4633   3.535   3.706   0.180
 1245SOL    HW1 4634   3.625   3.719   0.220
 1245SOL    HW2 4635   3.475   3.781   0.208
 1246SOL     OW 4636   2.342   6.240   2.221
 1246SOL    HW1 4637   2.309   6.272   2.132
 1246SOL    HW2 4638   2.438   6.264   2.231
 1247SOL     OW 4639   2.067   6.505   5.979
 1247SOL    HW1 4640   2.028   6.502   5.887
 1247SOL    HW2 4641   2.029   6.431   6.034
 1248SOL     OW 4642   2.086   5.523   3.755
 1248SOL    HW1 4643   2.148   5.449   3.778
 1248SOL    HW2 4644   2.035   5.499   3.672
 1249SOL     OW 4645   5.759   3.079   3.517
 1249SOL    HW1 4646   5.848   3.047   3.548
 1249SOL    HW2 4647   5.695   3.002   3.516
 1250SOL     OW 4648   1.330   4.155   3.795
 1250SOL    HW1 4649   1.301   4.183   3.887
 1250SOL    HW2 4650   1.406   4.092   3.802
 1251SOL     OW 4651   4.016   0.490   4.689
 1251SOL    HW1 4652   4.109   0.520   4.666
 1251SOL    HW2 4653   4.021   0.423   4.763
 1252SOL     OW 4654   3.441   4.129   5.466
 1252SOL    HW1 4655   3.507   4.200   5.490
 1252SOL    HW2 4656   3.482   4.039   5.478
 1253SOL     OW 4657   4.105   5.179   2.884
 1253SOL    HW1 4658   4.104   5.181   2.784
 1253SOL    HW2 4659   4.017   5.212   2.918
 1254SOL     OW 4660   6.632   1.910   2.905
 1254SOL    HW1 4661   6.699   1.963   2.957
 1254SOL    HW2 4662   6.562   1.971   2.868
 1255SOL     OW 4663   0.017   0.110   6.591
 1255SOL    HW1 4664   0.096   0.072   6.544
 1255SOL    HW2 4665   7.011   0.196   6.547
 1256SOL     OW 4666   5.258   0.326   3.255
 1256SOL    HW1 4667   5.166   0.318   3.294
 1256SOL    HW2 4668   5.306   0.239   3.265
 1257SOL     OW 4669   6.722   1.083   3.792
 1257SOL    HW1 4670   6.641   1.130   3.826
 1257SOL    HW2 4671   6.694   1.006   3.734
 1258SOL     OW 4672   0.538   7.003   3.388
 1258SOL    HW1 4673   0.636   0.003   3.390
 1258SOL    HW2 4674   0.486   0.067   3.404
 1259SOL     OW 4675   3.678   2.103   5.013
 1259SOL    HW1 4676   3.682   2.175   4.945
 1259SOL    HW2 4677   3.635   2.022   4.973
 1260SOL     OW 4678   0.901   0.968   0.215
 1260SOL    HW1 4679   0.871   1.064   0.223
 1260SOL    HW2 4680   0.848   0.922   0.144
 1261SOL     OW 4681   6.839   5.080   0.545
 1261SOL    HW1 4682   6.790   5.098   0.460
 1261SOL    HW2 4683   6.898   5.158   0.567
 1262SOL     OW 4684   5.376   5.896   1.031
 1262SOL    HW1 4685   5.349   5.860   0.942
 1262SOL    HW2 4686   5.417   5.823   1.086
 1263SOL     OW 4687   1.476   2.507   3.800
 1263SOL    HW1 4688   1.384   2.526   3.836
 1263SOL    HW2 4689   1.482   2.541   3.706
 1264SOL     OW 4690   0.957   2.715   5.066
 1264SOL    HW1 4691   1.019   2.780   5.110
 1264SOL    HW2 4692   0.922   2.754   4.981
 1265SOL     OW 4693   6.039   6.587   4.497
 1265SOL    HW1 4694   5.946   6.556   4.511
 1265SOL    HW2 4695   6.085   6.527   4.431
 1266SOL     OW 4696   2.338   0.454   4.712
 1266SOL    HW1 4697   2.281   0.508   4.651
 1266SOL    HW2 4698   2.295   0.364   4.727
 1267SOL     OW 4699   4.299   0.195   2.262
 1267SOL    HW1 4700   4.311   0.195   2.162
 1267SOL    HW2 4701   4.207   0.227   2.284
 1268SOL     OW 4702   4.329   2.687   5.336
 1268SOL    HW1 4703   4.350   2.780   5.308
 1268SOL    HW2 4704   4.246   2.656   5.290
 1269SOL     OW 4705   6.003   2.764   4.408
 1269SOL    HW1 4706   6.061   2.690   4.373
 1269SOL    HW2 4707   5.915   2.763   4.361
 1270SOL     OW 4708   0.032   4.988   3.560
 1270SOL    HW1 4709   0.047   5.081   3.528
 1270SOL    HW2 4710   6.975   4.948   3.511
 1271SOL     OW 4711   1.529   1.790   1.317
 1271SOL    HW1 4712   1.531   1.883   1.280
 1271SOL    HW2 4713   1.503   1.726   1.245
 1272SOL     OW 4714   6.798   4.404   0.111
 1272SOL    HW1 4715   6.779   4.321   0.162
 1272SOL    HW2 4716   6.745   4.404   0.027
 1273SOL     OW 4717   1.364   4.832   5.136
 1273SOL    HW1 4718   1.267   4.808   5.136
 1273SOL    HW2 4719   1.375   4.925   5.172
 1274SOL     OW 4720   0.749   5.346   2.574
 1274SOL    HW1 4721   0.768   5.407   2.651
 1274SOL    HW2 4722   0.716   5.400   2.496
 1275SOL     OW 4723   3.169   1.157   2.452
 1275SOL    HW1 4724   3.089   1.104   2.425
 1275SOL    HW2 4725   3.224   1.103   2.516
 1276SOL     OW 4726   5.435   4.599   3.940
 1276SOL    HW1 4727   5.421   4.500   3.941
 1276SOL    HW2 4728   5.351   4.644   3.909
 1277SOL     OW 4729   0.563   6.100   0.867
 1277SOL    HW1 4730   0.487   6.134   0.811
 1277SOL    HW2 4731   0.551   6.130   0.962
 1278SOL     OW 4732   1.307   5.702   2.568
 1278SOL    HW1 4733   1.219   5.677   2.610
 1278SOL    HW2 4734   1.293   5.718   2.470
 1279SOL     OW 4735   2.265   2.205   0.100
 1279SOL    HW1 4736   2.233   2.111   0.112
 1279SOL    HW2 4737   2.274   2.249   0.189
 1280SOL     OW 4738   2.481   1.865   3.281
 1280SOL    HW1 4739   2.473   1.961   3.255
 1280SOL    HW2 4740   2.487   1.858   3.381
 1281SOL     OW 4741   4.226   5.820   4.159
 1281SOL    HW1 4742   4.241   5.752   4.087
 1281SOL    HW2 4743   4.129   5.846   4.160
 1282SOL     OW 4744   0.090   2.388   1.226
 1282SOL    HW1 4745   0.079   2.487   1.226
 1282SOL    HW2 4746   0.172   2.363   1.175
 1283SOL     OW 4747   6.575   3.694   5.482
 1283SOL    HW1 4748   6.491   3.650   5.513
 1283SOL    HW2 4749   6.636   3.708   5.560
 1284SOL     OW 4750   3.939   1.934   1.470
 1284SOL    HW1 4751   3.842   1.946   1.453
 1284SOL    HW2 4752   3.955   1.845   1.512
 1285SOL     OW 4753   3.742   1.102   5.382
 1285SOL    HW1 4754   3.814   1.034   5.386
 1285SOL    HW2 4755   3.744   1.158   5.465
 1286SOL     OW 4756   4.436   2.151   2.158
 1286SOL    HW1 4757   4.430   2.202   2.244
 1286SOL    HW2 4758   4.532   2.145   2.130
 1287SOL     OW 4759   6.528   4.525   4.801
 1287SOL    HW1 4760   6.541   4.434   4.841
 1287SOL    HW2 4761   6.489   4.586   4.869
 1288SOL     OW 4762   4.498   4.353   6.738
 1288SOL    HW1 4763   4.462   4.421   6.674
 1288SOL    HW2 4764   4.444   4.269   6.733
 1289SOL     OW 4765   0.180   0.434   1.879
 1289SOL    HW1 4766   0.100   0.383   1.847
 1289SOL    HW2 4767   0.252   0.369   1.903
 1290SOL     OW 4768   1.433   7.003   6.477
 1290SOL    HW1 4769   1.465   0.044   6.549
 1290SOL    HW2 4770   1.356   6.948   6.511
 1291SOL     OW 4771   6.707   5.337   3.096
 1291SOL    HW1 4772   6.671   5.244   3.105
 1291SOL    HW2 4773   6.807   5.335   3.102
 1292SOL     OW 4774   1.024   6.303   2.168
 1292SOL    HW1 4775   1.096   6.372   2.172
 1292SOL    HW2 4776   0.942   6.337   2.213
 1293SOL     OW 4777   3.005   0.819   6.970
 1293SOL    HW1 4778   2.959   0.849   0.033
 1293SOL    HW2 4779   2.938   0.816   6.895
 1294SOL     OW 4780   2.475   3.602   5.343
 1294SOL    HW1 4781   2.392   3.654   5.318
 1294SOL    HW2 4782   2.460   3.505   5.323
 1295SOL     OW 4783   6.402   4.356   0.871
 1295SOL    HW1 4784   6.424   4.267   0.911
 1295SOL    HW2 4785   6.338   4.404   0.931
 1296SOL     OW 4786   5.464   6.791   5.851
 1296SOL    HW1 4787   5.494   6.865   5.792
 1296SOL    HW2 4788   5.482   6.703   5.805
 1297SOL     OW 4789   0.351   0.039   2.165
 1297SOL    HW1 4790   0.302   0.047   2.253
 1297SOL    HW2 4791   0.449   0.041   2.182
 1298SOL     OW 4792   5.420   6.024   2.311
 1298SOL    HW1 4793   5.394   6.046   2.404
 1298SOL    HW2 4794   5.346   6.048   2.249
 1299SOL     OW 4795   1.591   3.418   4.693
 1299SOL    HW1 4796   1.642   3.478   4.755
 1299SOL    HW2 4797   1.535   3.475   4.632
 1300SOL     OW 4798   1.383   4.485   1.741
 1300SOL    HW1 4799   1.288   4.475   1.771
 1300SOL    HW2 4800   1.400   4.422   1.665
 1301SOL     OW 4801   0.622   0.444   1.465
 1301SOL    HW1 4802   0.709   0.449   1.416
 1301SOL    HW2 4803   0.619   0.362   1.521
 1302SOL     OW 4804   5.703   6.785   5.451
 1302SOL    HW1 4805   5.672   6.863   5.505
 1302SOL    HW2 4806   5.801   6.794   5.433
 1303SOL     OW 4807   4.200   6.260   1.425
 1303SOL    HW1 4808   4.227   6.305   1.340
 1303SOL    HW2 4809   4.218   6.322   1.502
 1304SOL     OW 4810   0.487   1.255   0.888
 1304SOL    HW1 4811   0.439   1.335   0.924
 1304SOL    HW2 4812   0.472   1.248   0.789
 1305SOL     OW 4813   5.720   3.881   6.553
 1305SOL    HW1 4814   5.727   3.934   6.638
 1305SOL    HW2 4815   5.631   3.897   6.511
 1306SOL     OW 4816   2.250   5.377   4.109
 1306SOL    HW1 4817   2.292   5.393   4.020
 1306SOL    HW2 4818   2.301   5.306   4.158
 1307SOL     OW 4819   2.649   2.316   3.715
 1307SOL    HW1 4820   2.675   2.226   3.751
 1307SOL    HW2 4821   2.604   2.369   3.788
 1308SOL     OW 4822   6.976   5.380   6.265
 1308SOL    HW1 4823   6.909   5.378   6.191
 1308SOL    HW2 4824   6.932   5.412   6.349
 1309SOL     OW 4825   5.170   4.226   6.523
 1309SOL    HW1 4826   5.151   4.323   6.539
 1309SOL    HW2 4827   5.135   4.172   6.600
 1310SOL     OW 4828   1.456   4.238   3.529
 1310SOL    HW1 4829   1.451   4.208   3.624
 1310SOL    HW2 4830   1.370   4.284   3.505
 1311SOL     OW 4831   0.144   6.076   0.457
 1311SOL    HW1 4832   0.174   6.158   0.506
 1311SOL    HW2 4833   0.057   6.045   0.494
 1312SOL     OW 4834   2.484   0.449   6.278
 1312SOL    HW1 4835   2.579   0.449   6.310
 1312SOL    HW2 4836   2.423   0.444   6.356
 1313SOL     OW 4837   6.576   5.830   2.930
 1313SOL    HW1 4838   6.504   5.779   2.977
 1313SOL    HW2 4839   6.663   5.816   2.978
 1314SOL     OW 4840   2.717   1.846   5.100
 1314SOL    HW1 4841   2.680   1.760   5.064
 1314SOL    HW2 4842   2.675   1.923   5.052
 1315SOL     OW 4843   6.336   1.474   4.041
 1315SOL    HW1 4844   6.373   1.432   4.124
 1315SOL    HW2 4845   6.283   1.555   4.067
 1316SOL     OW 4846   4.175   0.653   4.937
 1316SOL    HW1 4847   4.207   0.707   4.859
 1316SOL    HW2 4848   4.155   0.715   5.013
 1317SOL     OW 4849   2.791   3.502   5.828
 1317SOL    HW1 4850   2.728   3.560   5.879
 1317SOL    HW2 4851   2.779   3.517   5.730
 1318SOL     OW 4852   1.654   2.824   6.566
 1318SOL    HW1 4853   1.672   2.917   6.598
 1318SOL    HW2 4854   1.615   2.770   6.641
 1319SOL     OW 4855   0.255   6.647   0.965
 1319SOL    HW1 4856   0.187   6.716   0.988
 1319SOL    HW2 4857   0.272   6.588   1.044
 1320SOL     OW 4858   3.218   2.488   5.607
 1320SOL    HW1 4859   3.147   2.488   5.537
 1320SOL    HW2 4860   3.254   2.395   5.618
 1321SOL     OW 4861   5.667   2.478   6.648
 1321SOL    HW1 4862   5.626   2.552   6.701
 1321SOL    HW2 4863   5.757   2.507   6.614
 1322SOL     OW 4864   3.457   1.485   0.509
 1322SOL    HW1 4865   3.400   1.554   0.465
 1322SOL    HW2 4866   3.523   1.449   0.442
 1323SOL     OW 4867   4.050   0.201   6.925
 1323SOL    HW1 4868   4.014   0.251   6.846
 1323SOL    HW2 4869   4.074   0.108   6.898
 1324SOL     OW 4870   0.934   3.790   6.866
 1324SOL    HW1 4871   0.881   3.863   6.908
 1324SOL    HW2 4872   1.029   3.821   6.854
 1325SOL     OW 4873   2.814   4.949   6.117
 1325SOL    HW1 4874   2.857   5.002   6.044
 1325SOL    HW2 4875   2.716   4.971   6.120
 1326SOL     OW 4876   5.064   3.175   3.803
 1326SOL    HW1 4877   5.122   3.221   3.870
 1326SOL    HW2 4878   5.086   3.077   3.802
 1327SOL     OW 4879   6.517   6.024   1.128
 1327SOL    HW1 4880   6.478   6.116   1.127
 1327SOL    HW2 4881   6.510   5.984   1.037
 1328SOL     OW 4882   1.499   3.398   5.803
 1328SOL    HW1 4883   1.443   3.443   5.733
 1328SOL    HW2 4884   1.549   3.322   5.763
 1329SOL     OW 4885   0.617   3.289   2.826
 1329SOL    HW1 4886   0.618   3.224   2.903
 1329SOL    HW2 4887   0.523   3.319   2.810
 1330SOL     OW 4888   6.206   3.009   1.092
 1330SOL    HW1 4889   6.273   3.061   1.038
 1330SOL    HW2 4890   6.121   3.001   1.040
 1331SOL     OW 4891   4.900   1.745   2.962
 1331SOL    HW1 4892   4.833   1.713   3.029
 1331SOL    HW2 4893   4.972   1.796   3.008
 1332SOL     OW 4894   1.485   6.442   0.465
 1332SOL    HW1 4895   1.547   6.386   0.520
 1332SOL    HW2 4896   1.399   6.392   0.452
 1333SOL     OW 4897   3.201   4.108   3.257
 1333SOL    HW1 4898   3.235   4.149   3.172
 1333SOL    HW2 4899   3.122   4.050   3.236
 1334SOL     OW 4900   6.998   3.152   2.270
 1334SOL    HW1 4901   6.952   3.240   2.257
 1334SOL    HW2 4902   0.059   3.166   2.327
 1335SOL     OW 4903   1.243   3.944   2.363
 1335SOL    HW1 4904   1.283   3.863   2.321
 1335SOL    HW2 4905   1.261   3.943   2.462
 1336SOL     OW 4906   3.280   0.381   5.246
 1336SOL    HW1 4907   3.221   0.442   5.192
 1336SOL    HW2 4908   3.234   0.293   5.258
 1337SOL     OW 4909   6.972   1.428   3.638
 1337SOL    HW1 4910   6.905   1.417   3.711
 1337SOL    HW2 4911   0.039   1.390   3.667
 1338SOL     OW 4912   6.288   4.427   5.322
 1338SOL    HW1 4913   6.286   4.427   5.222
 1338SOL    HW2 4914   6.375   4.389   5.354
 1339SOL     OW 4915   6.926   0.599   0.006
 1339SOL    HW1 4916   6.982   0.591   0.088
 1339SOL    HW2 4917   6.895   0.693   7.016
 1340SOL     OW 4918   4.675   2.264   1.828
 1340SOL    HW1 4919   4.704   2.179   1.784
 1340SOL    HW2 4920   4.658   2.334   1.759
 1341SOL     OW 4921   5.026   0.139   6.867
 1341SOL    HW1 4922   5.037   0.180   6.957
 1341SOL    HW2 4923   4.988   0.047   6.876
 1342SOL     OW 4924   2.655   5.972   0.871
 1342SOL    HW1 4925   2.708   6.023   0.939
 1342SOL    HW2 4926   2.583   6.031   0.835
 1343SOL     OW 4927   5.557   5.952   2.820
 1343SOL    HW1 4928   5.501   5.889   2.874
 1343SOL    HW2 4929   5.588   6.028   2.878
 1344SOL     OW 4930   0.089   0.125   5.039
 1344SOL    HW1 4931   7.017   0.121   5.002
 1344SOL    HW2 4932   0.149   0.171   4.975
 1345SOL     OW 4933   0.501   5.705   1.501
 1345SOL    HW1 4934   0.594   5.695   1.534
 1345SOL    HW2 4935   0.446   5.754   1.569
 1346SOL     OW 4936   2.614   5.331   6.188
 1346SOL    HW1 4937   2.531   5.279   6.172
 1346SOL    HW2 4938   2.600   5.427   6.164
 1347SOL     OW 4939   1.546   0.317   6.874
 1347SOL    HW1 4940   1.542   0.414   6.896
 1347SOL    HW2 4941   1.595   0.268   6.946
 1348SOL     OW 4942   0.215   6.303   5.139
 1348SOL    HW1 4943   0.121   6.275   5.119
 1348SOL    HW2 4944   0.215   6.398   5.171
 1349SOL     OW 4945   4.878   3.325   4.210
 1349SOL    HW1 4946   4.882   3.332   4.309
 1349SOL    HW2 4947   4.859   3.415   4.170
 1350SOL     OW 4948   3.088   3.778   0.679
 1350SOL    HW1 4949   3.025   3.765   0.755
 1350SOL    HW2 4950   3.131   3.691   0.656
 1351SOL     OW 4951   6.744   2.661   5.404
 1351SOL    HW1 4952   6.686   2.740   5.424
 1351SOL    HW2 4953   6.805   2.644   5.482
 1352SOL     OW 4954   0.231   0.416   2.225
 1352SOL    HW1 4955   0.288   0.418   2.308
 1352SOL    HW2 4956   0.290   0.417   2.144
 1353SOL     OW 4957   0.765   1.028   1.105
 1353SOL    HW1 4958   0.857   1.068   1.101
 1353SOL    HW2 4959   0.698   1.100   1.118
 1354SOL     OW 4960   5.563   4.533   1.990
 1354SOL    HW1 4961   5.480   4.577   2.024
 1354SOL    HW2 4962   5.626   4.603   1.956
 1355SOL     OW 4963   6.429   3.616   5.141
 1355SOL    HW1 4964   6.444   3.696   5.198
 1355SOL    HW2 4965   6.340   3.575   5.161
 1356SOL     OW 4966   3.512   3.000   1.321
 1356SOL    HW1 4967   3.538   2.904   1.332
 1356SOL    HW2 4968   3.414   3.010   1.336
 1357SOL     OW 4969   6.939   3.617   5.435
 1357SOL    HW1 4970   6.942   3.693   5.371
 1357SOL    HW2 4971   6.880   3.640   5.512
 1358SOL     OW 4972   1.678   6.665   6.658
 1358SOL    HW1 4973   1.599   6.673   6.720
 1358SOL    HW2 4974   1.723   6.754   6.650
 1359SOL     OW 4975   6.563   4.510   1.939
 1359SOL    HW1 4976   6.573   4.607   1.919
 1359SOL    HW2 4977   6.467   4.484   1.935
 1360SOL     OW 4978   2.348   2.046   6.860
 1360SOL    HW1 4979   2.442   2.023   6.836
 1360SOL    HW2 4980   2.344   2.142   6.887
 1361SOL     OW 4981   6.749   5.108   4.730
 1361SOL    HW1 4982   6.834   5.084   4.684
 1361SOL    HW2 4983   6.672   5.066   4.682
 1362SOL     OW 4984   3.105   3.060   3.117
 1362SOL    HW1 4985   3.136   2.969   3.088
 1362SOL    HW2 4986   3.037   3.094   3.053
 1363SOL     OW 4987   0.581   6.390   5.301
 1363SOL    HW1 4988   0.570   6.368   5.205
 1363SOL    HW2 4989   0.644   6.326   5.344
 1364SOL     OW 4990   4.108   3.975   0.864
 1364SOL    HW1 4991   4.013   3.967   0.892
 1364SOL    HW2 4992   4.153   3.886   0.873
 1365SOL     OW 4993   0.341   3.650   0.196
 1365SOL    HW1 4994   0.263   3.588   0.195
 1365SOL    HW2 4995   0.409   3.620   0.130
 1366SOL     OW 4996   2.548   6.635   4.978
 1366SOL    HW1 4997   2.647   6.649   4.986
 1366SOL    HW2 4998   2.500   6.716   5.010
 1367SOL     OW 4999   1.754   1.189   3.045
 1367SOL    HW1 5000   1.678   1.218   3.104
 1367SOL    HW2 5001   1.829   1.254   3.052
 1368SOL     OW 5002   5.874   6.909   3.960
 1368SOL    HW1 5003   5.920   6.996   3.977
 1368SOL    HW2 5004   5.925   6.835   4.003
 1369SOL     OW 5005   0.993   0.543   3.144
 1369SOL    HW1 5006   1.018   0.465   3.202
 1369SOL    HW2 5007   1.067   0.561   3.079
 1370SOL     OW 5008   2.752   1.270   1.485
 1370SOL    HW1 5009   2.690   1.205   1.442
 1370SOL    HW2 5010   2.809   1.223   1.553
 1371SOL     OW 5011   4.237   0.708   6.242
 1371SOL    HW1 5012   4.152   0.741   6.199
 1371SOL    HW2 5013   4.313   0.718   6.178
 1372SOL     OW 5014   3.259   1.812   2.242
 1372SOL    HW1 5015   3.243   1.721   2.204
 1372SOL    HW2 5016   3.176   1.843   2.290
 1373SOL     OW 5017   1.064   6.033   1.155
 1373SOL    HW1 5018   1.153   6.078   1.164
 1373SOL    HW2 5019   1.064   5.974   1.074
 1374SOL     OW 5020   4.975   2.522   0.299
 1374SOL    HW1 5021   5.071   2.533   0.270
 1374SOL    HW2 5022   4.971   2.517   0.398
 1375SOL     OW 5023   0.352   4.169   5.700
 1375SOL    HW1 5024   0.340   4.079   5.743
 1375SOL    HW2 5025   0.438   4.171   5.650
 1376SOL     OW 5026   4.984   2.300   2.214
 1376SOL    HW1 5027   4.902   2.301   2.156
 1376SOL    HW2 5028   4.970   2.236   2.289
 1377SOL     OW 5029   0.496   5.389   4.777
 1377SOL    HW1 5030   0.484   5.318   4.707
 1377SOL    HW2 5031   0.464   5.355   4.865
 1378SOL     OW 5032   1.368   2.021   0.859
 1378SOL    HW1 5033   1.461   2.026   0.824
 1378SOL    HW2 5034   1.363   1.954   0.933
 1379SOL     OW 5035   3.882   6.065   2.013
 1379SOL    HW1 5036   3.783   6.070   2.026
 1379SOL    HW2 5037   3.902   6.043   1.917
 1380SOL     OW 5038   6.231   6.797   2.317
 1380SOL    HW1 5039   6.269   6.824   2.229
 1380SOL    HW2 5040   6.271   6.711   2.346
 1381SOL     OW 5041   5.913   1.460   1.631
 1381SOL    HW1 5042   5.985   1.394   1.655
 1381SOL    HW2 5043   5.824   1.422   1.654
 1382SOL     OW 5044   5.982   5.146   6.522
 1382SOL    HW1 5045   6.063   5.167   6.576
 1382SOL    HW2 5046   5.916   5.097   6.578
 1383SOL     OW 5047   2.743   0.044   0.635
 1383SOL    HW1 5048   2.747   0.073   0.539
 1383SOL    HW2 5049   2.737   0.125   0.693
 1384SOL     OW 5050   3.597   2.111   3.035
 1384SOL    HW1 5051   3.546   2.073   3.113
 1384SOL    HW2 5052   3.627   2.204   3.058
 1385SOL     OW 5053   5.880   3.040   2.712
 1385SOL    HW1 5054   5.907   3.059   2.617
 1385SOL    HW2 5055   5.807   2.972   2.714
 1386SOL     OW 5056   2.186   2.423   4.293
 1386SOL    HW1 5057   2.101   2.463   4.259
 1386SOL    HW2 5058   2.250   2.496   4.318
 1387SOL     OW 5059   2.248   0.520   5.169
 1387SOL    HW1 5060   2.259   0.462   5.249
 1387SOL    HW2 5061   2.165   0.493   5.120
 1388SOL     OW 5062   6.805   0.824   4.708
 1388SOL    HW1 5063   6.786   0.863   4.618
 1388SOL    HW2 5064   6.883   0.872   4.749
 1389SOL     OW 5065   6.969   0.334   4.908
 1389SOL    HW1 5066   7.001   0.315   4.815
 1389SOL    HW2 5067   6.869   0.332   4.910
 1390SOL     OW 5068   4.724   2.797   2.982
 1390SOL    HW1 5069   4.789   2.873   2.987
 1390SOL    HW2 5070   4.681   2.796   2.892
 1391SOL     OW 5071   5.919   1.194   4.353
 1391SOL    HW1 5072   5.850   1.266   4.356
 1391SOL    HW2 5073   5.902   1.128   4.427
 1392SOL     OW 5074   4.641   4.967   6.123
 1392SOL    HW1 5075   4.545   4.937   6.120
 1392SOL    HW2 5076   4.649   5.045   6.185
 1393SOL     OW 5077   5.953   0.645   6.535
 1393SOL    HW1 5078   5.934   0.596   6.450
 1393SOL    HW2 5079   5.884   0.620   6.603
 1394SOL     OW 5080   4.581   6.791   4.149
 1394SOL    HW1 5081   4.506   6.798   4.214
 1394SOL    HW2 5082   4.552   6.828   4.061
 1395SOL     OW 5083   1.173   5.539   2.277
 1395SOL    HW1 5084   1.099   5.475   2.257
 1395SOL    HW2 5085   1.227   5.504   2.353
 1396SOL     OW 5086   1.872   1.906   3.706
 1396SOL    HW1 5087   1.870   1.823   3.651
 1396SOL    HW2 5088   1.794   1.964   3.681
 1397SOL     OW 5089   0.649   5.674   4.448
 1397SOL    HW1 5090   0.604   5.678   4.359
 1397SOL    HW2 5091   0.646   5.764   4.491
 1398SOL     OW 5092   0.831   6.777   0.560
 1398SOL    HW1 5093   0.799   6.730   0.642
 1398SOL    HW2 5094   0.854   6.871   0.582
 1399SOL     OW 5095   3.954   0.194   0.174
 1399SOL    HW1 5096   3.922   0.105   0.204
 1399SOL    HW2 5097   4.007   0.184   0.090
 1400SOL     OW 5098   0.184   0.858   5.194
 1400SOL    HW1 5099   0.171   0.761   5.172
 1400SOL    HW2 5100   0.251   0.898   5.131
 1401SOL     OW 5101   5.706   0.487   2.688
 1401SOL    HW1 5102   5.721   0.567   2.745
 1401SOL    HW2 5103   5.715   0.404   2.743
 1402SOL     OW 5104   6.692   4.840   2.789
 1402SOL    HW1 5105   6.716   4.789   2.872
 1402SOL    HW2 5106   6.747   4.923   2.783
 1403SOL     OW 5107   3.303   3.306   6.652
 1403SOL    HW1 5108   3.303   3.280   6.556
 1403SOL    HW2 5109   3.251   3.239   6.706
 1404SOL     OW 5110   3.842   6.943   0.233
 1404SOL    HW1 5111   3.809   6.939   0.327
 1404SOL    HW2 5112   3.781   6.890   0.174
 1405SOL     OW 5113   0.724   4.111   1.578
 1405SOL    HW1 5114   0.682   4.156   1.499
 1405SOL    HW2 5115   0.714   4.012   1.569
 1406SOL     OW 5116   2.241   3.362   0.707
 1406SOL    HW1 5117   2.158   3.394   0.754
 1406SOL    HW2 5118   2.281   3.437   0.654
 1407SOL     OW 5119   0.060   3.178   1.201
 1407SOL    HW1 5120   0.073   3.125   1.284
 1407SOL    HW2 5121   0.098   3.270   1.213
 1408SOL     OW 5122   5.665   6.677   0.954
 1408SOL    HW1 5123   5.625   6.605   0.896
 1408SOL    HW2 5124   5.648   6.655   1.050
 1409SOL     OW 5125   6.845   1.446   5.718
 1409SOL    HW1 5126   6.843   1.428   5.816
 1409SOL    HW2 5127   6.856   1.544   5.702
 1410SOL     OW 5128   3.957   0.741   6.150
 1410SOL    HW1 5129   3.899   0.777   6.224
 1410SOL    HW2 5130   3.963   0.808   6.077
 1411SOL     OW 5131   3.306   5.271   6.786
 1411SOL    HW1 5132   3.393   5.266   6.835
 1411SOL    HW2 5133   3.252   5.347   6.822
 1412SOL     OW 5134   2.432   3.354   0.074
 1412SOL    HW1 5135   2.338   3.323   0.057
 1412SOL    HW2 5136   2.449   3.353   0.173
 1413SOL     OW 5137   1.570   1.492   4.728
 1413SOL    HW1 5138   1.642   1.475   4.795
 1413SOL    HW2 5139   1.539   1.587   4.737
 1414SOL     OW 5140   1.111   4.364   2.442
 1414SOL    HW1 5141   1.141   4.451   2.483
 1414SOL    HW2 5142   1.092   4.298   2.515
 1415SOL     OW 5143   2.607   1.611   5.005
 1415SOL    HW1 5144   2.601   1.557   4.922
 1415SOL    HW2 5145   2.514   1.635   5.035
 1416SOL     OW 5146   4.587   0.404   4.641
 1416SOL    HW1 5147   4.539   0.446   4.719
 1416SOL    HW2 5148   4.648   0.471   4.600
 1417SOL     OW 5149   3.802   3.766   5.783
 1417SOL    HW1 5150   3.870   3.693   5.778
 1417SOL    HW2 5151   3.777   3.783   5.878
 1418SOL     OW 5152   3.788   4.233   5.490
 1418SOL    HW1 5153   3.804   4.323   5.450
 1418SOL    HW2 5154   3.831   4.163   5.434
 1419SOL     OW 5155   1.550   5.780   2.279
 1419SOL    HW1 5156   1.608   5.713   2.326
 1419SOL    HW2 5157   1.503   5.735   2.202
 1420SOL     OW 5158   2.466   0.081   3.046
 1420SOL    HW1 5159   2.488   0.156   3.108
 1420SOL    HW2 5160   2.368   0.060   3.051
 1421SOL     OW 5161   1.352   4.653   5.787
 1421SOL    HW1 5162   1.388   4.626   5.877
 1421SOL    HW2 5163   1.347   4.572   5.729
 1422SOL     OW 5164   1.896   2.954   6.214
 1422SOL    HW1 5165   1.965   3.011   6.170
 1422SOL    HW2 5166   1.843   3.009   6.279
 1423SOL     OW 5167   4.372   0.435   4.486
 1423SOL    HW1 5168   4.464   0.425   4.525
 1423SOL    HW2 5169   4.319   0.499   4.542
 1424SOL     OW 5170   5.951   2.910   0.497
 1424SOL    HW1 5171   6.046   2.888   0.521
 1424SOL    HW2 5172   5.889   2.863   0.560
 1425SOL     OW 5173   5.662   6.838   3.506
 1425SOL    HW1 5174   5.645   6.934   3.526
 1425SOL    HW2 5175   5.752   6.812   3.540
 1426SOL     OW 5176   3.227   1.611   0.257
 1426SOL    HW1 5177   3.299   1.680   0.243
 1426SOL    HW2 5178   3.142   1.656   0.282
 1427SOL     OW 5179   2.102   0.427   3.554
 1427SOL    HW1 5180   2.088   0.331   3.529
 1427SOL    HW2 5181   2.195   0.455   3.529
 1428SOL     OW 5182   0.611   2.487   3.782
 1428SOL    HW1 5183   0.546   2.419   3.816
 1428SOL    HW2 5184   0.587   2.511   3.688
 1429SOL     OW 5185   6.502   1.315   1.787
 1429SOL    HW1 5186   6.411   1.304   1.747
 1429SOL    HW2 5187   6.549   1.227   1.788
 1430SOL     OW 5188   2.154   3.295   4.151
 1430SOL    HW1 5189   2.155   3.327   4.246
 1430SOL    HW2 5190   2.216   3.218   4.141
 1431SOL     OW 5191   2.757   1.227   6.926
 1431SOL    HW1 5192   2.804   1.180   6.851
 1431SOL    HW2 5193   2.723   1.159   6.991
 1432SOL     OW 5194   3.675   0.840   2.269
 1432SOL    HW1 5195   3.634   0.925   2.234
 1432SOL    HW2 5196   3.774   0.844   2.259
 1433SOL     OW 5197   2.467   0.292   4.102
 1433SOL    HW1 5198   2.495   0.339   4.018
 1433SOL    HW2 5199   2.373   0.260   4.092
 1434SOL     OW 5200   6.570   3.629   0.186
 1434SOL    HW1 5201   6.567   3.547   0.242
 1434SOL    HW2 5202   6.655   3.679   0.204
 1435SOL     OW 5203   1.771   0.317   3.837
 1435SOL    HW1 5204   1.869   0.299   3.841
 1435SOL    HW2 5205   1.755   0.415   3.842
 1436SOL     OW 5206   5.165   1.297   0.284
 1436SOL    HW1 5207   5.074   1.283   0.245
 1436SOL    HW2 5208   5.232   1.243   0.233
 1437SOL     OW 5209   4.118   0.465   6.597
 1437SOL    HW1 5210   4.064   0.548   6.586
 1437SOL    HW2 5211   4.155   0.437   6.509
 1438SOL     OW 5212   1.886   0.415   2.383
 1438SOL    HW1 5213   1.910   0.387   2.290
 1438SOL    HW2 5214   1.969   0.446   2.430
 1439SOL     OW 5215   0.448   4.712   6.734
 1439SOL    HW1 5216   0.433   4.759   6.647
 1439SOL    HW2 5217   0.365   4.663   6.760
 1440SOL     OW 5218   3.224   2.898   2.923
 1440SOL    HW1 5219   3.318   2.881   2.895
 1440SOL    HW2 5220   3.185   2.814   2.961
 1441SOL     OW 5221   6.247   3.135   3.915
 1441SOL    HW1 5222   6.151   3.146   3.939
 1441SOL    HW2 5223   6.300   3.212   3.950
 1442SOL     OW 5224   5.583   6.508   6.898
 1442SOL    HW1 5225   5.561   6.431   6.837
 1442SOL    HW2 5226   5.673   6.544   6.874
 1443SOL     OW 5227   0.965   2.441   3.174
 1443SOL    HW1 5228   0.975   2.512   3.104
 1443SOL    HW2 5229   1.007   2.472   3.259
 1444SOL     OW 5230   5.725   0.900   4.827
 1444SOL    HW1 5231   5.651   0.837   4.803
 1444SOL    HW2 5232   5.776   0.864   4.905
 1445SOL     OW 5233   6.059   2.399   0.892
 1445SOL    HW1 5234   6.001   2.480   0.901
 1445SOL    HW2 5235   6.005   2.317   0.910
 1446SOL     OW 5236   4.401   0.339   0.727
 1446SOL    HW1 5237   4.323   0.332   0.789
 1446SOL    HW2 5238   4.467   0.404   0.764
 1447SOL     OW 5239   5.585   1.380   5.268
 1447SOL    HW1 5240   5.519   1.443   5.228
 1447SOL    HW2 5241   5.607   1.409   5.361
 1448SOL     OW 5242   5.343   0.499   6.720
 1448SOL    HW1 5243   5.366   0.547   6.805
 1448SOL    HW2 5244   5.422   0.502   6.658
 1449SOL     OW 5245   4.587   5.355   0.751
 1449SOL    HW1 5246   4.666   5.302   0.782
 1449SOL    HW2 5247   4.554   5.412   0.827
 1450SOL     OW 5248   5.603   1.872   4.014
 1450SOL    HW1 5249   5.524   1.875   3.952
 1450SOL    HW2 5250   5.686   1.893   3.963
 1451SOL     OW 5251   1.494   6.893   2.553
 1451SOL    HW1 5252   1.502   6.915   2.456
 1451SOL    HW2 5253   1.581   6.857   2.587
 1452SOL     OW 5254   4.421   0.622   5.309
 1452SOL    HW1 5255   4.443   0.602   5.404
 1452SOL    HW2 5256   4.445   0.717   5.288
 1453SOL     OW 5257   4.756   4.274   4.652
 1453SOL    HW1 5258   4.738   4.249   4.747
 1453SOL    HW2 5259   4.748   4.193   4.594
 1454SOL     OW 5260   4.415   4.027   1.186
 1454SOL    HW1 5261   4.376   4.118   1.181
 1454SOL    HW2 5262   4.341   3.959   1.193
 1455SOL     OW 5263   2.175   2.254   1.362
 1455SOL    HW1 5264   2.245   2.207   1.415
 1455SOL    HW2 5265   2.160   2.346   1.400
 1456SOL     OW 5266   6.661   5.148   4.345
 1456SOL    HW1 5267   6.712   5.087   4.283
 1456SOL    HW2 5268   6.614   5.092   4.414
 1457SOL     OW 5269   2.001   0.714   3.513
 1457SOL    HW1 5270   1.911   0.741   3.479
 1457SOL    HW2 5271   2.012   0.616   3.503
 1458SOL     OW 5272   6.633   5.236   0.174
 1458SOL    HW1 5273   6.667   5.150   0.212
 1458SOL    HW2 5274   6.533   5.239   0.180
 1459SOL     OW 5275   2.722   6.924   0.876
 1459SOL    HW1 5276   2.810   6.909   0.920
 1459SOL    HW2 5277   2.736   6.970   0.788
 1460SOL     OW 5278   0.583   6.407   0.713
 1460SOL    HW1 5279   0.540   6.492   0.742
 1460SOL    HW2 5280   0.580   6.340   0.787
 1461SOL     OW 5281   4.415   4.691   1.301
 1461SOL    HW1 5282   4.487   4.751   1.335
 1461SOL    HW2 5283   4.378   4.636   1.377
 1462SOL     OW 5284   5.333   0.112   5.555
 1462SOL    HW1 5285   5.238   0.080   5.561
 1462SOL    HW2 5286   5.387   0.048   5.501
 1463SOL     OW 5287   0.588   1.112   5.072
 1463SOL    HW1 5288   0.490   1.094   5.081
 1463SOL    HW2 5289   0.609   1.134   4.977
 1464SOL     OW 5290   6.979   0.299   1.524
 1464SOL    HW1 5291   0.048   0.265   1.495
 1464SOL    HW2 5292   6.973   0.298   1.624
 1465SOL     OW 5293   0.557   6.757   4.841
 1465SOL    HW1 5294   0.573   6.748   4.743
 1465SOL    HW2 5295   0.643   6.784   4.886
 1466SOL     OW 5296   5.370   5.491   4.077
 1466SOL    HW1 5297   5.372   5.534   3.987
 1466SOL    HW2 5298   5.389   5.560   4.147
 1467SOL     OW 5299   6.294   3.803   2.868
 1467SOL    HW1 5300   6.389   3.825   2.843
 1467SOL    HW2 5301   6.240   3.887   2.872
 1468SOL     OW 5302   5.220   6.048   2.876
 1468SOL    HW1 5303   5.124   6.064   2.896
 1468SOL    HW2 5304   5.275   6.069   2.956
 1469SOL     OW 5305   0.409   0.728   2.656
 1469SOL    HW1 5306   0.423   0.792   2.580
 1469SOL    HW2 5307   0.419   0.776   2.743
 1470SOL     OW 5308   0.060   0.860   3.081
 1470SOL    HW1 5309   7.007   0.905   3.031
 1470SOL    HW2 5310   0.074   0.905   3.169
 1471SOL     OW 5311   6.234   0.848   0.450
 1471SOL    HW1 5312   6.222   0.829   0.548
 1471SOL    HW2 5313   6.324   0.891   0.436
 1472SOL     OW 5314   4.286   6.095   4.946
 1472SOL    HW1 5315   4.281   6.054   4.854
 1472SOL    HW2 5316   4.377   6.079   4.984
 1473SOL     OW 5317   5.880   4.422   3.839
 1473SOL    HW1 5318   5.864   4.458   3.747
 1473SOL    HW2 5319   5.978   4.423   3.859
 1474SOL     OW 5320   4.949   4.824   3.474
 1474SOL    HW1 5321   4.902   4.902   3.434
 1474SOL    HW2 5322   4.896   4.789   3.551
 1475SOL     OW 5323   6.854   0.439   3.109
 1475SOL    HW1 5324   6.927   0.421   3.174
 1475SOL    HW2 5325   6.892   0.444   3.016
 1476SOL     OW 5326   6.274   1.991   1.373
 1476SOL    HW1 5327   6.308   2.012   1.465
 1476SOL    HW2 5328   6.302   2.064   1.310
 1477SOL     OW 5329   3.253   6.541   3.233
 1477SOL    HW1 5330   3.275   6.496   3.319
 1477SOL    HW2 5331   3.164   6.510   3.201
 1478SOL     OW 5332   6.710   4.870   2.054
 1478SOL    HW1 5333   6.773   4.946   2.067
 1478SOL    HW2 5334   6.692   4.825   2.142
 1479SOL     OW 5335   1.247   5.732   0.801
 1479SOL    HW1 5336   1.184   5.800   0.838
 1479SOL    HW2 5337   1.333   5.735   0.851
 1480SOL     OW 5338   2.625   0.990   0.032
 1480SOL    HW1 5339   2.663   0.901   0.057
 1480SOL    HW2 5340   2.561   0.979   6.977
 1481SOL     OW 5341   0.177   2.637   5.936
 1481SOL    HW1 5342   0.257   2.620   5.993
 1481SOL    HW2 5343   0.206   2.656   5.842
 1482SOL     OW 5344   5.989   0.808   6.139
 1482SOL    HW1 5345   5.995   0.795   6.040
 1482SOL    HW2 5346   6.030   0.896   6.163
 1483SOL     OW 5347   6.350   2.765   6.726
 1483SOL    HW1 5348   6.300   2.679   6.730
 1483SOL    HW2 5349   6.433   2.753   6.672
 1484SOL     OW 5350   6.428   6.727   2.786
 1484SOL    HW1 5351   6.339   6.689   2.810
 1484SOL    HW2 5352   6.416   6.808   2.729
 1485SOL     OW 5353   5.729   3.030   4.535
 1485SOL    HW1 5354   5.730   2.938   4.576
 1485SOL    HW2 5355   5.645   3.042   4.483
 1486SOL     OW 5356   4.522   1.896   2.387
 1486SOL    HW1 5357   4.476   1.982   2.410
 1486SOL    HW2 5358   4.618   1.902   2.414
 1487SOL     OW 5359   6.484   1.389   5.347
 1487SOL    HW1 5360   6.500   1.297   5.382
 1487SOL    HW2 5361   6.397   1.392   5.298
 1488SOL     OW 5362   4.156   1.864   3.083
 1488SOL    HW1 5363   4.170   1.796   3.011
 1488SOL    HW2 5364   4.190   1.953   3.051
 1489SOL     OW 5365   3.951   4.997   4.674
 1489SOL    HW1 5366   3.886   4.975   4.746
 1489SOL    HW2 5367   4.033   5.037   4.715
 1490SOL     OW 5368   2.196   2.408   0.846
 1490SOL    HW1 5369   2.210   2.488   0.788
 1490SOL    HW2 5370   2.284   2.361   0.860
 1491SOL     OW 5371   0.188   2.424   5.633
 1491SOL    HW1 5372   0.283   2.395   5.625
 1491SOL    HW2 5373   0.178   2.516   5.595
 1492SOL     OW 5374   5.325   2.987   2.178
 1492SOL    HW1 5375   5.271   3.037   2.246
 1492SOL    HW2 5376   5.287   2.895   2.167
 1493SOL     OW 5377   5.533   0.710   4.818
 1493SOL    HW1 5378   5.488   0.679   4.735
 1493SOL    HW2 5379   5.464   0.732   4.888
 1494SOL     OW 5380   5.354   2.330   4.504
 1494SOL    HW1 5381   5.284   2.400   4.516
 1494SOL    HW2 5382   5.354   2.270   4.584
 1495SOL     OW 5383   2.105   2.666   2.527
 1495SOL    HW1 5384   2.110   2.719   2.612
 1495SOL    HW2 5385   2.142   2.721   2.452
 1496SOL     OW 5386   0.758   1.058   3.218
 1496SOL    HW1 5387   0.705   1.143   3.224
 1496SOL    HW2 5388   0.840   1.065   3.275
 1497SOL     OW 5389   5.211   4.579   5.905
 1497SOL    HW1 5390   5.257   4.660   5.869
 1497SOL    HW2 5391   5.123   4.606   5.945
 1498SOL     OW 5392   1.914   5.376   7.000
 1498SOL    HW1 5393   2.012   5.389   6.984
 1498SOL    HW2 5394   1.874   5.325   6.924
 1499SOL     OW 5395   0.616   4.943   4.854
 1499SOL    HW1 5396   0.543   4.894   4.903
 1499SOL    HW2 5397   0.639   5.027   4.904
 1500SOL     OW 5398   4.147   6.592   5.247
 1500SOL    HW1 5399   4.168   6.678   5.293
 1500SOL    HW2 5400   4.225   6.530   5.254
 1501SOL     OW 5401   4.371   0.223   6.273
 1501SOL    HW1 5402   4.459   0.269   6.257
 1501SOL    HW2 5403   4.387   0.135   6.318
 1502SOL     OW 5404   6.538   6.556   0.067
 1502SOL    HW1 5405   6.622   6.556   0.011
 1502SOL    HW2 5406   6.562   6.573   0.162
 1503SOL     OW 5407   3.320   3.696   5.452
 1503SOL    HW1 5408   3.266   3.727   5.374
 1503SOL    HW2 5409   3.417   3.720   5.437
 1504SOL     OW 5410   2.739   6.077   4.401
 1504SOL    HW1 5411   2.706   5.982   4.405
 1504SOL    HW2 5412   2.803   6.087   4.325
 1505SOL     OW 5413   5.076   4.839   1.471
 1505SOL    HW1 5414   4.991   4.786   1.472
 1505SOL    HW2 5415   5.129   4.814   1.390
 1506SOL     OW 5416   0.667   6.416   2.885
 1506SOL    HW1 5417   0.593   6.348   2.883
 1506SOL    HW2 5418   0.644   6.492   2.824
 1507SOL     OW 5419   2.091   0.676   6.480
 1507SOL    HW1 5420   2.164   0.725   6.433
 1507SOL    HW2 5421   2.013   0.666   6.419
 1508SOL     OW 5422   4.604   0.052   0.416
 1508SOL    HW1 5423   4.588   0.052   0.317
 1508SOL    HW2 5424   4.586   0.143   0.452
 1509SOL     OW 5425   5.134   1.679   0.604
 1509SOL    HW1 5426   5.125   1.778   0.594
 1509SOL    HW2 5427   5.102   1.652   0.695
 1510SOL     OW 5428   0.229   1.765   3.833
 1510SOL    HW1 5429   0.169   1.689   3.857
 1510SOL    HW2 5430   0.307   1.767   3.896
 1511SOL     OW 5431   1.424   2.383   0.597
 1511SOL    HW1 5432   1.400   2.438   0.517
 1511SOL    HW2 5433   1.520   2.398   0.621
 1512SOL     OW 5434   5.833   0.508   2.420
 1512SOL    HW1 5435   5.931   0.492   2.434
 1512SOL    HW2 5436   5.787   0.515   2.508
 1513SOL     OW 5437   3.836   1.446   2.545
 1513SOL    HW1 5438   3.913   1.452   2.481
 1513SOL    HW2 5439   3.809   1.538   2.573
 1514SOL     OW 5440   5.134   1.681   5.717
 1514SOL    HW1 5441   5.089   1.728   5.642
 1514SOL    HW2 5442   5.095   1.711   5.804
 1515SOL     OW 5443   6.383   4.698   4.959
 1515SOL    HW1 5444   6.347   4.718   5.050
 1515SOL    HW2 5445   6.321   4.735   4.890
 1516SOL     OW 5446   1.035   1.177   1.154
 1516SOL    HW1 5447   1.045   1.275   1.174
 1516SOL    HW2 5448   1.089   1.124   1.220
 1517SOL     OW 5449   3.652   4.963   3.465
 1517SOL    HW1 5450   3.692   5.036   3.410
 1517SOL    HW2 5451   3.726   4.908   3.506
 1518SOL     OW 5452   0.933   4.649   1.486
 1518SOL    HW1 5453   0.998   4.725   1.475
 1518SOL    HW2 5454   0.901   4.646   1.580
 1519SOL     OW 5455   6.678   5.090   1.176
 1519SOL    HW1 5456   6.768   5.047   1.181
 1519SOL    HW2 5457   6.626   5.050   1.101
 1520SOL     OW 5458   1.461   2.823   3.223
 1520SOL    HW1 5459   1.453   2.724   3.221
 1520SOL    HW2 5460   1.553   2.850   3.193
 1521SOL     OW 5461   2.687   4.373   5.814
 1521SOL    HW1 5462   2.691   4.380   5.715
 1521SOL    HW2 5463   2.636   4.451   5.851
 1522SOL     OW 5464   0.123   2.258   6.555
 1522SOL    HW1 5465   0.024   2.242   6.557
 1522SOL    HW2 5466   0.158   2.257   6.649
 1523SOL     OW 5467   6.882   1.393   0.969
 1523SOL    HW1 5468   6.810   1.438   0.916
 1523SOL    HW2 5469   6.900   1.446   1.052
 1524SOL     OW 5470   6.280   0.886   2.888
 1524SOL    HW1 5471   6.280   0.790   2.915
 1524SOL    HW2 5472   6.335   0.898   2.806
 1525SOL     OW 5473   4.270   1.481   5.993
 1525SOL    HW1 5474   4.316   1.410   5.940
 1525SOL    HW2 5475   4.190   1.514   5.943
 1526SOL     OW 5476   6.858   1.973   1.095
 1526SOL    HW1 5477   6.810   1.929   1.020
 1526SOL    HW2 5478   6.887   1.903   1.162
 1527SOL     OW 5479   3.225   2.170   5.677
 1527SOL    HW1 5480   3.193   2.138   5.766
 1527SOL    HW2 5481   3.211   2.098   5.608
 1528SOL     OW 5482   5.092   6.055   3.380
 1528SOL    HW1 5483   5.078   6.048   3.479
 1528SOL    HW2 5484   5.026   5.996   3.332
 1529SOL     OW 5485   3.044   0.652   5.616
 1529SOL    HW1 5486   3.121   0.611   5.566
 1529SOL    HW2 5487   2.995   0.581   5.666
 1530SOL     OW 5488   3.485   0.073   2.333
 1530SOL    HW1 5489   3.400   0.026   2.358
 1530SOL    HW2 5490   3.469   0.172   2.337
 1531SOL     OW 5491   6.732   0.317   5.450
 1531SOL    HW1 5492   6.809   0.348   5.506
 1531SOL    HW2 5493   6.739   0.356   5.358
 1532SOL     OW 5494   3.366   2.069   5.114
 1532SOL    HW1 5495   3.295   2.133   5.084
 1532SOL    HW2 5496   3.448   2.081   5.057
 1533SOL     OW 5497   5.495   2.951   6.868
 1533SOL    HW1 5498   5.420   2.933   6.804
 1533SOL    HW2 5499   5.530   3.043   6.852
 1534SOL     OW 5500   0.141   6.581   1.785
 1534SOL    HW1 5501   0.175   6.664   1.829
 1534SOL    HW2 5502   0.106   6.518   1.855
 1535SOL     OW 5503   4.902   5.506   4.335
 1535SOL    HW1 5504   4.812   5.506   4.291
 1535SOL    HW2 5505   4.970   5.470   4.272
 1536SOL     OW 5506   2.825   5.516   3.725
 1536SOL    HW1 5507   2.860   5.571   3.801
 1536SOL    HW2 5508   2.871   5.543   3.641
 1537SOL     OW 5509   2.764   5.169   4.553
 1537SOL    HW1 5510   2.801   5.097   4.612
 1537SOL    HW2 5511   2.670   5.147   4.527
 1538SOL     OW 5512   2.418   4.964   6.609
 1538SOL    HW1 5513   2.431   4.865   6.620
 1538SOL    HW2 5514   2.447   4.991   6.518
 1539SOL     OW 5515   3.071   4.780   1.615
 1539SOL    HW1 5516   3.134   4.705   1.594
 1539SOL    HW2 5517   3.114   4.867   1.590
 1540SOL     OW 5518   0.274   6.821   5.273
 1540SOL    HW1 5519   0.304   6.830   5.178
 1540SOL    HW2 5520   0.273   6.910   5.317
 1541SOL     OW 5521   5.079   2.205   1.139
 1541SOL    HW1 5522   5.046   2.272   1.073
 1541SOL    HW2 5523   5.173   2.179   1.118
 1542SOL     OW 5524   0.865   6.523   1.113
 1542SOL    HW1 5525   0.883   6.431   1.148
 1542SOL    HW2 5526   0.771   6.528   1.081
 1543SOL     OW 5527   3.121   4.064   4.228
 1543SOL    HW1 5528   3.065   4.027   4.302
 1543SOL    HW2 5529   3.066   4.072   4.145
 1544SOL     OW 5530   3.828   3.620   2.815
 1544SOL    HW1 5531   3.825   3.716   2.840
 1544SOL    HW2 5532   3.827   3.564   2.898
 1545SOL     OW 5533   6.488   0.855   4.541
 1545SOL    HW1 5534   6.487   0.758   4.566
 1545SOL    HW2 5535   6.404   0.877   4.491
 1546SOL     OW 5536   6.848   6.327   5.972
 1546SOL    HW1 5537   6.775   6.351   6.037
 1546SOL    HW2 5538   6.821   6.356   5.880
 1547SOL     OW 5539   3.900   6.033   6.896
 1547SOL    HW1 5540   3.932   5.975   6.821
 1547SOL    HW2 5541   3.804   6.012   6.915
 1548SOL     OW 5542   6.356   4.557   3.865
 1548SOL    HW1 5543   6.317   4.643   3.832
 1548SOL    HW2 5544   6.283   4.498   3.899
 1549SOL     OW 5545   6.291   1.608   1.547
 1549SOL    HW1 5546   6.237   1.666   1.486
 1549SOL    HW2 5547   6.387   1.636   1.543
 1550SOL     OW 5548   2.712   5.864   3.680
 1550SOL    HW1 5549   2.691   5.887   3.775
 1550SOL    HW2 5550   2.726   5.947   3.628
 1551SOL     OW 5551   1.020   3.025   1.248
 1551SOL    HW1 5552   0.960   3.003   1.324
 1551SOL    HW2 5553   1.109   3.055   1.283
 1552SOL     OW 5554   0.890   0.004   0.534
 1552SOL    HW1 5555   0.986   7.003   0.515
 1552SOL    HW2 5556   0.885   0.086   0.591
 1553SOL     OW 5557   5.752   1.595   6.648
 1553SOL    HW1 5558   5.759   1.678   6.593
 1553SOL    HW2 5559   5.727   1.620   6.742
 1554SOL     OW 5560   3.058   1.740   0.976
 1554SOL    HW1 5561   3.015   1.775   1.060
 1554SOL    HW2 5562   3.020   1.789   0.897
 1555SOL     OW 5563   4.636   1.197   6.327
 1555SOL    HW1 5564   4.655   1.291   6.355
 1555SOL    HW2 5565   4.701   1.169   6.256
 1556SOL     OW 5566   3.462   1.770   0.231
 1556SOL    HW1 5567   3.479   1.783   0.329
 1556SOL    HW2 5568   3.489   1.853   0.182
 1557SOL     OW 5569   1.816   3.091   0.375
 1557SOL    HW1 5570   1.717   3.094   0.368
 1557SOL    HW2 5571   1.842   3.047   0.461
 1558SOL     OW 5572   5.392   2.787   6.385
 1558SOL    HW1 5573   5.363   2.723   6.457
 1558SOL    HW2 5574   5.378   2.746   6.296
 1559SOL     OW 5575   2.342   5.405   3.811
 1559SOL    HW1 5576   2.348   5.321   3.757
 1559SOL    HW2 5577   2.432   5.448   3.815
 1560SOL     OW 5578   3.911   1.656   1.056
 1560SOL    HW1 5579   3.875   1.576   1.009
 1560SOL    HW2 5580   3.935   1.727   0.989
 1561SOL     OW 5581   6.235   6.152   0.953
 1561SOL    HW1 5582   6.316   6.205   0.978
 1561SOL    HW2 5583   6.158   6.213   0.939
 1562SOL     OW 5584   3.920   0.144   2.200
 1562SOL    HW1 5585   3.961   0.104   2.118
 1562SOL    HW2 5586   3.820   0.142   2.192
 1563SOL     OW 5587   2.968   2.263   3.956
 1563SOL    HW1 5588   2.956   2.280   4.054
 1563SOL    HW2 5589   3.065   2.267   3.933
 1564SOL     OW 5590   0.943   1.559   3.086
 1564SOL    HW1 5591   0.955   1.483   3.022
 1564SOL    HW2 5592   1.010   1.552   3.160
 1565SOL     OW 5593   4.153   1.141   5.011
 1565SOL    HW1 5594   4.246   1.175   4.993
 1565SOL    HW2 5595   4.091   1.173   4.939
 1566SOL     OW 5596   5.209   4.794   3.387
 1566SOL    HW1 5597   5.124   4.829   3.425
 1566SOL    HW2 5598   5.208   4.694   3.388
 1567SOL     OW 5599   5.588   0.954   4.423
 1567SOL    HW1 5600   5.504   0.903   4.404
 1567SOL    HW2 5601   5.583   1.044   4.379
 1568SOL     OW 5602   2.889   4.941   1.387
 1568SOL    HW1 5603   2.961   4.999   1.425
 1568SOL    HW2 5604   2.813   4.999   1.356
 1569SOL     OW 5605   3.145   0.714   2.912
 1569SOL    HW1 5606   3.163   0.812   2.925
 1569SOL    HW2 5607   3.167   0.665   2.996
 1570SOL     OW 5608   3.255   5.908   6.143
 1570SOL    HW1 5609   3.285   5.900   6.239
 1570SOL    HW2 5610   3.214   5.822   6.114
 1571SOL     OW 5611   0.581   2.827   4.213
 1571SOL    HW1 5612   0.526   2.744   4.207
 1571SOL    HW2 5613   0.626   2.830   4.303
 1572SOL     OW 5614   2.514   5.306   2.752
 1572SOL    HW1 5615   2.565   5.359   2.684
 1572SOL    HW2 5616   2.549   5.327   2.843
 1573SOL     OW 5617   5.833   6.375   0.324
 1573SOL    HW1 5618   5.923   6.362   0.282
 1573SOL    HW2 5619   5.810   6.295   0.379
 1574SOL     OW 5620   6.603   3.748   3.600
 1574SOL    HW1 5621   6.683   3.804   3.581
 1574SOL    HW2 5622   6.626   3.679   3.669
 1575SOL     OW 5623   6.745   2.131   0.031
 1575SOL    HW1 5624   6.823   2.085   7.009
 1575SOL    HW2 5625   6.681   2.063   0.065
 1576SOL     OW 5626   1.034   0.111   1.654
 1576SOL    HW1 5627   1.045   0.021   1.612
 1576SOL    HW2 5628   1.093   0.177   1.607
 1577SOL     OW 5629   3.939   5.668   5.459
 1577SOL    HW1 5630   3.874   5.602   5.497
 1577SOL    HW2 5631   3.901   5.760   5.467
 1578SOL     OW 5632   4.862   1.082   1.028
 1578SOL    HW1 5633   4.902   1.099   1.118
 1578SOL    HW2 5634   4.860   1.167   0.975
 1579SOL     OW 5635   1.879   2.315   1.384
 1579SOL    HW1 5636   1.867   2.375   1.305
 1579SOL    HW2 5637   1.975   2.293   1.395
 1580SOL     OW 5638   3.263   3.533   2.840
 1580SOL    HW1 5639   3.335   3.464   2.849
 1580SOL    HW2 5640   3.303   3.618   2.804
 1581SOL     OW 5641   6.300   4.717   5.692
 1581SOL    HW1 5642   6.385   4.679   5.654
 1581SOL    HW2 5643   6.259   4.779   5.625
 1582SOL     OW 5644   4.490   6.282   5.334
 1582SOL    HW1 5645   4.575   6.269   5.385
 1582SOL    HW2 5646   4.420   6.220   5.370
 1583SOL     OW 5647   1.077   4.983   4.866
 1583SOL    HW1 5648   1.130   5.013   4.945
 1583SOL    HW2 5649   1.117   5.021   4.783
 1584SOL     OW 5650   0.097   4.739   0.221
 1584SOL    HW1 5651   0.012   4.688   0.205
 1584SOL    HW2 5652   0.170   4.702   0.163
 1585SOL     OW 5653   3.857   6.452   3.717
 1585SOL    HW1 5654   3.845   6.464   3.619
 1585SOL    HW2 5655   3.767   6.444   3.761
 1586SOL     OW 5656   3.272   5.650   3.682
 1586SOL    HW1 5657   3.280   5.623   3.587
 1586SOL    HW2 5658   3.203   5.593   3.727
 1587SOL     OW 5659   2.930   5.851   6.671
 1587SOL    HW1 5660   2.924   5.859   6.771
 1587SOL    HW2 5661   2.838   5.843   6.633
 1588SOL     OW 5662   6.681   1.961   3.290
 1588SOL    HW1 5663   6.736   2.021   3.231
 1588SOL    HW2 5664   6.596   1.938   3.243
 1589SOL     OW 5665   6.236   4.627   4.231
 1589SOL    HW1 5666   6.314   4.569   4.207
 1589SOL    HW2 5667   6.269   4.716   4.262
 1590SOL     OW 5668   6.484   2.825   3.718
 1590SOL    HW1 5669   6.403   2.791   3.671
 1590SOL    HW2 5670   6.459   2.860   3.808
 1591SOL     OW 5671   1.499   6.398   1.366
 1591SOL    HW1 5672   1.459   6.423   1.278
 1591SOL    HW2 5673   1.448   6.321   1.405
 1592SOL     OW 5674   7.019   4.386   6.265
 1592SOL    HW1 5675   0.014   4.288   6.269
 1592SOL    HW2 5676   0.084   4.435   6.281
 1593SOL     OW 5677   3.356   0.332   6.698
 1593SOL    HW1 5678   3.384   0.428   6.702
 1593SOL    HW2 5679   3.364   0.299   6.604
 1594SOL     OW 5680   6.005   0.232   2.772
 1594SOL    HW1 5681   5.992   0.239   2.673
 1594SOL    HW2 5682   5.916   0.231   2.818
 1595SOL     OW 5683   0.373   4.059   0.495
 1595SOL    HW1 5684   0.350   4.144   0.448
 1595SOL    HW2 5685   0.426   4.000   0.433
 1596SOL     OW 5686   4.402   4.572   2.902
 1596SOL    HW1 5687   4.319   4.601   2.853
 1596SOL    HW2 5688   4.388   4.585   3.001
 1597SOL     OW 5689   3.856   5.923   6.627
 1597SOL    HW1 5690   3.828   5.828   6.614
 1597SOL    HW2 5691   3.907   5.954   6.547
 1598SOL     OW 5692   1.758   4.913   0.282
 1598SOL    HW1 5693   1.785   4.976   0.209
 1598SOL    HW2 5694   1.727   4.827   0.241
 1599SOL     OW 5695   4.554   5.938   3.381
 1599SOL    HW1 5696   4.539   5.952   3.479
 1599SOL    HW2 5697   4.538   6.023   3.332
 1600SOL     OW 5698   4.212   0.240   1.971
 1600SOL    HW1 5699   4.118   0.268   1.988
 1600SOL    HW2 5700   4.213   0.147   1.935
 1601SOL     OW 5701   6.666   0.197   4.828
 1601SOL    HW1 5702   6.681   0.192   4.927
 1601SOL    HW2 5703   6.743   0.155   4.781
 1602SOL     OW 5704   3.508   5.653   3.832
 1602SOL    HW1 5705   3.571   5.730   3.821
 1602SOL    HW2 5706   3.442   5.653   3.757
 1603SOL     OW 5707   3.552   5.232   3.149
 1603SOL    HW1 5708   3.541   5.303   3.080
 1603SOL    HW2 5709   3.568   5.274   3.238
 1604SOL     OW 5710   4.370   5.244   1.996
 1604SOL    HW1 5711   4.423   5.296   1.929
 1604SOL    HW2 5712   4.374   5.147   1.974
 1605SOL     OW 5713   4.484   5.506   0.955
 1605SOL    HW1 5714   4.564   5.558   0.926
 1605SOL    HW2 5715   4.407   5.568   0.972
 1606SOL     OW 5716   3.489   6.013   4.871
 1606SOL    HW1 5717   3.499   5.917   4.845
 1606SOL    HW2 5718   3.472   6.068   4.790
 1607SOL     OW 5719   4.785   5.736   2.855
 1607SOL    HW1 5720   4.779   5.655   2.797
 1607SOL    HW2 5721   4.699   5.786   2.852
 1608SOL     OW 5722   5.206   1.462   3.362
 1608SOL    HW1 5723   5.239   1.369   3.346
 1608SOL    HW2 5724   5.283   1.525   3.366
 1609SOL     OW 5725   2.358   6.716   1.028
 1609SOL    HW1 5726   2.321   6.751   0.942
 1609SOL    HW2 5727   2.337   6.619   1.037
 1610SOL     OW 5728   5.415   0.010   0.671
 1610SOL    HW1 5729   5.478   7.008   0.745
 1610SOL    HW2 5730   5.467   0.037   0.590
 1611SOL     OW 5731   1.262   4.577   1.053
 1611SOL    HW1 5732   1.205   4.580   0.971
 1611SOL    HW2 5733   1.204   4.580   1.134
 1612SOL     OW 5734   3.723   0.411   2.185
 1612SOL    HW1 5735   3.659   0.411   2.108
 1612SOL    HW2 5736   3.678   0.445   2.267
 1613SOL     OW 5737   6.764   5.533   2.354
 1613SOL    HW1 5738   6.750   5.631   2.367
 1613SOL    HW2 5739   6.730   5.483   2.434
 1614SOL     OW 5740   6.176   1.869   6.255
 1614SOL    HW1 5741   6.259   1.877   6.310
 1614SOL    HW2 5742   6.111   1.940   6.283
 1615SOL     OW 5743   1.062   4.104   6.318
 1615SOL    HW1 5744   0.967   4.118   6.287
 1615SOL    HW2 5745   1.099   4.191   6.350
 1616SOL     OW 5746   2.020   1.396   4.568
 1616SOL    HW1 5747   2.018   1.491   4.536
 1616SOL    HW2 5748   2.109   1.377   4.610
 1617SOL     OW 5749   6.269   6.510   3.167
 1617SOL    HW1 5750   6.262   6.577   3.093
 1617SOL    HW2 5751   6.335   6.438   3.141
 1618SOL     OW 5752   3.004   5.521   3.141
 1618SOL    HW1 5753   3.012   5.479   3.232
 1618SOL    HW2 5754   3.090   5.508   3.092
 1619SOL     OW 5755   1.382   4.302   0.117
 1619SOL    HW1 5756   1.314   4.245   0.163
 1619SOL    HW2 5757   1.453   4.243   0.077
 1620SOL     OW 5758   3.652   5.041   5.819
 1620SOL    HW1 5759   3.639   5.121   5.877
 1620SOL    HW2 5760   3.582   4.973   5.840
 1621SOL     OW 5761   5.009   5.934   0.962
 1621SOL    HW1 5762   4.977   6.023   0.929
 1621SOL    HW2 5763   5.073   5.895   0.896
 1622SOL     OW 5764   6.871   4.868   4.491
 1622SOL    HW1 5765   6.859   4.958   4.532
 1622SOL    HW2 5766   6.811   4.802   4.537
 1623SOL     OW 5767   0.211   2.422   3.979
 1623SOL    HW1 5768   0.190   2.481   3.901
 1623SOL    HW2 5769   0.130   2.367   4.001
 1624SOL     OW 5770   4.141   2.009   0.917
 1624SOL    HW1 5771   4.139   2.036   1.013
 1624SOL    HW2 5772   4.152   2.091   0.859
 1625SOL     OW 5773   0.764   5.938   1.229
 1625SOL    HW1 5774   0.731   5.871   1.163
 1625SOL    HW2 5775   0.863   5.925   1.243
 1626SOL     OW 5776   3.020   2.302   1.277
 1626SOL    HW1 5777   3.055   2.369   1.342
 1626SOL    HW2 5778   2.961   2.237   1.326
 1627SOL     OW 5779   4.383   1.565   5.348
 1627SOL    HW1 5780   4.288   1.540   5.328
 1627SOL    HW2 5781   4.390   1.664   5.356
 1628SOL     OW 5782   5.501   6.487   0.839
 1628SOL    HW1 5783   5.536   6.425   0.768
 1628SOL    HW2 5784   5.401   6.492   0.833
 1629SOL     OW 5785   2.007   0.799   3.771
 1629SOL    HW1 5786   2.001   0.794   3.671
 1629SOL    HW2 5787   2.089   0.752   3.802
 1630SOL     OW 5788   0.432   3.895   6.846
 1630SOL    HW1 5789   0.403   3.985   6.815
 1630SOL    HW2 5790   0.532   3.889   6.843
 1631SOL     OW 5791   6.922   3.738   0.078
 1631SOL    HW1 5792   6.841   3.726   0.020
 1631SOL    HW2 5793   6.973   3.818   0.047
 1632SOL     OW 5794   6.614   5.447   2.580
 1632SOL    HW1 5795   6.585   5.359   2.619
 1632SOL    HW2 5796   6.535   5.505   2.566
 1633SOL     OW 5797   5.215   3.738   4.422
 1633SOL    HW1 5798   5.192   3.648   4.385
 1633SOL    HW2 5799   5.251   3.726   4.515
 1634SOL     OW 5800   6.501   1.701   4.403
 1634SOL    HW1 5801   6.523   1.730   4.497
 1634SOL    HW2 5802   6.402   1.693   4.392
 1635SOL     OW 5803   3.780   6.549   2.892
 1635SOL    HW1 5804   3.713   6.612   2.934
 1635SOL    HW2 5805   3.736   6.499   2.817
 1636SOL     OW 5806   6.117   6.099   1.611
 1636SOL    HW1 5807   6.185   6.168   1.636
 1636SOL    HW2 5808   6.139   6.062   1.521
 1637SOL     OW 5809   0.832   7.005   1.910
 1637SOL    HW1 5810   0.825   6.971   1.817
 1637SOL    HW2 5811   0.832   0.085   1.909
 1638SOL     OW 5812   6.242   2.827   1.781
 1638SOL    HW1 5813   6.267   2.731   1.795
 1638SOL    HW2 5814   6.143   2.835   1.773
 1639SOL     OW 5815   5.873   2.483   2.784
 1639SOL    HW1 5816   5.834   2.392   2.798
 1639SOL    HW2 5817   5.799   2.549   2.773
 1640SOL     OW 5818   6.735   0.226   6.906
 1640SOL    HW1 5819   6.738   0.135   6.948
 1640SOL    HW2 5820   6.673   0.225   6.828
 1641SOL     OW 5821   6.556   2.426   3.219
 1641SOL    HW1 5822   6.623   2.407   3.292
 1641SOL    HW2 5823   6.554   2.349   3.155
 1642SOL     OW 5824   6.942   2.677   6.119
 1642SOL    HW1 5825   6.853   2.723   6.116
 1642SOL    HW2 5826   6.978   2.669   6.026
 1643SOL     OW 5827   2.384   6.205   3.718
 1643SOL    HW1 5828   2.440   6.132   3.757
 1643SOL    HW2 5829   2.302   6.166   3.676
 1644SOL     OW 5830   6.018   2.608   1.500
 1644SOL    HW1 5831   6.069   2.569   1.578
 1644SOL    HW2 5832   5.976   2.535   1.447
 1645SOL     OW 5833   2.225   0.978   5.911
 1645SOL    HW1 5834   2.164   1.030   5.851
 1645SOL    HW2 5835   2.187   0.886   5.925
 1646SOL     OW 5836   1.223   4.649   0.536
 1646SOL    HW1 5837   1.308   4.701   0.543
 1646SOL    HW2 5838   1.174   4.678   0.453
 1647SOL     OW 5839   5.779   2.382   3.927
 1647SOL    HW1 5840   5.782   2.480   3.907
 1647SOL    HW2 5841   5.684   2.351   3.923
 1648SOL     OW 5842   5.416   6.163   1.034
 1648SOL    HW1 5843   5.404   6.066   1.058
 1648SOL    HW2 5844   5.461   6.210   1.109
 1649SOL     OW 5845   3.570   0.584   3.520
 1649SOL    HW1 5846   3.599   0.497   3.560
 1649SOL    HW2 5847   3.573   0.656   3.589
 1650SOL     OW 5848   2.873   3.882   6.961
 1650SOL    HW1 5849   2.850   3.785   6.959
 1650SOL    HW2 5850   2.970   3.894   6.941
 1651SOL     OW 5851   0.949   2.781   3.235
 1651SOL    HW1 5852   0.993   2.697   3.267
 1651SOL    HW2 5853   1.018   2.846   3.206
 1652SOL     OW 5854   0.428   3.246   1.561
 1652SOL    HW1 5855   0.447   3.291   1.474
 1652SOL    HW2 5856   0.502   3.182   1.581
 1653SOL     OW 5857   0.162   4.585   2.950
 1653SOL    HW1 5858   0.140   4.506   3.008
 1653SOL    HW2 5859   0.082   4.610   2.896
 1654SOL     OW 5860   6.676   3.292   2.164
 1654SOL    HW1 5861   6.642   3.269   2.255
 1654SOL    HW2 5862   6.651   3.219   2.100
 1655SOL     OW 5863   0.000   6.930   4.772
 1655SOL    HW1 5864   0.091   6.963   4.745
 1655SOL    HW2 5865   0.009   6.863   4.845
 1656SOL     OW 5866   2.028   4.409   3.034
 1656SOL    HW1 5867   2.068   4.382   2.947
 1656SOL    HW2 5868   2.086   4.376   3.109
 1657SOL     OW 5869   1.267   6.627   5.737
 1657SOL    HW1 5870   1.280   6.646   5.639
 1657SOL    HW2 5871   1.330   6.683   5.790
 1658SOL     OW 5872   6.371   6.909   6.619
 1658SOL    HW1 5873   6.352   6.985   6.681
 1658SOL    HW2 5874   6.412   6.943   6.535
 1659SOL     OW 5875   4.485   6.558   6.366
 1659SOL    HW1 5876   4.537   6.638   6.394
 1659SOL    HW2 5877   4.460   6.504   6.447
 1660SOL     OW 5878   2.857   0.754   2.379
 1660SOL    HW1 5879   2.829   0.689   2.449
 1660SOL    HW2 5880   2.788   0.760   2.308
 1661SOL     OW 5881   4.297   4.624   2.517
 1661SOL    HW1 5882   4.336   4.639   2.426
 1661SOL    HW2 5883   4.212   4.676   2.526
 1662SOL     OW 5884   0.262   1.326   4.936
 1662SOL    HW1 5885   0.298   1.266   4.865
 1662SOL    HW2 5886   0.295   1.420   4.920
 1663SOL     OW 5887   4.562   4.884   0.347
 1663SOL    HW1 5888   4.512   4.959   0.390
 1663SOL    HW2 5889   4.497   4.813   0.319
 1664SOL     OW 5890   1.539   6.998   5.765
 1664SOL    HW1 5891   1.511   0.073   5.761
 1664SOL    HW2 5892   1.548   6.962   5.673
 1665SOL     OW 5893   2.582   4.239   0.190
 1665SOL    HW1 5894   2.619   4.160   0.143
 1665SOL    HW2 5895   2.594   4.228   0.289
 1666SOL     OW 5896   5.798   6.576   6.018
 1666SOL    HW1 5897   5.776   6.601   6.113
 1666SOL    HW2 5898   5.808   6.659   5.963
 1667SOL     OW 5899   0.474   6.329   1.304
 1667SOL    HW1 5900   0.421   6.400   1.349
 1667SOL    HW2 5901   0.543   6.294   1.367
 1668SOL     OW 5902   5.408   4.489   3.096
 1668SOL    HW1 5903   5.364   4.558   3.039
 1668SOL    HW2 5904   5.373   4.497   3.190
 1669SOL     OW 5905   6.164   3.588   5.257
 1669SOL    HW1 5906   6.109   3.634   5.327
 1669SOL    HW2 5907   6.103   3.547   5.189
 1670SOL     OW 5908   1.935   4.895   6.822
 1670SOL    HW1 5909   1.921   4.865   6.728
 1670SOL    HW2 5910   2.028   4.933   6.831
 1671SOL     OW 5911   5.755   2.305   1.138
 1671SOL    HW1 5912   5.818   2.231   1.117
 1671SOL    HW2 5913   5.709   2.334   1.054
 1672SOL     OW 5914   0.677   3.929   0.105
 1672SOL    HW1 5915   0.660   3.959   0.011
 1672SOL    HW2 5916   0.692   3.830   0.107
 1673SOL     OW 5917   1.698   0.844   4.674
 1673SOL    HW1 5918   1.626   0.777   4.658
 1673SOL    HW2 5919   1.657   0.930   4.706
 1674SOL     OW 5920   4.696   2.425   2.585
 1674SOL    HW1 5921   4.649   2.409   2.498
 1674SOL    HW2 5922   4.722   2.337   2.625
 1675SOL     OW 5923   5.456   0.858   1.137
 1675SOL    HW1 5924   5.388   0.888   1.203
 1675SOL    HW2 5925   5.445   0.910   1.052
 1676SOL     OW 5926   1.276   2.294   2.484
 1676SOL    HW1 5927   1.225   2.365   2.532
 1676SOL    HW2 5928   1.305   2.224   2.549
 1677SOL     OW 5929   4.066   3.335   3.154
 1677SOL    HW1 5930   4.118   3.361   3.235
 1677SOL    HW2 5931   4.124   3.341   3.073
 1678SOL     OW 5932   0.746   0.126   1.309
 1678SOL    HW1 5933   0.843   0.142   1.329
 1678SOL    HW2 5934   0.724   0.165   1.219
 1679SOL     OW 5935   0.580   2.275   6.072
 1679SOL    HW1 5936   0.633   2.315   6.147
 1679SOL    HW2 5937   0.642   2.229   6.008
 1680SOL     OW 5938   5.097   2.454   4.105
 1680SOL    HW1 5939   5.053   2.409   4.027
 1680SOL    HW2 5940   5.031   2.464   4.179
 1681SOL     OW 5941   2.344   5.999   4.457
 1681SOL    HW1 5942   2.362   6.020   4.553
 1681SOL    HW2 5943   2.257   5.950   4.449
 1682SOL     OW 5944   3.091   7.005   4.315
 1682SOL    HW1 5945   3.045   6.922   4.346
 1682SOL    HW2 5946   3.162   0.009   4.381
 1683SOL     OW 5947   6.064   4.785   2.876
 1683SOL    HW1 5948   6.081   4.851   2.949
 1683SOL    HW2 5949   5.992   4.722   2.903
 1684SOL     OW 5950   2.506   4.523   1.966
 1684SOL    HW1 5951   2.501   4.442   1.908
 1684SOL    HW2 5952   2.602   4.543   1.986
 1685SOL     OW 5953   0.119   1.430   5.149
 1685SOL    HW1 5954   0.166   1.446   5.062
 1685SOL    HW2 5955   0.021   1.418   5.133
 1686SOL     OW 5956   4.935   5.923   2.714
 1686SOL    HW1 5957   4.869   5.991   2.746
 1686SOL    HW2 5958   4.898   5.831   2.727
 1687SOL     OW 5959   5.711   4.341   2.101
 1687SOL    HW1 5960   5.649   4.417   2.080
 1687SOL    HW2 5961   5.792   4.348   2.044
 1688SOL     OW 5962   1.129   1.008   2.602
 1688SOL    HW1 5963   1.053   1.073   2.598
 1688SOL    HW2 5964   1.215   1.057   2.588
 1689SOL     OW 5965   4.445   0.997   1.173
 1689SOL    HW1 5966   4.483   0.947   1.251
 1689SOL    HW2 5967   4.517   1.015   1.107
 1690SOL     OW 5968   0.471   4.142   3.788
 1690SOL    HW1 5969   0.419   4.057   3.776
 1690SOL    HW2 5970   0.428   4.199   3.858
 1691SOL     OW 5971   4.627   2.754   5.339
 1691SOL    HW1 5972   4.591   2.812   5.412
 1691SOL    HW2 5973   4.640   2.661   5.373
 1692SOL     OW 5974   5.355   4.992   1.422
 1692SOL    HW1 5975   5.443   4.963   1.385
 1692SOL    HW2 5976   5.365   5.081   1.468
 1693SOL     OW 5977   5.425   6.744   5.013
 1693SOL    HW1 5978   5.511   6.764   4.968
 1693SOL    HW2 5979   5.368   6.826   5.014
 1694SOL     OW 5980   4.981   1.455   5.521
 1694SOL    HW1 5981   4.925   1.507   5.457
 1694SOL    HW2 5982   5.075   1.449   5.486
 1695SOL     OW 5983   4.503   1.008   6.738
 1695SOL    HW1 5984   4.411   1.044   6.729
 1695SOL    HW2 5985   4.511   0.922   6.688
 1696SOL     OW 5986   5.168   6.410   0.321
 1696SOL    HW1 5987   5.111   6.334   0.353
 1696SOL    HW2 5988   5.264   6.390   0.338
 1697SOL     OW 5989   5.253   2.324   2.189
 1697SOL    HW1 5990   5.297   2.345   2.276
 1697SOL    HW2 5991   5.162   2.287   2.206
 1698SOL     OW 5992   4.234   0.746   1.360
 1698SOL    HW1 5993   4.221   0.777   1.265
 1698SOL    HW2 5994   4.168   0.792   1.419
 1699SOL     OW 5995   2.498   6.628   0.400
 1699SOL    HW1 5996   2.577   6.567   0.395
 1699SOL    HW2 5997   2.422   6.587   0.350
 1700SOL     OW 5998   6.384   2.227   2.656
 1700SOL    HW1 5999   6.307   2.270   2.703
 1700SOL    HW2 6000   6.367   2.226   2.558
 1701SOL     OW 6001   0.073   5.867   4.913
 1701SOL    HW1 6002   0.133   5.885   4.991
 1701SOL    HW2 6003   0.052   5.953   4.867
 1702SOL     OW 6004   2.013   2.322   6.231
 1702SOL    HW1 6005   1.993   2.403   6.176
 1702SOL    HW2 6006   1.941   2.254   6.217
 1703SOL     OW 6007   2.958   2.128   1.074
 1703SOL    HW1 6008   2.949   2.077   1.159
 1703SOL    HW2 6009   2.990   2.221   1.094
 1704SOL     OW 6010   2.940   2.383   0.620
 1704SOL    HW1 6011   3.021   2.439   0.638
 1704SOL    HW2 6012   2.969   2.295   0.581
 1705SOL     OW 6013   4.019   2.171   0.405
 1705SOL    HW1 6014   3.929   2.209   0.387
 1705SOL    HW2 6015   4.077   2.240   0.449
 1706SOL     OW 6016   5.041   1.975   6.926
 1706SOL    HW1 6017   5.127   2.023   6.907
 1706SOL    HW2 6018   5.048   1.926   7.013
 1707SOL     OW 6019   4.458   2.259   2.792
 1707SOL    HW1 6020   4.370   2.211   2.789
 1707SOL    HW2 6021   4.500   2.247   2.882
 1708SOL     OW 6022   3.269   4.804   1.881
 1708SOL    HW1 6023   3.231   4.770   1.795
 1708SOL    HW2 6024   3.365   4.776   1.889
 1709SOL     OW 6025   4.769   4.974   1.080
 1709SOL    HW1 6026   4.825   4.906   1.126
 1709SOL    HW2 6027   4.737   4.937   0.993
 1710SOL     OW 6028   4.677   5.127   3.070
 1710SOL    HW1 6029   4.698   5.106   2.975
 1710SOL    HW2 6030   4.582   5.100   3.090
 1711SOL     OW 6031   4.160   4.428   6.542
 1711SOL    HW1 6032   4.186   4.498   6.476
 1711SOL    HW2 6033   4.184   4.459   6.634
 1712SOL     OW 6034   0.536   1.302   2.651
 1712SOL    HW1 6035   0.501   1.278   2.561
 1712SOL    HW2 6036   0.463   1.347   2.704
 1713SOL     OW 6037   3.987   0.409   3.160
 1713SOL    HW1 6038   4.014   0.321   3.199
 1713SOL    HW2 6039   3.890   0.408   3.138
 1714SOL     OW 6040   3.808   3.683   0.279
 1714SOL    HW1 6041   3.745   3.660   0.354
 1714SOL    HW2 6042   3.882   3.740   0.314
 1715SOL     OW 6043   2.098   6.752   2.200
 1715SOL    HW1 6044   2.001   6.779   2.200
 1715SOL    HW2 6045   2.144   6.793   2.278
 1716SOL     OW 6046   5.124   1.406   3.950
 1716SOL    HW1 6047   5.168   1.319   3.929
 1716SOL    HW2 6048   5.073   1.438   3.870
 1717SOL     OW 6049   3.429   6.403   5.135
 1717SOL    HW1 6050   3.413   6.358   5.048
 1717SOL    HW2 6051   3.523   6.385   5.165
 1718SOL     OW 6052   1.593   2.925   1.422
 1718SOL    HW1 6053   1.558   3.011   1.386
 1718SOL    HW2 6054   1.666   2.891   1.363
 1719SOL     OW 6055   1.551   5.735   2.696
 1719SOL    HW1 6056   1.458   5.727   2.658
 1719SOL    HW2 6057   1.561   5.670   2.772
 1720SOL     OW 6058   0.618   2.996   5.950
 1720SOL    HW1 6059   0.635   2.947   6.035
 1720SOL    HW2 6060   0.587   3.088   5.969
 1721SOL     OW 6061   1.374   1.892   0.517
 1721SOL    HW1 6062   1.444   1.944   0.565
 1721SOL    HW2 6063   1.309   1.854   0.583
 1722SOL     OW 6064   2.640   2.479   3.496
 1722SOL    HW1 6065   2.658   2.413   3.569
 1722SOL    HW2 6066   2.608   2.565   3.537
 1723SOL     OW 6067   5.542   3.544   0.775
 1723SOL    HW1 6068   5.481   3.567   0.851
 1723SOL    HW2 6069   5.615   3.612   0.770
 1724SOL     OW 6070   6.029   2.077   1.646
 1724SOL    HW1 6071   6.037   2.176   1.658
 1724SOL    HW2 6072   6.119   2.034   1.655
 1725SOL     OW 6073   1.325   5.779   6.701
 1725SOL    HW1 6074   1.353   5.848   6.635
 1725SOL    HW2 6075   1.279   5.823   6.778
 1726SOL     OW 6076   5.495   4.116   3.443
 1726SOL    HW1 6077   5.547   4.088   3.362
 1726SOL    HW2 6078   5.411   4.062   3.448
 1727SOL     OW 6079   3.035   3.675   3.644
 1727SOL    HW1 6080   3.021   3.769   3.675
 1727SOL    HW2 6081   3.063   3.675   3.548
 1728SOL     OW 6082   4.925   2.173   4.236
 1728SOL    HW1 6083   5.014   2.153   4.275
 1728SOL    HW2 6084   4.933   2.250   4.171
 1729SOL     OW 6085   1.689   3.013   2.772
 1729SOL    HW1 6086   1.686   2.974   2.680
 1729SOL    HW2 6087   1.605   3.064   2.789
 1730SOL     OW 6088   2.418   4.992   4.892
 1730SOL    HW1 6089   2.363   5.072   4.869
 1730SOL    HW2 6090   2.362   4.925   4.940
 1731SOL     OW 6091   6.155   4.787   3.761
 1731SOL    HW1 6092   6.201   4.866   3.720
 1731SOL    HW2 6093   6.121   4.812   3.852
 1732SOL     OW 6094   2.645   3.544   5.539
 1732SOL    HW1 6095   2.733   3.512   5.502
 1732SOL    HW2 6096   2.582   3.561   5.464
 1733SOL     OW 6097   2.339   3.585   6.293
 1733SOL    HW1 6098   2.278   3.653   6.252
 1733SOL    HW2 6099   2.322   3.580   6.391
 1734SOL     OW 6100   6.948   2.989   1.439
 1734SOL    HW1 6101   6.992   3.022   1.523
 1734SOL    HW2 6102   7.011   2.928   1.390
 1735SOL     OW 6103   4.139   4.622   6.144
 1735SOL    HW1 6104   4.112   4.665   6.058
 1735SOL    HW2 6105   4.201   4.546   6.126
 1736SOL     OW 6106   5.153   3.506   0.755
 1736SOL    HW1 6107   5.137   3.414   0.718
 1736SOL    HW2 6108   5.085   3.569   0.717
 1737SOL     OW 6109   4.437   1.825   5.491
 1737SOL    HW1 6110   4.356   1.820   5.550
 1737SOL    HW2 6111   4.424   1.896   5.423
 1738SOL     OW 6112   1.558   3.243   3.850
 1738SOL    HW1 6113   1.652   3.269   3.871
 1738SOL    HW2 6114   1.532   3.165   3.907
 1739SOL     OW 6115   5.508   0.445   3.596
 1739SOL    HW1 6116   5.566   0.388   3.654
 1739SOL    HW2 6117   5.506   0.538   3.632
 1740SOL     OW 6118   6.242   3.047   4.754
 1740SOL    HW1 6119   6.281   3.132   4.789
 1740SOL    HW2 6120   6.316   2.983   4.732
 1741SOL     OW 6121   0.263   1.865   4.666
 1741SOL    HW1 6122   0.275   1.793   4.598
 1741SOL    HW2 6123   0.351   1.911   4.681
 1742SOL     OW 6124   6.314   5.816   6.030
 1742SOL    HW1 6125   6.258   5.894   6.005
 1742SOL    HW2 6126   6.374   5.791   5.954
 1743SOL     OW 6127   1.460   1.291   2.278
 1743SOL    HW1 6128   1.552   1.290   2.237
 1743SOL    HW2 6129   1.422   1.383   2.270
 1744SOL     OW 6130   3.626   2.032   4.617
 1744SOL    HW1 6131   3.693   1.979   4.669
 1744SOL    HW2 6132   3.561   2.075   4.680
 1745SOL     OW 6133   6.181   6.673   1.186
 1745SOL    HW1 6134   6.192   6.668   1.086
 1745SOL    HW2 6135   6.193   6.768   1.216
 1746SOL     OW 6136   2.295   4.190   3.990
 1746SOL    HW1 6137   2.254   4.102   3.966
 1746SOL    HW2 6138   2.235   4.264   3.961
 1747SOL     OW 6139   4.506   0.173   2.467
 1747SOL    HW1 6140   4.489   0.124   2.553
 1747SOL    HW2 6141   4.420   0.187   2.420
 1748SOL     OW 6142   6.739   3.153   5.067
 1748SOL    HW1 6143   6.690   3.239   5.058
 1748SOL    HW2 6144   6.750   3.131   5.164
 1749SOL     OW 6145   1.013   4.644   1.205
 1749SOL    HW1 6146   0.953   4.637   1.285
 1749SOL    HW2 6147   1.061   4.732   1.207
 1750SOL     OW 6148   3.762   0.039   5.819
 1750SOL    HW1 6149   3.803   0.125   5.848
 1750SOL    HW2 6150   3.676   0.058   5.771
 1751SOL     OW 6151   5.758   3.028   5.172
 1751SOL    HW1 6152   5.777   2.938   5.132
 1751SOL    HW2 6153   5.741   3.094   5.099
 1752SOL     OW 6154   0.012   0.436   2.351
 1752SOL    HW1 6155   0.096   0.422   2.298
 1752SOL    HW2 6156   0.024   0.516   2.410
 1753SOL     OW 6157   6.081   1.373   2.187
 1753SOL    HW1 6158   6.118   1.420   2.107
 1753SOL    HW2 6159   6.152   1.315   2.227
 1754SOL     OW 6160   3.108   5.459   3.828
 1754SOL    HW1 6161   3.194   5.409   3.836
 1754SOL    HW2 6162   3.079   5.490   3.919
 1755SOL     OW 6163   6.163   6.634   4.736
 1755SOL    HW1 6164   6.119   6.628   4.647
 1755SOL    HW2 6165   6.252   6.589   4.733
 1756SOL     OW 6166   4.969   6.907   6.797
 1756SOL    HW1 6167   4.941   6.817   6.764
 1756SOL    HW2 6168   5.065   6.905   6.822
 1757SOL     OW 6169   2.066   5.327   5.422
 1757SOL    HW1 6170   2.035   5.248   5.475
 1757SOL    HW2 6171   2.150   5.363   5.463
 1758SOL     OW 6172   2.031   6.245   4.663
 1758SOL    HW1 6173   2.063   6.314   4.728
 1758SOL    HW2 6174   2.040   6.154   4.703
 1759SOL     OW 6175   1.731   6.714   0.100
 1759SOL    HW1 6176   1.697   6.632   0.145
 1759SOL    HW2 6177   1.824   6.698   0.066
 1760SOL     OW 6178   6.876   1.007   5.047
 1760SOL    HW1 6179   6.916   0.917   5.026
 1760SOL    HW2 6180   6.899   1.032   5.141
 1761SOL     OW 6181   5.640   1.779   2.729
 1761SOL    HW1 6182   5.691   1.790   2.644
 1761SOL    HW2 6183   5.550   1.742   2.709
 1762SOL     OW 6184   0.546   1.696   5.763
 1762SOL    HW1 6185   0.594   1.669   5.846
 1762SOL    HW2 6186   0.461   1.744   5.788
 1763SOL     OW 6187   0.384   3.708   3.871
 1763SOL    HW1 6188   0.332   3.724   3.788
 1763SOL    HW2 6189   0.330   3.736   3.950
 1764SOL     OW 6190   1.402   5.572   3.172
 1764SOL    HW1 6191   1.306   5.594   3.192
 1764SOL    HW2 6192   1.449   5.655   3.143
 1765SOL     OW 6193   5.650   3.546   2.192
 1765SOL    HW1 6194   5.704   3.575   2.112
 1765SOL    HW2 6195   5.682   3.457   2.222
 1766SOL     OW 6196   4.348   4.608   3.759
 1766SOL    HW1 6197   4.350   4.562   3.848
 1766SOL    HW2 6198   4.412   4.685   3.759
 1767SOL     OW 6199   0.396   4.512   2.529
 1767SOL    HW1 6200   0.463   4.572   2.485
 1767SOL    HW2 6201   0.436   4.421   2.541
 1768SOL     OW 6202   5.126   6.124   2.251
 1768SOL    HW1 6203   5.120   6.117   2.350
 1768SOL    HW2 6204   5.034   6.112   2.211
 1769SOL     OW 6205   6.288   0.630   0.704
 1769SOL    HW1 6206   6.207   0.687   0.714
 1769SOL    HW2 6207   6.271   0.558   0.637
 1770SOL     OW 6208   1.939   4.997   0.482
 1770SOL    HW1 6209   1.867   4.967   0.419
 1770SOL    HW2 6210   1.910   5.079   0.530
 1771SOL     OW 6211   1.657   3.172   6.159
 1771SOL    HW1 6212   1.752   3.185   6.133
 1771SOL    HW2 6213   1.611   3.115   6.090
 1772SOL     OW 6214   2.104   4.352   2.764
 1772SOL    HW1 6215   2.198   4.318   2.772
 1772SOL    HW2 6216   2.043   4.274   2.746
 1773SOL     OW 6217   1.694   6.419   6.212
 1773SOL    HW1 6218   1.613   6.428   6.270
 1773SOL    HW2 6219   1.721   6.509   6.179
 1774SOL     OW 6220   5.016   5.483   0.741
 1774SOL    HW1 6221   5.105   5.488   0.697
 1774SOL    HW2 6222   4.975   5.393   0.721
 1775SOL     OW 6223   1.855   5.512   6.611
 1775SOL    HW1 6224   1.762   5.527   6.645
 1775SOL    HW2 6225   1.874   5.414   6.608
 1776SOL     OW 6226   4.399   2.514   5.535
 1776SOL    HW1 6227   4.318   2.506   5.593
 1776SOL    HW2 6228   4.378   2.573   5.457
 1777SOL     OW 6229   4.872   6.678   6.712
 1777SOL    HW1 6230   4.932   6.632   6.646
 1777SOL    HW2 6231   4.855   6.617   6.789
 1778SOL     OW 6232   6.006   0.125   3.987
 1778SOL    HW1 6233   6.085   0.087   4.034
 1778SOL    HW2 6234   5.990   0.219   4.018
 1779SOL     OW 6235   5.603   6.686   4.329
 1779SOL    HW1 6236   5.683   6.744   4.346
 1779SOL    HW2 6237   5.545   6.684   4.411
 1780SOL     OW 6238   1.928   5.367   5.040
 1780SOL    HW1 6239   1.882   5.427   4.974
 1780SOL    HW2 6240   1.865   5.299   5.075
 1781SOL     OW 6241   4.247   0.653   4.620
 1781SOL    HW1 6242   4.173   0.704   4.576
 1781SOL    HW2 6243   4.330   0.709   4.621
 1782SOL     OW 6244   6.645   1.546   2.497
 1782SOL    HW1 6245   6.726   1.498   2.464
 1782SOL    HW2 6246   6.670   1.637   2.530
 1783SOL     OW 6247   1.948   3.671   6.255
 1783SOL    HW1 6248   1.896   3.691   6.172
 1783SOL    HW2 6249   1.894   3.697   6.336
 1784SOL     OW 6250   2.774   6.579   1.431
 1784SOL    HW1 6251   2.691   6.529   1.455
 1784SOL    HW2 6252   2.754   6.677   1.428
 1785SOL     OW 6253   1.625   6.452   4.588
 1785SOL    HW1 6254   1.592   6.481   4.498
 1785SOL    HW2 6255   1.680   6.369   4.578
 1786SOL     OW 6256   1.082   6.593   0.973
 1786SOL    HW1 6257   1.017   6.589   1.049
 1786SOL    HW2 6258   1.034   6.622   0.890
 1787SOL     OW 6259   2.874   3.309   6.664
 1787SOL    HW1 6260   2.844   3.245   6.593
 1787SOL    HW2 6261   2.818   3.392   6.660
 1788SOL     OW 6262   4.603   3.956   0.998
 1788SOL    HW1 6263   4.558   3.985   1.082
 1788SOL    HW2 6264   4.602   3.856   0.991
 1789SOL     OW 6265   6.089   3.927   1.661
 1789SOL    HW1 6266   6.056   3.905   1.753
 1789SOL    HW2 6267   6.180   3.887   1.647
 1790SOL     OW 6268   2.145   1.893   4.541
 1790SOL    HW1 6269   2.157   1.924   4.636
 1790SOL    HW2 6270   2.060   1.931   4.505
 1791SOL     OW 6271   4.989   0.077   3.605
 1791SOL    HW1 6272   5.083   0.071   3.571
 1791SOL    HW2 6273   4.939   7.016   3.579
 1792SOL     OW 6274   0.376   1.961   5.800
 1792SOL    HW1 6275   0.340   2.054   5.791
 1792SOL    HW2 6276   0.302   1.898   5.824
 1793SOL     OW 6277   0.300   0.496   5.839
 1793SOL    HW1 6278   0.261   0.587   5.821
 1793SOL    HW2 6279   0.247   0.450   5.909
 1794SOL     OW 6280   1.268   0.336   6.132
 1794SOL    HW1 6281   1.308   0.247   6.156
 1794SOL    HW2 6282   1.299   0.405   6.197
 1795SOL     OW 6283   5.704   4.784   1.020
 1795SOL    HW1 6284   5.777   4.805   1.084
 1795SOL    HW2 6285   5.687   4.685   1.020
 1796SOL     OW 6286   0.617   0.592   6.671
 1796SOL    HW1 6287   0.544   0.599   6.602
 1796SOL    HW2 6288   0.704   0.575   6.626
 1797SOL     OW 6289   1.832   5.072   5.898
 1797SOL    HW1 6290   1.879   5.027   5.822
 1797SOL    HW2 6291   1.861   5.167   5.904
 1798SOL     OW 6292   2.629   3.855   5.288
 1798SOL    HW1 6293   2.559   3.900   5.233
 1798SOL    HW2 6294   2.588   3.779   5.339
 1799SOL     OW 6295   3.392   1.470   0.789
 1799SOL    HW1 6296   3.403   1.469   0.689
 1799SOL    HW2 6297   3.376   1.563   0.820
 1800SOL     OW 6298   5.518   3.365   5.109
 1800SOL    HW1 6299   5.430   3.379   5.154
 1800SOL    HW2 6300   5.538   3.442   5.049
 1801SOL     OW 6301   1.092   0.793   3.345
 1801SOL    HW1 6302   1.085   0.709   3.291
 1801SOL    HW2 6303   1.007   0.808   3.395
 1802SOL     OW 6304   6.818   5.012   4.150
 1802SOL    HW1 6305   6.798   4.945   4.078
 1802SOL    HW2 6306   6.860   5.093   4.109
 1803SOL     OW 6307   0.643   0.411   3.472
 1803SOL    HW1 6308   0.727   0.398   3.525
 1803SOL    HW2 6309   0.629   0.331   3.413
 1804SOL     OW 6310   2.332   3.159   5.847
 1804SOL    HW1 6311   2.421   3.205   5.850
 1804SOL    HW2 6312   2.341   3.071   5.800
 1805SOL     OW 6313   6.882   5.388   0.751
 1805SOL    HW1 6314   6.902   5.328   0.828
 1805SOL    HW2 6315   6.826   5.464   0.782
 1806SOL     OW 6316   0.294   1.798   1.470
 1806SOL    HW1 6317   0.209   1.811   1.520
 1806SOL    HW2 6318   0.369   1.840   1.521
 1807SOL     OW 6319   0.328   2.510   2.966
 1807SOL    HW1 6320   0.276   2.585   2.926
 1807SOL    HW2 6321   0.387   2.544   3.039
 1808SOL     OW 6322   5.090   1.956   6.276
 1808SOL    HW1 6323   5.178   1.979   6.319
 1808SOL    HW2 6324   5.089   1.991   6.183
 1809SOL     OW 6325   4.743   0.232   4.906
 1809SOL    HW1 6326   4.758   0.146   4.955
 1809SOL    HW2 6327   4.693   0.296   4.964
 1810SOL     OW 6328   0.977   0.488   4.291
 1810SOL    HW1 6329   1.036   0.566   4.309
 1810SOL    HW2 6330   0.900   0.516   4.233
 1811SOL     OW 6331   3.906   5.527   1.318
 1811SOL    HW1 6332   3.923   5.607   1.376
 1811SOL    HW2 6333   3.971   5.528   1.241
 1812SOL     OW 6334   4.615   6.489   6.140
 1812SOL    HW1 6335   4.564   6.508   6.224
 1812SOL    HW2 6336   4.689   6.556   6.130
 1813SOL     OW 6337   4.756   4.663   2.154
 1813SOL    HW1 6338   4.841   4.697   2.113
 1813SOL    HW2 6339   4.703   4.740   2.189
 1814SOL     OW 6340   6.757   6.177   0.220
 1814SOL    HW1 6341   6.814   6.096   0.205
 1814SOL    HW2 6342   6.731   6.217   0.132
 1815SOL     OW 6343   5.186   6.619   1.114
 1815SOL    HW1 6344   5.217   6.696   1.059
 1815SOL    HW2 6345   5.133   6.556   1.057
 1816SOL     OW 6346   3.762   4.838   5.159
 1816SOL    HW1 6347   3.720   4.871   5.074
 1816SOL    HW2 6348   3.832   4.902   5.189
 1817SOL     OW 6349   7.003   2.274   4.067
 1817SOL    HW1 6350   6.957   2.186   4.076
 1817SOL    HW2 6351   6.984   2.330   4.148
 1818SOL     OW 6352   2.659   0.851   0.459
 1818SOL    HW1 6353   2.580   0.849   0.398
 1818SOL    HW2 6354   2.669   0.761   0.503
 1819SOL     OW 6355   1.649   4.669   2.510
 1819SOL    HW1 6356   1.667   4.594   2.573
 1819SOL    HW2 6357   1.731   4.724   2.497
 1820SOL     OW 6358   3.144   0.163   5.256
 1820SOL    HW1 6359   3.122   0.082   5.310
 1820SOL    HW2 6360   3.074   0.177   5.186
 1821SOL     OW 6361   3.710   2.104   2.587
 1821SOL    HW1 6362   3.612   2.098   2.604
 1821SOL    HW2 6363   3.729   2.083   2.492
 1822SOL     OW 6364   6.942   3.072   3.026
 1822SOL    HW1 6365   6.900   2.999   3.080
 1822SOL    HW2 6366   6.997   3.131   3.085
 1823SOL     OW 6367   4.290   6.354   1.675
 1823SOL    HW1 6368   4.293   6.293   1.755
 1823SOL    HW2 6369   4.311   6.447   1.704
 1824SOL     OW 6370   4.248   3.119   1.705
 1824SOL    HW1 6371   4.327   3.059   1.704
 1824SOL    HW2 6372   4.271   3.204   1.753
 1825SOL     OW 6373   1.180   2.011   5.017
 1825SOL    HW1 6374   1.268   1.972   4.990
 1825SOL    HW2 6375   1.152   2.081   4.951
 1826SOL     OW 6376   3.576   2.042   1.833
 1826SOL    HW1 6377   3.578   2.012   1.929
 1826SOL    HW2 6378   3.629   2.126   1.824
 1827SOL     OW 6379   5.471   6.060   0.760
 1827SOL    HW1 6380   5.493   5.962   0.754
 1827SOL    HW2 6381   5.453   6.084   0.855
 1828SOL     OW 6382   1.400   3.637   5.298
 1828SOL    HW1 6383   1.383   3.688   5.213
 1828SOL    HW2 6384   1.497   3.612   5.303
 1829SOL     OW 6385   3.695   0.682   2.545
 1829SOL    HW1 6386   3.632   0.665   2.469
 1829SOL    HW2 6387   3.779   0.630   2.531
 1830SOL     OW 6388   5.311   0.605   5.538
 1830SOL    HW1 6389   5.387   0.633   5.596
 1830SOL    HW2 6390   5.225   0.635   5.577
 1831SOL     OW 6391   3.432   4.744   0.576
 1831SOL    HW1 6392   3.412   4.796   0.493
 1831SOL    HW2 6393   3.346   4.711   0.616
 1832SOL     OW 6394   2.594   2.669   0.156
 1832SOL    HW1 6395   2.564   2.637   0.245
 1832SOL    HW2 6396   2.556   2.760   0.139
 1833SOL     OW 6397   5.836   1.335   6.799
 1833SOL    HW1 6398   5.755   1.342   6.857
 1833SOL    HW2 6399   5.914   1.306   6.855
 1834SOL     OW 6400   0.624   2.820   5.469
 1834SOL    HW1 6401   0.616   2.809   5.568
 1834SOL    HW2 6402   0.564   2.754   5.423
 1835SOL     OW 6403   6.924   6.666   1.667
 1835SOL    HW1 6404   6.846   6.605   1.683
 1835SOL    HW2 6405   7.004   6.631   1.716
 1836SOL     OW 6406   5.252   2.799   2.608
 1836SOL    HW1 6407   5.334   2.743   2.619
 1836SOL    HW2 6408   5.194   2.758   2.537
 1837SOL     OW 6409   2.590   2.090   6.215
 1837SOL    HW1 6410   2.536   2.034   6.277
 1837SOL    HW2 6411   2.529   2.139   6.152
 1838SOL     OW 6412   5.225   0.996   0.600
 1838SOL    HW1 6413   5.274   1.036   0.522
 1838SOL    HW2 6414   5.255   0.901   0.612
 1839SOL     OW 6415   0.291   0.823   0.535
 1839SOL    HW1 6416   0.385   0.788   0.541
 1839SOL    HW2 6417   0.239   0.795   0.615
 1840SOL     OW 6418   4.085   6.179   3.502
 1840SOL    HW1 6419   4.159   6.192   3.568
 1840SOL    HW2 6420   4.011   6.126   3.544
 1841SOL     OW 6421   1.717   1.072   2.082
 1841SOL    HW1 6422   1.643   1.006   2.084
 1841SOL    HW2 6423   1.726   1.114   2.172
 1842SOL     OW 6424   1.028   5.898   0.926
 1842SOL    HW1 6425   0.974   5.829   0.972
 1842SOL    HW2 6426   0.972   5.945   0.858
 1843SOL     OW 6427   2.426   1.014   5.695
 1843SOL    HW1 6428   2.469   1.087   5.747
 1843SOL    HW2 6429   2.354   0.972   5.751
 1844SOL     OW 6430   6.066   2.771   6.125
 1844SOL    HW1 6431   6.118   2.807   6.048
 1844SOL    HW2 6432   6.097   2.678   6.145
 1845SOL     OW 6433   1.292   2.481   2.838
 1845SOL    HW1 6434   1.227   2.487   2.762
 1845SOL    HW2 6435   1.277   2.397   2.888
 1846SOL     OW 6436   3.488   0.945   1.652
 1846SOL    HW1 6437   3.441   1.012   1.594
 1846SOL    HW2 6438   3.541   0.993   1.722
 1847SOL     OW 6439   1.638   5.775   5.431
 1847SOL    HW1 6440   1.625   5.680   5.403
 1847SOL    HW2 6441   1.549   5.814   5.455
 1848SOL     OW 6442   3.467   6.668   3.499
 1848SOL    HW1 6443   3.435   6.763   3.497
 1848SOL    HW2 6444   3.422   6.619   3.574
 1849SOL     OW 6445   4.869   2.926   2.713
 1849SOL    HW1 6446   4.968   2.937   2.715
 1849SOL    HW2 6447   4.828   3.005   2.668
 1850SOL     OW 6448   4.473   1.824   1.110
 1850SOL    HW1 6449   4.382   1.848   1.076
 1850SOL    HW2 6450   4.540   1.833   1.037
 1851SOL     OW 6451   0.141   4.654   5.101
 1851SOL    HW1 6452   0.197   4.574   5.123
 1851SOL    HW2 6453   0.172   4.733   5.155
 1852SOL     OW 6454   0.607   0.221   2.943
 1852SOL    HW1 6455   0.683   0.285   2.951
 1852SOL    HW2 6456   0.528   0.268   2.905
 1853SOL     OW 6457   0.466   2.489   5.627
 1853SOL    HW1 6458   0.555   2.461   5.664
 1853SOL    HW2 6459   0.428   2.562   5.684
 1854SOL     OW 6460   0.970   6.908   3.441
 1854SOL    HW1 6461   1.008   6.910   3.348
 1854SOL    HW2 6462   0.881   6.863   3.440
 1855SOL     OW 6463   5.254   3.068   4.599
 1855SOL    HW1 6464   5.222   3.128   4.526
 1855SOL    HW2 6465   5.350   3.087   4.618
 1856SOL     OW 6466   3.832   3.153   0.530
 1856SOL    HW1 6467   3.924   3.190   0.515
 1856SOL    HW2 6468   3.826   3.114   0.622
 1857SOL     OW 6469   4.022   1.285   6.833
 1857SOL    HW1 6470   3.979   1.349   6.769
 1857SOL    HW2 6471   3.962   1.273   6.912
 1858SOL     OW 6472   4.854   2.507   4.253
 1858SOL    HW1 6473   4.905   2.485   4.336
 1858SOL    HW2 6474   4.785   2.576   4.274
 1859SOL     OW 6475   6.705   1.552   4.316
 1859SOL    HW1 6476   6.758   1.616   4.371
 1859SOL    HW2 6477   6.614   1.590   4.300
 1860SOL     OW 6478   2.151   1.351   6.023
 1860SOL    HW1 6479   2.166   1.262   6.066
 1860SOL    HW2 6480   2.053   1.365   6.008
 1861SOL     OW 6481   6.916   6.572   3.923
 1861SOL    HW1 6482   6.933   6.669   3.908
 1861SOL    HW2 6483   6.931   6.549   4.019
 1862SOL     OW 6484   2.974   5.619   5.349
 1862SOL    HW1 6485   3.016   5.695   5.399
 1862SOL    HW2 6486   2.875   5.632   5.345
 1863SOL     OW 6487   0.057   2.638   0.504
 1863SOL    HW1 6488   0.017   2.561   0.456
 1863SOL    HW2 6489   0.137   2.607   0.556
 1864SOL     OW 6490   3.811   5.510   2.400
 1864SOL    HW1 6491   3.760   5.430   2.369
 1864SOL    HW2 6492   3.909   5.495   2.387
 1865SOL     OW 6493   6.221   2.126   5.573
 1865SOL    HW1 6494   6.320   2.137   5.558
 1865SOL    HW2 6495   6.176   2.215   5.566
 1866SOL     OW 6496   0.394   4.893   3.275
 1866SOL    HW1 6497   0.334   4.898   3.195
 1866SOL    HW2 6498   0.489   4.892   3.246
 1867SOL     OW 6499   0.782   2.524   1.219
 1867SOL    HW1 6500   0.694   2.485   1.247
 1867SOL    HW2 6501   0.767   2.615   1.181
 1868SOL     OW 6502   5.634   3.209   6.906
 1868SOL    HW1 6503   5.678   3.265   6.835
 1868SOL    HW2 6504   5.637   3.259   6.993
 1869SOL     OW 6505   4.827   0.976   4.380
 1869SOL    HW1 6506   4.781   1.019   4.302
 1869SOL    HW2 6507   4.898   0.915   4.347
 1870SOL     OW 6508   6.263   6.227   5.267
 1870SOL    HW1 6509   6.307   6.162   5.205
 1870SOL    HW2 6510   6.279   6.320   5.234
 1871SOL     OW 6511   0.366   6.372   0.087
 1871SOL    HW1 6512   0.269   6.349   0.076
 1871SOL    HW2 6513   0.374   6.465   0.124
 1872SOL     OW 6514   3.087   2.722   1.796
 1872SOL    HW1 6515   3.081   2.694   1.892
 1872SOL    HW2 6516   3.082   2.641   1.737
 1873SOL     OW 6517   6.599   1.333   0.615
 1873SOL    HW1 6518   6.515   1.311   0.665
 1873SOL    HW2 6519   6.577   1.393   0.538
 1874SOL     OW 6520   0.528   5.384   0.740
 1874SOL    HW1 6521   0.428   5.389   0.741
 1874SOL    HW2 6522   0.566   5.467   0.781
 1875SOL     OW 6523   6.724   5.436   1.407
 1875SOL    HW1 6524   6.812   5.448   1.362
 1875SOL    HW2 6525   6.667   5.516   1.390
 1876SOL     OW 6526   0.152   5.473   1.004
 1876SOL    HW1 6527   0.202   5.443   1.085
 1876SOL    HW2 6528   0.055   5.480   1.026
 1877SOL     OW 6529   1.143   1.770   2.298
 1877SOL    HW1 6530   1.101   1.680   2.284
 1877SOL    HW2 6531   1.153   1.788   2.396
 1878SOL     OW 6532   5.327   4.094   4.141
 1878SOL    HW1 6533   5.415   4.052   4.120
 1878SOL    HW2 6534   5.293   4.060   4.228
 1879SOL     OW 6535   4.554   5.996   4.399
 1879SOL    HW1 6536   4.648   5.971   4.421
 1879SOL    HW2 6537   4.544   6.096   4.404
 1880SOL     OW 6538   6.851   1.896   4.282
 1880SOL    HW1 6539   6.950   1.887   4.269
 1880SOL    HW2 6540   6.818   1.821   4.340
 1881SOL     OW 6541   1.850   1.912   3.962
 1881SOL    HW1 6542   1.768   1.856   3.972
 1881SOL    HW2 6543   1.874   1.919   3.865
 1882SOL     OW 6544   1.441   5.458   0.508
 1882SOL    HW1 6545   1.435   5.379   0.446
 1882SOL    HW2 6546   1.364   5.456   0.571
 1883SOL     OW 6547   1.387   2.769   2.737
 1883SOL    HW1 6548   1.445   2.728   2.666
 1883SOL    HW2 6549   1.378   2.705   2.813
 1884SOL     OW 6550   4.133   0.880   0.101
 1884SOL    HW1 6551   4.078   0.824   0.040
 1884SOL    HW2 6552   4.155   0.967   0.056
 1885SOL     OW 6553   6.979   1.776   0.923
 1885SOL    HW1 6554   7.005   1.789   0.827
 1885SOL    HW2 6555   0.034   1.734   0.972
 1886SOL     OW 6556   3.199   2.342   6.101
 1886SOL    HW1 6557   3.140   2.287   6.160
 1886SOL    HW2 6558   3.263   2.283   6.053
 1887SOL     OW 6559   0.795   6.633   5.010
 1887SOL    HW1 6560   0.702   6.606   4.985
 1887SOL    HW2 6561   0.794   6.727   5.046
 1888SOL     OW 6562   1.654   1.941   5.515
 1888SOL    HW1 6563   1.588   1.942   5.440
 1888SOL    HW2 6564   1.609   1.965   5.600
 1889SOL     OW 6565   3.339   3.135   6.909
 1889SOL    HW1 6566   3.300   3.053   6.951
 1889SOL    HW2 6567   3.360   3.116   6.813
 1890SOL     OW 6568   6.592   5.705   6.841
 1890SOL    HW1 6569   6.584   5.611   6.807
 1890SOL    HW2 6570   6.534   5.716   6.921
 1891SOL     OW 6571   5.332   3.534   6.552
 1891SOL    HW1 6572   5.280   3.531   6.467
 1891SOL    HW2 6573   5.430   3.538   6.530
 1892SOL     OW 6574   4.150   7.018   1.794
 1892SOL    HW1 6575   4.214   6.942   1.780
 1892SOL    HW2 6576   4.090   6.997   1.871
 1893SOL     OW 6577   3.293   1.772   5.048
 1893SOL    HW1 6578   3.303   1.872   5.048
 1893SOL    HW2 6579   3.197   1.748   5.060
 1894SOL     OW 6580   4.188   3.568   0.856
 1894SOL    HW1 6581   4.230   3.650   0.894
 1894SOL    HW2 6582   4.222   3.553   0.763
 1895SOL     OW 6583   4.477   0.110   3.529
 1895SOL    HW1 6584   4.520   0.152   3.609
 1895SOL    HW2 6585   4.421   0.179   3.482
 1896SOL     OW 6586   6.085   2.126   5.947
 1896SOL    HW1 6587   6.052   2.072   6.025
 1896SOL    HW2 6588   6.007   2.155   5.892
 1897SOL     OW 6589   5.538   5.270   3.399
 1897SOL    HW1 6590   5.617   5.226   3.441
 1897SOL    HW2 6591   5.469   5.202   3.377
 1898SOL     OW 6592   5.808   6.674   6.785
 1898SOL    HW1 6593   5.760   6.707   6.703
 1898SOL    HW2 6594   5.905   6.694   6.777
 1899SOL     OW 6595   1.499   2.233   3.226
 1899SOL    HW1 6596   1.544   2.298   3.166
 1899SOL    HW2 6597   1.417   2.274   3.265
 1900SOL     OW 6598   2.514   6.213   1.135
 1900SOL    HW1 6599   2.583   6.165   1.080
 1900SOL    HW2 6600   2.477   6.150   1.204
 1901SOL     OW 6601   1.355   1.653   6.264
 1901SOL    HW1 6602   1.307   1.740   6.259
 1901SOL    HW2 6603   1.431   1.653   6.198
 1902SOL     OW 6604   2.052   2.462   5.486
 1902SOL    HW1 6605   2.075   2.518   5.565
 1902SOL    HW2 6606   2.047   2.519   5.404
 1903SOL     OW 6607   6.636   4.580   3.834
 1903SOL    HW1 6608   6.653   4.484   3.854
 1903SOL    HW2 6609   6.538   4.600   3.844
 1904SOL     OW 6610   0.888   0.753   4.721
 1904SOL    HW1 6611   0.806   0.792   4.679
 1904SOL    HW2 6612   0.870   0.735   4.818
 1905SOL     OW 6613   6.185   3.392   4.257
 1905SOL    HW1 6614   6.148   3.304   4.227
 1905SOL    HW2 6615   6.276   3.378   4.296
 1906SOL     OW 6616   2.649   6.344   0.143
 1906SOL    HW1 6617   2.662   6.357   0.241
 1906SOL    HW2 6618   2.645   6.433   0.097
 1907SOL     OW 6619   3.707   6.083   3.376
 1907SOL    HW1 6620   3.681   6.029   3.296
 1907SOL    HW2 6621   3.659   6.170   3.375
 1908SOL     OW 6622   4.942   0.649   6.892
 1908SOL    HW1 6623   4.850   0.611   6.901
 1908SOL    HW2 6624   4.938   0.735   6.841
 1909SOL     OW 6625   4.223   5.069   4.748
 1909SOL    HW1 6626   4.273   5.056   4.662
 1909SOL    HW2 6627   4.285   5.107   4.817
 1910SOL     OW 6628   5.179   2.428   4.848
 1910SOL    HW1 6629   5.234   2.490   4.904
 1910SOL    HW2 6630   5.086   2.421   4.886
 1911SOL     OW 6631   0.018   3.823   6.081
 1911SOL    HW1 6632   6.944   3.815   6.050
 1911SOL    HW2 6633   0.073   3.749   6.042
 1912SOL     OW 6634   3.106   5.936   3.180
 1912SOL    HW1 6635   3.127   6.032   3.199
 1912SOL    HW2 6636   3.066   5.894   3.261
 1913SOL     OW 6637   1.632   4.560   4.868
 1913SOL    HW1 6638   1.638   4.615   4.952
 1913SOL    HW2 6639   1.537   4.532   4.854
 1914SOL     OW 6640   4.421   1.420   5.550
 1914SOL    HW1 6641   4.468   1.337   5.519
 1914SOL    HW2 6642   4.406   1.481   5.472
 1915SOL     OW 6643   3.692   0.441   5.366
 1915SOL    HW1 6644   3.740   0.446   5.278
 1915SOL    HW2 6645   3.615   0.504   5.366
 1916SOL     OW 6646   3.985   6.234   1.604
 1916SOL    HW1 6647   4.070   6.226   1.552
 1916SOL    HW2 6648   3.981   6.324   1.647
 1917SOL     OW 6649   3.475   2.930   4.310
 1917SOL    HW1 6650   3.553   2.896   4.258
 1917SOL    HW2 6651   3.484   2.900   4.405
 1918SOL     OW 6652   5.842   6.203   4.268
 1918SOL    HW1 6653   5.806   6.121   4.311
 1918SOL    HW2 6654   5.812   6.283   4.319
 1919SOL     OW 6655   6.609   6.726   1.987
 1919SOL    HW1 6656   6.545   6.671   1.934
 1919SOL    HW2 6657   6.689   6.671   2.010
 1920SOL     OW 6658   6.958   6.062   3.959
 1920SOL    HW1 6659   7.018   6.141   3.964
 1920SOL    HW2 6660   6.891   6.067   4.034
 1921SOL     OW 6661   0.930   0.121   6.082
 1921SOL    HW1 6662   0.837   0.120   6.048
 1921SOL    HW2 6663   0.930   0.106   6.181
 1922SOL     OW 6664   3.787   4.379   1.310
 1922SOL    HW1 6665   3.804   4.477   1.315
 1922SOL    HW2 6666   3.695   4.359   1.344
 1923SOL     OW 6667   1.921   2.398   0.754
 1923SOL    HW1 6668   1.983   2.394   0.832
 1923SOL    HW2 6669   1.965   2.446   0.679
 1924SOL     OW 6670   0.978   3.761   2.134
 1924SOL    HW1 6671   1.066   3.769   2.088
 1924SOL    HW2 6672   0.977   3.678   2.190
 1925SOL     OW 6673   3.203   4.197   0.424
 1925SOL    HW1 6674   3.291   4.193   0.378
 1925SOL    HW2 6675   3.144   4.124   0.389
 1926SOL     OW 6676   0.866   0.618   3.676
 1926SOL    HW1 6677   0.831   0.697   3.726
 1926SOL    HW2 6678   0.948   0.583   3.721
 1927SOL     OW 6679   4.029   3.861   0.323
 1927SOL    HW1 6680   4.070   3.872   0.413
 1927SOL    HW2 6681   4.101   3.861   0.253
 1928SOL     OW 6682   6.997   4.831   5.441
 1928SOL    HW1 6683   0.062   4.816   5.490
 1928SOL    HW2 6684   6.924   4.849   5.507
 1929SOL     OW 6685   1.412   6.897   3.236
 1929SOL    HW1 6686   1.412   6.935   3.144
 1929SOL    HW2 6687   1.341   6.826   3.243
 1930SOL     OW 6688   6.364   4.849   0.067
 1930SOL    HW1 6689   6.399   4.759   0.040
 1930SOL    HW2 6690   6.396   4.918   0.002
 1931SOL     OW 6691   0.799   2.522   5.187
 1931SOL    HW1 6692   0.721   2.481   5.141
 1931SOL    HW2 6693   0.859   2.566   5.120
 1932SOL     OW 6694   5.590   3.020   2.431
 1932SOL    HW1 6695   5.524   3.090   2.457
 1932SOL    HW2 6696   5.677   3.063   2.408
 1933SOL     OW 6697   2.619   4.390   1.434
 1933SOL    HW1 6698   2.532   4.441   1.436
 1933SOL    HW2 6699   2.660   4.390   1.525
 1934SOL     OW 6700   0.267   5.960   4.289
 1934SOL    HW1 6701   0.350   6.016   4.290
 1934SOL    HW2 6702   0.289   5.868   4.320
 1935SOL     OW 6703   2.634   0.859   4.192
 1935SOL    HW1 6704   2.649   0.935   4.255
 1935SOL    HW2 6705   2.611   0.894   4.102
 1936SOL     OW 6706   6.474   5.794   5.805
 1936SOL    HW1 6707   6.542   5.864   5.826
 1936SOL    HW2 6708   6.489   5.761   5.712
 1937SOL     OW 6709   4.114   6.837   2.240
 1937SOL    HW1 6710   4.093   6.825   2.337
 1937SOL    HW2 6711   4.089   6.755   2.190
 1938SOL     OW 6712   5.360   0.423   3.974
 1938SOL    HW1 6713   5.328   0.354   3.910
 1938SOL    HW2 6714   5.340   0.514   3.937
 1939SOL     OW 6715   2.257   0.364   3.164
 1939SOL    HW1 6716   2.214   0.277   3.139
 1939SOL    HW2 6717   2.356   0.356   3.154
 1940SOL     OW 6718   6.896   5.262   0.179
 1940SOL    HW1 6719   6.801   5.279   0.207
 1940SOL    HW2 6720   6.910   5.297   0.086
 1941SOL     OW 6721   4.862   5.001   3.258
 1941SOL    HW1 6722   4.939   4.985   3.197
 1941SOL    HW2 6723   4.790   5.051   3.209
 1942SOL     OW 6724   6.379   5.365   3.007
 1942SOL    HW1 6725   6.415   5.455   3.032
 1942SOL    HW2 6726   6.439   5.294   3.043
 1943SOL     OW 6727   3.336   5.401   2.873
 1943SOL    HW1 6728   3.376   5.415   2.782
 1943SOL    HW2 6729   3.252   5.347   2.865
 1944SOL     OW 6730   6.973   1.167   1.982
 1944SOL    HW1 6731   0.050   1.186   1.985
 1944SOL    HW2 6732   6.948   1.105   2.056
 1945SOL     OW 6733   2.904   5.059   4.042
 1945SOL    HW1 6734   2.971   5.056   4.116
 1945SOL    HW2 6735   2.890   4.968   4.005
 1946SOL     OW 6736   1.964   0.336   6.981
 1946SOL    HW1 6737   1.937   0.420   6.935
 1946SOL    HW2 6738   1.889   0.304   0.019
 1947SOL     OW 6739   5.409   6.612   4.149
 1947SOL    HW1 6740   5.313   6.602   4.176
 1947SOL    HW2 6741   5.463   6.640   4.228
 1948SOL     OW 6742   6.230   3.838   5.716
 1948SOL    HW1 6743   6.133   3.859   5.727
 1948SOL    HW2 6744   6.268   3.898   5.645
 1949SOL     OW 6745   5.443   3.990   6.653
 1949SOL    HW1 6746   5.440   3.990   6.553
 1949SOL    HW2 6747   5.358   3.950   6.689
 1950SOL     OW 6748   3.497   3.594   0.848
 1950SOL    HW1 6749   3.498   3.495   0.837
 1950SOL    HW2 6750   3.473   3.617   0.943
 1951SOL     OW 6751   6.925   1.990   6.902
 1951SOL    HW1 6752   6.911   2.008   6.805
 1951SOL    HW2 6753   6.917   1.892   6.920
 1952SOL     OW 6754   3.735   1.889   5.362
 1952SOL    HW1 6755   3.769   1.981   5.381
 1952SOL    HW2 6756   3.639   1.894   5.336
 1953SOL     OW 6757   0.328   3.427   5.449
 1953SOL    HW1 6758   0.350   3.486   5.527
 1953SOL    HW2 6759   0.412   3.405   5.399
 1954SOL     OW 6760   2.687   2.077   3.389
 1954SOL    HW1 6761   2.723   2.167   3.364
 1954SOL    HW2 6762   2.730   2.046   3.474
 1955SOL     OW 6763   6.551   5.794   2.661
 1955SOL    HW1 6764   6.514   5.812   2.752
 1955SOL    HW2 6765   6.481   5.751   2.604
 1956SOL     OW 6766   6.022   6.346   2.271
 1956SOL    HW1 6767   6.059   6.335   2.363
 1956SOL    HW2 6768   6.006   6.443   2.253
 1957SOL     OW 6769   0.727   6.873   5.093
 1957SOL    HW1 6770   0.702   6.969   5.086
 1957SOL    HW2 6771   0.739   6.848   5.189
 1958SOL     OW 6772   5.128   3.423   5.676
 1958SOL    HW1 6773   5.098   3.327   5.683
 1958SOL    HW2 6774   5.122   3.453   5.581
 1959SOL     OW 6775   1.314   2.222   6.468
 1959SOL    HW1 6776   1.338   2.285   6.542
 1959SOL    HW2 6777   1.326   2.128   6.499
 1960SOL     OW 6778   5.427   6.468   1.526
 1960SOL    HW1 6779   5.422   6.383   1.474
 1960SOL    HW2 6780   5.421   6.447   1.624
 1961SOL     OW 6781   5.982   4.987   3.974
 1961SOL    HW1 6782   5.887   5.000   3.946
 1961SOL    HW2 6783   6.014   5.069   4.021
 1962SOL     OW 6784   6.989   6.563   2.931
 1962SOL    HW1 6785   6.929   6.604   3.000
 1962SOL    HW2 6786   6.942   6.560   2.843
 1963SOL     OW 6787   1.768   0.349   2.622
 1963SOL    HW1 6788   1.818   0.408   2.685
 1963SOL    HW2 6789   1.803   0.362   2.529
 1964SOL     OW 6790   5.557   3.592   2.650
 1964SOL    HW1 6791   5.574   3.495   2.634
 1964SOL    HW2 6792   5.607   3.646   2.583
 1965SOL     OW 6793   2.363   5.156   3.687
 1965SOL    HW1 6794   2.407   5.068   3.703
 1965SOL    HW2 6795   2.344   5.166   3.589
 1966SOL     OW 6796   6.041   5.588   5.250
 1966SOL    HW1 6797   6.042   5.651   5.327
 1966SOL    HW2 6798   5.955   5.537   5.249
 1967SOL     OW 6799   4.603   2.281   4.988
 1967SOL    HW1 6800   4.579   2.239   5.075
 1967SOL    HW2 6801   4.557   2.369   4.980
 1968SOL     OW 6802   3.088   5.264   6.008
 1968SOL    HW1 6803   3.136   5.176   5.995
 1968SOL    HW2 6804   3.148   5.327   6.056
 1969SOL     OW 6805   6.526   2.585   1.345
 1969SOL    HW1 6806   6.499   2.676   1.378
 1969SOL    HW2 6807   6.450   2.521   1.359
 1970SOL     OW 6808   2.011   0.071   3.370
 1970SOL    HW1 6809   2.103   0.043   3.399
 1970SOL    HW2 6810   1.944   0.035   3.434
 1971SOL     OW 6811   0.438   6.399   6.613
 1971SOL    HW1 6812   0.353   6.347   6.606
 1971SOL    HW2 6813   0.450   6.432   6.707
 1972SOL     OW 6814   0.835   4.700   3.782
 1972SOL    HW1 6815   0.745   4.693   3.738
 1972SOL    HW2 6816   0.879   4.784   3.752
 1973SOL     OW 6817   2.797   2.883   0.397
 1973SOL    HW1 6818   2.860   2.812   0.429
 1973SOL    HW2 6819   2.704   2.858   0.421
 1974SOL     OW 6820   5.861   0.791   4.257
 1974SOL    HW1 6821   5.835   0.886   4.241
 1974SOL    HW2 6822   5.801   0.730   4.205
 1975SOL     OW 6823   3.450   0.651   3.263
 1975SOL    HW1 6824   3.478   0.608   3.348
 1975SOL    HW2 6825   3.519   0.632   3.192
 1976SOL     OW 6826   6.974   4.971   0.154
 1976SOL    HW1 6827   0.002   5.052   0.186
 1976SOL    HW2 6828   0.015   4.893   0.154
 1977SOL     OW 6829   1.982   2.839   5.121
 1977SOL    HW1 6830   1.896   2.851   5.171
 1977SOL    HW2 6831   2.046   2.911   5.147
 1978SOL     OW 6832   6.914   1.328   4.656
 1978SOL    HW1 6833   6.817   1.354   4.661
 1978SOL    HW2 6834   6.971   1.410   4.657
 1979SOL     OW 6835   5.727   5.053   3.849
 1979SOL    HW1 6836   5.687   4.963   3.829
 1979SOL    HW2 6837   5.679   5.122   3.796
 1980SOL     OW 6838   4.017   0.157   1.243
 1980SOL    HW1 6839   4.032   0.223   1.317
 1980SOL    HW2 6840   3.948   0.193   1.180
 1981SOL     OW 6841   4.587   3.107   1.594
 1981SOL    HW1 6842   4.614   3.102   1.690
 1981SOL    HW2 6843   4.528   3.029   1.572
 1982SOL     OW 6844   5.501   6.483   4.722
 1982SOL    HW1 6845   5.475   6.543   4.646
 1982SOL    HW2 6846   5.548   6.536   4.792
 1983SOL     OW 6847   0.598   3.645   3.214
 1983SOL    HW1 6848   0.605   3.740   3.244
 1983SOL    HW2 6849   0.620   3.640   3.116
 1984SOL     OW 6850   4.279   0.210   5.939
 1984SOL    HW1 6851   4.366   0.191   5.985
 1984SOL    HW2 6852   4.238   0.293   5.977
 1985SOL     OW 6853   1.184   0.570   1.505
 1985SOL    HW1 6854   1.209   0.612   1.592
 1985SOL    HW2 6855   1.197   0.636   1.431
 1986SOL     OW 6856   1.158   1.856   6.126
 1986SOL    HW1 6857   1.179   1.797   6.049
 1986SOL    HW2 6858   1.102   1.933   6.095
 1987SOL     OW 6859   3.172   2.904   6.747
 1987SOL    HW1 6860   3.264   2.940   6.733
 1987SOL    HW2 6861   3.113   2.977   6.781
 1988SOL     OW 6862   4.400   3.066   0.887
 1988SOL    HW1 6863   4.429   2.976   0.854
 1988SOL    HW2 6864   4.463   3.098   0.957
 1989SOL     OW 6865   2.672   0.184   4.227
 1989SOL    HW1 6866   2.595   0.239   4.195
 1989SOL    HW2 6867   2.717   0.231   4.303
 1990SOL     OW 6868   2.639   0.744   2.196
 1990SOL    HW1 6869   2.626   0.646   2.210
 1990SOL    HW2 6870   2.621   0.767   2.101
 1991SOL     OW 6871   3.696   5.303   4.665
 1991SOL    HW1 6872   3.734   5.386   4.624
 1991SOL    HW2 6873   3.660   5.244   4.592
 1992SOL     OW 6874   2.079   6.594   5.401
 1992SOL    HW1 6875   2.117   6.666   5.458
 1992SOL    HW2 6876   2.154   6.538   5.363
 1993SOL     OW 6877   3.599   3.343   5.455
 1993SOL    HW1 6878   3.587   3.410   5.382
 1993SOL    HW2 6879   3.531   3.271   5.445
 1994SOL     OW 6880   6.186   2.490   1.952
 1994SOL    HW1 6881   6.283   2.501   1.931
 1994SOL    HW2 6882   6.165   2.392   1.963
 1995SOL     OW 6883   5.258   2.364   1.730
 1995SOL    HW1 6884   5.316   2.337   1.653
 1995SOL    HW2 6885   5.302   2.438   1.781
 1996SOL     OW 6886   3.065   4.269   6.807
 1996SOL    HW1 6887   3.102   4.360   6.823
 1996SOL    HW2 6888   3.123   4.200   6.850
 1997SOL     OW 6889   5.563   0.692   3.846
 1997SOL    HW1 6890   5.465   0.670   3.855
 1997SOL    HW2 6891   5.576   0.790   3.857
 1998SOL     OW 6892   2.995   4.900   5.032
 1998SOL    HW1 6893   3.002   4.844   5.114
 1998SOL    HW2 6894   2.951   4.847   4.959
 1999SOL     OW 6895   2.161   0.814   1.959
 1999SOL    HW1 6896   2.139   0.862   2.044
 1999SOL    HW2 6897   2.128   0.720   1.964
 2000SOL     OW 6898   3.915   2.066   5.155
 2000SOL    HW1 6899   3.824   2.064   5.113
 2000SOL    HW2 6900   3.976   2.123   5.099
 2001SOL     OW 6901   2.882   2.736   0.771
 2001SOL    HW1 6902   2.957   2.695   0.822
 2001SOL    HW2 6903   2.913   2.759   0.678
 2002SOL     OW 6904   1.954   4.817   5.029
 2002SOL    HW1 6905   1.976   4.914   5.038
 2002SOL    HW2 6906   1.924   4.781   5.118
 2003SOL     OW 6907   6.510   5.932   4.004
 2003SOL    HW1 6908   6.561   5.851   3.975
 2003SOL    HW2 6909   6.466   5.974   3.924
 2004SOL     OW 6910   3.029   1.112   5.621
 2004SOL    HW1 6911   3.117   1.153   5.644
 2004SOL    HW2 6912   2.981   1.087   5.705
 2005SOL     OW 6913   2.613   5.949   6.018
 2005SOL    HW1 6914   2.700   5.940   6.067
 2005SOL    HW2 6915   2.592   5.862   5.973
 2006SOL     OW 6916   4.022   4.787   4.061
 2006SOL    HW1 6917   4.008   4.690   4.080
 2006SOL    HW2 6918   3.936   4.828   4.028
 2007SOL     OW 6919   5.679   5.561   0.639
 2007SOL    HW1 6920   5.763   5.520   0.673
 2007SOL    HW2 6921   5.603   5.496   0.650
 2008SOL     OW 6922   0.541   5.909   4.012
 2008SOL    HW1 6923   0.559   5.960   4.096
 2008SOL    HW2 6924   0.465   5.846   4.026
 2009SOL     OW 6925   0.369   0.258   1.954
 2009SOL    HW1 6926   0.414   0.253   1.865
 2009SOL    HW2 6927   0.402   0.185   2.013
 2010SOL     OW 6928   1.527   0.284   0.724
 2010SOL    HW1 6929   1.518   0.285   0.624
 2010SOL    HW2 6930   1.483   0.366   0.762
 2011SOL     OW 6931   0.071   2.242   5.147
 2011SOL    HW1 6932   0.040   2.277   5.235
 2011SOL    HW2 6933   0.162   2.203   5.156
 2012SOL     OW 6934   1.119   3.847   1.096
 2012SOL    HW1 6935   1.123   3.842   1.195
 2012SOL    HW2 6936   1.097   3.757   1.058
 2013SOL     OW 6937   4.866   1.675   2.222
 2013SOL    HW1 6938   4.917   1.687   2.308
 2013SOL    HW2 6939   4.879   1.756   2.165
 2014SOL     OW 6940   2.557   5.877   2.834
 2014SOL    HW1 6941   2.644   5.921   2.809
 2014SOL    HW2 6942   2.491   5.947   2.862
 2015SOL     OW 6943   3.605   6.879   6.414
 2015SOL    HW1 6944   3.580   6.852   6.507
 2015SOL    HW2 6945   3.689   6.933   6.416
 2016SOL     OW 6946   0.017   5.036   4.330
 2016SOL    HW1 6947   6.962   5.027   4.264
 2016SOL    HW2 6948   7.009   4.999   4.418
 2017SOL     OW 6949   3.211   5.767   2.503
 2017SOL    HW1 6950   3.219   5.788   2.601
 2017SOL    HW2 6951   3.214   5.667   2.491
 2018SOL     OW 6952   0.731   5.597   5.579
 2018SOL    HW1 6953   0.769   5.515   5.622
 2018SOL    HW2 6954   0.800   5.640   5.521
 2019SOL     OW 6955   6.080   1.604   2.307
 2019SOL    HW1 6956   6.007   1.667   2.281
 2019SOL    HW2 6957   6.077   1.523   2.248
 2020SOL     OW 6958   2.804   6.122   2.996
 2020SOL    HW1 6959   2.892   6.095   2.955
 2020SOL    HW2 6960   2.738   6.047   2.985
 2021SOL     OW 6961   1.155   0.334   2.172
 2021SOL    HW1 6962   1.146   0.250   2.226
 2021SOL    HW2 6963   1.067   0.381   2.168
 2022SOL     OW 6964   1.801   3.730   1.880
 2022SOL    HW1 6965   1.790   3.661   1.809
 2022SOL    HW2 6966   1.898   3.755   1.888
 2023SOL     OW 6967   6.741   0.972   5.641
 2023SOL    HW1 6968   6.703   0.886   5.607
 2023SOL    HW2 6969   6.668   1.027   5.680
 2024SOL     OW 6970   5.916   1.077   3.493
 2024SOL    HW1 6971   6.008   1.056   3.460
 2024SOL    HW2 6972   5.873   0.994   3.528
 2025SOL     OW 6973   6.970   1.386   1.501
 2025SOL    HW1 6974   0.009   1.344   1.570
 2025SOL    HW2 6975   6.877   1.350   1.513
 2026SOL     OW 6976   1.913   1.663   5.474
 2026SOL    HW1 6977   1.881   1.712   5.393
 2026SOL    HW2 6978   2.000   1.618   5.453
 2027SOL     OW 6979   0.981   1.327   2.940
 2027SOL    HW1 6980   1.006   1.252   3.001
 2027SOL    HW2 6981   0.884   1.320   2.918
 2028SOL     OW 6982   4.202   3.175   0.153
 2028SOL    HW1 6983   4.201   3.267   0.192
 2028SOL    HW2 6984   4.110   3.151   0.123
 2029SOL     OW 6985   1.308   0.619   0.466
 2029SOL    HW1 6986   1.321   0.542   0.403
 2029SOL    HW2 6987   1.277   0.699   0.415
 2030SOL     OW 6988   2.016   1.079   3.299
 2030SOL    HW1 6989   1.994   1.120   3.388
 2030SOL    HW2 6990   2.065   0.993   3.314
 2031SOL     OW 6991   5.507   6.879   2.175
 2031SOL    HW1 6992   5.574   6.855   2.105
 2031SOL    HW2 6993   5.547   6.864   2.265
 2032SOL     OW 6994   5.176   6.552   1.459
 2032SOL    HW1 6995   5.270   6.546   1.493
 2032SOL    HW2 6996   5.147   6.463   1.425
 2033SOL     OW 6997   5.882   5.284   6.815
 2033SOL    HW1 6998   5.832   5.205   6.779
 2033SOL    HW2 6999   5.939   5.256   6.892
 2034SOL     OW 7000   2.111   0.036   2.642
 2034SOL    HW1 7001   2.040   0.011   2.708
 2034SOL    HW2 7002   2.121   0.135   2.640
 2035SOL     OW 7003   1.205   2.683   2.451
 2035SOL    HW1 7004   1.155   2.726   2.375
 2035SOL    HW2 7005   1.298   2.718   2.453
 2036SOL     OW 7006   2.006   4.451   0.836
 2036SOL    HW1 7007   1.936   4.515   0.806
 2036SOL    HW2 7008   1.990   4.362   0.794
 2037SOL     OW 7009   0.047   1.363   6.220
 2037SOL    HW1 7010   6.968   1.373   6.223
 2037SOL    HW2 7011   0.085   1.428   6.154
 2038SOL     OW 7012   0.930   0.910   4.373
 2038SOL    HW1 7013   0.919   0.976   4.447
 2038SOL    HW2 7014   0.845   0.904   4.320
 2039SOL     OW 7015   0.577   5.563   2.413
 2039SOL    HW1 7016   0.628   5.633   2.462
 2039SOL    HW2 7017   0.494   5.540   2.463
 2040SOL     OW 7018   4.106   3.225   4.558
 2040SOL    HW1 7019   4.043   3.203   4.633
 2040SOL    HW2 7020   4.191   3.173   4.570
 2041SOL     OW 7021   6.174   4.063   5.969
 2041SOL    HW1 7022   6.229   4.000   6.025
 2041SOL    HW2 7023   6.093   4.016   5.935
 2042SOL     OW 7024   4.240   5.184   6.796
 2042SOL    HW1 7025   4.239   5.283   6.779
 2042SOL    HW2 7026   4.325   5.145   6.760
 2043SOL     OW 7027   5.329   4.658   2.121
 2043SOL    HW1 7028   5.298   4.718   2.195
 2043SOL    HW2 7029   5.300   4.695   2.033
 2044SOL     OW 7030   6.379   0.330   2.039
 2044SOL    HW1 7031   6.392   0.416   1.989
 2044SOL    HW2 7032   6.347   0.259   1.977
 2045SOL     OW 7033   2.103   5.147   6.120
 2045SOL    HW1 7034   2.021   5.172   6.069
 2045SOL    HW2 7035   2.084   5.151   6.218
 2046SOL     OW 7036   6.497   6.890   4.997
 2046SOL    HW1 7037   6.456   6.913   4.908
 2046SOL    HW2 7038   6.497   6.791   5.008
 2047SOL     OW 7039   5.608   2.575   0.228
 2047SOL    HW1 7040   5.615   2.661   0.278
 2047SOL    HW2 7041   5.699   2.534   0.219
 2048SOL     OW 7042   4.607   0.023   5.572
 2048SOL    HW1 7043   4.508   0.036   5.560
 2048SOL    HW2 7044   4.640   0.087   5.642
 2049SOL     OW 7045   4.860   0.150   0.490
 2049SOL    HW1 7046   4.821   0.058   0.477
 2049SOL    HW2 7047   4.820   0.212   0.423
 2050SOL     OW 7048   5.544   2.183   3.898
 2050SOL    HW1 7049   5.493   2.220   3.821
 2050SOL    HW2 7050   5.617   2.124   3.865
 2051SOL     OW 7051   1.748   5.471   0.501
 2051SOL    HW1 7052   1.783   5.378   0.509
 2051SOL    HW2 7053   1.674   5.485   0.567
 2052SOL     OW 7054   0.969   3.198   0.790
 2052SOL    HW1 7055   0.872   3.212   0.771
 2052SOL    HW2 7056   1.016   3.172   0.706
 2053SOL     OW 7057   5.985   0.697   0.426
 2053SOL    HW1 7058   6.072   0.738   0.399
 2053SOL    HW2 7059   5.969   0.614   0.373
 2054SOL     OW 7060   5.888   2.581   0.955
 2054SOL    HW1 7061   5.946   2.636   1.015
 2054SOL    HW2 7062   5.792   2.607   0.967
 2055SOL     OW 7063   5.436   2.705   4.338
 2055SOL    HW1 7064   5.409   2.724   4.433
 2055SOL    HW2 7065   5.396   2.619   4.308
 2056SOL     OW 7066   1.752   0.734   3.392
 2056SOL    HW1 7067   1.679   0.754   3.457
 2056SOL    HW2 7068   1.744   0.795   3.313
 2057SOL     OW 7069   0.120   3.067   3.922
 2057SOL    HW1 7070   0.218   3.074   3.899
 2057SOL    HW2 7071   0.105   3.100   4.014
 2058SOL     OW 7072   6.593   2.407   2.300
 2058SOL    HW1 7073   6.638   2.408   2.390
 2058SOL    HW2 7074   6.545   2.320   2.288
 2059SOL     OW 7075   1.454   1.642   6.776
 2059SOL    HW1 7076   1.509   1.681   6.701
 2059SOL    HW2 7077   1.504   1.652   6.862
 2060SOL     OW 7078   0.976   5.357   2.343
 2060SOL    HW1 7079   0.913   5.433   2.360
 2060SOL    HW2 7080   0.928   5.270   2.356
 2061SOL     OW 7081   6.244   1.788   1.882
 2061SOL    HW1 7082   6.146   1.794   1.901
 2061SOL    HW2 7083   6.273   1.692   1.886
 2062SOL     OW 7084   4.803   0.517   3.230
 2062SOL    HW1 7085   4.781   0.608   3.197
 2062SOL    HW2 7086   4.866   0.472   3.166
 2063SOL     OW 7087   2.265   2.605   6.489
 2063SOL    HW1 7088   2.246   2.524   6.434
 2063SOL    HW2 7089   2.242   2.687   6.436
 2064SOL     OW 7090   0.894   2.825   0.396
 2064SOL    HW1 7091   0.977   2.770   0.403
 2064SOL    HW2 7092   0.815   2.770   0.426
 2065SOL     OW 7093   6.250   3.810   1.385
 2065SOL    HW1 7094   6.285   3.846   1.472
 2065SOL    HW2 7095   6.155   3.779   1.398
 2066SOL     OW 7096   1.365   6.926   4.488
 2066SOL    HW1 7097   1.452   6.976   4.488
 2066SOL    HW2 7098   1.299   6.975   4.430
 2067SOL     OW 7099   6.409   0.346   1.311
 2067SOL    HW1 7100   6.396   0.412   1.385
 2067SOL    HW2 7101   6.423   0.255   1.350
 2068SOL     OW 7102   1.802   1.720   5.231
 2068SOL    HW1 7103   1.851   1.667   5.163
 2068SOL    HW2 7104   1.730   1.664   5.272
 2069SOL     OW 7105   0.557   2.483   1.952
 2069SOL    HW1 7106   0.622   2.427   2.003
 2069SOL    HW2 7107   0.587   2.490   1.856
 2070SOL     OW 7108   1.022   0.871   2.816
 2070SOL    HW1 7109   1.081   0.860   2.897
 2070SOL    HW2 7110   1.061   0.940   2.756
 2071SOL     OW 7111   1.360   6.714   4.219
 2071SOL    HW1 7112   1.458   6.734   4.225
 2071SOL    HW2 7113   1.328   6.677   4.306
 2072SOL     OW 7114   4.732   5.358   1.388
 2072SOL    HW1 7115   4.812   5.415   1.374
 2072SOL    HW2 7116   4.662   5.382   1.320
 2073SOL     OW 7117   2.631   6.537   6.047
 2073SOL    HW1 7118   2.547   6.496   6.083
 2073SOL    HW2 7119   2.698   6.546   6.121
 2074SOL     OW 7120   5.686   1.424   2.196
 2074SOL    HW1 7121   5.599   1.455   2.159
 2074SOL    HW2 7122   5.761   1.468   2.145
 2075SOL     OW 7123   4.745   3.268   0.302
 2075SOL    HW1 7124   4.778   3.175   0.318
 2075SOL    HW2 7125   4.792   3.307   0.222
 2076SOL     OW 7126   4.933   0.291   1.105
 2076SOL    HW1 7127   4.918   0.374   1.051
 2076SOL    HW2 7128   5.024   0.254   1.087
 2077SOL     OW 7129   5.594   1.179   2.690
 2077SOL    HW1 7130   5.638   1.267   2.709
 2077SOL    HW2 7131   5.638   1.135   2.612
 2078SOL     OW 7132   3.177   5.120   5.737
 2078SOL    HW1 7133   3.215   5.068   5.661
 2078SOL    HW2 7134   3.204   5.078   5.824
 2079SOL     OW 7135   5.546   0.976   3.854
 2079SOL    HW1 7136   5.631   1.024   3.874
 2079SOL    HW2 7137   5.519   0.993   3.759
 2080SOL     OW 7138   2.667   2.404   4.454
 2080SOL    HW1 7139   2.728   2.361   4.520
 2080SOL    HW2 7140   2.591   2.448   4.501
 2081SOL     OW 7141   0.328   6.658   5.543
 2081SOL    HW1 7142   0.257   6.660   5.613
 2081SOL    HW2 7143   0.320   6.739   5.485
 2082SOL     OW 7144   5.487   0.748   1.482
 2082SOL    HW1 7145   5.450   0.754   1.575
 2082SOL    HW2 7146   5.424   0.696   1.425
 2083SOL     OW 7147   3.609   5.273   5.984
 2083SOL    HW1 7148   3.629   5.242   6.077
 2083SOL    HW2 7149   3.549   5.352   5.987
 2084SOL     OW 7150   0.132   2.597   3.256
 2084SOL    HW1 7151   0.167   2.680   3.212
 2084SOL    HW2 7152   0.143   2.605   3.355
 2085SOL     OW 7153   5.580   0.432   5.829
 2085SOL    HW1 7154   5.513   0.359   5.838
 2085SOL    HW2 7155   5.639   0.414   5.751
 2086SOL     OW 7156   3.016   5.024   0.656
 2086SOL    HW1 7157   2.943   4.965   0.623
 2086SOL    HW2 7158   3.056   4.983   0.739
 2087SOL     OW 7159   5.293   0.001   3.558
 2087SOL    HW1 7160   5.321   0.040   3.471
 2087SOL    HW2 7161   5.368   6.969   3.597
 2088SOL     OW 7162   3.409   0.072   0.595
 2088SOL    HW1 7163   3.325   0.019   0.601
 2088SOL    HW2 7164   3.388   0.167   0.573
 2089SOL     OW 7165   4.318   0.453   6.815
 2089SOL    HW1 7166   4.413   0.450   6.783
 2089SOL    HW2 7167   4.256   0.450   6.737
 2090SOL     OW 7168   3.824   3.509   4.803
 2090SOL    HW1 7169   3.825   3.587   4.740
 2090SOL    HW2 7170   3.877   3.434   4.763
 2091SOL     OW 7171   2.202   4.525   1.260
 2091SOL    HW1 7172   2.105   4.547   1.259
 2091SOL    HW2 7173   2.219   4.444   1.205
 2092SOL     OW 7174   6.540   6.685   0.903
 2092SOL    HW1 7175   6.469   6.645   0.960
 2092SOL    HW2 7176   6.624   6.632   0.912
 2093SOL     OW 7177   0.940   2.783   1.655
 2093SOL    HW1 7178   0.927   2.776   1.754
 2093SOL    HW2 7179   1.009   2.716   1.627
 2094SOL     OW 7180   5.784   0.108   2.071
 2094SOL    HW1 7181   5.709   0.167   2.100
 2094SOL    HW2 7182   5.858   0.113   2.137
 2095SOL     OW 7183   5.800   5.401   5.002
 2095SOL    HW1 7184   5.897   5.417   4.982
 2095SOL    HW2 7185   5.788   5.395   5.101
 2096SOL     OW 7186   4.894   3.981   2.769
 2096SOL    HW1 7187   4.994   3.979   2.770
 2096SOL    HW2 7188   4.862   3.996   2.675
 2097SOL     OW 7189   0.140   2.351   6.829
 2097SOL    HW1 7190   0.061   2.413   6.828
 2097SOL    HW2 7191   0.222   2.403   6.855
 2098SOL     OW 7192   4.808   0.125   4.203
 2098SOL    HW1 7193   4.814   0.117   4.103
 2098SOL    HW2 7194   4.754   0.205   4.227
 2099SOL     OW 7195   3.174   1.649   4.400
 2099SOL    HW1 7196   3.236   1.665   4.476
 2099SOL    HW2 7197   3.096   1.595   4.431
 2100SOL     OW 7198   4.460   4.098   6.427
 2100SOL    HW1 7199   4.443   4.078   6.330
 2100SOL    HW2 7200   4.553   4.132   6.438
 2101SOL     OW 7201   0.509   0.032   3.802
 2101SOL    HW1 7202   0.440   0.075   3.745
 2101SOL    HW2 7203   0.497   6.953   3.801
 2102SOL     OW 7204   0.049   4.903   2.802
 2102SOL    HW1 7205   7.015   4.964   2.744
 2102SOL    HW2 7206   0.015   4.809   2.791
 2103SOL     OW 7207   3.515   3.769   6.166
 2103SOL    HW1 7208   3.564   3.855   6.179
 2103SOL    HW2 7209   3.472   3.768   6.076
 2104SOL     OW 7210   1.446   3.677   5.574
 2104SOL    HW1 7211   1.432   3.671   5.476
 2104SOL    HW2 7212   1.544   3.670   5.594
 2105SOL     OW 7213   5.713   5.787   1.539
 2105SOL    HW1 7214   5.739   5.860   1.603
 2105SOL    HW2 7215   5.795   5.744   1.502
 2106SOL     OW 7216   4.766   5.604   6.797
 2106SOL    HW1 7217   4.859   5.572   6.782
 2106SOL    HW2 7218   4.725   5.553   6.873
 2107SOL     OW 7219   4.303   4.370   6.070
 2107SOL    HW1 7220   4.361   4.342   5.994
 2107SOL    HW2 7221   4.360   4.394   6.148
 2108SOL     OW 7222   5.813   5.086   6.071
 2108SOL    HW1 7223   5.756   5.007   6.092
 2108SOL    HW2 7224   5.903   5.076   6.115
 2109SOL     OW 7225   5.835   6.715   2.686
 2109SOL    HW1 7226   5.797   6.693   2.596
 2109SOL    HW2 7227   5.858   6.630   2.734
 2110SOL     OW 7228   2.573   4.438   6.182
 2110SOL    HW1 7229   2.476   4.440   6.207
 2110SOL    HW2 7230   2.628   4.467   6.260
 2111SOL     OW 7231   1.401   2.939   0.227
 2111SOL    HW1 7232   1.315   2.945   0.278
 2111SOL    HW2 7233   1.470   2.996   0.271
 2112SOL     OW 7234   4.814   2.950   1.458
 2112SOL    HW1 7235   4.838   2.856   1.483
 2112SOL    HW2 7236   4.760   2.992   1.530
 2113SOL     OW 7237   0.523   0.465   2.768
 2113SOL    HW1 7238   0.491   0.540   2.709
 2113SOL    HW2 7239   0.444   0.420   2.809
 2114SOL     OW 7240   2.286   3.851   6.799
 2114SOL    HW1 7241   2.226   3.786   6.846
 2114SOL    HW2 7242   2.381   3.833   6.823
 2115SOL     OW 7243   2.242   4.586   2.278
 2115SOL    HW1 7244   2.309   4.535   2.333
 2115SOL    HW2 7245   2.286   4.619   2.194
 2116SOL     OW 7246   0.242   4.152   3.247
 2116SOL    HW1 7247   0.214   4.057   3.235
 2116SOL    HW2 7248   0.222   4.181   3.341
 2117SOL     OW 7249   0.276   4.846   0.977
 2117SOL    HW1 7250   0.298   4.775   0.909
 2117SOL    HW2 7251   0.218   4.806   1.048
 2118SOL     OW 7252   0.191   4.077   2.104
 2118SOL    HW1 7253   0.269   4.063   2.165
 2118SOL    HW2 7254   0.157   3.988   2.072
 2119SOL     OW 7255   2.475   6.078   1.373
 2119SOL    HW1 7256   2.567   6.076   1.412
 2119SOL    HW2 7257   2.434   5.987   1.380
 2120SOL     OW 7258   6.603   4.770   2.295
 2120SOL    HW1 7259   6.539   4.844   2.313
 2120SOL    HW2 7260   6.631   4.728   2.381
 2121SOL     OW 7261   0.291   5.704   4.798
 2121SOL    HW1 7262   0.359   5.754   4.744
 2121SOL    HW2 7263   0.218   5.767   4.824
 2122SOL     OW 7264   4.588   4.458   4.848
 2122SOL    HW1 7265   4.611   4.361   4.844
 2122SOL    HW2 7266   4.494   4.468   4.880
 2123SOL     OW 7267   6.081   4.519   3.155
 2123SOL    HW1 7268   6.169   4.561   3.179
 2123SOL    HW2 7269   6.008   4.586   3.167
 2124SOL     OW 7270   1.907   2.141   0.727
 2124SOL    HW1 7271   1.810   2.115   0.730
 2124SOL    HW2 7272   1.914   2.241   0.730
 2125SOL     OW 7273   3.094   0.100   0.566
 2125SOL    HW1 7274   3.120   0.063   0.477
 2125SOL    HW2 7275   3.003   0.066   0.592
 2126SOL     OW 7276   2.737   0.752   0.074
 2126SOL    HW1 7277   2.727   0.656   0.102
 2126SOL    HW2 7278   2.768   0.756   7.000
 2127SOL     OW 7279   5.615   3.287   4.622
 2127SOL    HW1 7280   5.656   3.360   4.677
 2127SOL    HW2 7281   5.675   3.207   4.623
 2128SOL     OW 7282   0.541   5.043   4.111
 2128SOL    HW1 7283   0.605   4.989   4.057
 2128SOL    HW2 7284   0.476   5.088   4.050
 2129SOL     OW 7285   3.985   1.665   5.595
 2129SOL    HW1 7286   3.902   1.612   5.582
 2129SOL    HW2 7287   3.962   1.762   5.602
 2130SOL     OW 7288   4.285   5.990   2.309
 2130SOL    HW1 7289   4.343   6.069   2.289
 2130SOL    HW2 7290   4.291   5.924   2.235
 2131SOL     OW 7291   6.876   1.501   0.425
 2131SOL    HW1 7292   6.896   1.410   0.461
 2131SOL    HW2 7293   6.887   1.501   0.326
 2132SOL     OW 7294   1.797   3.271   0.699
 2132SOL    HW1 7295   1.765   3.203   0.765
 2132SOL    HW2 7296   1.871   3.324   0.740
 2133SOL     OW 7297   2.653   2.616   6.217
 2133SOL    HW1 7298   2.607   2.677   6.154
 2133SOL    HW2 7299   2.718   2.558   6.167
 2134SOL     OW 7300   1.126   0.270   0.336
 2134SOL    HW1 7301   1.102   0.352   0.284
 2134SOL    HW2 7302   1.223   0.272   0.358
 2135SOL     OW 7303   0.481   3.792   4.219
 2135SOL    HW1 7304   0.521   3.757   4.134
 2135SOL    HW2 7305   0.424   3.721   4.261
 2136SOL     OW 7306   2.322   5.525   1.741
 2136SOL    HW1 7307   2.311   5.520   1.841
 2136SOL    HW2 7308   2.417   5.506   1.717
 2137SOL     OW 7309   2.510   5.970   3.876
 2137SOL    HW1 7310   2.466   5.883   3.854
 2137SOL    HW2 7311   2.483   5.998   3.968
 2138SOL     OW 7312   5.445   1.955   2.775
 2138SOL    HW1 7313   5.461   2.050   2.802
 2138SOL    HW2 7314   5.532   1.906   2.773
 2139SOL     OW 7315   2.632   1.235   5.504
 2139SOL    HW1 7316   2.552   1.190   5.465
 2139SOL    HW2 7317   2.642   1.207   5.600
 2140SOL     OW 7318   2.201   1.483   5.227
 2140SOL    HW1 7319   2.109   1.457   5.198
 2140SOL    HW2 7320   2.208   1.475   5.326
 2141SOL     OW 7321   6.350   4.447   2.593
 2141SOL    HW1 7322   6.280   4.516   2.612
 2141SOL    HW2 7323   6.365   4.441   2.494
 2142SOL     OW 7324   2.093   1.347   3.200
 2142SOL    HW1 7325   2.031   1.419   3.232
 2142SOL    HW2 7326   2.051   1.257   3.219
 2143SOL     OW 7327   1.609   4.555   0.516
 2143SOL    HW1 7328   1.562   4.596   0.438
 2143SOL    HW2 7329   1.629   4.625   0.584
 2144SOL     OW 7330   6.333   5.979   4.247
 2144SOL    HW1 7331   6.281   5.899   4.279
 2144SOL    HW2 7332   6.376   5.959   4.159
 2145SOL     OW 7333   4.268   6.999   3.701
 2145SOL    HW1 7334   4.301   6.947   3.622
 2145SOL    HW2 7335   4.246   0.071   3.673
 2146SOL     OW 7336   1.959   3.220   0.984
 2146SOL    HW1 7337   2.000   3.142   0.937
 2146SOL    HW2 7338   1.898   3.187   1.056
 2147SOL     OW 7339   5.798   1.277   5.121
 2147SOL    HW1 7340   5.712   1.307   5.163
 2147SOL    HW2 7341   5.779   1.217   5.044
 2148SOL     OW 7342   0.485   2.948   6.808
 2148SOL    HW1 7343   0.434   3.031   6.831
 2148SOL    HW2 7344   0.521   2.907   6.892
 2149SOL     OW 7345   0.461   0.411   6.839
 2149SOL    HW1 7346   0.393   0.400   6.767
 2149SOL    HW2 7347   0.517   0.492   6.821
 2150SOL     OW 7348   2.312   3.231   1.332
 2150SOL    HW1 7349   2.313   3.286   1.416
 2150SOL    HW2 7350   2.244   3.268   1.269
 2151SOL     OW 7351   1.169   5.599   0.256
 2151SOL    HW1 7352   1.263   5.585   0.287
 2151SOL    HW2 7353   1.134   5.514   0.216
 2152SOL     OW 7354   4.012   5.808   3.380
 2152SOL    HW1 7355   3.983   5.874   3.450
 2152SOL    HW2 7356   4.110   5.792   3.387
 2153SOL     OW 7357   4.877   1.309   4.047
 2153SOL    HW1 7358   4.966   1.347   4.022
 2153SOL    HW2 7359   4.814   1.317   3.969
 2154SOL     OW 7360   2.968   6.937   3.258
 2154SOL    HW1 7361   2.921   7.007   3.204
 2154SOL    HW2 7362   3.030   6.885   3.198
 2155SOL     OW 7363   4.879   6.851   1.236
 2155SOL    HW1 7364   4.953   6.902   1.193
 2155SOL    HW2 7365   4.910   6.816   1.324
 2156SOL     OW 7366   6.084   1.647   4.010
 2156SOL    HW1 7367   6.016   1.672   3.941
 2156SOL    HW2 7368   6.066   1.554   4.043
 2157SOL     OW 7369   3.642   5.396   3.834
 2157SOL    HW1 7370   3.596   5.347   3.760
 2157SOL    HW2 7371   3.603   5.488   3.842
 2158SOL     OW 7372   3.402   0.544   0.118
 2158SOL    HW1 7373   3.473   0.543   0.188
 2158SOL    HW2 7374   3.317   0.578   0.157
 2159SOL     OW 7375   1.544   0.547   5.592
 2159SOL    HW1 7376   1.464   0.598   5.620
 2159SOL    HW2 7377   1.626   0.584   5.637
 2160SOL     OW 7378   5.427   6.335   0.388
 2160SOL    HW1 7379   5.479   6.250   0.376
 2160SOL    HW2 7380   5.489   6.413   0.382
 2161SOL     OW 7381   1.628   2.202   2.432
 2161SOL    HW1 7382   1.559   2.238   2.369
 2161SOL    HW2 7383   1.644   2.267   2.506
 2162SOL     OW 7384   1.193   6.964   2.295
 2162SOL    HW1 7385   1.165   6.953   2.200
 2162SOL    HW2 7386   1.209   0.041   2.314
 2163SOL     OW 7387   1.722   2.983   2.240
 2163SOL    HW1 7388   1.764   2.894   2.222
 2163SOL    HW2 7389   1.675   3.015   2.158
 2164SOL     OW 7390   1.811   2.599   2.442
 2164SOL    HW1 7391   1.904   2.615   2.477
 2164SOL    HW2 7392   1.813   2.601   2.342
 2165SOL     OW 7393   0.005   1.669   4.001
 2165SOL    HW1 7394   0.020   1.571   4.009
 2165SOL    HW2 7395   0.035   1.715   4.085
 2166SOL     OW 7396   6.718   4.042   3.028
 2166SOL    HW1 7397   6.759   4.007   2.944
 2166SOL    HW2 7398   6.663   3.970   3.071
 2167SOL     OW 7399   2.388   2.119   3.784
 2167SOL    HW1 7400   2.441   2.123   3.869
 2167SOL    HW2 7401   2.294   2.150   3.802
 2168SOL     OW 7402   1.830   1.431   3.228
 2168SOL    HW1 7403   1.830   1.481   3.141
 2168SOL    HW2 7404   1.736   1.406   3.251
 2169SOL     OW 7405   0.315   0.627   1.710
 2169SOL    HW1 7406   0.303   0.721   1.743
 2169SOL    HW2 7407   0.250   0.567   1.755
 2170SOL     OW 7408   0.923   4.344   5.461
 2170SOL    HW1 7409   0.938   4.258   5.509
 2170SOL    HW2 7410   0.840   4.387   5.496
 2171SOL     OW 7411   0.648   5.218   0.987
 2171SOL    HW1 7412   0.572   5.182   1.039
 2171SOL    HW2 7413   0.639   5.191   0.891
 2172SOL     OW 7414   1.004   1.607   4.746
 2172SOL    HW1 7415   0.925   1.663   4.771
 2172SOL    HW2 7416   1.084   1.638   4.797
 2173SOL     OW 7417   5.516   0.435   4.893
 2173SOL    HW1 7418   5.525   0.456   4.990
 2173SOL    HW2 7419   5.443   0.490   4.854
 2174SOL     OW 7420   0.036   6.663   5.086
 2174SOL    HW1 7421   6.992   6.709   5.146
 2174SOL    HW2 7422   0.105   6.616   5.141
 2175SOL     OW 7423   3.161   3.809   5.248
 2175SOL    HW1 7424   3.069   3.784   5.279
 2175SOL    HW2 7425   3.184   3.900   5.281
 2176SOL     OW 7426   5.441   2.282   1.550
 2176SOL    HW1 7427   5.512   2.212   1.550
 2176SOL    HW2 7428   5.415   2.302   1.455
 2177SOL     OW 7429   0.595   0.468   3.757
 2177SOL    HW1 7430   0.583   0.405   3.680
 2177SOL    HW2 7431   0.661   0.538   3.733
 2178SOL     OW 7432   0.951   2.197   2.377
 2178SOL    HW1 7433   0.919   2.259   2.448
 2178SOL    HW2 7434   0.927   2.103   2.401
 2179SOL     OW 7435   2.035   4.135   5.882
 2179SOL    HW1 7436   2.037   4.235   5.890
 2179SOL    HW2 7437   2.106   4.096   5.942
 2180SOL     OW 7438   0.769   5.948   2.155
 2180SOL    HW1 7439   0.795   6.027   2.098
 2180SOL    HW2 7440   0.809   5.865   2.116
 2181SOL     OW 7441   4.062   4.901   4.913
 2181SOL    HW1 7442   4.129   4.950   4.856
 2181SOL    HW2 7443   4.106   4.873   4.998
 2182SOL     OW 7444   0.122   5.595   2.655
 2182SOL    HW1 7445   0.157   5.611   2.562
 2182SOL    HW2 7446   0.192   5.549   2.709
 2183SOL     OW 7447   3.740   2.843   6.998
 2183SOL    HW1 7448   3.648   2.809   6.976
 2183SOL    HW2 7449   3.795   2.846   6.915
 2184SOL     OW 7450   6.423   0.857   6.612
 2184SOL    HW1 7451   6.463   0.914   6.684
 2184SOL    HW2 7452   6.367   0.785   6.654
 2185SOL     OW 7453   0.800   0.877   0.003
 2185SOL    HW1 7454   0.830   0.936   6.949
 2185SOL    HW2 7455   0.757   0.795   6.986
 2186SOL     OW 7456   0.121   5.376   5.367
 2186SOL    HW1 7457   0.035   5.342   5.329
 2186SOL    HW2 7458   0.156   5.450   5.309
 2187SOL     OW 7459   0.815   5.333   3.153
 2187SOL    HW1 7460   0.885   5.404   3.157
 2187SOL    HW2 7461   0.843   5.262   3.088
 2188SOL     OW 7462   2.150   0.443   0.973
 2188SOL    HW1 7463   2.181   0.535   0.994
 2188SOL    HW2 7464   2.102   0.405   1.052
 2189SOL     OW 7465   2.914   1.467   1.331
 2189SOL    HW1 7466   2.882   1.417   1.412
 2189SOL    HW2 7467   3.011   1.490   1.343
 2190SOL     OW 7468   6.218   4.153   2.607
 2190SOL    HW1 7469   6.275   4.232   2.626
 2190SOL    HW2 7470   6.238   4.118   2.515
 2191SOL     OW 7471   2.797   0.500   0.164
 2191SOL    HW1 7472   2.863   0.437   0.123
 2191SOL    HW2 7473   2.710   0.453   0.178
 2192SOL     OW 7474   4.575   1.328   1.216
 2192SOL    HW1 7475   4.625   1.252   1.258
 2192SOL    HW2 7476   4.492   1.292   1.173
 2193SOL     OW 7477   1.175   6.677   6.744
 2193SOL    HW1 7478   1.186   6.680   6.843
 2193SOL    HW2 7479   1.107   6.608   6.720
 2194SOL     OW 7480   0.802   4.112   6.248
 2194SOL    HW1 7481   0.722   4.161   6.214
 2194SOL    HW2 7482   0.772   4.029   6.295
 2195SOL     OW 7483   0.582   4.339   6.408
 2195SOL    HW1 7484   0.483   4.354   6.413
 2195SOL    HW2 7485   0.623   4.357   6.498
 2196SOL     OW 7486   2.863   6.253   5.724
 2196SOL    HW1 7487   2.932   6.183   5.741
 2196SOL    HW2 7488   2.901   6.343   5.747
 2197SOL     OW 7489   2.745   5.279   5.578
 2197SOL    HW1 7490   2.761   5.181   5.575
 2197SOL    HW2 7491   2.711   5.304   5.669
 2198SOL     OW 7492   0.349   0.719   6.508
 2198SOL    HW1 7493   0.282   0.665   6.558
 2198SOL    HW2 7494   0.354   0.811   6.547
 2199SOL     OW 7495   4.089   6.724   4.147
 2199SOL    HW1 7496   4.060   6.637   4.107
 2199SOL    HW2 7497   4.023   6.751   4.218
 2200SOL     OW 7498   2.691   1.532   4.389
 2200SOL    HW1 7499   2.717   1.442   4.354
 2200SOL    HW2 7500   2.675   1.595   4.313
 2201SOL     OW 7501   6.142   4.353   3.925
 2201SOL    HW1 7502   6.119   4.270   3.976
 2201SOL    HW2 7503   6.184   4.328   3.838
 2202SOL     OW 7504   3.866   5.802   2.044
 2202SOL    HW1 7505   3.882   5.901   2.045
 2202SOL    HW2 7506   3.791   5.779   2.106
 2203SOL     OW 7507   2.144   3.349   1.162
 2203SOL    HW1 7508   2.080   3.313   1.095
 2203SOL    HW2 7509   2.098   3.416   1.220
 2204SOL     OW 7510   4.663   3.150   1.021
 2204SOL    HW1 7511   4.710   3.067   1.050
 2204SOL    HW2 7512   4.622   3.195   1.100
 2205SOL     OW 7513   0.660   4.940   0.339
 2205SOL    HW1 7514   0.644   4.879   0.417
 2205SOL    HW2 7515   0.681   5.032   0.372
 2206SOL     OW 7516   2.798   2.431   6.500
 2206SOL    HW1 7517   2.828   2.388   6.585
 2206SOL    HW2 7518   2.699   2.447   6.505
 2207SOL     OW 7519   4.835   6.068   0.340
 2207SOL    HW1 7520   4.797   6.046   0.250
 2207SOL    HW2 7521   4.767   6.118   0.394
 2208SOL     OW 7522   0.810   6.046   4.182
 2208SOL    HW1 7523   0.882   5.977   4.172
 2208SOL    HW2 7524   0.763   6.058   4.095
 2209SOL     OW 7525   3.266   5.464   4.708
 2209SOL    HW1 7526   3.295   5.420   4.792
 2209SOL    HW2 7527   3.166   5.471   4.706
 2210SOL     OW 7528   4.795   6.388   1.034
 2210SOL    HW1 7529   4.758   6.379   1.126
 2210SOL    HW2 7530   4.733   6.443   0.978
 2211SOL     OW 7531   6.555   1.299   1.010
 2211SOL    HW1 7532   6.577   1.228   1.076
 2211SOL    HW2 7533   6.553   1.389   1.055
 2212SOL     OW 7534   2.448   6.056   6.547
 2212SOL    HW1 7535   2.489   6.141   6.516
 2212SOL    HW2 7536   2.385   6.075   6.622
 2213SOL     OW 7537   3.217   2.152   4.200
 2213SOL    HW1 7538   3.135   2.191   4.242
 2213SOL    HW2 7539   3.284   2.131   4.271
 2214SOL     OW 7540   3.874   3.214   6.378
 2214SOL    HW1 7541   3.815   3.139   6.348
 2214SOL    HW2 7542   3.827   3.301   6.361
 2215SOL     OW 7543   4.543   0.216   6.939
 2215SOL    HW1 7544   4.568   0.269   6.859
 2215SOL    HW2 7545   4.454   0.247   6.973
 2216SOL     OW 7546   0.699   6.810   6.248
 2216SOL    HW1 7547   0.610   6.802   6.203
 2216SOL    HW2 7548   0.688   6.853   6.337
 2217SOL     OW 7549   4.085   0.495   2.733
 2217SOL    HW1 7550   4.055   0.409   2.774
 2217SOL    HW2 7551   4.097   0.563   2.806
 2218SOL     OW 7552   0.425   5.324   5.701
 2218SOL    HW1 7553   0.451   5.266   5.778
 2218SOL    HW2 7554   0.346   5.284   5.655
 2219SOL     OW 7555   5.379   1.294   0.646
 2219SOL    HW1 7556   5.428   1.380   0.663
 2219SOL    HW2 7557   5.285   1.315   0.621
 2220SOL     OW 7558   0.515   6.130   5.683
 2220SOL    HW1 7559   0.480   6.221   5.662
 2220SOL    HW2 7560   0.526   6.119   5.781
 2221SOL     OW 7561   6.833   1.432   4.108
 2221SOL    HW1 7562   6.803   1.438   4.013
 2221SOL    HW2 7563   6.789   1.505   4.161
 2222SOL     OW 7564   4.529   6.173   1.314
 2222SOL    HW1 7565   4.497   6.097   1.257
 2222SOL    HW2 7566   4.476   6.175   1.399
 2223SOL     OW 7567   6.676   6.680   5.688
 2223SOL    HW1 7568   6.582   6.714   5.695
 2223SOL    HW2 7569   6.724   6.697   5.774
 2224SOL     OW 7570   5.633   3.913   0.339
 2224SOL    HW1 7571   5.729   3.918   0.368
 2224SOL    HW2 7572   5.582   3.987   0.382
 2225SOL     OW 7573   0.556   6.831   3.154
 2225SOL    HW1 7574   0.650   6.821   3.120
 2225SOL    HW2 7575   0.554   6.902   3.225
 2226SOL     OW 7576   2.403   4.764   0.837
 2226SOL    HW1 7577   2.314   4.810   0.837
 2226SOL    HW2 7578   2.475   4.832   0.842
 2227SOL     OW 7579   4.394   2.399   1.981
 2227SOL    HW1 7580   4.442   2.324   2.027
 2227SOL    HW2 7581   4.452   2.480   1.981
 2228SOL     OW 7582   4.877   5.222   0.133
 2228SOL    HW1 7583   4.890   5.292   0.062
 2228SOL    HW2 7584   4.966   5.193   0.167
 2229SOL     OW 7585   3.686   3.284   4.656
 2229SOL    HW1 7586   3.737   3.320   4.579
 2229SOL    HW2 7587   3.592   3.320   4.654
 2230SOL     OW 7588   5.314   6.451   0.609
 2230SOL    HW1 7589   5.352   6.409   0.527
 2230SOL    HW2 7590   5.354   6.542   0.621
 2231SOL     OW 7591   1.131   0.521   0.229
 2231SOL    HW1 7592   1.124   0.594   0.297
 2231SOL    HW2 7593   1.183   0.554   0.150
 2232SOL     OW 7594   1.488   0.285   5.663
 2232SOL    HW1 7595   1.404   0.294   5.716
 2232SOL    HW2 7596   1.527   0.375   5.645
 2233SOL     OW 7597   3.232   3.303   1.125
 2233SOL    HW1 7598   3.283   3.230   1.079
 2233SOL    HW2 7599   3.290   3.346   1.195
 2234SOL     OW 7600   3.942   1.805   0.841
 2234SOL    HW1 7601   3.910   1.827   0.749
 2234SOL    HW2 7602   4.008   1.874   0.871
 2235SOL     OW 7603   2.383   0.834   2.289
 2235SOL    HW1 7604   2.367   0.932   2.300
 2235SOL    HW2 7605   2.482   0.816   2.290
 2236SOL     OW 7606   2.181   4.224   5.361
 2236SOL    HW1 7607   2.091   4.219   5.404
 2236SOL    HW2 7608   2.239   4.150   5.395
 2237SOL     OW 7609   6.131   4.898   5.031
 2237SOL    HW1 7610   6.065   4.907   4.956
 2237SOL    HW2 7611   6.128   4.805   5.067
 2238SOL     OW 7612   5.236   4.194   2.527
 2238SOL    HW1 7613   5.169   4.121   2.530
 2238SOL    HW2 7614   5.245   4.228   2.433
 2239SOL     OW 7615   3.559   6.982   3.848
 2239SOL    HW1 7616   3.557   7.006   3.946
 2239SOL    HW2 7617   3.647   7.010   3.810
 2240SOL     OW 7618   4.574   5.410   3.276
 2240SOL    HW1 7619   4.486   5.411   3.229
 2240SOL    HW2 7620   4.645   5.449   3.217
 2241SOL     OW 7621   0.693   6.505   2.019
 2241SOL    HW1 7622   0.778   6.553   1.998
 2241SOL    HW2 7623   0.664   6.528   2.112
 2242SOL     OW 7624   4.987   3.114   3.249
 2242SOL    HW1 7625   4.930   3.051   3.198
 2242SOL    HW2 7626   5.023   3.067   3.330
 2243SOL     OW 7627   1.943   6.634   0.606
 2243SOL    HW1 7628   1.857   6.680   0.585
 2243SOL    HW2 7629   1.989   6.610   0.521
 2244SOL     OW 7630   2.451   0.039   0.938
 2244SOL    HW1 7631   2.418   0.129   0.965
 2244SOL    HW2 7632   2.548   0.045   0.913
 2245SOL     OW 7633   0.554   0.921   0.260
 2245SOL    HW1 7634   0.568   0.831   0.300
 2245SOL    HW2 7635   0.511   0.912   0.170
 2246SOL     OW 7636   2.444   1.049   5.416
 2246SOL    HW1 7637   2.424   1.038   5.514
 2246SOL    HW2 7638   2.411   0.969   5.367
 2247SOL     OW 7639   3.227   4.070   2.788
 2247SOL    HW1 7640   3.129   4.060   2.768
 2247SOL    HW2 7641   3.279   4.004   2.734
 2248SOL     OW 7642   5.693   4.117   5.304
 2248SOL    HW1 7643   5.688   4.017   5.303
 2248SOL    HW2 7644   5.603   4.155   5.284
 2249SOL     OW 7645   2.368   6.711   3.951
 2249SOL    HW1 7646   2.434   6.754   3.889
 2249SOL    HW2 7647   2.352   6.617   3.924
 2250SOL     OW 7648   4.047   4.317   6.126
 2250SOL    HW1 7649   4.131   4.294   6.078
 2250SOL    HW2 7650   3.973   4.332   6.060
 2251SOL     OW 7651   5.300   6.800   6.094
 2251SOL    HW1 7652   5.350   6.800   6.007
 2251SOL    HW2 7653   5.203   6.783   6.076
 2252SOL     OW 7654   4.750   2.185   2.699
 2252SOL    HW1 7655   4.674   2.160   2.759
 2252SOL    HW2 7656   4.837   2.161   2.743
 2253SOL     OW 7657   0.618   3.831   0.573
 2253SOL    HW1 7658   0.586   3.835   0.479
 2253SOL    HW2 7659   0.647   3.922   0.602
 2254SOL     OW 7660   3.651   4.136   3.097
 2254SOL    HW1 7661   3.599   4.086   3.165
 2254SOL    HW2 7662   3.702   4.210   3.141
 2255SOL     OW 7663   2.863   4.170   5.529
 2255SOL    HW1 7664   2.903   4.105   5.593
 2255SOL    HW2 7665   2.859   4.129   5.437
 2256SOL     OW 7666   4.930   6.250   1.934
 2256SOL    HW1 7667   4.994   6.185   1.892
 2256SOL    HW2 7668   4.837   6.214   1.926
 2257SOL     OW 7669   7.015   1.683   4.684
 2257SOL    HW1 7670   6.977   1.645   4.768
 2257SOL    HW2 7671   0.085   1.722   4.702
 2258SOL     OW 7672   2.016   6.642   4.461
 2258SOL    HW1 7673   2.091   6.707   4.474
 2258SOL    HW2 7674   1.941   6.664   4.524
 2259SOL     OW 7675   6.745   2.629   4.878
 2259SOL    HW1 7676   6.828   2.648   4.826
 2259SOL    HW2 7677   6.677   2.700   4.859
 2260SOL     OW 7678   0.988   4.211   1.599
 2260SOL    HW1 7679   0.904   4.167   1.565
 2260SOL    HW2 7680   1.048   4.141   1.637
 2261SOL     OW 7681   5.603   3.650   0.230
 2261SOL    HW1 7682   5.558   3.726   0.277
 2261SOL    HW2 7683   5.620   3.576   0.295
 2262SOL     OW 7684   6.460   0.494   4.252
 2262SOL    HW1 7685   6.413   0.480   4.340
 2262SOL    HW2 7686   6.458   0.591   4.229
 2263SOL     OW 7687   1.369   4.439   0.361
 2263SOL    HW1 7688   1.403   4.508   0.425
 2263SOL    HW2 7689   1.378   4.473   0.267
 2264SOL     OW 7690   2.111   6.703   6.393
 2264SOL    HW1 7691   2.087   6.692   6.296
 2264SOL    HW2 7692   2.101   6.799   6.419
 2265SOL     OW 7693   0.798   6.456   3.753
 2265SOL    HW1 7694   0.832   6.530   3.696
 2265SOL    HW2 7695   0.867   6.429   3.819
 2266SOL     OW 7696   5.112   1.662   6.695
 2266SOL    HW1 7697   5.178   1.605   6.646
 2266SOL    HW2 7698   5.074   1.730   6.633
 2267SOL     OW 7699   4.724   2.832   4.948
 2267SOL    HW1 7700   4.801   2.783   4.909
 2267SOL    HW2 7701   4.749   2.928   4.962
 2268SOL     OW 7702   6.798   4.605   6.283
 2268SOL    HW1 7703   6.857   4.526   6.302
 2268SOL    HW2 7704   6.704   4.574   6.270
 2269SOL     OW 7705   1.674   3.150   5.298
 2269SOL    HW1 7706   1.729   3.218   5.348
 2269SOL    HW2 7707   1.577   3.165   5.319
 2270SOL     OW 7708   4.579   2.447   6.281
 2270SOL    HW1 7709   4.669   2.481   6.254
 2270SOL    HW2 7710   4.586   2.351   6.308
 2271SOL     OW 7711   5.976   4.505   6.020
 2271SOL    HW1 7712   6.052   4.559   5.983
 2271SOL    HW2 7713   6.011   4.420   6.059
 2272SOL     OW 7714   6.251   1.195   5.855
 2272SOL    HW1 7715   6.227   1.121   5.791
 2272SOL    HW2 7716   6.314   1.159   5.924
 2273SOL     OW 7717   2.119   2.203   2.184
 2273SOL    HW1 7718   2.064   2.220   2.266
 2273SOL    HW2 7719   2.068   2.233   2.103
 2274SOL     OW 7720   0.772   1.194   0.306
 2274SOL    HW1 7721   0.776   1.249   0.390
 2274SOL    HW2 7722   0.708   1.118   0.319
 2275SOL     OW 7723   5.870   4.918   2.721
 2275SOL    HW1 7724   5.813   4.913   2.803
 2275SOL    HW2 7725   5.959   4.877   2.740
 2276SOL     OW 7726   1.671   1.254   1.663
 2276SOL    HW1 7727   1.708   1.254   1.756
 2276SOL    HW2 7728   1.576   1.284   1.664
 2277SOL     OW 7729   3.237   4.119   3.534
 2277SOL    HW1 7730   3.284   4.031   3.524
 2277SOL    HW2 7731   3.213   4.155   3.444
 2278SOL     OW 7732   0.940   2.103   3.698
 2278SOL    HW1 7733   0.964   2.135   3.607
 2278SOL    HW2 7734   0.870   2.164   3.737
 2279SOL     OW 7735   0.367   5.950   6.525
 2279SOL    HW1 7736   0.440   5.899   6.479
 2279SOL    HW2 7737   0.321   6.009   6.459
 2280SOL     OW 7738   5.258   1.228   5.174
 2280SOL    HW1 7739   5.293   1.262   5.087
 2280SOL    HW2 7740   5.320   1.158   5.210
 2281SOL     OW 7741   4.796   6.566   2.506
 2281SOL    HW1 7742   4.759   6.582   2.598
 2281SOL    HW2 7743   4.722   6.570   2.439
 2282SOL     OW 7744   4.491   5.379   5.754
 2282SOL    HW1 7745   4.411   5.430   5.787
 2282SOL    HW2 7746   4.493   5.289   5.796
 2283SOL     OW 7747   1.457   0.594   3.318
 2283SOL    HW1 7748   1.518   0.545   3.256
 2283SOL    HW2 7749   1.374   0.541   3.334
 2284SOL     OW 7750   1.204   3.313   6.301
 2284SOL    HW1 7751   1.209   3.215   6.322
 2284SOL    HW2 7752   1.194   3.364   6.386
 2285SOL     OW 7753   1.005   3.890   0.169
 2285SOL    HW1 7754   1.011   3.954   0.092
 2285SOL    HW2 7755   1.013   3.940   0.255
 2286SOL     OW 7756   4.941   6.597   3.473
 2286SOL    HW1 7757   5.038   6.621   3.475
 2286SOL    HW2 7758   4.927   6.512   3.522
 2287SOL     OW 7759   2.345   1.021   3.264
 2287SOL    HW1 7760   2.267   0.958   3.268
 2287SOL    HW2 7761   2.323   1.105   3.315
 2288SOL     OW 7762   0.467   5.150   3.412
 2288SOL    HW1 7763   0.430   5.069   3.367
 2288SOL    HW2 7764   0.480   5.223   3.344
 2289SOL     OW 7765   0.885   5.733   2.022
 2289SOL    HW1 7766   0.973   5.779   2.034
 2289SOL    HW2 7767   0.899   5.648   1.971
 2290SOL     OW 7768   0.833   4.962   1.329
 2290SOL    HW1 7769   0.780   4.900   1.387
 2290SOL    HW2 7770   0.804   4.952   1.234
 2291SOL     OW 7771   3.043   1.638   5.729
 2291SOL    HW1 7772   2.946   1.650   5.749
 2291SOL    HW2 7773   3.088   1.727   5.727
 2292SOL     OW 7774   1.345   1.054   4.889
 2292SOL    HW1 7775   1.342   0.972   4.948
 2292SOL    HW2 7776   1.275   1.046   4.818
 2293SOL     OW 7777   5.597   5.394   1.743
 2293SOL    HW1 7778   5.564   5.483   1.710
 2293SOL    HW2 7779   5.534   5.359   1.812
 2294SOL     OW 7780   3.980   6.614   6.999
 2294SOL    HW1 7781   3.931   6.629   6.913
 2294SOL    HW2 7782   4.045   6.689   7.014
 2295SOL     OW 7783   0.313   2.259   1.454
 2295SOL    HW1 7784   0.312   2.194   1.378
 2295SOL    HW2 7785   0.404   2.263   1.494
 2296SOL     OW 7786   3.118   0.399   0.534
 2296SOL    HW1 7787   3.211   0.421   0.506
 2296SOL    HW2 7788   3.111   0.301   0.552
 2297SOL     OW 7789   4.358   4.280   5.502
 2297SOL    HW1 7790   4.390   4.210   5.566
 2297SOL    HW2 7791   4.293   4.239   5.438
 2298SOL     OW 7792   3.435   2.117   1.494
 2298SOL    HW1 7793   3.419   2.184   1.421
 2298SOL    HW2 7794   3.423   2.160   1.583
 2299SOL     OW 7795   5.159   6.378   0.037
 2299SOL    HW1 7796   5.088   6.316   0.005
 2299SOL    HW2 7797   5.137   6.409   0.130
 2300SOL     OW 7798   1.668   5.664   1.601
 2300SOL    HW1 7799   1.761   5.674   1.564
 2300SOL    HW2 7800   1.634   5.573   1.580
 2301SOL     OW 7801   3.256   3.297   3.075
 2301SOL    HW1 7802   3.191   3.227   3.046
 2301SOL    HW2 7803   3.221   3.387   3.052
 2302SOL     OW 7804   3.683   5.724   2.900
 2302SOL    HW1 7805   3.605   5.785   2.914
 2302SOL    HW2 7806   3.705   5.720   2.802
 2303SOL     OW 7807   1.373   3.046   4.532
 2303SOL    HW1 7808   1.372   3.108   4.454
 2303SOL    HW2 7809   1.467   3.034   4.565
 2304SOL     OW 7810   2.689   1.136   3.248
 2304SOL    HW1 7811   2.637   1.216   3.279
 2304SOL    HW2 7812   2.644   1.053   3.281
 2305SOL     OW 7813   3.815   5.743   2.650
 2305SOL    HW1 7814   3.823   5.731   2.551
 2305SOL    HW2 7815   3.844   5.835   2.675
 2306SOL     OW 7816   2.417   4.351   2.165
 2306SOL    HW1 7817   2.467   4.405   2.097
 2306SOL    HW2 7818   2.440   4.383   2.257
 2307SOL     OW 7819   0.797   2.944   3.051
 2307SOL    HW1 7820   0.823   2.855   3.089
 2307SOL    HW2 7821   0.786   3.010   3.126
 2308SOL     OW 7822   0.923   0.788   6.706
 2308SOL    HW1 7823   0.962   0.794   6.614
 2308SOL    HW2 7824   0.946   0.700   6.747
 2309SOL     OW 7825   3.178   5.137   0.421
 2309SOL    HW1 7826   3.133   5.203   0.360
 2309SOL    HW2 7827   3.116   5.115   0.496
 2310SOL     OW 7828   5.962   0.780   1.688
 2310SOL    HW1 7829   5.885   0.716   1.699
 2310SOL    HW2 7830   5.971   0.805   1.592
 2311SOL     OW 7831   2.832   0.179   2.497
 2311SOL    HW1 7832   2.747   0.148   2.539
 2311SOL    HW2 7833   2.842   0.137   2.406
 2312SOL     OW 7834   4.090   0.002   2.792
 2312SOL    HW1 7835   4.049   0.004   2.883
 2312SOL    HW2 7836   4.018   0.016   2.723
 2313SOL     OW 7837   4.782   4.123   2.271
 2313SOL    HW1 7838   4.805   4.034   2.231
 2313SOL    HW2 7839   4.717   4.171   2.213
 2314SOL     OW 7840   5.937   0.837   3.748
 2314SOL    HW1 7841   5.974   0.745   3.734
 2314SOL    HW2 7842   5.868   0.856   3.678
 2315SOL     OW 7843   4.771   4.001   5.915
 2315SOL    HW1 7844   4.710   4.002   5.994
 2315SOL    HW2 7845   4.824   4.086   5.911
 2316SOL     OW 7846   2.612   1.205   6.195
 2316SOL    HW1 7847   2.646   1.212   6.101
 2316SOL    HW2 7848   2.602   1.297   6.233
 2317SOL     OW 7849   6.314   6.494   3.986
 2317SOL    HW1 7850   6.276   6.456   3.902
 2317SOL    HW2 7851   6.362   6.579   3.966
 2318SOL     OW 7852   2.045   3.889   4.725
 2318SOL    HW1 7853   2.091   3.907   4.639
 2318SOL    HW2 7854   2.031   3.975   4.774
 2319SOL     OW 7855   2.447   5.361   4.382
 2319SOL    HW1 7856   2.436   5.365   4.482
 2319SOL    HW2 7857   2.403   5.441   4.341
 2320SOL     OW 7858   1.387   3.216   5.325
 2320SOL    HW1 7859   1.364   3.224   5.422
 2320SOL    HW2 7860   1.319   3.267   5.270
 2321SOL     OW 7861   2.534   4.779   6.080
 2321SOL    HW1 7862   2.495   4.753   6.168
 2321SOL    HW2 7863   2.522   4.705   6.014
 2322SOL     OW 7864   2.091   3.529   2.270
 2322SOL    HW1 7865   2.078   3.447   2.325
 2322SOL    HW2 7866   2.138   3.505   2.185
 2323SOL     OW 7867   2.839   5.055   1.725
 2323SOL    HW1 7868   2.753   5.057   1.674
 2323SOL    HW2 7869   2.856   4.962   1.757
 2324SOL     OW 7870   6.626   6.031   1.860
 2324SOL    HW1 7871   6.664   5.946   1.824
 2324SOL    HW2 7872   6.526   6.030   1.849
 2325SOL     OW 7873   6.801   5.050   1.444
 2325SOL    HW1 7874   6.753   5.042   1.532
 2325SOL    HW2 7875   6.736   5.079   1.374
 2326SOL     OW 7876   1.302   6.264   6.881
 2326SOL    HW1 7877   1.397   6.288   6.903
 2326SOL    HW2 7878   1.240   6.311   6.944
 2327SOL     OW 7879   6.951   0.146   2.691
 2327SOL    HW1 7880   6.895   0.096   2.757
 2327SOL    HW2 7881   7.009   0.081   2.642
 2328SOL     OW 7882   1.258   2.139   1.935
 2328SOL    HW1 7883   1.253   2.218   1.996
 2328SOL    HW2 7884   1.336   2.082   1.961
 2329SOL     OW 7885   0.991   4.024   3.864
 2329SOL    HW1 7886   1.010   4.016   3.962
 2329SOL    HW2 7887   0.904   3.980   3.844
 2330SOL     OW 7888   0.206   3.059   0.519
 2330SOL    HW1 7889   0.265   3.104   0.586
 2330SOL    HW2 7890   0.133   3.121   0.491
 2331SOL     OW 7891   3.646   5.227   0.210
 2331SOL    HW1 7892   3.547   5.215   0.202
 2331SOL    HW2 7893   3.665   5.315   0.255
 2332SOL     OW 7894   6.102   0.234   5.565
 2332SOL    HW1 7895   6.125   0.233   5.467
 2332SOL    HW2 7896   6.184   0.213   5.618
 2333SOL     OW 7897   6.830   4.698   3.060
 2333SOL    HW1 7898   6.758   4.657   3.116
 2333SOL    HW2 7899   6.919   4.667   3.094
 2334SOL     OW 7900   1.068   1.091   6.390
 2334SOL    HW1 7901   1.161   1.053   6.384
 2334SOL    HW2 7902   1.063   1.153   6.468
 2335SOL     OW 7903   6.438   1.247   3.709
 2335SOL    HW1 7904   6.470   1.207   3.794
 2335SOL    HW2 7905   6.411   1.342   3.725
 2336SOL     OW 7906   3.066   1.636   3.798
 2336SOL    HW1 7907   3.119   1.720   3.781
 2336SOL    HW2 7908   3.100   1.563   3.739
 2337SOL     OW 7909   4.027   1.245   1.648
 2337SOL    HW1 7910   4.105   1.272   1.704
 2337SOL    HW2 7911   4.059   1.216   1.558
 2338SOL     OW 7912   1.179   3.849   3.839
 2338SOL    HW1 7913   1.110   3.922   3.836
 2338SOL    HW2 7914   1.222   3.847   3.929
 2339SOL     OW 7915   3.275   3.290   3.411
 2339SOL    HW1 7916   3.354   3.285   3.349
 2339SOL    HW2 7917   3.269   3.206   3.464
 2340SOL     OW 7918   0.525   5.308   6.785
 2340SOL    HW1 7919   0.568   5.398   6.788
 2340SOL    HW2 7920   0.515   5.273   6.878
 2341SOL     OW 7921   2.623   5.084   2.953
 2341SOL    HW1 7922   2.607   4.992   2.987
 2341SOL    HW2 7923   2.622   5.083   2.853
 2342SOL     OW 7924   2.571   7.003   4.350
 2342SOL    HW1 7925   2.616   0.046   4.287
 2342SOL    HW2 7926   2.533   6.926   4.299
 2343SOL     OW 7927   2.211   6.468   2.939
 2343SOL    HW1 7928   2.116   6.443   2.958
 2343SOL    HW2 7929   2.239   6.430   2.851
 2344SOL     OW 7930   6.799   5.584   0.524
 2344SOL    HW1 7931   6.786   5.682   0.511
 2344SOL    HW2 7932   6.862   5.568   0.600
 2345SOL     OW 7933   2.503   5.727   4.220
 2345SOL    HW1 7934   2.479   5.733   4.123
 2345SOL    HW2 7935   2.588   5.674   4.229
 2346SOL     OW 7936   4.272   3.285   5.964
 2346SOL    HW1 7937   4.218   3.364   5.936
 2346SOL    HW2 7938   4.355   3.279   5.907
 2347SOL     OW 7939   1.175   2.027   1.495
 2347SOL    HW1 7940   1.193   1.968   1.574
 2347SOL    HW2 7941   1.170   1.971   1.413
 2348SOL     OW 7942   1.798   6.099   3.825
 2348SOL    HW1 7943   1.869   6.043   3.869
 2348SOL    HW2 7944   1.841   6.157   3.756
 2349SOL     OW 7945   0.861   4.453   6.302
 2349SOL    HW1 7946   0.903   4.430   6.215
 2349SOL    HW2 7947   0.784   4.392   6.319
 2350SOL     OW 7948   5.635   3.810   5.952
 2350SOL    HW1 7949   5.633   3.907   5.975
 2350SOL    HW2 7950   5.544   3.780   5.926
 2351SOL     OW 7951   3.399   5.035   3.589
 2351SOL    HW1 7952   3.402   4.977   3.671
 2351SOL    HW2 7953   3.472   5.008   3.527
 2352SOL     OW 7954   6.537   3.029   3.554
 2352SOL    HW1 7955   6.511   3.017   3.458
 2352SOL    HW2 7956   6.513   2.946   3.605
 2353SOL     OW 7957   4.174   4.844   5.159
 2353SOL    HW1 7958   4.272   4.862   5.172
 2353SOL    HW2 7959   4.151   4.758   5.205
 2354SOL     OW 7960   2.412   2.197   4.534
 2354SOL    HW1 7961   2.343   2.269   4.539
 2354SOL    HW2 7962   2.391   2.135   4.459
 2355SOL     OW 7963   2.221   6.029   5.494
 2355SOL    HW1 7964   2.139   6.029   5.438
 2355SOL    HW2 7965   2.209   5.968   5.572
 2356SOL     OW 7966   1.077   3.067   6.982
 2356SOL    HW1 7967   0.984   3.035   6.965
 2356SOL    HW2 7968   1.138   2.988   6.992
 2357SOL     OW 7969   3.844   1.423   1.694
 2357SOL    HW1 7970   3.888   1.482   1.761
 2357SOL    HW2 7971   3.894   1.337   1.686
 2358SOL     OW 7972   2.476   5.188   5.639
 2358SOL    HW1 7973   2.519   5.120   5.579
 2358SOL    HW2 7974   2.548   5.239   5.687
 2359SOL     OW 7975   0.398   0.419   5.422
 2359SOL    HW1 7976   0.483   0.382   5.384
 2359SOL    HW2 7977   0.403   0.420   5.522
 2360SOL     OW 7978   6.176   3.864   0.499
 2360SOL    HW1 7979   6.140   3.839   0.409
 2360SOL    HW2 7980   6.171   3.963   0.511
 2361SOL     OW 7981   3.128   1.285   6.404
 2361SOL    HW1 7982   3.209   1.320   6.357
 2361SOL    HW2 7983   3.063   1.360   6.417
 2362SOL     OW 7984   3.026   5.885   3.638
 2362SOL    HW1 7985   2.947   5.948   3.639
 2362SOL    HW2 7986   3.020   5.823   3.716
 2363SOL     OW 7987   3.922   1.823   3.843
 2363SOL    HW1 7988   3.884   1.832   3.751
 2363SOL    HW2 7989   3.858   1.861   3.910
 2364SOL     OW 7990   1.332   2.513   2.011
 2364SOL    HW1 7991   1.256   2.449   2.002
 2364SOL    HW2 7992   1.354   2.552   1.921
 2365SOL     OW 7993   6.518   1.903   6.840
 2365SOL    HW1 7994   6.426   1.882   6.809
 2365SOL    HW2 7995   6.560   1.970   6.779
 2366SOL     OW 7996   2.761   5.094   0.421
 2366SOL    HW1 7997   2.706   5.137   0.493
 2366SOL    HW2 7998   2.768   4.996   0.439
 2367SOL     OW 7999   2.003   3.590   0.264
 2367SOL    HW1 8000   2.030   3.543   0.180
 2367SOL    HW2 8001   1.912   3.628   0.253
 2368SOL     OW 8002   5.825   6.825   4.435
 2368SOL    HW1 8003   5.910   6.791   4.394
 2368SOL    HW2 8004   5.842   6.851   4.530
 2369SOL     OW 8005   1.904   0.008   4.209
 2369SOL    HW1 8006   1.946   6.949   4.165
 2369SOL    HW2 8007   1.941   0.019   4.301
 2370SOL     OW 8008   5.397   3.283   0.359
 2370SOL    HW1 8009   5.494   3.269   0.339
 2370SOL    HW2 8010   5.388   3.338   0.443
 2371SOL     OW 8011   2.262   6.642   1.961
 2371SOL    HW1 8012   2.218   6.671   2.046
 2371SOL    HW2 8013   2.362   6.642   1.974
 2372SOL     OW 8014   6.832   2.774   2.050
 2372SOL    HW1 8015   6.843   2.856   1.993
 2372SOL    HW2 8016   6.873   2.695   2.004
 2373SOL     OW 8017   1.707   3.709   5.668
 2373SOL    HW1 8018   1.745   3.617   5.669
 2373SOL    HW2 8019   1.744   3.762   5.744
 2374SOL     OW 8020   6.692   2.381   5.000
 2374SOL    HW1 8021   6.595   2.405   4.999
 2374SOL    HW2 8022   6.744   2.450   4.950
 2375SOL     OW 8023   3.387   5.447   5.920
 2375SOL    HW1 8024   3.400   5.516   5.849
 2375SOL    HW2 8025   3.322   5.378   5.888
 2376SOL     OW 8026   5.810   3.588   3.967
 2376SOL    HW1 8027   5.734   3.565   3.906
 2376SOL    HW2 8028   5.856   3.504   3.995
 2377SOL     OW 8029   3.570   3.774   3.730
 2377SOL    HW1 8030   3.633   3.709   3.773
 2377SOL    HW2 8031   3.568   3.859   3.784
 2378SOL     OW 8032   5.286   2.286   0.612
 2378SOL    HW1 8033   5.261   2.377   0.645
 2378SOL    HW2 8034   5.279   2.282   0.513
 2379SOL     OW 8035   6.914   0.941   0.438
 2379SOL    HW1 8036   6.829   0.976   0.476
 2379SOL    HW2 8037   6.991   0.971   0.494
 2380SOL     OW 8038   0.099   2.719   6.934
 2380SOL    HW1 8039   0.053   2.756   7.015
 2380SOL    HW2 8040   0.035   2.660   6.884
 2381SOL     OW 8041   2.336   6.226   3.104
 2381SOL    HW1 8042   2.430   6.232   3.137
 2381SOL    HW2 8043   2.301   6.319   3.089
 2382SOL     OW 8044   1.827   3.697   4.380
 2382SOL    HW1 8045   1.926   3.703   4.387
 2382SOL    HW2 8046   1.791   3.777   4.333
 2383SOL     OW 8047   6.566   6.941   1.179
 2383SOL    HW1 8048   6.620   6.857   1.182
 2383SOL    HW2 8049   6.617   7.015   1.224
 2384SOL     OW 8050   5.000   2.144   2.770
 2384SOL    HW1 8051   5.025   2.177   2.861
 2384SOL    HW2 8052   5.050   2.060   2.750
 2385SOL     OW 8053   6.735   0.509   6.853
 2385SOL    HW1 8054   6.706   0.415   6.873
 2385SOL    HW2 8055   6.812   0.533   6.912
 2386SOL     OW 8056   5.235   5.915   4.085
 2386SOL    HW1 8057   5.327   5.899   4.121
 2386SOL    HW2 8058   5.175   5.839   4.113
 2387SOL     OW 8059   2.261   1.130   4.284
 2387SOL    HW1 8060   2.171   1.090   4.302
 2387SOL    HW2 8061   2.254   1.230   4.288
 2388SOL     OW 8062   0.099   2.781   4.056
 2388SOL    HW1 8063   0.009   2.737   4.065
 2388SOL    HW2 8064   0.098   2.842   3.977
 2389SOL     OW 8065   4.311   4.614   3.425
 2389SOL    HW1 8066   4.215   4.630   3.401
 2389SOL    HW2 8067   4.316   4.562   3.510
 2390SOL     OW 8068   3.566   2.977   2.679
 2390SOL    HW1 8069   3.661   3.004   2.698
 2390SOL    HW2 8070   3.562   2.929   2.591
 2391SOL     OW 8071   5.826   4.662   6.231
 2391SOL    HW1 8072   5.776   4.576   6.240
 2391SOL    HW2 8073   5.900   4.651   6.164
 2392SOL     OW 8074   2.723   6.933   6.348
 2392SOL    HW1 8075   2.762   6.933   6.440
 2392SOL    HW2 8076   2.777   6.873   6.289
 2393SOL     OW 8077   5.042   4.197   6.180
 2393SOL    HW1 8078   5.095   4.278   6.154
 2393SOL    HW2 8079   4.970   4.223   6.245
 2394SOL     OW 8080   0.205   3.707   4.345
 2394SOL    HW1 8081   0.139   3.748   4.409
 2394SOL    HW2 8082   0.161   3.696   4.256
 2395SOL     OW 8083   4.906   0.018   5.776
 2395SOL    HW1 8084   4.835   0.082   5.747
 2395SOL    HW2 8085   4.881   6.999   5.864
 2396SOL     OW 8086   3.781   5.095   1.081
 2396SOL    HW1 8087   3.731   5.011   1.104
 2396SOL    HW2 8088   3.877   5.072   1.066
 2397SOL     OW 8089   0.446   4.170   4.493
 2397SOL    HW1 8090   0.407   4.242   4.550
 2397SOL    HW2 8091   0.545   4.167   4.505
 2398SOL     OW 8092   4.894   3.947   6.843
 2398SOL    HW1 8093   4.797   3.964   6.824
 2398SOL    HW2 8094   4.932   3.889   6.772
 2399SOL     OW 8095   4.367   0.609   1.054
 2399SOL    HW1 8096   4.440   0.595   1.120
 2399SOL    HW2 8097   4.305   0.681   1.087
 2400SOL     OW 8098   2.896   3.712   0.849
 2400SOL    HW1 8099   2.874   3.619   0.820
 2400SOL    HW2 8100   2.842   3.777   0.796
 2401SOL     OW 8101   5.620   6.275   0.029
 2401SOL    HW1 8102   5.618   6.374   0.023
 2401SOL    HW2 8103   5.536   6.242   0.074
 2402SOL     OW 8104   0.610   0.080   4.616
 2402SOL    HW1 8105   0.634   0.094   4.520
 2402SOL    HW2 8106   0.574   7.009   4.628
 2403SOL     OW 8107   1.215   2.463   5.908
 2403SOL    HW1 8108   1.135   2.460   5.849
 2403SOL    HW2 8109   1.226   2.555   5.946
 2404SOL     OW 8110   2.362   1.386   1.354
 2404SOL    HW1 8111   2.282   1.347   1.399
 2404SOL    HW2 8112   2.434   1.404   1.421
 2405SOL     OW 8113   3.392   3.904   2.568
 2405SOL    HW1 8114   3.419   3.986   2.517
 2405SOL    HW2 8115   3.354   3.837   2.504
 2406SOL     OW 8116   3.775   1.179   1.455
 2406SOL    HW1 8117   3.720   1.229   1.521
 2406SOL    HW2 8118   3.767   1.223   1.365
 2407SOL     OW 8119   5.742   2.028   3.767
 2407SOL    HW1 8120   5.702   2.036   3.676
 2407SOL    HW2 8121   5.832   2.072   3.767
 2408SOL     OW 8122   4.511   4.528   2.116
 2408SOL    HW1 8123   4.516   4.428   2.121
 2408SOL    HW2 8124   4.604   4.565   2.110
 2409SOL     OW 8125   2.284   4.094   2.259
 2409SOL    HW1 8126   2.336   4.173   2.229
 2409SOL    HW2 8127   2.341   4.012   2.254
 2410SOL     OW 8128   3.872   3.221   4.395
 2410SOL    HW1 8129   3.835   3.287   4.330
 2410SOL    HW2 8130   3.947   3.262   4.446
 2411SOL     OW 8131   5.287   6.425   5.344
 2411SOL    HW1 8132   5.236   6.507   5.317
 2411SOL    HW2 8133   5.384   6.438   5.324
 2412SOL     OW 8134   5.324   4.353   1.728
 2412SOL    HW1 8135   5.295   4.258   1.713
 2412SOL    HW2 8136   5.423   4.355   1.744
 2413SOL     OW 8137   5.750   0.646   1.582
 2413SOL    HW1 8138   5.673   0.706   1.561
 2413SOL    HW2 8139   5.802   0.628   1.498
 2414SOL     OW 8140   4.919   4.200   3.729
 2414SOL    HW1 8141   4.882   4.260   3.658
 2414SOL    HW2 8142   4.865   4.210   3.812
 2415SOL     OW 8143   5.910   1.135   2.598
 2415SOL    HW1 8144   5.840   1.075   2.558
 2415SOL    HW2 8145   5.989   1.080   2.624
 2416SOL     OW 8146   5.412   2.165   5.803
 2416SOL    HW1 8147   5.413   2.264   5.818
 2416SOL    HW2 8148   5.506   2.134   5.786
 2417SOL     OW 8149   2.955   3.377   4.708
 2417SOL    HW1 8150   2.917   3.400   4.618
 2417SOL    HW2 8151   2.929   3.446   4.774
 2418SOL     OW 8152   3.457   3.215   4.316
 2418SOL    HW1 8153   3.442   3.253   4.407
 2418SOL    HW2 8154   3.460   3.116   4.321
 2419SOL     OW 8155   0.149   6.523   3.305
 2419SOL    HW1 8156   0.188   6.456   3.368
 2419SOL    HW2 8157   0.219   6.589   3.279
 2420SOL     OW 8158   3.501   0.483   1.754
 2420SOL    HW1 8159   3.483   0.386   1.772
 2420SOL    HW2 8160   3.559   0.520   1.827
 2421SOL     OW 8161   2.197   2.617   4.700
 2421SOL    HW1 8162   2.267   2.687   4.715
 2421SOL    HW2 8163   2.114   2.643   4.749
 2422SOL     OW 8164   5.037   1.634   0.862
 2422SOL    HW1 8165   4.967   1.698   0.895
 2422SOL    HW2 8166   5.072   1.581   0.939
 2423SOL     OW 8167   2.575   6.380   2.116
 2423SOL    HW1 8168   2.578   6.365   2.017
 2423SOL    HW2 8169   2.640   6.451   2.141
 2424SOL     OW 8170   5.980   1.099   0.267
 2424SOL    HW1 8171   5.993   1.053   0.179
 2424SOL    HW2 8172   5.912   1.049   0.320
 2425SOL     OW 8173   6.249   0.490   3.989
 2425SOL    HW1 8174   6.342   0.455   3.987
 2425SOL    HW2 8175   6.210   0.478   4.080
 2426SOL     OW 8176   2.069   5.118   5.091
 2426SOL    HW1 8177   2.138   5.139   5.160
 2426SOL    HW2 8178   2.090   5.166   5.006
 2427SOL     OW 8179   6.060   6.126   4.902
 2427SOL    HW1 8180   5.968   6.122   4.863
 2427SOL    HW2 8181   6.106   6.038   4.888
 2428SOL     OW 8182   0.590   0.637   1.660
 2428SOL    HW1 8183   0.504   0.640   1.711
 2428SOL    HW2 8184   0.592   0.554   1.604
 2429SOL     OW 8185   5.173   5.828   1.214
 2429SOL    HW1 8186   5.257   5.814   1.162
 2429SOL    HW2 8187   5.094   5.824   1.152
 2430SOL     OW 8188   6.231   0.578   2.756
 2430SOL    HW1 8189   6.316   0.583   2.704
 2430SOL    HW2 8190   6.171   0.654   2.730
 2431SOL     OW 8191   4.453   1.292   2.095
 2431SOL    HW1 8192   4.524   1.262   2.031
 2431SOL    HW2 8193   4.410   1.213   2.138
 2432SOL     OW 8194   4.422   5.970   2.003
 2432SOL    HW1 8195   4.508   6.016   2.024
 2432SOL    HW2 8196   4.440   5.875   1.979
 2433SOL     OW 8197   4.573   0.423   6.736
 2433SOL    HW1 8198   4.641   0.486   6.775
 2433SOL    HW2 8199   4.597   0.403   6.642
 2434SOL     OW 8200   3.732   1.181   5.625
 2434SOL    HW1 8201   3.772   1.267   5.656
 2434SOL    HW2 8202   3.768   1.105   5.679
 2435SOL     OW 8203   5.895   5.979   5.563
 2435SOL    HW1 8204   5.859   6.010   5.651
 2435SOL    HW2 8205   5.873   6.045   5.492
 2436SOL     OW 8206   1.988   5.952   0.497
 2436SOL    HW1 8207   2.075   5.904   0.508
 2436SOL    HW2 8208   1.964   5.996   0.584
 2437SOL     OW 8209   6.681   6.411   5.569
 2437SOL    HW1 8210   6.681   6.511   5.571
 2437SOL    HW2 8211   6.616   6.376   5.637
 2438SOL     OW 8212   2.749   2.504   0.732
 2438SOL    HW1 8213   2.766   2.600   0.754
 2438SOL    HW2 8214   2.830   2.466   0.688
 2439SOL     OW 8215   6.436   4.132   5.898
 2439SOL    HW1 8216   6.340   4.117   5.920
 2439SOL    HW2 8217   6.443   4.184   5.813
 2440SOL     OW 8218   5.294   5.429   5.775
 2440SOL    HW1 8219   5.364   5.428   5.703
 2440SOL    HW2 8220   5.217   5.485   5.745
 2441SOL     OW 8221   5.683   2.377   0.648
 2441SOL    HW1 8222   5.672   2.392   0.747
 2441SOL    HW2 8223   5.603   2.414   0.600
 2442SOL     OW 8224   0.803   3.842   4.759
 2442SOL    HW1 8225   0.885   3.845   4.816
 2442SOL    HW2 8226   0.825   3.797   4.672
 2443SOL     OW 8227   2.698   4.070   6.574
 2443SOL    HW1 8228   2.654   4.150   6.615
 2443SOL    HW2 8229   2.785   4.097   6.533
 2444SOL     OW 8230   2.463   3.772   5.650
 2444SOL    HW1 8231   2.491   3.676   5.649
 2444SOL    HW2 8232   2.377   3.781   5.699
 2445SOL     OW 8233   0.484   0.887   1.116
 2445SOL    HW1 8234   0.425   0.916   1.041
 2445SOL    HW2 8235   0.562   0.949   1.124
 2446SOL     OW 8236   6.357   4.311   5.022
 2446SOL    HW1 8237   6.264   4.274   5.013
 2446SOL    HW2 8238   6.409   4.289   4.939
 2447SOL     OW 8239   0.989   1.511   0.626
 2447SOL    HW1 8240   0.983   1.594   0.570
 2447SOL    HW2 8241   0.954   1.531   0.718
 2448SOL     OW 8242   1.021   0.412   4.777
 2448SOL    HW1 8243   1.053   0.492   4.829
 2448SOL    HW2 8244   1.011   0.334   4.839
 2449SOL     OW 8245   0.318   3.731   5.846
 2449SOL    HW1 8246   0.334   3.671   5.925
 2449SOL    HW2 8247   0.221   3.730   5.823
 2450SOL     OW 8248   2.191   3.937   2.683
 2450SOL    HW1 8249   2.222   3.842   2.671
 2450SOL    HW2 8250   2.169   3.952   2.779
 2451SOL     OW 8251   2.221   6.111   3.510
 2451SOL    HW1 8252   2.249   6.018   3.488
 2451SOL    HW2 8253   2.184   6.155   3.428
 2452SOL     OW 8254   1.154   2.658   4.185
 2452SOL    HW1 8255   1.171   2.730   4.118
 2452SOL    HW2 8256   1.184   2.689   4.275
 2453SOL     OW 8257   6.569   4.588   1.539
 2453SOL    HW1 8258   6.653   4.592   1.593
 2453SOL    HW2 8259   6.553   4.493   1.510
 2454SOL     OW 8260   3.220   1.186   2.177
 2454SOL    HW1 8261   3.309   1.159   2.140
 2454SOL    HW2 8262   3.228   1.200   2.276
 2455SOL     OW 8263   5.728   5.790   0.201
 2455SOL    HW1 8264   5.752   5.885   0.221
 2455SOL    HW2 8265   5.630   5.784   0.180
 2456SOL     OW 8266   4.729   6.391   1.305
 2456SOL    HW1 8267   4.662   6.317   1.316
 2456SOL    HW2 8268   4.785   6.397   1.387
 2457SOL     OW 8269   5.421   6.733   1.293
 2457SOL    HW1 8270   5.436   6.676   1.212
 2457SOL    HW2 8271   5.324   6.730   1.319
 2458SOL     OW 8272   0.783   5.356   3.440
 2458SOL    HW1 8273   0.809   5.449   3.464
 2458SOL    HW2 8274   0.768   5.350   3.341
 2459SOL     OW 8275   2.007   6.948   0.868
 2459SOL    HW1 8276   2.066   7.001   0.808
 2459SOL    HW2 8277   2.021   6.851   0.851
 2460SOL     OW 8278   3.364   5.678   1.772
 2460SOL    HW1 8279   3.453   5.636   1.757
 2460SOL    HW2 8280   3.294   5.607   1.784
 2461SOL     OW 8281   5.489   0.388   2.231
 2461SOL    HW1 8282   5.460   0.386   2.327
 2461SOL    HW2 8283   5.422   0.438   2.177
 2462SOL     OW 8284   1.809   4.878   6.552
 2462SOL    HW1 8285   1.725   4.841   6.591
 2462SOL    HW2 8286   1.793   4.903   6.456
 2463SOL     OW 8287   6.283   2.183   4.334
 2463SOL    HW1 8288   6.273   2.269   4.385
 2463SOL    HW2 8289   6.194   2.156   4.298
 2464SOL     OW 8290   1.645   3.210   0.929
 2464SOL    HW1 8291   1.607   3.132   0.880
 2464SOL    HW2 8292   1.685   3.180   1.015
 2465SOL     OW 8293   6.556   5.836   3.623
 2465SOL    HW1 8294   6.546   5.925   3.667
 2465SOL    HW2 8295   6.591   5.849   3.530
 2466SOL     OW 8296   4.169   1.730   2.813
 2466SOL    HW1 8297   4.266   1.730   2.789
 2466SOL    HW2 8298   4.115   1.759   2.734
 2467SOL     OW 8299   6.759   0.809   6.256
 2467SOL    HW1 8300   6.801   0.900   6.250
 2467SOL    HW2 8301   6.675   0.807   6.202
 2468SOL     OW 8302   6.883   4.917   1.150
 2468SOL    HW1 8303   6.853   4.893   1.058
 2468SOL    HW2 8304   6.871   4.838   1.211
 2469SOL     OW 8305   2.643   2.946   5.690
 2469SOL    HW1 8306   2.695   3.000   5.756
 2469SOL    HW2 8307   2.694   2.940   5.604
 2470SOL     OW 8308   5.635   3.150   0.231
 2470SOL    HW1 8309   5.680   3.070   0.193
 2470SOL    HW2 8310   5.537   3.147   0.210
 2471SOL     OW 8311   1.524   0.348   3.495
 2471SOL    HW1 8312   1.478   0.430   3.462
 2471SOL    HW2 8313   1.563   0.297   3.418
 2472SOL     OW 8314   6.470   1.765   3.242
 2472SOL    HW1 8315   6.476   1.736   3.147
 2472SOL    HW2 8316   6.448   1.687   3.300
 2473SOL     OW 8317   1.064   6.692   4.968
 2473SOL    HW1 8318   1.076   6.782   4.927
 2473SOL    HW2 8319   0.968   6.666   4.966
 2474SOL     OW 8320   6.194   5.168   4.783
 2474SOL    HW1 8321   6.260   5.136   4.851
 2474SOL    HW2 8322   6.160   5.258   4.810
 2475SOL     OW 8323   3.995   1.937   0.291
 2475SOL    HW1 8324   4.061   1.916   0.219
 2475SOL    HW2 8325   4.019   2.023   0.335
 2476SOL     OW 8326   0.396   2.230   4.361
 2476SOL    HW1 8327   0.333   2.204   4.288
 2476SOL    HW2 8328   0.354   2.211   4.449
 2477SOL     OW 8329   4.191   4.975   1.346
 2477SOL    HW1 8330   4.181   4.878   1.368
 2477SOL    HW2 8331   4.275   5.010   1.387
 2478SOL     OW 8332   6.953   6.872   3.237
 2478SOL    HW1 8333   6.942   6.972   3.234
 2478SOL    HW2 8334   6.883   6.829   3.180
 2479SOL     OW 8335   0.688   3.612   0.388
 2479SOL    HW1 8336   0.714   3.547   0.459
 2479SOL    HW2 8337   0.681   3.704   0.427
 2480SOL     OW 8338   0.346   3.698   1.063
 2480SOL    HW1 8339   0.336   3.602   1.036
 2480SOL    HW2 8340   0.261   3.729   1.107
 2481SOL     OW 8341   4.425   5.295   2.372
 2481SOL    HW1 8342   4.396   5.250   2.287
 2481SOL    HW2 8343   4.393   5.243   2.451
 2482SOL     OW 8344   4.660   2.136   4.290
 2482SOL    HW1 8345   4.760   2.131   4.282
 2482SOL    HW2 8346   4.635   2.142   4.386
 2483SOL     OW 8347   0.769   2.092   6.864
 2483SOL    HW1 8348   0.741   2.018   6.925
 2483SOL    HW2 8349   0.801   2.053   6.778
 2484SOL     OW 8350   3.045   2.173   6.233
 2484SOL    HW1 8351   3.074   2.082   6.202
 2484SOL    HW2 8352   2.948   2.170   6.257
 2485SOL     OW 8353   6.975   5.967   2.390
 2485SOL    HW1 8354   6.995   6.021   2.308
 2485SOL    HW2 8355   0.037   5.922   2.422
 2486SOL     OW 8356   1.128   5.232   3.231
 2486SOL    HW1 8357   1.117   5.330   3.244
 2486SOL    HW2 8358   1.179   5.215   3.147
 2487SOL     OW 8359   3.546   1.125   0.564
 2487SOL    HW1 8360   3.452   1.102   0.589
 2487SOL    HW2 8361   3.557   1.224   0.563
 2488SOL     OW 8362   3.256   6.255   6.633
 2488SOL    HW1 8363   3.202   6.282   6.554
 2488SOL    HW2 8364   3.300   6.166   6.615
 2489SOL     OW 8365   0.117   5.891   4.032
 2489SOL    HW1 8366   0.121   5.910   4.131
 2489SOL    HW2 8367   0.059   5.960   3.988
 2490SOL     OW 8368   4.793   3.558   1.787
 2490SOL    HW1 8369   4.887   3.586   1.802
 2490SOL    HW2 8370   4.782   3.462   1.813
 2491SOL     OW 8371   1.169   4.620   2.547
 2491SOL    HW1 8372   1.185   4.641   2.643
 2491SOL    HW2 8373   1.254   4.632   2.496
 2492SOL     OW 8374   4.221   3.085   6.365
 2492SOL    HW1 8375   4.140   3.139   6.343
 2492SOL    HW2 8376   4.303   3.135   6.337
 2493SOL     OW 8377   6.543   2.294   4.156
 2493SOL    HW1 8378   6.549   2.226   4.083
 2493SOL    HW2 8379   6.567   2.251   4.243
 2494SOL     OW 8380   4.853   3.453   1.478
 2494SOL    HW1 8381   4.767   3.415   1.445
 2494SOL    HW2 8382   4.892   3.393   1.548
 2495SOL     OW 8383   6.017   1.368   4.089
 2495SOL    HW1 8384   5.971   1.354   4.176
 2495SOL    HW2 8385   6.089   1.300   4.078
 2496SOL     OW 8386   0.699   6.575   0.417
 2496SOL    HW1 8387   0.651   6.540   0.498
 2496SOL    HW2 8388   0.760   6.649   0.444
 2497SOL     OW 8389   5.484   2.021   6.092
 2497SOL    HW1 8390   5.550   2.096   6.086
 2497SOL    HW2 8391   5.396   2.051   6.055
 2498SOL     OW 8392   1.302   3.908   4.515
 2498SOL    HW1 8393   1.283   3.812   4.534
 2498SOL    HW2 8394   1.395   3.918   4.478
 2499SOL     OW 8395   5.778   0.666   5.603
 2499SOL    HW1 8396   5.863   0.613   5.597
 2499SOL    HW2 8397   5.787   0.736   5.673
 2500SOL     OW 8398   4.649   2.798   6.443
 2500SOL    HW1 8399   4.652   2.895   6.470
 2500SOL    HW2 8400   4.626   2.791   6.347
 2501SOL     OW 8401   6.568   4.535   0.423
 2501SOL    HW1 8402   6.584   4.437   0.425
 2501SOL    HW2 8403   6.595   4.575   0.511
 2502SOL     OW 8404   1.836   6.782   2.972
 2502SOL    HW1 8405   1.808   6.686   2.976
 2502SOL    HW2 8406   1.783   6.835   3.037
 2503SOL     OW 8407   4.615   5.666   4.585
 2503SOL    HW1 8408   4.608   5.671   4.486
 2503SOL    HW2 8409   4.526   5.687   4.626
 2504SOL     OW 8410   2.062   4.368   3.624
 2504SOL    HW1 8411   2.137   4.314   3.662
 2504SOL    HW2 8412   2.045   4.447   3.683
 2505SOL     OW 8413   4.417   5.407   3.751
 2505SOL    HW1 8414   4.448   5.373   3.839
 2505SOL    HW2 8415   4.319   5.389   3.741
 2506SOL     OW 8416   6.981   1.625   0.183
 2506SOL    HW1 8417   0.044   1.596   0.138
 2506SOL    HW2 8418   7.003   1.676   0.267
 2507SOL     OW 8419   6.876   5.700   0.949
 2507SOL    HW1 8420   6.872   5.794   0.916
 2507SOL    HW2 8421   6.898   5.700   1.047
 2508SOL     OW 8422   2.559   2.489   2.275
 2508SOL    HW1 8423   2.505   2.573   2.280
 2508SOL    HW2 8424   2.549   2.438   2.361
 2509SOL     OW 8425   5.383   1.888   3.869
 2509SOL    HW1 8426   5.335   1.942   3.799
 2509SOL    HW2 8427   5.317   1.827   3.914
 2510SOL     OW 8428   3.565   5.884   1.084
 2510SOL    HW1 8429   3.541   5.960   1.144
 2510SOL    HW2 8430   3.525   5.799   1.120
 2511SOL     OW 8431   1.519   0.064   4.264
 2511SOL    HW1 8432   1.534   0.090   4.360
 2511SOL    HW2 8433   1.426   0.027   4.254
 2512SOL     OW 8434   4.627   2.669   4.316
 2512SOL    HW1 8435   4.624   2.602   4.390
 2512SOL    HW2 8436   4.571   2.637   4.240
 2513SOL     OW 8437   0.379   4.544   1.301
 2513SOL    HW1 8438   0.405   4.548   1.205
 2513SOL    HW2 8439   0.389   4.451   1.335
 2514SOL     OW 8440   1.237   1.521   4.260
 2514SOL    HW1 8441   1.199   1.531   4.352
 2514SOL    HW2 8442   1.200   1.593   4.201
 2515SOL     OW 8443   0.691   4.867   0.060
 2515SOL    HW1 8444   0.767   4.804   0.076
 2515SOL    HW2 8445   0.651   4.893   0.147
 2516SOL     OW 8446   4.746   6.494   3.831
 2516SOL    HW1 8447   4.693   6.441   3.897
 2516SOL    HW2 8448   4.797   6.432   3.771
 2517SOL     OW 8449   2.538   4.710   0.485
 2517SOL    HW1 8450   2.511   4.640   0.552
 2517SOL    HW2 8451   2.557   4.667   0.397
 2518SOL     OW 8452   2.548   2.512   6.456
 2518SOL    HW1 8453   2.578   2.554   6.370
 2518SOL    HW2 8454   2.492   2.577   6.507
 2519SOL     OW 8455   5.109   4.133   4.966
 2519SOL    HW1 8456   5.191   4.076   4.959
 2519SOL    HW2 8457   5.032   4.085   4.923
 2520SOL     OW 8458   2.212   4.973   1.927
 2520SOL    HW1 8459   2.261   5.018   2.001
 2520SOL    HW2 8460   2.186   4.880   1.955
 2521SOL     OW 8461   5.839   6.946   5.161
 2521SOL    HW1 8462   5.846   6.861   5.213
 2521SOL    HW2 8463   5.928   6.991   5.157
 2522SOL     OW 8464   1.357   3.281   4.788
 2522SOL    HW1 8465   1.442   3.315   4.749
 2522SOL    HW2 8466   1.375   3.198   4.840
 2523SOL     OW 8467   0.308   3.148   6.894
 2523SOL    HW1 8468   0.246   3.175   6.821
 2523SOL    HW2 8469   0.257   3.106   6.969
 2524SOL     OW 8470   1.156   6.935   5.154
 2524SOL    HW1 8471   1.123   6.903   5.065
 2524SOL    HW2 8472   1.174   0.012   5.150
 2525SOL     OW 8473   1.854   4.624   3.059
 2525SOL    HW1 8474   1.899   4.534   3.063
 2525SOL    HW2 8475   1.826   4.642   2.964
 2526SOL     OW 8476   0.082   1.949   5.412
 2526SOL    HW1 8477   0.089   1.853   5.385
 2526SOL    HW2 8478   7.014   1.985   5.385
 2527SOL     OW 8479   5.926   6.494   3.769
 2527SOL    HW1 8480   6.020   6.488   3.736
 2527SOL    HW2 8481   5.887   6.582   3.742
 2528SOL     OW 8482   5.888   5.689   0.451
 2528SOL    HW1 8483   5.861   5.726   0.362
 2528SOL    HW2 8484   5.814   5.631   0.486
 2529SOL     OW 8485   5.352   3.981   4.811
 2529SOL    HW1 8486   5.299   3.907   4.853
 2529SOL    HW2 8487   5.449   3.968   4.831
 2530SOL     OW 8488   0.969   6.887   4.252
 2530SOL    HW1 8489   1.058   6.913   4.215
 2530SOL    HW2 8490   0.897   6.931   4.199
 2531SOL     OW 8491   4.707   1.564   0.107
 2531SOL    HW1 8492   4.786   1.605   0.060
 2531SOL    HW2 8493   4.624   1.614   0.083
 2532SOL     OW 8494   1.673   4.426   5.704
 2532SOL    HW1 8495   1.653   4.414   5.801
 2532SOL    HW2 8496   1.726   4.348   5.670
 2533SOL     OW 8497   6.127   6.632   5.229
 2533SOL    HW1 8498   6.217   6.592   5.209
 2533SOL    HW2 8499   6.057   6.561   5.225
 2534SOL     OW 8500   6.838   1.764   3.824
 2534SOL    HW1 8501   6.898   1.766   3.904
 2534SOL    HW2 8502   6.808   1.857   3.803
 2535SOL     OW 8503   2.412   1.008   2.665
 2535SOL    HW1 8504   2.497   1.033   2.710
 2535SOL    HW2 8505   2.409   0.910   2.649
 2536SOL     OW 8506   6.606   0.829   3.671
 2536SOL    HW1 8507   6.589   0.764   3.745
 2536SOL    HW2 8508   6.543   0.906   3.679
 2537SOL     OW 8509   3.949   5.039   1.495
 2537SOL    HW1 8510   4.028   5.055   1.436
 2537SOL    HW2 8511   3.872   5.094   1.463
 2538SOL     OW 8512   1.799   4.778   5.258
 2538SOL    HW1 8513   1.755   4.866   5.241
 2538SOL    HW2 8514   1.843   4.779   5.348
 2539SOL     OW 8515   2.654   0.576   5.680
 2539SOL    HW1 8516   2.701   0.488   5.669
 2539SOL    HW2 8517   2.678   0.636   5.604
 2540SOL     OW 8518   5.679   1.907   2.352
 2540SOL    HW1 8519   5.735   1.971   2.404
 2540SOL    HW2 8520   5.737   1.837   2.312
 2541SOL     OW 8521   0.585   6.626   5.446
 2541SOL    HW1 8522   0.598   6.545   5.390
 2541SOL    HW2 8523   0.492   6.627   5.482
 2542SOL     OW 8524   3.643   1.617   4.280
 2542SOL    HW1 8525   3.674   1.573   4.365
 2542SOL    HW2 8526   3.680   1.710   4.276
 2543SOL     OW 8527   0.286   2.658   4.703
 2543SOL    HW1 8528   0.204   2.681   4.650
 2543SOL    HW2 8529   0.344   2.597   4.649
 2544SOL     OW 8530   6.019   5.853   2.749
 2544SOL    HW1 8531   5.956   5.863   2.672
 2544SOL    HW2 8532   6.001   5.925   2.816
 2545SOL     OW 8533   6.282   2.061   0.713
 2545SOL    HW1 8534   6.294   2.122   0.792
 2545SOL    HW2 8535   6.371   2.025   0.685
 2546SOL     OW 8536   6.213   4.079   3.061
 2546SOL    HW1 8537   6.191   3.987   3.094
 2546SOL    HW2 8538   6.187   4.087   2.965
 2547SOL     OW 8539   5.767   3.659   0.690
 2547SOL    HW1 8540   5.866   3.645   0.702
 2547SOL    HW2 8541   5.738   3.620   0.603
 2548SOL     OW 8542   6.901   6.655   5.537
 2548SOL    HW1 8543   6.951   6.574   5.568
 2548SOL    HW2 8544   6.814   6.661   5.585
 2549SOL     OW 8545   2.846   2.874   0.133
 2549SOL    HW1 8546   2.830   2.906   0.227
 2549SOL    HW2 8547   2.791   2.791   0.117
 2550SOL     OW 8548   3.970   5.975   6.386
 2550SOL    HW1 8549   4.026   6.049   6.349
 2550SOL    HW2 8550   3.888   5.964   6.330
 2551SOL     OW 8551   3.304   5.494   0.439
 2551SOL    HW1 8552   3.349   5.496   0.350
 2551SOL    HW2 8553   3.353   5.432   0.500
 2552SOL     OW 8554   2.227   5.594   1.424
 2552SOL    HW1 8555   2.265   5.670   1.371
 2552SOL    HW2 8556   2.250   5.605   1.520
 2553SOL     OW 8557   4.655   1.293   7.015
 2553SOL    HW1 8558   4.586   1.297   6.943
 2553SOL    HW2 8559   4.700   1.382   0.001
 2554SOL     OW 8560   1.437   5.825   1.606
 2554SOL    HW1 8561   1.406   5.862   1.694
 2554SOL    HW2 8562   1.532   5.793   1.615
 2555SOL     OW 8563   5.666   6.805   4.888
 2555SOL    HW1 8564   5.668   6.897   4.849
 2555SOL    HW2 8565   5.726   6.744   4.835
 2556SOL     OW 8566   3.769   0.407   0.158
 2556SOL    HW1 8567   3.846   0.347   0.178
 2556SOL    HW2 8568   3.695   0.354   0.116
 2557SOL     OW 8569   2.879   0.625   6.461
 2557SOL    HW1 8570   2.892   0.724   6.466
 2557SOL    HW2 8571   2.912   0.583   6.546
 2558SOL     OW 8572   4.885   3.549   0.660
 2558SOL    HW1 8573   4.852   3.459   0.691
 2558SOL    HW2 8574   4.850   3.620   0.721
 2559SOL     OW 8575   0.795   4.313   4.005
 2559SOL    HW1 8576   0.790   4.227   3.953
 2559SOL    HW2 8577   0.835   4.384   3.948
 2560SOL     OW 8578   4.763   2.038   3.797
 2560SOL    HW1 8579   4.782   2.023   3.894
 2560SOL    HW2 8580   4.831   2.101   3.760
 2561SOL     OW 8581   3.618   0.087   4.809
 2561SOL    HW1 8582   3.650   0.181   4.798
 2561SOL    HW2 8583   3.675   0.039   4.875
 2562SOL     OW 8584   2.625   6.320   3.829
 2562SOL    HW1 8585   2.624   6.363   3.919
 2562SOL    HW2 8586   2.535   6.282   3.809
 2563SOL     OW 8587   3.529   2.095   6.483
 2563SOL    HW1 8588   3.552   2.082   6.387
 2563SOL    HW2 8589   3.522   2.192   6.503
 2564SOL     OW 8590   1.704   1.779   6.910
 2564SOL    HW1 8591   1.786   1.813   6.866
 2564SOL    HW2 8592   1.626   1.838   6.885
 2565SOL     OW 8593   0.723   1.401   0.505
 2565SOL    HW1 8594   0.815   1.430   0.533
 2565SOL    HW2 8595   0.672   1.369   0.585
 2566SOL     OW 8596   2.458   0.642   0.781
 2566SOL    HW1 8597   2.389   0.680   0.719
 2566SOL    HW2 8598   2.510   0.717   0.822
 2567SOL     OW 8599   2.295   1.190   0.402
 2567SOL    HW1 8600   2.274   1.128   0.478
 2567SOL    HW2 8601   2.258   1.152   0.317
 2568SOL     OW 8602   3.482   6.252   0.079
 2568SOL    HW1 8603   3.435   6.164   0.087
 2568SOL    HW2 8604   3.581   6.238   0.079
 2569SOL     OW 8605   1.770   0.473   0.921
 2569SOL    HW1 8606   1.790   0.400   0.986
 2569SOL    HW2 8607   1.672   0.474   0.900
 2570SOL     OW 8608   6.940   6.339   5.372
 2570SOL    HW1 8609   6.883   6.274   5.422
 2570SOL    HW2 8610   6.891   6.373   5.292
 2571SOL     OW 8611   3.348   3.202   4.069
 2571SOL    HW1 8612   3.388   3.214   4.160
 2571SOL    HW2 8613   3.305   3.288   4.040
 2572SOL     OW 8614   2.041   5.799   2.156
 2572SOL    HW1 8615   1.951   5.775   2.120
 2572SOL    HW2 8616   2.053   5.759   2.247
 2573SOL     OW 8617   6.584   2.091   4.756
 2573SOL    HW1 8618   6.575   2.059   4.851
 2573SOL    HW2 8619   6.679   2.114   4.738
 2574SOL     OW 8620   0.613   3.696   2.201
 2574SOL    HW1 8621   0.674   3.735   2.132
 2574SOL    HW2 8622   0.668   3.659   2.276
 2575SOL     OW 8623   5.453   3.593   0.027
 2575SOL    HW1 8624   5.423   3.681   7.012
 2575SOL    HW2 8625   5.508   3.607   0.109
 2576SOL     OW 8626   2.050   6.658   3.836
 2576SOL    HW1 8627   2.135   6.620   3.874
 2576SOL    HW2 8628   1.972   6.612   3.879
 2577SOL     OW 8629   2.731   6.060   1.503
 2577SOL    HW1 8630   2.821   6.103   1.519
 2577SOL    HW2 8631   2.742   5.961   1.501
 2578SOL     OW 8632   4.912   1.770   3.917
 2578SOL    HW1 8633   4.827   1.723   3.941
 2578SOL    HW2 8634   4.913   1.860   3.962
 2579SOL     OW 8635   6.972   1.603   6.091
 2579SOL    HW1 8636   7.005   1.696   6.109
 2579SOL    HW2 8637   6.894   1.583   6.151
 2580SOL     OW 8638   1.183   2.653   6.291
 2580SOL    HW1 8639   1.180   2.554   6.304
 2580SOL    HW2 8640   1.232   2.673   6.206
 2581SOL     OW 8641   6.368   6.748   4.197
 2581SOL    HW1 8642   6.339   6.684   4.269
 2581SOL    HW2 8643   6.467   6.760   4.203
 2582SOL     OW 8644   0.787   5.477   2.831
 2582SOL    HW1 8645   0.839   5.542   2.886
 2582SOL    HW2 8646   0.690   5.485   2.854
 2583SOL     OW 8647   2.178   1.077   0.188
 2583SOL    HW1 8648   2.088   1.119   0.200
 2583SOL    HW2 8649   2.166   0.981   0.161
 2584SOL     OW 8650   5.094   6.703   1.812
 2584SOL    HW1 8651   5.086   6.605   1.830
 2584SOL    HW2 8652   5.167   6.741   1.870
 2585SOL     OW 8653   3.908   1.596   1.484
 2585SOL    HW1 8654   3.856   1.561   1.562
 2585SOL    HW2 8655   3.985   1.535   1.466
 2586SOL     OW 8656   6.534   2.594   4.460
 2586SOL    HW1 8657   6.609   2.608   4.395
 2586SOL    HW2 8658   6.565   2.534   4.534
 2587SOL     OW 8659   6.199   6.715   2.613
 2587SOL    HW1 8660   6.272   6.766   2.566
 2587SOL    HW2 8661   6.128   6.778   2.643
 2588SOL     OW 8662   5.097   0.578   1.583
 2588SOL    HW1 8663   5.012   0.558   1.536
 2588SOL    HW2 8664   5.101   0.676   1.606
 2589SOL     OW 8665   6.020   6.401   0.607
 2589SOL    HW1 8666   6.024   6.315   0.555
 2589SOL    HW2 8667   6.056   6.476   0.550
 2590SOL     OW 8668   4.046   6.234   2.681
 2590SOL    HW1 8669   4.145   6.236   2.678
 2590SOL    HW2 8670   4.011   6.327   2.695
 2591SOL     OW 8671   5.432   0.494   1.901
 2591SOL    HW1 8672   5.363   0.483   1.830
 2591SOL    HW2 8673   5.387   0.501   1.990
 2592SOL     OW 8674   3.127   5.503   1.420
 2592SOL    HW1 8675   3.134   5.579   1.355
 2592SOL    HW2 8676   3.087   5.538   1.505
 2593SOL     OW 8677   3.085   6.813   2.602
 2593SOL    HW1 8678   3.044   6.837   2.691
 2593SOL    HW2 8679   3.097   6.714   2.597
 2594SOL     OW 8680   1.060   5.948   6.543
 2594SOL    HW1 8681   1.062   6.034   6.593
 2594SOL    HW2 8682   0.986   5.950   6.475
 2595SOL     OW 8683   6.178   3.669   4.195
 2595SOL    HW1 8684   6.160   3.579   4.235
 2595SOL    HW2 8685   6.274   3.676   4.170
 2596SOL     OW 8686   3.974   2.169   2.139
 2596SOL    HW1 8687   3.887   2.178   2.091
 2596SOL    HW2 8688   4.037   2.239   2.106
 2597SOL     OW 8689   2.108   2.676   6.677
 2597SOL    HW1 8690   2.186   2.648   6.622
 2597SOL    HW2 8691   2.026   2.627   6.646
 2598SOL     OW 8692   6.495   2.615   2.871
 2598SOL    HW1 8693   6.582   2.597   2.916
 2598SOL    HW2 8694   6.420   2.596   2.934
 2599SOL     OW 8695   4.580   4.769   6.726
 2599SOL    HW1 8696   4.490   4.802   6.754
 2599SOL    HW2 8697   4.626   4.840   6.673
 2600SOL     OW 8698   6.680   3.625   3.304
 2600SOL    HW1 8699   6.703   3.559   3.233
 2600SOL    HW2 8700   6.730   3.603   3.388
 2601SOL     OW 8701   3.719   2.936   5.692
 2601SOL    HW1 8702   3.811   2.906   5.719
 2601SOL    HW2 8703   3.727   3.005   5.619
 2602SOL     OW 8704   6.216   5.863   4.796
 2602SOL    HW1 8705   6.268   5.797   4.741
 2602SOL    HW2 8706   6.123   5.870   4.759
 2603SOL     OW 8707   2.940   2.673   0.478
 2603SOL    HW1 8708   3.029   2.636   0.502
 2603SOL    HW2 8709   2.889   2.607   0.423
 2604SOL     OW 8710   6.047   0.901   1.946
 2604SOL    HW1 8711   6.017   0.861   1.859
 2604SOL    HW2 8712   6.006   0.850   2.021
 2605SOL     OW 8713   4.692   4.249   4.235
 2605SOL    HW1 8714   4.691   4.348   4.224
 2605SOL    HW2 8715   4.649   4.225   4.322
 2606SOL     OW 8716   7.003   4.588   2.029
 2606SOL    HW1 8717   0.041   4.528   1.975
 2606SOL    HW2 8718   6.963   4.658   1.969
 2607SOL     OW 8719   0.592   1.659   4.438
 2607SOL    HW1 8720   0.627   1.592   4.503
 2607SOL    HW2 8721   0.588   1.618   4.347
 2608SOL     OW 8722   5.116   0.763   0.685
 2608SOL    HW1 8723   5.099   0.825   0.762
 2608SOL    HW2 8724   5.060   0.791   0.607
 2609SOL     OW 8725   0.268   2.203   4.604
 2609SOL    HW1 8726   0.245   2.253   4.688
 2609SOL    HW2 8727   0.194   2.140   4.583
 2610SOL     OW 8728   6.014   5.552   4.336
 2610SOL    HW1 8729   6.034   5.455   4.350
 2610SOL    HW2 8730   5.936   5.561   4.274
 2611SOL     OW 8731   3.464   6.145   1.583
 2611SOL    HW1 8732   3.447   6.204   1.504
 2611SOL    HW2 8733   3.411   6.061   1.575
 2612SOL     OW 8734   5.962   6.633   4.036
 2612SOL    HW1 8735   5.982   6.558   3.973
 2612SOL    HW2 8736   5.870   6.620   4.074
 2613SOL     OW 8737   4.317   0.558   1.597
 2613SOL    HW1 8738   4.238   0.502   1.623
 2613SOL    HW2 8739   4.289   0.625   1.528
 2614SOL     OW 8740   6.947   6.446   6.602
 2614SOL    HW1 8741   6.859   6.411   6.570
 2614SOL    HW2 8742   7.004   6.370   6.632
 2615SOL     OW 8743   5.598   5.240   2.135
 2615SOL    HW1 8744   5.590   5.180   2.215
 2615SOL    HW2 8745   5.507   5.260   2.099
 2616SOL     OW 8746   3.907   2.983   2.557
 2616SOL    HW1 8747   3.864   3.011   2.471
 2616SOL    HW2 8748   3.964   2.902   2.541
 2617SOL     OW 8749   3.772   0.386   1.591
 2617SOL    HW1 8750   3.724   0.361   1.676
 2617SOL    HW2 8751   3.705   0.405   1.519
 2618SOL     OW 8752   0.881   0.366   0.895
 2618SOL    HW1 8753   0.802   0.343   0.951
 2618SOL    HW2 8754   0.914   0.458   0.919
 2619SOL     OW 8755   5.079   1.775   1.648
 2619SOL    HW1 8756   4.994   1.784   1.596
 2619SOL    HW2 8757   5.156   1.768   1.586
 2620SOL     OW 8758   1.714   4.191   3.960
 2620SOL    HW1 8759   1.628   4.229   3.996
 2620SOL    HW2 8760   1.763   4.262   3.910
 2621SOL     OW 8761   1.072   4.457   4.107
 2621SOL    HW1 8762   0.991   4.449   4.050
 2621SOL    HW2 8763   1.132   4.379   4.093
 2622SOL     OW 8764   2.988   3.229   6.087
 2622SOL    HW1 8765   2.903   3.250   6.136
 2622SOL    HW2 8766   2.987   3.276   5.999
 2623SOL     OW 8767   2.903   1.334   5.561
 2623SOL    HW1 8768   2.805   1.333   5.540
 2623SOL    HW2 8769   2.928   1.248   5.606
 2624SOL     OW 8770   6.580   2.561   4.092
 2624SOL    HW1 8771   6.492   2.590   4.056
 2624SOL    HW2 8772   6.570   2.472   4.136
 2625SOL     OW 8773   4.187   0.964   5.786
 2625SOL    HW1 8774   4.093   0.998   5.779
 2625SOL    HW2 8775   4.234   0.978   5.700
 2626SOL     OW 8776   2.084   6.603   2.584
 2626SOL    HW1 8777   2.141   6.658   2.645
 2626SOL    HW2 8778   2.028   6.663   2.527
 2627SOL     OW 8779   6.937   0.062   4.413
 2627SOL    HW1 8780   0.009   0.029   4.434
 2627SOL    HW2 8781   6.940   0.121   4.333
 2628SOL     OW 8782   4.074   5.446   5.790
 2628SOL    HW1 8783   4.147   5.484   5.847
 2628SOL    HW2 8784   4.000   5.414   5.849
 2629SOL     OW 8785   3.544   4.370   1.606
 2629SOL    HW1 8786   3.548   4.305   1.530
 2629SOL    HW2 8787   3.542   4.320   1.693
 2630SOL     OW 8788   2.814   2.331   2.304
 2630SOL    HW1 8789   2.855   2.304   2.216
 2630SOL    HW2 8790   2.806   2.430   2.308
 2631SOL     OW 8791   4.721   6.394   4.532
 2631SOL    HW1 8792   4.652   6.357   4.469
 2631SOL    HW2 8793   4.676   6.428   4.615
 2632SOL     OW 8794   5.052   1.941   0.533
 2632SOL    HW1 8795   5.038   1.928   0.435
 2632SOL    HW2 8796   4.973   1.990   0.571
 2633SOL     OW 8797   6.432   2.349   6.482
 2633SOL    HW1 8798   6.427   2.386   6.575
 2633SOL    HW2 8799   6.467   2.255   6.485
 2634SOL     OW 8800   2.349   5.399   1.288
 2634SOL    HW1 8801   2.410   5.470   1.252
 2634SOL    HW2 8802   2.276   5.441   1.341
 2635SOL     OW 8803   5.033   4.637   3.831
 2635SOL    HW1 8804   5.025   4.623   3.929
 2635SOL    HW2 8805   5.108   4.701   3.813
 2636SOL     OW 8806   5.790   0.558   5.050
 2636SOL    HW1 8807   5.805   0.469   5.091
 2636SOL    HW2 8808   5.695   0.586   5.065
 2637SOL     OW 8809   4.921   6.344   2.440
 2637SOL    HW1 8810   4.878   6.430   2.466
 2637SOL    HW2 8811   4.950   6.348   2.344
 2638SOL     OW 8812   5.741   5.915   0.921
 2638SOL    HW1 8813   5.734   5.964   1.007
 2638SOL    HW2 8814   5.779   5.976   0.851
 2639SOL     OW 8815   6.644   6.305   0.437
 2639SOL    HW1 8816   6.688   6.285   0.525
 2639SOL    HW2 8817   6.677   6.240   0.369
 2640SOL     OW 8818   6.944   6.878   5.849
 2640SOL    HW1 8819   6.865   6.833   5.890
 2640SOL    HW2 8820   7.013   6.809   5.826
 2641SOL     OW 8821   5.788   4.994   0.192
 2641SOL    HW1 8822   5.689   5.007   0.189
 2641SOL    HW2 8823   5.812   4.909   0.145
 2642SOL     OW 8824   6.308   6.994   3.889
 2642SOL    HW1 8825   6.263   6.925   3.946
 2642SOL    HW2 8826   6.330   6.955   3.800
 2643SOL     OW 8827   0.853   0.564   2.594
 2643SOL    HW1 8828   0.826   0.596   2.503
 2643SOL    HW2 8829   0.814   0.473   2.610
 2644SOL     OW 8830   0.331   4.912   6.184
 2644SOL    HW1 8831   0.312   4.927   6.281
 2644SOL    HW2 8832   0.294   4.823   6.157
 2645SOL     OW 8833   5.353   5.694   5.607
 2645SOL    HW1 8834   5.379   5.605   5.568
 2645SOL    HW2 8835   5.395   5.767   5.554
 2646SOL     OW 8836   6.367   6.376   6.951
 2646SOL    HW1 8837   6.396   6.441   0.000
 2646SOL    HW2 8838   6.372   6.283   6.988
 2647SOL     OW 8839   3.845   1.424   0.914
 2647SOL    HW1 8840   3.799   1.489   0.853
 2647SOL    HW2 8841   3.939   1.411   0.884
 2648SOL     OW 8842   4.240   0.821   2.294
 2648SOL    HW1 8843   4.333   0.849   2.271
 2648SOL    HW2 8844   4.240   0.777   2.383
 2649SOL     OW 8845   3.481   1.965   5.646
 2649SOL    HW1 8846   3.429   2.031   5.591
 2649SOL    HW2 8847   3.467   1.873   5.611
 2650SOL     OW 8848   0.424   6.031   2.034
 2650SOL    HW1 8849   0.494   6.100   2.022
 2650SOL    HW2 8850   0.467   5.944   2.059
 2651SOL     OW 8851   0.234   0.801   3.389
 2651SOL    HW1 8852   0.155   0.743   3.410
 2651SOL    HW2 8853   0.263   0.785   3.295
 2652SOL     OW 8854   3.011   3.293   2.316
 2652SOL    HW1 8855   2.955   3.372   2.290
 2652SOL    HW2 8856   3.107   3.312   2.292
 2653SOL     OW 8857   6.342   6.136   6.326
 2653SOL    HW1 8858   6.366   6.061   6.387
 2653SOL    HW2 8859   6.380   6.119   6.235
 2654SOL     OW 8860   5.894   2.995   6.146
 2654SOL    HW1 8861   5.827   2.933   6.188
 2654SOL    HW2 8862   5.969   2.941   6.107
 2655SOL     OW 8863   4.836   6.357   5.029
 2655SOL    HW1 8864   4.879   6.279   4.984
 2655SOL    HW2 8865   4.849   6.439   4.972
 2656SOL     OW 8866   5.757   3.033   4.078
 2656SOL    HW1 8867   5.690   3.065   4.011
 2656SOL    HW2 8868   5.710   2.976   4.146
 2657SOL     OW 8869   1.991   2.621   6.178
 2657SOL    HW1 8870   2.080   2.665   6.196
 2657SOL    HW2 8871   1.924   2.653   6.246
 2658SOL     OW 8872   5.906   4.168   5.829
 2658SOL    HW1 8873   5.921   4.092   5.893
 2658SOL    HW2 8874   5.807   4.182   5.817
 2659SOL     OW 8875   6.827   3.267   3.940
 2659SOL    HW1 8876   6.769   3.260   3.859
 2659SOL    HW2 8877   6.887   3.187   3.945
 2660SOL     OW 8878   0.019   2.266   2.997
 2660SOL    HW1 8879   7.014   2.356   2.960
 2660SOL    HW2 8880   0.040   2.275   3.094
 2661SOL     OW 8881   4.459   5.816   0.621
 2661SOL    HW1 8882   4.401   5.734   0.615
 2661SOL    HW2 8883   4.446   5.872   0.539
 2662SOL     OW 8884   3.059   6.863   3.686
 2662SOL    HW1 8885   3.139   6.884   3.743
 2662SOL    HW2 8886   3.073   6.774   3.642
 2663SOL     OW 8887   0.988   4.166   2.605
 2663SOL    HW1 8888   0.900   4.141   2.564
 2663SOL    HW2 8889   0.972   4.221   2.688
 2664SOL     OW 8890   4.126   3.703   2.052
 2664SOL    HW1 8891   4.115   3.644   2.132
 2664SOL    HW2 8892   4.148   3.796   2.082
 2665SOL     OW 8893   3.932   0.966   4.653
 2665SOL    HW1 8894   3.863   1.020   4.606
 2665SOL    HW2 8895   3.902   0.946   4.746
 2666SOL     OW 8896   5.288   5.716   1.485
 2666SOL    HW1 8897   5.263   5.619   1.485
 2666SOL    HW2 8898   5.226   5.765   1.423
 2667SOL     OW 8899   1.463   5.215   3.920
 2667SOL    HW1 8900   1.543   5.204   3.860
 2667SOL    HW2 8901   1.384   5.170   3.880
 2668SOL     OW 8902   0.413   3.172   5.669
 2668SOL    HW1 8903   0.378   3.262   5.694
 2668SOL    HW2 8904   0.481   3.143   5.737
 2669SOL     OW 8905   4.429   4.865   5.212
 2669SOL    HW1 8906   4.481   4.949   5.201
 2669SOL    HW2 8907   4.456   4.820   5.297
 2670SOL     OW 8908   1.657   1.114   6.746
 2670SOL    HW1 8909   1.658   1.190   6.681
 2670SOL    HW2 8910   1.693   1.031   6.701
 2671SOL     OW 8911   2.410   3.423   5.992
 2671SOL    HW1 8912   2.470   3.491   6.035
 2671SOL    HW2 8913   2.455   3.334   5.991
 2672SOL     OW 8914   1.019   4.934   1.024
 2672SOL    HW1 8915   1.061   4.915   1.113
 2672SOL    HW2 8916   1.002   5.032   1.015
 2673SOL     OW 8917   3.902   1.823   3.162
 2673SOL    HW1 8918   3.987   1.848   3.118
 2673SOL    HW2 8919   3.921   1.768   3.243
 2674SOL     OW 8920   5.100   5.342   5.294
 2674SOL    HW1 8921   5.065   5.434   5.311
 2674SOL    HW2 8922   5.049   5.277   5.349
 2675SOL     OW 8923   0.493   4.868   5.556
 2675SOL    HW1 8924   0.570   4.814   5.521
 2675SOL    HW2 8925   0.524   4.923   5.634
 2676SOL     OW 8926   4.266   1.085   2.164
 2676SOL    HW1 8927   4.336   1.020   2.192
 2676SOL    HW2 8928   4.210   1.045   2.091
 2677SOL     OW 8929   2.584   5.095   2.401
 2677SOL    HW1 8930   2.673   5.106   2.444
 2677SOL    HW2 8931   2.547   5.186   2.377
 2678SOL     OW 8932   0.613   4.996   5.754
 2678SOL    HW1 8933   0.702   4.999   5.800
 2678SOL    HW2 8934   0.544   5.039   5.813
 2679SOL     OW 8935   2.826   4.425   1.240
 2679SOL    HW1 8936   2.832   4.325   1.242
 2679SOL    HW2 8937   2.758   4.456   1.306
 2680SOL     OW 8938   0.996   2.224   1.579
 2680SOL    HW1 8939   1.004   2.140   1.524
 2680SOL    HW2 8940   0.977   2.301   1.519
 2681SOL     OW 8941   1.586   2.091   2.873
 2681SOL    HW1 8942   1.656   2.145   2.829
 2681SOL    HW2 8943   1.612   2.073   2.968
 2682SOL     OW 8944   5.764   1.865   3.364
 2682SOL    HW1 8945   5.717   1.860   3.276
 2682SOL    HW2 8946   5.726   1.940   3.418
 2683SOL     OW 8947   0.836   6.617   1.432
 2683SOL    HW1 8948   0.762   6.564   1.475
 2683SOL    HW2 8949   0.895   6.556   1.380
 2684SOL     OW 8950   2.542   6.689   2.712
 2684SOL    HW1 8951   2.550   6.590   2.704
 2684SOL    HW2 8952   2.576   6.718   2.802
 2685SOL     OW 8953   5.486   5.616   5.210
 2685SOL    HW1 8954   5.575   5.641   5.172
 2685SOL    HW2 8955   5.485   5.519   5.232
 2686SOL     OW 8956   2.166   2.722   4.304
 2686SOL    HW1 8957   2.166   2.749   4.400
 2686SOL    HW2 8958   2.072   2.703   4.275
 2687SOL     OW 8959   4.689   5.765   2.575
 2687SOL    HW1 8960   4.614   5.824   2.546
 2687SOL    HW2 8961   4.757   5.759   2.502
 2688SOL     OW 8962   3.983   4.723   6.389
 2688SOL    HW1 8963   4.017   4.655   6.324
 2688SOL    HW2 8964   3.890   4.750   6.363
 2689SOL     OW 8965   6.836   3.546   3.906
 2689SOL    HW1 8966   6.865   3.454   3.931
 2689SOL    HW2 8967   6.896   3.580   3.833
 2690SOL     OW 8968   3.682   3.492   3.330
 2690SOL    HW1 8969   3.694   3.536   3.419
 2690SOL    HW2 8970   3.667   3.394   3.343
 2691SOL     OW 8971   1.744   5.936   1.904
 2691SOL    HW1 8972   1.742   5.984   1.992
 2691SOL    HW2 8973   1.723   6.001   1.831
 2692SOL     OW 8974   0.437   6.761   3.462
 2692SOL    HW1 8975   0.370   6.725   3.397
 2692SOL    HW2 8976   0.474   6.847   3.428
 2693SOL     OW 8977   1.626   4.096   2.740
 2693SOL    HW1 8978   1.698   4.143   2.792
 2693SOL    HW2 8979   1.662   4.010   2.705
 2694SOL     OW 8980   1.897   0.074   3.105
 2694SOL    HW1 8981   1.807   0.032   3.103
 2694SOL    HW2 8982   1.922   0.097   3.199
 2695SOL     OW 8983   4.174   1.900   3.547
 2695SOL    HW1 8984   4.176   1.816   3.601
 2695SOL    HW2 8985   4.260   1.907   3.496
 2696SOL     OW 8986   3.790   3.701   5.442
 2696SOL    HW1 8987   3.847   3.772   5.482
 2696SOL    HW2 8988   3.767   3.633   5.512
 2697SOL     OW 8989   2.609   1.697   4.190
 2697SOL    HW1 8990   2.599   1.665   4.096
 2697SOL    HW2 8991   2.520   1.694   4.236
 2698SOL     OW 8992   2.819   3.431   0.443
 2698SOL    HW1 8993   2.886   3.476   0.384
 2698SOL    HW2 8994   2.740   3.492   0.456
 2699SOL     OW 8995   3.796   5.744   1.803
 2699SOL    HW1 8996   3.817   5.774   1.897
 2699SOL    HW2 8997   3.732   5.809   1.762
 2700SOL     OW 8998   2.118   3.640   2.733
 2700SOL    HW1 8999   2.138   3.542   2.727
 2700SOL    HW2 9000   2.040   3.662   2.675
 2701SOL     OW 9001   3.857   7.013   6.438
 2701SOL    HW1 9002   3.894   6.922   6.456
 2701SOL    HW2 9003   3.932   0.059   6.436
 2702SOL     OW 9004   6.843   0.414   3.427
 2702SOL    HW1 9005   6.923   0.387   3.373
 2702SOL    HW2 9006   6.814   0.337   3.485
 2703SOL     OW 9007   1.746   1.439   2.123
 2703SOL    HW1 9008   1.716   1.533   2.142
 2703SOL    HW2 9009   1.780   1.398   2.207
 2704SOL     OW 9010   2.480   4.836   1.335
 2704SOL    HW1 9011   2.500   4.815   1.239
 2704SOL    HW2 9012   2.382   4.829   1.351
 2705SOL     OW 9013   6.915   4.963   3.035
 2705SOL    HW1 9014   6.870   4.875   3.044
 2705SOL    HW2 9015   6.994   4.955   2.974
 2706SOL     OW 9016   0.112   1.469   2.124
 2706SOL    HW1 9017   0.175   1.525   2.177
 2706SOL    HW2 9018   0.085   1.389   2.177
 2707SOL     OW 9019   2.392   1.421   5.914
 2707SOL    HW1 9020   2.306   1.376   5.937
 2707SOL    HW2 9021   2.409   1.495   5.978
 2708SOL     OW 9022   1.724   2.757   1.228
 2708SOL    HW1 9023   1.747   2.750   1.131
 2708SOL    HW2 9024   1.652   2.691   1.251
 2709SOL     OW 9025   4.706   6.355   0.382
 2709SOL    HW1 9026   4.722   6.349   0.481
 2709SOL    HW2 9027   4.661   6.441   0.361
 2710SOL     OW 9028   6.067   3.685   2.685
 2710SOL    HW1 9029   5.995   3.745   2.721
 2710SOL    HW2 9030   6.156   3.726   2.701
 2711SOL     OW 9031   1.375   0.419   2.018
 2711SOL    HW1 9032   1.285   0.377   2.027
 2711SOL    HW2 9033   1.419   0.385   1.935
 2712SOL     OW 9034   2.758   3.990   0.355
 2712SOL    HW1 9035   2.786   4.070   0.408
 2712SOL    HW2 9036   2.825   3.917   0.368
 2713SOL     OW 9037   2.186   3.111   5.100
 2713SOL    HW1 9038   2.260   3.044   5.107
 2713SOL    HW2 9039   2.138   3.098   5.013
 2714SOL     OW 9040   5.201   6.823   5.485
 2714SOL    HW1 9041   5.293   6.818   5.446
 2714SOL    HW2 9042   5.180   6.737   5.531
 2715SOL     OW 9043   6.258   1.049   6.414
 2715SOL    HW1 9044   6.338   1.005   6.454
 2715SOL    HW2 9045   6.218   1.112   6.482
 2716SOL     OW 9046   0.448   0.024   2.476
 2716SOL    HW1 9047   0.370   0.080   2.505
 2716SOL    HW2 9048   0.507   0.077   2.416
 2717SOL     OW 9049   0.670   1.016   2.527
 2717SOL    HW1 9050   0.727   1.077   2.470
 2717SOL    HW2 9051   0.707   1.013   2.619
 2718SOL     OW 9052   1.706   5.124   3.795
 2718SOL    HW1 9053   1.721   5.076   3.881
 2718SOL    HW2 9054   1.688   5.057   3.723
 2719SOL     OW 9055   4.063   5.308   1.579
 2719SOL    HW1 9056   4.053   5.393   1.630
 2719SOL    HW2 9057   4.020   5.318   1.488
 2720SOL     OW 9058   1.561   5.992   3.502
 2720SOL    HW1 9059   1.557   6.001   3.602
 2720SOL    HW2 9060   1.542   6.080   3.459
 2721SOL     OW 9061   3.850   0.012   4.275
 2721SOL    HW1 9062   3.904   0.093   4.300
 2721SOL    HW2 9063   3.879   6.955   4.330
 2722SOL     OW 9064   1.454   5.894   1.884
 2722SOL    HW1 9065   1.433   5.822   1.949
 2722SOL    HW2 9066   1.550   5.922   1.895
 2723SOL     OW 9067   1.437   1.345   5.915
 2723SOL    HW1 9068   1.447   1.438   5.880
 2723SOL    HW2 9069   1.450   1.280   5.841
 2724SOL     OW 9070   3.936   5.049   6.438
 2724SOL    HW1 9071   3.966   5.002   6.521
 2724SOL    HW2 9072   3.836   5.059   6.439
 2725SOL     OW 9073   3.315   4.904   3.865
 2725SOL    HW1 9074   3.300   4.895   3.963
 2725SOL    HW2 9075   3.264   4.982   3.830
 2726SOL     OW 9076   4.920   5.339   1.750
 2726SOL    HW1 9077   4.961   5.320   1.661
 2726SOL    HW2 9078   4.832   5.385   1.738
 2727SOL     OW 9079   2.315   5.538   2.916
 2727SOL    HW1 9080   2.331   5.498   2.826
 2727SOL    HW2 9081   2.314   5.466   2.986
 2728SOL     OW 9082   3.498   0.072   5.706
 2728SOL    HW1 9083   3.456   0.145   5.760
 2728SOL    HW2 9084   3.515   0.105   5.613
 2729SOL     OW 9085   5.676   5.354   3.022
 2729SOL    HW1 9086   5.627   5.373   2.937
 2729SOL    HW2 9087   5.752   5.292   3.003
 2730SOL     OW 9088   2.018   5.414   1.335
 2730SOL    HW1 9089   1.996   5.364   1.418
 2730SOL    HW2 9090   2.091   5.480   1.353
 2731SOL     OW 9091   3.214   3.869   1.655
 2731SOL    HW1 9092   3.150   3.863   1.733
 2731SOL    HW2 9093   3.252   3.961   1.651
 2732SOL     OW 9094   6.070   2.089   2.566
 2732SOL    HW1 9095   6.080   2.148   2.645
 2732SOL    HW2 9096   6.098   1.996   2.589
 2733SOL     OW 9097   1.733   0.055   5.961
 2733SOL    HW1 9098   1.690   0.141   5.990
 2733SOL    HW2 9099   1.665   7.019   5.914
 2734SOL     OW 9100   1.933   5.662   3.938
 2734SOL    HW1 9101   2.002   5.613   3.885
 2734SOL    HW2 9102   1.847   5.664   3.886
 2735SOL     OW 9103   1.833   5.179   2.342
 2735SOL    HW1 9104   1.755   5.213   2.289
 2735SOL    HW2 9105   1.880   5.108   2.289
 2736SOL     OW 9106   4.339   0.352   5.639
 2736SOL    HW1 9107   4.390   0.346   5.725
 2736SOL    HW2 9108   4.267   0.421   5.647
 2737SOL     OW 9109   4.732   3.703   6.483
 2737SOL    HW1 9110   4.707   3.653   6.400
 2737SOL    HW2 9111   4.806   3.766   6.463
 2738SOL     OW 9112   5.768   5.236   4.140
 2738SOL    HW1 9113   5.748   5.140   4.122
 2738SOL    HW2 9114   5.856   5.260   4.099
 2739SOL     OW 9115   6.191   2.752   0.566
 2739SOL    HW1 9116   6.173   2.784   0.659
 2739SOL    HW2 9117   6.233   2.661   0.570
 2740SOL     OW 9118   6.238   2.450   3.277
 2740SOL    HW1 9119   6.303   2.441   3.202
 2740SOL    HW2 9120   6.178   2.370   3.280
 2741SOL     OW 9121   0.711   2.572   5.819
 2741SOL    HW1 9122   0.735   2.479   5.793
 2741SOL    HW2 9123   0.686   2.575   5.916
 2742SOL     OW 9124   1.903   6.547   6.557
 2742SOL    HW1 9125   1.812   6.577   6.587
 2742SOL    HW2 9126   1.952   6.625   6.519
 2743SOL     OW 9127   5.303   4.948   0.734
 2743SOL    HW1 9128   5.357   4.868   0.709
 2743SOL    HW2 9129   5.364   5.019   0.769
 2744SOL     OW 9130   4.069   1.275   6.481
 2744SOL    HW1 9131   4.149   1.335   6.475
 2744SOL    HW2 9132   4.011   1.290   6.401
 2745SOL     OW 9133   2.252   5.803   0.486
 2745SOL    HW1 9134   2.257   5.773   0.582
 2745SOL    HW2 9135   2.344   5.802   0.447
 2746SOL     OW 9136   1.527   2.248   6.194
 2746SOL    HW1 9137   1.482   2.187   6.259
 2746SOL    HW2 9138   1.501   2.343   6.213
 2747SOL     OW 9139   3.963   5.796   4.152
 2747SOL    HW1 9140   3.941   5.891   4.173
 2747SOL    HW2 9141   3.923   5.772   4.063
 2748SOL     OW 9142   3.674   1.223   3.818
 2748SOL    HW1 9143   3.676   1.323   3.819
 2748SOL    HW2 9144   3.760   1.189   3.781
 2749SOL     OW 9145   4.420   5.495   4.078
 2749SOL    HW1 9146   4.452   5.411   4.034
 2749SOL    HW2 9147   4.342   5.474   4.137
 2750SOL     OW 9148   0.190   5.877   2.482
 2750SOL    HW1 9149   0.180   5.784   2.447
 2750SOL    HW2 9150   0.284   5.909   2.467
 2751SOL     OW 9151   1.335   0.250   6.479
 2751SOL    HW1 9152   1.402   0.233   6.551
 2751SOL    HW2 9153   1.252   0.196   6.498
 2752SOL     OW 9154   5.760   6.319   5.700
 2752SOL    HW1 9155   5.768   6.250   5.772
 2752SOL    HW2 9156   5.717   6.278   5.619
 2753SOL     OW 9157   2.408   5.532   5.634
 2753SOL    HW1 9158   2.454   5.447   5.608
 2753SOL    HW2 9159   2.321   5.510   5.679
 2754SOL     OW 9160   1.369   6.452   3.990
 2754SOL    HW1 9161   1.289   6.411   4.033
 2754SOL    HW2 9162   1.452   6.411   4.028
 2755SOL     OW 9163   3.598   6.000   2.538
 2755SOL    HW1 9164   3.670   5.999   2.468
 2755SOL    HW2 9165   3.555   5.910   2.543
 2756SOL     OW 9166   0.671   2.816   5.738
 2756SOL    HW1 9167   0.679   2.721   5.767
 2756SOL    HW2 9168   0.640   2.872   5.815
 2757SOL     OW 9169   4.287   3.422   6.934
 2757SOL    HW1 9170   4.272   3.503   6.878
 2757SOL    HW2 9171   4.279   3.340   6.877
 2758SOL     OW 9172   6.566   6.254   2.280
 2758SOL    HW1 9173   6.626   6.203   2.219
 2758SOL    HW2 9174   6.481   6.202   2.295
 2759SOL     OW 9175   3.242   3.915   6.025
 2759SOL    HW1 9176   3.298   3.839   5.994
 2759SOL    HW2 9177   3.225   3.978   5.949
 2760SOL     OW 9178   5.177   6.447   2.807
 2760SOL    HW1 9179   5.134   6.504   2.877
 2760SOL    HW2 9180   5.111   6.380   2.772
 2761SOL     OW 9181   1.075   2.736   3.650
 2761SOL    HW1 9182   1.073   2.821   3.703
 2761SOL    HW2 9183   1.098   2.758   3.555
 2762SOL     OW 9184   2.507   2.375   0.632
 2762SOL    HW1 9185   2.600   2.403   0.654
 2762SOL    HW2 9186   2.481   2.296   0.687
 2763SOL     OW 9187   5.918   2.039   4.919
 2763SOL    HW1 9188   5.960   1.948   4.923
 2763SOL    HW2 9189   5.912   2.069   4.824
 2764SOL     OW 9190   0.862   3.546   2.262
 2764SOL    HW1 9191   0.839   3.502   2.175
 2764SOL    HW2 9192   0.918   3.484   2.317
 2765SOL     OW 9193   6.363   6.925   6.986
 2765SOL    HW1 9194   6.332   6.989   6.915
 2765SOL    HW2 9195   6.370   6.833   6.948
 2766SOL     OW 9196   4.970   0.915   6.780
 2766SOL    HW1 9197   4.948   1.011   6.795
 2766SOL    HW2 9198   4.959   0.893   6.683
 2767SOL     OW 9199   6.864   5.484   6.484
 2767SOL    HW1 9200   6.930   5.555   6.461
 2767SOL    HW2 9201   6.771   5.515   6.462
 2768SOL     OW 9202   3.970   6.887   1.302
 2768SOL    HW1 9203   4.020   6.955   1.247
 2768SOL    HW2 9204   3.994   6.795   1.270
 2769SOL     OW 9205   0.525   4.562   5.745
 2769SOL    HW1 9206   0.550   4.544   5.649
 2769SOL    HW2 9207   0.597   4.617   5.788
 2770SOL     OW 9208   3.099   6.221   0.497
 2770SOL    HW1 9209   3.020   6.263   0.541
 2770SOL    HW2 9210   3.147   6.163   0.564
 2771SOL     OW 9211   4.433   6.711   5.047
 2771SOL    HW1 9212   4.525   6.672   5.053
 2771SOL    HW2 9213   4.440   6.810   5.031
 2772SOL     OW 9214   4.744   0.425   3.472
 2772SOL    HW1 9215   4.732   0.336   3.427
 2772SOL    HW2 9216   4.741   0.497   3.403
 2773SOL     OW 9217   5.687   2.764   5.028
 2773SOL    HW1 9218   5.612   2.797   5.085
 2773SOL    HW2 9219   5.650   2.717   4.948
 2774SOL     OW 9220   6.364   1.892   4.256
 2774SOL    HW1 9221   6.381   1.991   4.258
 2774SOL    HW2 9222   6.435   1.845   4.308
 2775SOL     OW 9223   0.334   3.467   4.089
 2775SOL    HW1 9224   0.358   3.370   4.100
 2775SOL    HW2 9225   0.416   3.520   4.067
 2776SOL     OW 9226   4.945   4.617   6.473
 2776SOL    HW1 9227   5.009   4.640   6.400
 2776SOL    HW2 9228   4.851   4.629   6.441
 2777SOL     OW 9229   2.653   2.396   6.893
 2777SOL    HW1 9230   2.559   2.411   6.924
 2777SOL    HW2 9231   2.679   2.469   6.829
 2778SOL     OW 9232   2.795   0.104   6.163
 2778SOL    HW1 9233   2.787   0.023   6.220
 2778SOL    HW2 9234   2.705   0.130   6.129
 2779SOL     OW 9235   4.987   0.826   1.526
 2779SOL    HW1 9236   4.897   0.840   1.567
 2779SOL    HW2 9237   4.977   0.791   1.433
 2780SOL     OW 9238   0.052   2.019   4.610
 2780SOL    HW1 9239   0.135   1.964   4.611
 2780SOL    HW2 9240   7.015   1.991   4.533
 2781SOL     OW 9241   5.568   1.439   3.383
 2781SOL    HW1 9242   5.602   1.500   3.454
 2781SOL    HW2 9243   5.615   1.351   3.389
 2782SOL     OW 9244   5.228   0.358   5.616
 2782SOL    HW1 9245   5.269   0.277   5.575
 2782SOL    HW2 9246   5.282   0.439   5.592
 2783SOL     OW 9247   5.967   3.971   1.431
 2783SOL    HW1 9248   6.008   3.957   1.521
 2783SOL    HW2 9249   5.872   3.941   1.431
 2784SOL     OW 9250   0.775   2.211   1.219
 2784SOL    HW1 9251   0.733   2.130   1.259
 2784SOL    HW2 9252   0.728   2.235   1.135
 2785SOL     OW 9253   5.808   3.290   1.205
 2785SOL    HW1 9254   5.851   3.232   1.273
 2785SOL    HW2 9255   5.710   3.297   1.224
 2786SOL     OW 9256   0.379   6.016   6.974
 2786SOL    HW1 9257   0.456   6.018   0.018
 2786SOL    HW2 9258   0.406   6.056   6.887
 2787SOL     OW 9259   6.881   5.681   0.263
 2787SOL    HW1 9260   6.861   5.637   0.351
 2787SOL    HW2 9261   6.945   5.624   0.212
 2788SOL     OW 9262   3.168   6.575   6.147
 2788SOL    HW1 9263   3.177   6.546   6.243
 2788SOL    HW2 9264   3.129   6.501   6.093
 2789SOL     OW 9265   1.162   1.759   5.139
 2789SOL    HW1 9266   1.248   1.762   5.192
 2789SOL    HW2 9267   1.148   1.847   5.095
 2790SOL     OW 9268   1.342   5.754   2.090
 2790SOL    HW1 9269   1.332   5.844   2.133
 2790SOL    HW2 9270   1.254   5.725   2.053
 2791SOL     OW 9271   0.259   3.603   2.907
 2791SOL    HW1 9272   0.298   3.690   2.936
 2791SOL    HW2 9273   0.184   3.620   2.844
 2792SOL     OW 9274   3.815   0.995   5.829
 2792SOL    HW1 9275   3.746   1.060   5.859
 2792SOL    HW2 9276   3.867   0.962   5.908
 2793SOL     OW 9277   3.465   3.920   0.356
 2793SOL    HW1 9278   3.437   3.904   0.451
 2793SOL    HW2 9279   3.499   4.014   0.347
 2794SOL     OW 9280   0.772   2.438   0.159
 2794SOL    HW1 9281   0.750   2.410   0.252
 2794SOL    HW2 9282   0.699   2.498   0.124
 2795SOL     OW 9283   0.726   5.658   1.614
 2795SOL    HW1 9284   0.735   5.563   1.644
 2795SOL    HW2 9285   0.801   5.682   1.554
 2796SOL     OW 9286   2.128   5.445   6.144
 2796SOL    HW1 9287   2.111   5.346   6.143
 2796SOL    HW2 9288   2.042   5.494   6.132
 2797SOL     OW 9289   4.940   5.816   3.336
 2797SOL    HW1 9290   4.954   5.803   3.238
 2797SOL    HW2 9291   4.850   5.781   3.362
 2798SOL     OW 9292   4.662   0.765   1.604
 2798SOL    HW1 9293   4.662   0.865   1.615
 2798SOL    HW2 9294   4.663   0.722   1.694
 2799SOL     OW 9295   3.652   6.126   5.075
 2799SOL    HW1 9296   3.747   6.126   5.044
 2799SOL    HW2 9297   3.594   6.080   5.006
 2800SOL     OW 9298   5.796   0.130   5.981
 2800SOL    HW1 9299   5.848   0.066   6.037
 2800SOL    HW2 9300   5.699   0.120   6.001
 2801SOL     OW 9301   0.119   4.449   4.693
 2801SOL    HW1 9302   0.113   4.502   4.609
 2801SOL    HW2 9303   0.210   4.408   4.700
 2802SOL     OW 9304   1.656   4.999   5.328
 2802SOL    HW1 9305   1.567   5.035   5.298
 2802SOL    HW2 9306   1.724   5.073   5.326
 2803SOL     OW 9307   3.617   2.124   6.226
 2803SOL    HW1 9308   3.551   2.127   6.151
 2803SOL    HW2 9309   3.661   2.213   6.235
 2804SOL     OW 9310   0.358   2.645   4.127
 2804SOL    HW1 9311   0.261   2.662   4.110
 2804SOL    HW2 9312   0.401   2.608   4.044
 2805SOL     OW 9313   3.704   3.071   1.131
 2805SOL    HW1 9314   3.644   3.040   1.205
 2805SOL    HW2 9315   3.796   3.034   1.145
 2806SOL     OW 9316   0.461   3.862   6.238
 2806SOL    HW1 9317   0.371   3.822   6.256
 2806SOL    HW2 9318   0.451   3.941   6.177
 2807SOL     OW 9319   3.961   0.413   3.789
 2807SOL    HW1 9320   3.968   0.512   3.772
 2807SOL    HW2 9321   3.975   0.396   3.886
 2808SOL     OW 9322   0.743   5.134   5.523
 2808SOL    HW1 9323   0.662   5.095   5.566
 2808SOL    HW2 9324   0.811   5.061   5.508
 2809SOL     OW 9325   0.056   5.438   1.951
 2809SOL    HW1 9326   0.096   5.363   2.004
 2809SOL    HW2 9327   0.094   5.437   1.859
 2810SOL     OW 9328   2.335   0.070   2.787
 2810SOL    HW1 9329   2.256   0.029   2.742
 2810SOL    HW2 9330   2.367   0.010   2.861
 2811SOL     OW 9331   1.156   1.049   1.340
 2811SOL    HW1 9332   1.098   1.030   1.419
 2811SOL    HW2 9333   1.247   1.076   1.371
 2812SOL     OW 9334   1.052   1.430   1.282
 2812SOL    HW1 9335   1.133   1.459   1.232
 2812SOL    HW2 9336   0.978   1.496   1.269
 2813SOL     OW 9337   0.948   3.296   1.536
 2813SOL    HW1 9338   0.894   3.372   1.498
 2813SOL    HW2 9339   1.038   3.294   1.492
 2814SOL     OW 9340   2.572   4.291   0.471
 2814SOL    HW1 9341   2.671   4.278   0.465
 2814SOL    HW2 9342   2.547   4.319   0.564
 2815SOL     OW 9343   0.221   4.893   4.653
 2815SOL    HW1 9344   0.303   4.855   4.610
 2815SOL    HW2 9345   0.161   4.818   4.681
 2816SOL     OW 9346   0.782   6.020   5.468
 2816SOL    HW1 9347   0.874   6.054   5.449
 2816SOL    HW2 9348   0.762   6.030   5.566
 2817SOL     OW 9349   3.980   0.913   2.263
 2817SOL    HW1 9350   3.981   0.996   2.319
 2817SOL    HW2 9351   4.073   0.890   2.236
 2818SOL     OW 9352   1.869   0.227   0.442
 2818SOL    HW1 9353   1.907   0.222   0.350
 2818SOL    HW2 9354   1.944   0.238   0.508
 2819SOL     OW 9355   0.706   0.273   6.641
 2819SOL    HW1 9356   0.776   0.344   6.639
 2819SOL    HW2 9357   0.630   0.303   6.699
 2820SOL     OW 9358   1.574   2.516   0.133
 2820SOL    HW1 9359   1.536   2.579   0.067
 2820SOL    HW2 9360   1.673   2.530   0.141
 2821SOL     OW 9361   3.253   3.300   6.152
 2821SOL    HW1 9362   3.299   3.300   6.063
 2821SOL    HW2 9363   3.155   3.283   6.138
 2822SOL     OW 9364   4.404   2.751   0.499
 2822SOL    HW1 9365   4.497   2.714   0.499
 2822SOL    HW2 9366   4.400   2.832   0.441
 2823SOL     OW 9367   4.876   2.707   1.558
 2823SOL    HW1 9368   4.968   2.743   1.542
 2823SOL    HW2 9369   4.861   2.696   1.657
 2824SOL     OW 9370   1.388   3.623   4.287
 2824SOL    HW1 9371   1.289   3.617   4.275
 2824SOL    HW2 9372   1.434   3.579   4.209
 2825SOL     OW 9373   5.530   1.846   6.298
 2825SOL    HW1 9374   5.544   1.908   6.221
 2825SOL    HW2 9375   5.435   1.853   6.329
 2826SOL     OW 9376   2.718   2.616   6.760
 2826SOL    HW1 9377   2.630   2.663   6.753
 2826SOL    HW2 9378   2.784   2.660   6.700
 2827SOL     OW 9379   6.114   1.045   6.189
 2827SOL    HW1 9380   6.090   1.142   6.187
 2827SOL    HW2 9381   6.156   1.023   6.277
 2828SOL     OW 9382   1.837   3.740   1.028
 2828SOL    HW1 9383   1.860   3.664   1.090
 2828SOL    HW2 9384   1.773   3.707   0.959
 2829SOL     OW 9385   3.317   3.722   2.390
 2829SOL    HW1 9386   3.315   3.714   2.291
 2829SOL    HW2 9387   3.319   3.630   2.431
 2830SOL     OW 9388   3.101   5.858   5.432
 2830SOL    HW1 9389   3.092   5.958   5.432
 2830SOL    HW2 9390   3.198   5.834   5.442
 2831SOL     OW 9391   5.576   2.048   2.093
 2831SOL    HW1 9392   5.622   2.011   2.173
 2831SOL    HW2 9393   5.543   1.973   2.035
 2832SOL     OW 9394   0.765   3.818   1.969
 2832SOL    HW1 9395   0.797   3.886   1.903
 2832SOL    HW2 9396   0.844   3.779   2.017
 2833SOL     OW 9397   1.633   2.426   1.876
 2833SOL    HW1 9398   1.621   2.339   1.827
 2833SOL    HW2 9399   1.655   2.498   1.810
 2834SOL     OW 9400   3.663   6.379   4.861
 2834SOL    HW1 9401   3.682   6.311   4.933
 2834SOL    HW2 9402   3.702   6.467   4.888
 2835SOL     OW 9403   6.584   0.761   0.227
 2835SOL    HW1 9404   6.568   0.664   0.249
 2835SOL    HW2 9405   6.545   0.818   0.299
 2836SOL     OW 9406   3.480   5.770   2.375
 2836SOL    HW1 9407   3.407   5.801   2.315
 2836SOL    HW2 9408   3.441   5.721   2.453
 2837SOL     OW 9409   5.043   3.974   1.806
 2837SOL    HW1 9410   4.979   3.897   1.799
 2837SOL    HW2 9411   5.008   4.051   1.754
 2838SOL     OW 9412   6.299   4.668   6.544
 2838SOL    HW1 9413   6.312   4.754   6.595
 2838SOL    HW2 9414   6.256   4.688   6.456
 2839SOL     OW 9415   6.103   3.381   4.795
 2839SOL    HW1 9416   6.201   3.368   4.805
 2839SOL    HW2 9417   6.063   3.304   4.746
 2840SOL     OW 9418   6.975   6.492   4.183
 2840SOL    HW1 9419   6.975   6.416   4.248
 2840SOL    HW2 9420   0.008   6.568   4.221
 2841SOL     OW 9421   6.288   3.830   2.462
 2841SOL    HW1 9422   6.201   3.868   2.433
 2841SOL    HW2 9423   6.346   3.902   2.500
 2842SOL     OW 9424   1.300   0.539   3.804
 2842SOL    HW1 9425   1.318   0.612   3.738
 2842SOL    HW2 9426   1.337   0.452   3.769
 2843SOL     OW 9427   2.070   2.459   3.972
 2843SOL    HW1 9428   2.007   2.406   3.915
 2843SOL    HW2 9429   2.030   2.548   3.992
 2844SOL     OW 9430   4.998   3.966   0.083
 2844SOL    HW1 9431   4.979   3.967   7.005
 2844SOL    HW2 9432   4.916   3.938   0.132
 2845SOL     OW 9433   3.362   1.993   2.876
 2845SOL    HW1 9434   3.284   1.938   2.905
 2845SOL    HW2 9435   3.409   2.030   2.956
 2846SOL     OW 9436   6.299   0.070   6.789
 2846SOL    HW1 9437   6.336   0.160   6.810
 2846SOL    HW2 9438   6.201   0.078   6.768
 2847SOL     OW 9439   4.488   4.303   1.409
 2847SOL    HW1 9440   4.511   4.207   1.422
 2847SOL    HW2 9441   4.481   4.323   1.311
 2848SOL     OW 9442   0.971   4.039   5.242
 2848SOL    HW1 9443   0.937   3.983   5.318
 2848SOL    HW2 9444   0.897   4.094   5.205
 2849SOL     OW 9445   4.782   0.379   1.768
 2849SOL    HW1 9446   4.684   0.391   1.752
 2849SOL    HW2 9447   4.825   0.342   1.685
 2850SOL     OW 9448   1.860   0.704   2.180
 2850SOL    HW1 9449   1.861   0.803   2.167
 2850SOL    HW2 9450   1.838   0.683   2.276
 2851SOL     OW 9451   3.458   2.976   1.684
 2851SOL    HW1 9452   3.531   2.951   1.747
 2851SOL    HW2 9453   3.379   3.009   1.736
 2852SOL     OW 9454   6.695   4.760   6.562
 2852SOL    HW1 9455   6.695   4.789   6.466
 2852SOL    HW2 9456   6.660   4.667   6.569
 2853SOL     OW 9457   0.093   4.244   5.641
 2853SOL    HW1 9458   0.186   4.229   5.674
 2853SOL    HW2 9459   0.059   4.161   5.597
 2854SOL     OW 9460   4.483   0.794   5.819
 2854SOL    HW1 9461   4.424   0.874   5.818
 2854SOL    HW2 9462   4.427   0.711   5.819
 2855SOL     OW 9463   2.289   2.100   5.005
 2855SOL    HW1 9464   2.254   2.193   4.993
 2855SOL    HW2 9465   2.258   2.064   5.093
 2856SOL     OW 9466   1.105   5.480   4.068
 2856SOL    HW1 9467   1.162   5.542   4.014
 2856SOL    HW2 9468   1.055   5.419   4.006
 2857SOL     OW 9469   6.865   4.632   1.234
 2857SOL    HW1 9470   6.784   4.597   1.189
 2857SOL    HW2 9471   6.903   4.561   1.294
 2858SOL     OW 9472   4.364   4.714   2.261
 2858SOL    HW1 9473   4.265   4.705   2.246
 2858SOL    HW2 9474   4.412   4.643   2.211
 2859SOL     OW 9475   5.198   4.618   0.911
 2859SOL    HW1 9476   5.192   4.716   0.894
 2859SOL    HW2 9477   5.275   4.598   0.970
 2860SOL     OW 9478   1.220   0.188   2.397
 2860SOL    HW1 9479   1.237   0.285   2.384
 2860SOL    HW2 9480   1.258   0.158   2.485
 2861SOL     OW 9481   4.954   4.694   5.973
 2861SOL    HW1 9482   4.899   4.722   5.895
 2861SOL    HW2 9483   4.984   4.775   6.023
 2862SOL     OW 9484   4.477   3.098   0.142
 2862SOL    HW1 9485   4.396   3.152   0.164
 2862SOL    HW2 9486   4.482   3.019   0.203
 2863SOL     OW 9487   5.915   0.789   5.065
 2863SOL    HW1 9488   5.903   0.823   5.159
 2863SOL    HW2 9489   5.861   0.706   5.053
 2864SOL     OW 9490   3.464   4.753   0.238
 2864SOL    HW1 9491   3.394   4.804   0.190
 2864SOL    HW2 9492   3.527   4.816   0.283
 2865SOL     OW 9493   5.860   5.164   4.843
 2865SOL    HW1 9494   5.796   5.237   4.870
 2865SOL    HW2 9495   5.923   5.200   4.774
 2866SOL     OW 9496   4.257   4.266   0.492
 2866SOL    HW1 9497   4.176   4.236   0.541
 2866SOL    HW2 9498   4.329   4.290   0.557
 2867SOL     OW 9499   5.346   6.213   2.062
 2867SOL    HW1 9500   5.386   6.305   2.070
 2867SOL    HW2 9501   5.272   6.203   2.129
 2868SOL     OW 9502   1.178   0.552   5.403
 2868SOL    HW1 9503   1.134   0.591   5.322
 2868SOL    HW2 9504   1.234   0.474   5.376
 2869SOL     OW 9505   6.350   5.495   4.235
 2869SOL    HW1 9506   6.280   5.520   4.168
 2869SOL    HW2 9507   6.371   5.398   4.226
 2870SOL     OW 9508   6.677   2.431   2.010
 2870SOL    HW1 9509   6.767   2.467   1.987
 2870SOL    HW2 9510   6.656   2.452   2.105
 2871SOL     OW 9511   4.973   2.123   2.413
 2871SOL    HW1 9512   5.041   2.054   2.436
 2871SOL    HW2 9513   4.887   2.101   2.460
 2872SOL     OW 9514   2.802   2.006   2.371
 2872SOL    HW1 9515   2.734   2.068   2.331
 2872SOL    HW2 9516   2.766   1.966   2.454
 2873SOL     OW 9517   0.600   7.020   1.013
 2873SOL    HW1 9518   0.672   6.952   1.025
 2873SOL    HW2 9519   0.514   6.986   1.050
 2874SOL     OW 9520   2.605   1.463   3.133
 2874SOL    HW1 9521   2.665   1.440   3.056
 2874SOL    HW2 9522   2.510   1.448   3.108
 2875SOL     OW 9523   1.912   6.987   2.808
 2875SOL    HW1 9524   1.900   6.896   2.847
 2875SOL    HW2 9525   1.909   0.035   2.881
 2876SOL     OW 9526   1.671   0.086   1.934
 2876SOL    HW1 9527   1.770   0.093   1.949
 2876SOL    HW2 9528   1.654   0.040   1.847
 2877SOL     OW 9529   1.085   2.560   6.849
 2877SOL    HW1 9530   1.154   2.520   6.909
 2877SOL    HW2 9531   1.033   2.628   6.900
 2878SOL     OW 9532   3.912   3.122   3.962
 2878SOL    HW1 9533   3.984   3.175   3.916
 2878SOL    HW2 9534   3.946   3.088   4.050
 2879SOL     OW 9535   4.750   4.221   0.012
 2879SOL    HW1 9536   4.685   4.193   6.962
 2879SOL    HW2 9537   4.824   4.274   6.990
 2880SOL     OW 9538   2.338   1.294   3.333
 2880SOL    HW1 9539   2.350   1.360   3.408
 2880SOL    HW2 9540   2.248   1.307   3.291
 2881SOL     OW 9541   4.960   6.156   7.005
 2881SOL    HW1 9542   5.022   6.079   6.991
 2881SOL    HW2 9543   4.870   6.122   0.010
 2882SOL     OW 9544   4.550   6.182   0.226
 2882SOL    HW1 9545   4.614   6.248   0.265
 2882SOL    HW2 9546   4.502   6.223   0.149
 2883SOL     OW 9547   5.787   5.833   4.065
 2883SOL    HW1 9548   5.730   5.772   4.009
 2883SOL    HW2 9549   5.822   5.907   4.009
 2884SOL     OW 9550   6.339   5.203   4.337
 2884SOL    HW1 9551   6.307   5.131   4.276
 2884SOL    HW2 9552   6.439   5.199   4.344
 2885SOL     OW 9553   1.081   2.571   3.365
 2885SOL    HW1 9554   1.033   2.559   3.452
 2885SOL    HW2 9555   1.177   2.546   3.378
 2886SOL     OW 9556   2.248   4.519   5.393
 2886SOL    HW1 9557   2.273   4.573   5.312
 2886SOL    HW2 9558   2.242   4.423   5.368
 2887SOL     OW 9559   0.424   5.895   3.145
 2887SOL    HW1 9560   0.500   5.932   3.091
 2887SOL    HW2 9561   0.413   5.948   3.229
 2888SOL     OW 9562   6.101   6.831   6.535
 2888SOL    HW1 9563   6.103   6.876   6.446
 2888SOL    HW2 9564   6.188   6.846   6.582
 2889SOL     OW 9565   3.472   6.232   2.602
 2889SOL    HW1 9566   3.398   6.251   2.537
 2889SOL    HW2 9567   3.520   6.149   2.575
 2890SOL     OW 9568   1.237   1.678   1.248
 2890SOL    HW1 9569   1.225   1.692   1.346
 2890SOL    HW2 9570   1.234   1.766   1.201
 2891SOL     OW 9571   6.955   2.551   4.717
 2891SOL    HW1 9572   6.904   2.499   4.648
 2891SOL    HW2 9573   6.983   2.489   4.790
 2892SOL     OW 9574   5.882   3.546   2.508
 2892SOL    HW1 9575   5.933   3.592   2.581
 2892SOL    HW2 9576   5.790   3.585   2.501
 2893SOL     OW 9577   6.597   5.555   4.932
 2893SOL    HW1 9578   6.533   5.478   4.931
 2893SOL    HW2 9579   6.690   5.520   4.947
 2894SOL     OW 9580   2.151   6.102   2.704
 2894SOL    HW1 9581   2.158   6.126   2.607
 2894SOL    HW2 9582   2.057   6.078   2.726
 2895SOL     OW 9583   4.489   6.897   5.969
 2895SOL    HW1 9584   4.404   6.845   5.961
 2895SOL    HW2 9585   4.553   6.868   5.898
 2896SOL     OW 9586   5.734   6.444   4.382
 2896SOL    HW1 9587   5.693   6.535   4.389
 2896SOL    HW2 9588   5.756   6.410   4.474
 2897SOL     OW 9589   4.419   5.035   3.101
 2897SOL    HW1 9590   4.366   5.000   3.024
 2897SOL    HW2 9591   4.399   5.132   3.114
 2898SOL     OW 9592   5.466   2.605   2.563
 2898SOL    HW1 9593   5.522   2.596   2.646
 2898SOL    HW2 9594   5.519   2.652   2.492
 2899SOL     OW 9595   6.902   4.093   0.846
 2899SOL    HW1 9596   6.956   4.022   0.891
 2899SOL    HW2 9597   6.891   4.170   0.909
 2900SOL     OW 9598   2.546   3.332   5.732
 2900SOL    HW1 9599   2.592   3.407   5.684
 2900SOL    HW2 9600   2.582   3.325   5.825
 2901SOL     OW 9601   0.718   3.893   3.276
 2901SOL    HW1 9602   0.633   3.921   3.320
 2901SOL    HW2 9603   0.765   3.972   3.239
 2902SOL     OW 9604   6.838   6.126   3.641
 2902SOL    HW1 9605   6.911   6.074   3.685
 2902SOL    HW2 9606   6.833   6.101   3.544
 2903SOL     OW 9607   4.751   5.139   0.494
 2903SOL    HW1 9608   4.686   5.197   0.542
 2903SOL    HW2 9609   4.803   5.085   0.560
 2904SOL     OW 9610   2.519   4.151   5.339
 2904SOL    HW1 9611   2.540   4.237   5.293
 2904SOL    HW2 9612   2.475   4.089   5.275
 2905SOL     OW 9613   1.389   6.224   1.759
 2905SOL    HW1 9614   1.478   6.187   1.789
 2905SOL    HW2 9615   1.374   6.201   1.663
 2906SOL     OW 9616   6.429   6.320   4.158
 2906SOL    HW1 9617   6.376   6.391   4.111
 2906SOL    HW2 9618   6.367   6.248   4.188
 2907SOL     OW 9619   0.806   1.291   4.378
 2907SOL    HW1 9620   0.829   1.388   4.386
 2907SOL    HW2 9621   0.834   1.257   4.289
 2908SOL     OW 9622   4.308   6.647   2.859
 2908SOL    HW1 9623   4.364   6.614   2.784
 2908SOL    HW2 9624   4.213   6.657   2.829
 2909SOL     OW 9625   0.352   6.419   1.724
 2909SOL    HW1 9626   0.317   6.339   1.676
 2909SOL    HW2 9627   0.279   6.488   1.731
 2910SOL     OW 9628   0.122   0.941   4.207
 2910SOL    HW1 9629   0.146   0.963   4.112
 2910SOL    HW2 9630   0.205   0.940   4.263
 2911SOL     OW 9631   6.941   4.636   5.270
 2911SOL    HW1 9632   6.939   4.713   5.334
 2911SOL    HW2 9633   7.009   4.654   5.199
 2912SOL     OW 9634   0.920   1.262   1.859
 2912SOL    HW1 9635   0.884   1.304   1.776
 2912SOL    HW2 9636   0.963   1.174   1.837
 2913SOL     OW 9637   3.134   6.911   1.882
 2913SOL    HW1 9638   3.085   6.858   1.812
 2913SOL    HW2 9639   3.084   6.996   1.899
 2914SOL     OW 9640   3.912   5.435   0.886
 2914SOL    HW1 9641   4.010   5.437   0.866
 2914SOL    HW2 9642   3.891   5.501   0.958
 2915SOL     OW 9643   2.073   0.628   2.528
 2915SOL    HW1 9644   1.987   0.618   2.579
 2915SOL    HW2 9645   2.150   0.601   2.586
 2916SOL     OW 9646   1.538   6.251   0.033
 2916SOL    HW1 9647   1.516   6.171   0.090
 2916SOL    HW2 9648   1.618   6.231   6.997
 2917SOL     OW 9649   2.863   6.337   3.717
 2917SOL    HW1 9650   2.898   6.425   3.749
 2917SOL    HW2 9651   2.777   6.316   3.765
 2918SOL     OW 9652   4.869   2.683   1.867
 2918SOL    HW1 9653   4.941   2.616   1.885
 2918SOL    HW2 9654   4.849   2.733   1.952
 2919SOL     OW 9655   0.802   5.919   5.058
 2919SOL    HW1 9656   0.875   5.981   5.086
 2919SOL    HW2 9657   0.804   5.837   5.115
 2920SOL     OW 9658   1.801   2.210   2.757
 2920SOL    HW1 9659   1.763   2.277   2.693
 2920SOL    HW2 9660   1.886   2.172   2.720
 2921SOL     OW 9661   1.124   6.309   3.705
 2921SOL    HW1 9662   1.222   6.327   3.700
 2921SOL    HW2 9663   1.103   6.261   3.789
 2922SOL     OW 9664   3.563   6.409   3.866
 2922SOL    HW1 9665   3.517   6.436   3.950
 2922SOL    HW2 9666   3.503   6.427   3.788
 2923SOL     OW 9667   6.479   5.659   5.155
 2923SOL    HW1 9668   6.510   5.631   5.064
 2923SOL    HW2 9669   6.406   5.597   5.185
 2924SOL     OW 9670   6.052   2.187   5.251
 2924SOL    HW1 9671   5.978   2.189   5.319
 2924SOL    HW2 9672   6.121   2.121   5.279
 2925SOL     OW 9673   5.058   6.268   5.836
 2925SOL    HW1 9674   5.074   6.359   5.875
 2925SOL    HW2 9675   5.074   6.271   5.737
 2926SOL     OW 9676   6.490   3.307   4.353
 2926SOL    HW1 9677   6.548   3.305   4.272
 2926SOL    HW2 9678   6.485   3.216   4.393
 2927SOL     OW 9679   1.024   1.923   2.117
 2927SOL    HW1 9680   0.930   1.907   2.147
 2927SOL    HW2 9681   1.088   1.880   2.182
 2928SOL     OW 9682   6.892   3.149   0.169
 2928SOL    HW1 9683   6.887   3.113   0.075
 2928SOL    HW2 9684   6.812   3.118   0.221
 2929SOL     OW 9685   2.339   2.192   4.267
 2929SOL    HW1 9686   2.242   2.211   4.254
 2929SOL    HW2 9687   2.384   2.271   4.307
 2930SOL     OW 9688   0.868   3.899   4.415
 2930SOL    HW1 9689   0.864   3.800   4.431
 2930SOL    HW2 9690   0.805   3.924   4.343
 2931SOL     OW 9691   4.896   3.806   5.720
 2931SOL    HW1 9692   4.872   3.864   5.798
 2931SOL    HW2 9693   4.964   3.853   5.663
 2932SOL     OW 9694   6.169   5.379   0.668
 2932SOL    HW1 9695   6.182   5.380   0.569
 2932SOL    HW2 9696   6.242   5.433   0.712
 2933SOL     OW 9697   1.289   0.294   0.065
 2933SOL    HW1 9698   1.314   0.265   0.157
 2933SOL    HW2 9699   1.226   0.372   0.070
 2934SOL     OW 9700   3.467   4.507   0.398
 2934SOL    HW1 9701   3.458   4.518   0.299
 2934SOL    HW2 9702   3.502   4.592   0.438
 2935SOL     OW 9703   0.456   2.451   6.365
 2935SOL    HW1 9704   0.441   2.523   6.298
 2935SOL    HW2 9705   0.551   2.420   6.361
 2936SOL     OW 9706   4.571   6.147   0.830
 2936SOL    HW1 9707   4.538   6.064   0.875
 2936SOL    HW2 9708   4.635   6.123   0.757
 2937SOL     OW 9709   4.949   4.754   2.462
 2937SOL    HW1 9710   5.003   4.673   2.440
 2937SOL    HW2 9711   4.855   4.727   2.482
 2938SOL     OW 9712   0.166   5.215   6.285
 2938SOL    HW1 9713   0.093   5.278   6.260
 2938SOL    HW2 9714   0.194   5.231   6.379
 2939SOL     OW 9715   7.013   6.394   1.921
 2939SOL    HW1 9716   0.028   6.365   2.009
 2939SOL    HW2 9717   6.956   6.321   1.882
 2940SOL     OW 9718   3.860   6.697   3.829
 2940SOL    HW1 9719   3.924   6.753   3.776
 2940SOL    HW2 9720   3.860   6.604   3.793
 2941SOL     OW 9721   1.871   4.717   3.444
 2941SOL    HW1 9722   1.930   4.768   3.382
 2941SOL    HW2 9723   1.833   4.637   3.396
 2942SOL     OW 9724   3.490   1.735   1.019
 2942SOL    HW1 9725   3.500   1.649   1.069
 2942SOL    HW2 9726   3.493   1.812   1.082
 2943SOL     OW 9727   5.954   3.932   3.150
 2943SOL    HW1 9728   6.042   3.886   3.159
 2943SOL    HW2 9729   5.887   3.870   3.109
 2944SOL     OW 9730   2.207   6.160   2.432
 2944SOL    HW1 9731   2.272   6.163   2.356
 2944SOL    HW2 9732   2.122   6.205   2.405
 2945SOL     OW 9733   4.772   4.355   1.167
 2945SOL    HW1 9734   4.740   4.305   1.087
 2945SOL    HW2 9735   4.799   4.447   1.141
 2946SOL     OW 9736   3.807   3.509   5.248
 2946SOL    HW1 9737   3.758   3.527   5.163
 2946SOL    HW2 9738   3.783   3.579   5.316
 2947SOL     OW 9739   6.583   6.315   0.859
 2947SOL    HW1 9740   6.520   6.363   0.799
 2947SOL    HW2 9741   6.662   6.283   0.806
 2948SOL     OW 9742   6.767   3.504   1.841
 2948SOL    HW1 9743   6.820   3.554   1.909
 2948SOL    HW2 9744   6.671   3.501   1.869
 2949SOL     OW 9745   1.270   6.758   0.744
 2949SOL    HW1 9746   1.246   6.682   0.683
 2949SOL    HW2 9747   1.363   6.747   0.777
 2950SOL     OW 9748   5.902   5.216   2.985
 2950SOL    HW1 9749   5.974   5.243   3.048
 2950SOL    HW2 9750   5.940   5.204   2.894
 2951SOL     OW 9751   6.907   1.670   1.573
 2951SOL    HW1 9752   6.827   1.654   1.631
 2951SOL    HW2 9753   6.929   1.586   1.523
 2952SOL     OW 9754   6.788   1.897   5.069
 2952SOL    HW1 9755   6.779   1.882   5.168
 2952SOL    HW2 9756   6.793   1.995   5.051
 2953SOL     OW 9757   1.216   5.128   3.771
 2953SOL    HW1 9758   1.178   5.219   3.755
 2953SOL    HW2 9759   1.146   5.059   3.750
 2954SOL     OW 9760   0.283   4.612   6.062
 2954SOL    HW1 9761   0.220   4.678   6.022
 2954SOL    HW2 9762   0.293   4.534   6.000
 2955SOL     OW 9763   2.376   4.243   5.673
 2955SOL    HW1 9764   2.373   4.149   5.639
 2955SOL    HW2 9765   2.441   4.296   5.618
 2956SOL     OW 9766   5.488   4.743   4.200
 2956SOL    HW1 9767   5.525   4.684   4.129
 2956SOL    HW2 9768   5.543   4.826   4.206
 2957SOL     OW 9769   2.203   4.816   1.384
 2957SOL    HW1 9770   2.189   4.877   1.462
 2957SOL    HW2 9771   2.184   4.722   1.411
 2958SOL     OW 9772   1.867   5.182   2.613
 2958SOL    HW1 9773   1.851   5.166   2.516
 2958SOL    HW2 9774   1.898   5.097   2.656
 2959SOL     OW 9775   6.875   3.585   2.560
 2959SOL    HW1 9776   6.781   3.582   2.593
 2959SOL    HW2 9777   6.914   3.492   2.563
 2960SOL     OW 9778   5.532   6.912   0.878
 2960SOL    HW1 9779   5.560   6.819   0.903
 2960SOL    HW2 9780   5.592   6.978   0.922
 2961SOL     OW 9781   5.533   3.439   1.909
 2961SOL    HW1 9782   5.579   3.500   1.845
 2961SOL    HW2 9783   5.443   3.476   1.932
 2962SOL     OW 9784   6.788   0.098   3.121
 2962SOL    HW1 9785   6.809   0.056   3.033
 2962SOL    HW2 9786   6.734   0.181   3.107
 2963SOL     OW 9787   1.937   0.851   5.397
 2963SOL    HW1 9788   1.915   0.811   5.308
 2963SOL    HW2 9789   1.992   0.787   5.450
 2964SOL     OW 9790   1.273   1.164   6.655
 2964SOL    HW1 9791   1.214   1.092   6.691
 2964SOL    HW2 9792   1.339   1.191   6.726
 2965SOL     OW 9793   6.873   6.963   5.371
 2965SOL    HW1 9794   6.905   6.938   5.463
 2965SOL    HW2 9795   6.866   6.880   5.316
 2966SOL     OW 9796   3.112   5.722   2.218
 2966SOL    HW1 9797   3.174   5.797   2.239
 2966SOL    HW2 9798   3.132   5.644   2.277
 2967SOL     OW 9799   5.437   0.619   4.573
 2967SOL    HW1 9800   5.445   0.649   4.478
 2967SOL    HW2 9801   5.399   0.527   4.576
 2968SOL     OW 9802   1.459   3.693   1.450
 2968SOL    HW1 9803   1.388   3.650   1.395
 2968SOL    HW2 9804   1.521   3.744   1.391
 2969SOL     OW 9805   4.908   3.297   5.124
 2969SOL    HW1 9806   4.845   3.288   5.201
 2969SOL    HW2 9807   4.886   3.380   5.073
 2970SOL     OW 9808   2.983   1.872   4.315
 2970SOL    HW1 9809   2.946   1.896   4.225
 2970SOL    HW2 9810   3.042   1.793   4.307
 2971SOL     OW 9811   5.416   3.166   6.091
 2971SOL    HW1 9812   5.431   3.178   5.993
 2971SOL    HW2 9813   5.503   3.147   6.136
 2972SOL     OW 9814   6.205   5.609   0.116
 2972SOL    HW1 9815   6.251   5.553   0.047
 2972SOL    HW2 9816   6.106   5.597   0.108
 2973SOL     OW 9817   4.367   0.913   3.841
 2973SOL    HW1 9818   4.331   0.912   3.748
 2973SOL    HW2 9819   4.441   0.846   3.849
 2974SOL     OW 9820   4.759   6.724   1.868
 2974SOL    HW1 9821   4.782   6.815   1.834
 2974SOL    HW2 9822   4.816   6.701   1.946
 2975SOL     OW 9823   4.939   3.973   3.999
 2975SOL    HW1 9824   4.961   3.904   3.931
 2975SOL    HW2 9825   4.891   3.929   4.076
 2976SOL     OW 9826   4.022   1.467   2.348
 2976SOL    HW1 9827   3.954   1.509   2.289
 2976SOL    HW2 9828   4.113   1.476   2.306
 2977SOL     OW 9829   0.970   0.774   1.708
 2977SOL    HW1 9830   0.903   0.704   1.683
 2977SOL    HW2 9831   1.053   0.731   1.742
 2978SOL     OW 9832   4.589   5.336   6.587
 2978SOL    HW1 9833   4.656   5.387   6.533
 2978SOL    HW2 9834   4.512   5.396   6.608
 2979SOL     OW 9835   2.897   0.889   4.190
 2979SOL    HW1 9836   2.878   0.970   4.135
 2979SOL    HW2 9837   2.815   0.832   4.196
 2980SOL     OW 9838   3.623   3.499   5.004
 2980SOL    HW1 9839   3.705   3.465   4.958
 2980SOL    HW2 9840   3.572   3.558   4.943
 2981SOL     OW 9841   2.355   1.008   1.511
 2981SOL    HW1 9842   2.267   1.026   1.468
 2981SOL    HW2 9843   2.354   0.918   1.554
 2982SOL     OW 9844   2.003   6.923   0.528
 2982SOL    HW1 9845   1.979   6.837   0.573
 2982SOL    HW2 9846   2.053   6.981   0.593
 2983SOL     OW 9847   6.429   3.183   5.678
 2983SOL    HW1 9848   6.343   3.208   5.635
 2983SOL    HW2 9849   6.498   3.165   5.608
 2984SOL     OW 9850   0.510   5.202   1.430
 2984SOL    HW1 9851   0.513   5.158   1.520
 2984SOL    HW2 9852   0.539   5.297   1.438
 2985SOL     OW 9853   0.304   6.940   5.812
 2985SOL    HW1 9854   0.224   6.915   5.757
 2985SOL    HW2 9855   0.368   6.994   5.757
 2986SOL     OW 9856   3.693   3.541   2.380
 2986SOL    HW1 9857   3.605   3.548   2.334
 2986SOL    HW2 9858   3.736   3.454   2.357
 2987SOL     OW 9859   1.728   6.101   5.321
 2987SOL    HW1 9860   1.786   6.175   5.288
 2987SOL    HW2 9861   1.648   6.139   5.367
 2988SOL     OW 9862   0.192   1.427   6.475
 2988SOL    HW1 9863   0.200   1.373   6.559
 2988SOL    HW2 9864   0.130   1.381   6.411
 2989SOL     OW 9865   4.990   2.769   4.557
 2989SOL    HW1 9866   4.899   2.809   4.547
 2989SOL    HW2 9867   5.020   2.732   4.469
 2990SOL     OW 9868   5.576   1.708   4.375
 2990SOL    HW1 9869   5.637   1.758   4.314
 2990SOL    HW2 9870   5.622   1.625   4.407
 2991SOL     OW 9871   0.435   3.669   0.725
 2991SOL    HW1 9872   0.503   3.724   0.678
 2991SOL    HW2 9873   0.464   3.654   0.820
 2992SOL     OW 9874   0.573   3.768   5.457
 2992SOL    HW1 9875   0.637   3.716   5.401
 2992SOL    HW2 9876   0.499   3.708   5.487
 2993SOL     OW 9877   2.679   3.369   1.203
 2993SOL    HW1 9878   2.777   3.360   1.215
 2993SOL    HW2 9879   2.660   3.430   1.126
 2994SOL     OW 9880   3.870   5.391   5.936
 2994SOL    HW1 9881   3.810   5.311   5.928
 2994SOL    HW2 9882   3.821   5.465   5.982
 2995SOL     OW 9883   4.595   0.786   0.877
 2995SOL    HW1 9884   4.593   0.882   0.906
 2995SOL    HW2 9885   4.578   0.781   0.779
 2996SOL     OW 9886   6.972   0.499   4.341
 2996SOL    HW1 9887   6.953   0.536   4.432
 2996SOL    HW2 9888   0.022   0.554   4.296
 2997SOL     OW 9889   4.879   6.475   4.323
 2997SOL    HW1 9890   4.840   6.565   4.301
 2997SOL    HW2 9891   4.832   6.438   4.403
 2998SOL     OW 9892   2.689   1.660   2.284
 2998SOL    HW1 9893   2.714   1.710   2.367
 2998SOL    HW2 9894   2.684   1.562   2.304
 2999SOL     OW 9895   3.365   3.994   1.055
 2999SOL    HW1 9896   3.279   3.943   1.046
 2999SOL    HW2 9897   3.440   3.930   1.073
 3000SOL     OW 9898   3.068   4.132   5.182
 3000SOL    HW1 9899   3.087   4.221   5.223
 3000SOL    HW2 9900   2.973   4.106   5.201
 3001SOL     OW 9901   5.500   0.740   5.691
 3001SOL    HW1 9902   5.463   0.732   5.784
 3001SOL    HW2 9903   5.580   0.680   5.681
 3002SOL     OW 9904   1.510   2.017   2.016
 3002SOL    HW1 9905   1.549   2.050   1.930
 3002SOL    HW2 9906   1.582   2.002   2.083
 3003SOL     OW 9907   1.756   6.185   6.845
 3003SOL    HW1 9908   1.791   6.124   6.916
 3003SOL    HW2 9909   1.812   6.267   6.840
 3004SOL     OW 9910   2.363   6.605   3.594
 3004SOL    HW1 9911   2.443   6.646   3.638
 3004SOL    HW2 9912   2.389   6.519   3.551
 3005SOL     OW 9913   0.994   1.927   0.053
 3005SOL    HW1 9914   1.061   1.891   7.009
 3005SOL    HW2 9915   0.964   2.018   0.024
 3006SOL     OW 9916   5.122   1.712   5.996
 3006SOL    HW1 9917   5.098   1.720   6.092
 3006SOL    HW2 9918   5.202   1.769   5.976
 3007SOL     OW 9919   5.527   5.651   0.045
 3007SOL    HW1 9920   5.592   5.585   0.009
 3007SOL    HW2 9921   5.470   5.606   0.115
 3008SOL     OW 9922   4.890   3.551   5.804
 3008SOL    HW1 9923   4.979   3.513   5.780
 3008SOL    HW2 9924   4.885   3.646   5.774
 3009SOL     OW 9925   0.323   3.401   1.746
 3009SOL    HW1 9926   0.348   3.331   1.680
 3009SOL    HW2 9927   0.223   3.402   1.758
 3010SOL     OW 9928   4.079   5.739   0.935
 3010SOL    HW1 9929   4.108   5.768   0.844
 3010SOL    HW2 9930   4.049   5.819   0.986
 3011SOL     OW 9931   6.589   0.819   1.076
 3011SOL    HW1 9932   6.560   0.724   1.083
 3011SOL    HW2 9933   6.646   0.831   0.995
 3012SOL     OW 9934   2.182   2.321   5.262
 3012SOL    HW1 9935   2.160   2.419   5.259
 3012SOL    HW2 9936   2.282   2.310   5.264
 3013SOL     OW 9937   0.499   4.852   4.615
 3013SOL    HW1 9938   0.572   4.855   4.684
 3013SOL    HW2 9939   0.529   4.902   4.533
 3014SOL     OW 9940   5.528   0.194   6.083
 3014SOL    HW1 9941   5.521   0.125   6.155
 3014SOL    HW2 9942   5.436   0.215   6.049
 3015SOL     OW 9943   1.099   0.726   6.492
 3015SOL    HW1 9944   1.075   0.679   6.407
 3015SOL    HW2 9945   1.178   0.785   6.476
 3016SOL     OW 9946   1.941   6.223   4.129
 3016SOL    HW1 9947   1.960   6.156   4.057
 3016SOL    HW2 9948   2.023   6.276   4.147
 3017SOL     OW 9949   1.111   5.281   0.509
 3017SOL    HW1 9950   1.155   5.366   0.539
 3017SOL    HW2 9951   1.155   5.249   0.425
 3018SOL     OW 9952   3.562   0.161   1.420
 3018SOL    HW1 9953   3.476   0.199   1.457
 3018SOL    HW2 9954   3.541   0.085   1.359
 3019SOL     OW 9955   1.827   0.509   6.065
 3019SOL    HW1 9956   1.904   0.446   6.074
 3019SOL    HW2 9957   1.861   0.603   6.071
 3020SOL     OW 9958   6.435   4.277   6.797
 3020SOL    HW1 9959   6.343   4.249   6.771
 3020SOL    HW2 9960   6.446   4.269   6.896
 3021SOL     OW 9961   4.068   0.414   4.928
 3021SOL    HW1 9962   4.101   0.363   5.007
 3021SOL    HW2 9963   4.111   0.504   4.926
 3022SOL     OW 9964   3.556   5.666   3.406
 3022SOL    HW1 9965   3.642   5.674   3.356
 3022SOL    HW2 9966   3.532   5.756   3.444
 3023SOL     OW 9967   5.130   5.569   4.533
 3023SOL    HW1 9968   5.076   5.535   4.455
 3023SOL    HW2 9969   5.218   5.602   4.500
 3024SOL     OW 9970   0.212   6.976   0.227
 3024SOL    HW1 9971   0.163   7.000   0.311
 3024SOL    HW2 9972   0.276   0.028   0.204
 3025SOL     OW 9973   3.964   5.512   0.208
 3025SOL    HW1 9974   3.950   5.556   0.119
 3025SOL    HW2 9975   4.058   5.526   0.238
 3026SOL     OW 9976   6.819   0.773   1.984
 3026SOL    HW1 9977   6.824   0.747   2.080
 3026SOL    HW2 9978   6.907   0.811   1.955
 3027SOL     OW 9979   4.361   0.662   0.750
 3027SOL    HW1 9980   4.429   0.711   0.804
 3027SOL    HW2 9981   4.294   0.619   0.812
 3028SOL     OW 9982   2.940   2.907   5.649
 3028SOL    HW1 9983   2.904   2.821   5.686
 3028SOL    HW2 9984   3.008   2.887   5.578
 3029SOL     OW 9985   6.977   3.063   4.548
 3029SOL    HW1 9986   6.918   3.051   4.628
 3029SOL    HW2 9987   0.021   2.987   4.543
 3030SOL     OW 9988   2.211   2.999   6.634
 3030SOL    HW1 9989   2.210   2.991   6.733
 3030SOL    HW2 9990   2.266   2.925   6.595
 3031SOL     OW 9991   0.955   6.115   0.508
 3031SOL    HW1 9992   0.870   6.123   0.560
 3031SOL    HW2 9993   1.006   6.035   0.539
 3032SOL     OW 9994   2.550   0.550   2.863
 3032SOL    HW1 9995   2.637   0.513   2.895
 3032SOL    HW2 9996   2.479   0.481   2.872
 3033SOL     OW 9997   0.529   1.422   5.631
 3033SOL    HW1 9998   0.525   1.513   5.673
 3033SOL    HW2 9999   0.496   1.353   5.695
 3034SOL     OW10000   6.455   4.387   3.261
 3034SOL    HW110001   6.378   4.429   3.310
 3034SOL    HW210002   6.444   4.288   3.260
 3035SOL     OW10003   0.717   3.390   0.571
 3035SOL    HW110004   0.704   3.413   0.667
 3035SOL    HW210005   0.812   3.365   0.555
 3036SOL     OW10006   3.038   2.221   5.341
 3036SOL    HW110007   3.107   2.275   5.292
 3036SOL    HW210008   3.083   2.155   5.401
 3037SOL     OW10009   0.968   5.685   6.939
 3037SOL    HW110010   0.970   5.703   6.840
 3037SOL    HW210011   0.974   5.772   6.988
 3038SOL     OW10012   5.798   4.417   5.840
 3038SOL    HW110013   5.833   4.327   5.816
 3038SOL    HW210014   5.859   4.461   5.905
 3039SOL     OW10015   6.768   3.863   5.960
 3039SOL    HW110016   6.701   3.902   5.897
 3039SOL    HW210017   6.772   3.763   5.947
 3040SOL     OW10018   5.534   4.885   6.365
 3040SOL    HW110019   5.528   4.980   6.397
 3040SOL    HW210020   5.596   4.880   6.287
 3041SOL     OW10021   1.304   4.389   5.715
 3041SOL    HW110022   1.295   4.407   5.813
 3041SOL    HW210023   1.218   4.411   5.669
 3042SOL     OW10024   0.582   5.338   4.047
 3042SOL    HW110025   0.534   5.253   4.067
 3042SOL    HW210026   0.524   5.399   3.994
 3043SOL     OW10027   2.595   5.196   0.613
 3043SOL    HW110028   2.618   5.262   0.684
 3043SOL    HW210029   2.496   5.186   0.607
 3044SOL     OW10030   3.717   3.491   4.413
 3044SOL    HW110031   3.620   3.517   4.407
 3044SOL    HW210032   3.773   3.573   4.425
 3045SOL     OW10033   4.204   1.987   2.156
 3045SOL    HW110034   4.274   2.058   2.163
 3045SOL    HW210035   4.113   2.029   2.156
 3046SOL     OW10036   5.036   6.448   0.711
 3046SOL    HW110037   5.037   6.530   0.653
 3046SOL    HW210038   5.118   6.394   0.695
 3047SOL     OW10039   5.893   1.447   4.899
 3047SOL    HW110040   5.916   1.367   4.844
 3047SOL    HW210041   5.911   1.427   4.996
 3048SOL     OW10042   3.794   4.690   1.229
 3048SOL    HW110043   3.780   4.746   1.311
 3048SOL    HW210044   3.758   4.739   1.149
 3049SOL     OW10045   1.002   1.836   3.036
 3049SOL    HW110046   1.013   1.738   3.054
 3049SOL    HW210047   0.929   1.850   2.970
 3050SOL     OW10048   3.560   2.064   0.064
 3050SOL    HW110049   3.523   2.154   0.088
 3050SOL    HW210050   3.653   2.055   0.100
 3051SOL     OW10051   2.231   5.034   5.553
 3051SOL    HW110052   2.278   5.122   5.564
 3051SOL    HW210053   2.296   4.964   5.524
 3052SOL     OW10054   7.010   0.008   2.211
 3052SOL    HW110055   0.041   6.948   2.240
 3052SOL    HW210056   6.924   0.013   2.263
 3053SOL     OW10057   1.110   4.107   0.594
 3053SOL    HW110058   1.193   4.157   0.571
 3053SOL    HW210059   1.116   4.073   0.688
 3054SOL     OW10060   5.235   0.547   2.767
 3054SOL    HW110061   5.324   0.547   2.814
 3054SOL    HW210062   5.226   0.630   2.713
 3055SOL     OW10063   5.828   6.322   6.619
 3055SOL    HW110064   5.793   6.231   6.644
 3055SOL    HW210065   5.795   6.345   6.527
 3056SOL     OW10066   4.979   1.128   5.757
 3056SOL    HW110067   4.978   1.067   5.836
 3056SOL    HW210068   4.906   1.196   5.767
 3057SOL     OW10069   5.183   3.651   3.018
 3057SOL    HW110070   5.112   3.713   2.984
 3057SOL    HW210071   5.153   3.556   3.004
 3058SOL     OW10072   0.518   4.598   6.200
 3058SOL    HW110073   0.431   4.604   6.150
 3058SOL    HW210074   0.558   4.507   6.186
 3059SOL     OW10075   1.600   1.639   3.338
 3059SOL    HW110076   1.571   1.565   3.399
 3059SOL    HW210077   1.580   1.613   3.243
 3060SOL     OW10078   5.691   4.933   4.456
 3060SOL    HW110079   5.646   4.894   4.535
 3060SOL    HW210080   5.683   5.033   4.458
 3061SOL     OW10081   6.074   6.836   4.325
 3061SOL    HW110082   6.100   6.749   4.366
 3061SOL    HW210083   6.091   6.833   4.227
 3062SOL     OW10084   4.148   4.444   0.736
 3062SOL    HW110085   4.187   4.383   0.804
 3062SOL    HW210086   4.057   4.412   0.711
 3063SOL     OW10087   0.626   4.684   2.667
 3063SOL    HW110088   0.631   4.716   2.572
 3063SOL    HW210089   0.538   4.711   2.706
 3064SOL     OW10090   4.869   2.193   6.812
 3064SOL    HW110091   4.923   2.121   6.856
 3064SOL    HW210092   4.799   2.226   6.876
 3065SOL     OW10093   6.041   1.767   0.031
 3065SOL    HW110094   6.134   1.738   0.012
 3065SOL    HW210095   5.992   1.784   6.966
 3066SOL     OW10096   5.232   6.725   4.752
 3066SOL    HW110097   5.172   6.795   4.792
 3066SOL    HW210098   5.306   6.704   4.816
 3067SOL     OW10099   1.134   2.595   5.535
 3067SOL    HW110100   1.048   2.639   5.509
 3067SOL    HW210101   1.205   2.619   5.469
 3068SOL     OW10102   6.959   0.638   0.743
 3068SOL    HW110103   6.956   0.651   0.644
 3068SOL    HW210104   6.886   0.576   0.771
 3069SOL     OW10105   5.224   6.601   3.488
 3069SOL    HW110106   5.191   6.510   3.463
 3069SOL    HW210107   5.244   6.603   3.586
 3070SOL     OW10108   1.929   0.830   0.336
 3070SOL    HW110109   1.945   0.744   0.386
 3070SOL    HW210110   1.968   0.906   0.388
 3071SOL     OW10111   5.867   4.686   5.246
 3071SOL    HW110112   5.788   4.625   5.258
 3071SOL    HW210113   5.834   4.779   5.229
 3072SOL     OW10114   2.128   6.740   6.117
 3072SOL    HW110115   2.100   6.662   6.062
 3072SOL    HW210116   2.170   6.810   6.058
 3073SOL     OW10117   0.030   4.758   2.240
 3073SOL    HW110118   0.123   4.735   2.268
 3073SOL    HW210119   7.013   4.683   2.186
 3074SOL     OW10120   3.475   2.625   1.751
 3074SOL    HW110121   3.421   2.662   1.676
 3074SOL    HW210122   3.446   2.531   1.770
 3075SOL     OW10123   3.074   5.172   1.820
 3075SOL    HW110124   2.998   5.127   1.773
 3075SOL    HW210125   3.076   5.268   1.795
 3076SOL     OW10126   0.779   0.874   5.032
 3076SOL    HW110127   0.760   0.959   5.081
 3076SOL    HW210128   0.878   0.865   5.019
 3077SOL     OW10129   0.046   4.041   2.463
 3077SOL    HW110130   0.141   4.040   2.493
 3077SOL    HW210131   0.041   4.008   2.368
 3078SOL     OW10132   0.070   3.400   1.803
 3078SOL    HW110133   0.090   3.394   1.901
 3078SOL    HW210134   7.009   3.346   1.782
 3079SOL     OW10135   2.186   3.769   5.562
 3079SOL    HW110136   2.141   3.856   5.579
 3079SOL    HW210137   2.234   3.772   5.474
 3080SOL     OW10138   3.599   4.491   1.092
 3080SOL    HW110139   3.546   4.560   1.041
 3080SOL    HW210140   3.536   4.430   1.140
 3081SOL     OW10141   1.335   3.824   0.288
 3081SOL    HW110142   1.312   3.917   0.316
 3081SOL    HW210143   1.291   3.758   0.350
 3082SOL     OW10144   4.617   5.552   4.273
 3082SOL    HW110145   4.566   5.489   4.331
 3082SOL    HW210146   4.572   5.560   4.184
 3083SOL     OW10147   3.968   5.512   1.751
 3083SOL    HW110148   4.057   5.544   1.783
 3083SOL    HW210149   3.898   5.578   1.776
 3084SOL     OW10150   6.712   4.680   4.683
 3084SOL    HW110151   6.790   4.648   4.736
 3084SOL    HW210152   6.630   4.632   4.713
 3085SOL     OW10153   6.016   5.339   0.155
 3085SOL    HW110154   6.031   5.356   0.252
 3085SOL    HW210155   5.983   5.423   0.111
 3086SOL     OW10156   6.375   6.425   6.377
 3086SOL    HW110157   6.384   6.407   6.475
 3086SOL    HW210158   6.398   6.341   6.326
 3087SOL     OW10159   3.294   6.895   2.094
 3087SOL    HW110160   3.277   6.810   2.143
 3087SOL    HW210161   3.258   6.887   2.001
 3088SOL     OW10162   2.122   3.281   5.688
 3088SOL    HW110163   2.170   3.297   5.774
 3088SOL    HW210164   2.118   3.366   5.636
 3089SOL     OW10165   4.755   5.178   5.910
 3089SOL    HW110166   4.843   5.220   5.934
 3089SOL    HW210167   4.684   5.215   5.970
 3090SOL     OW10168   0.259   2.776   2.490
 3090SOL    HW110169   0.299   2.836   2.421
 3090SOL    HW210170   0.324   2.761   2.564
 3091SOL     OW10171   0.676   2.809   1.388
 3091SOL    HW110172   0.754   2.861   1.422
 3091SOL    HW210173   0.623   2.774   1.465
 3092SOL     OW10174   5.737   1.414   2.448
 3092SOL    HW110175   5.711   1.431   2.353
 3092SOL    HW210176   5.796   1.334   2.453
 3093SOL     OW10177   6.064   5.953   0.320
 3093SOL    HW110178   6.097   5.909   0.403
 3093SOL    HW210179   6.116   5.919   0.241
 3094SOL     OW10180   2.192   2.361   6.870
 3094SOL    HW110181   2.228   2.353   6.962
 3094SOL    HW210182   2.175   2.458   6.849
 3095SOL     OW10183   2.062   3.998   5.631
 3095SOL    HW110184   1.974   4.010   5.585
 3095SOL    HW210185   2.050   4.009   5.730
 3096SOL     OW10186   0.474   3.308   3.758
 3096SOL    HW110187   0.409   3.363   3.706
 3096SOL    HW210188   0.548   3.279   3.698
 3097SOL     OW10189   5.590   2.701   5.422
 3097SOL    HW110190   5.666   2.673   5.364
 3097SOL    HW210191   5.528   2.760   5.371
 3098SOL     OW10192   1.966   3.412   2.992
 3098SOL    HW110193   1.872   3.398   2.962
 3098SOL    HW210194   1.999   3.330   3.038
 3099SOL     OW10195   0.276   6.328   4.798
 3099SOL    HW110196   0.180   6.352   4.814
 3099SOL    HW210197   0.311   6.276   4.876
 3100SOL     OW10198   5.494   4.975   1.732
 3100SOL    HW110199   5.414   4.933   1.690
 3100SOL    HW210200   5.499   4.950   1.828
 3101SOL     OW10201   4.480   0.168   5.247
 3101SOL    HW110202   4.556   0.115   5.284
 3101SOL    HW210203   4.416   0.189   5.321
 3102SOL     OW10204   6.861   4.785   1.844
 3102SOL    HW110205   6.860   4.874   1.799
 3102SOL    HW210206   6.809   4.790   1.930
 3103SOL     OW10207   2.992   1.416   1.714
 3103SOL    HW110208   2.939   1.467   1.781
 3103SOL    HW210209   2.948   1.328   1.696
 3104SOL     OW10210   4.834   1.603   5.363
 3104SOL    HW110211   4.873   1.649   5.284
 3104SOL    HW210212   4.810   1.671   5.432
 3105SOL     OW10213   5.872   3.637   0.145
 3105SOL    HW110214   5.896   3.563   0.208
 3105SOL    HW210215   5.781   3.671   0.166
 3106SOL     OW10216   5.759   0.856   5.811
 3106SOL    HW110217   5.661   0.858   5.833
 3106SOL    HW210218   5.804   0.935   5.852
 3107SOL     OW10219   3.444   2.031   4.832
 3107SOL    HW110220   3.457   1.932   4.830
 3107SOL    HW210221   3.350   2.053   4.805
 3108SOL     OW10222   2.282   4.228   3.717
 3108SOL    HW110223   2.338   4.206   3.796
 3108SOL    HW210224   2.339   4.272   3.647
 3109SOL     OW10225   6.647   6.253   4.298
 3109SOL    HW110226   6.588   6.247   4.378
 3109SOL    HW210227   6.591   6.269   4.216
 3110SOL     OW10228   0.826   4.834   2.735
 3110SOL    HW110229   0.759   4.764   2.712
 3110SOL    HW210230   0.791   4.924   2.708
 3111SOL     OW10231   5.770   4.686   4.076
 3111SOL    HW110232   5.724   4.598   4.085
 3111SOL    HW210233   5.862   4.673   4.040
 3112SOL     OW10234   3.570   1.138   5.907
 3112SOL    HW110235   3.535   1.145   5.814
 3112SOL    HW210236   3.522   1.203   5.966
 3113SOL     OW10237   1.743   6.524   3.119
 3113SOL    HW110238   1.703   6.433   3.111
 3113SOL    HW210239   1.755   6.547   3.215
 3114SOL     OW10240   4.796   1.384   5.850
 3114SOL    HW110241   4.886   1.409   5.815
 3114SOL    HW210242   4.725   1.422   5.791
 3115SOL     OW10243   4.737   5.486   5.231
 3115SOL    HW110244   4.735   5.436   5.318
 3115SOL    HW210245   4.726   5.423   5.155
 3116SOL     OW10246   0.494   0.474   0.132
 3116SOL    HW110247   0.400   0.440   0.122
 3116SOL    HW210248   0.509   0.550   0.068
 3117SOL     OW10249   5.075   0.791   6.330
 3117SOL    HW110250   5.022   0.822   6.251
 3117SOL    HW210251   5.172   0.786   6.305
 3118SOL     OW10252   1.265   1.547   3.877
 3118SOL    HW110253   1.348   1.576   3.828
 3118SOL    HW210254   1.248   1.610   3.953
 3119SOL     OW10255   4.422   5.424   5.034
 3119SOL    HW110256   4.411   5.517   5.067
 3119SOL    HW210257   4.517   5.395   5.047
 3120SOL     OW10258   2.000   5.622   5.839
 3120SOL    HW110259   1.912   5.665   5.817
 3120SOL    HW210260   2.049   5.680   5.904
 3121SOL     OW10261   3.811   1.839   4.262
 3121SOL    HW110262   3.910   1.840   4.245
 3121SOL    HW210263   3.784   1.925   4.305
 3122SOL     OW10264   5.189   4.935   4.531
 3122SOL    HW110265   5.179   5.006   4.601
 3122SOL    HW210266   5.261   4.961   4.467
 3123SOL     OW10267   2.320   1.464   3.588
 3123SOL    HW110268   2.250   1.478   3.659
 3123SOL    HW210269   2.395   1.529   3.602
 3124SOL     OW10270   5.063   0.164   4.296
 3124SOL    HW110271   4.975   0.176   4.252
 3124SOL    HW210272   5.064   0.213   4.383
 3125SOL     OW10273   1.452   1.255   5.038
 3125SOL    HW110274   1.547   1.262   5.005
 3125SOL    HW210275   1.409   1.175   4.997
 3126SOL     OW10276   5.600   5.328   5.308
 3126SOL    HW110277   5.689   5.373   5.299
 3126SOL    HW210278   5.610   5.230   5.297
 3127SOL     OW10279   0.286   1.049   5.432
 3127SOL    HW110280   0.277   1.084   5.339
 3127SOL    HW210281   0.300   0.950   5.429
 3128SOL     OW10282   3.699   0.197   0.451
 3128SOL    HW110283   3.779   0.142   0.474
 3128SOL    HW210284   3.706   0.286   0.495
 3129SOL     OW10285   4.350   3.791   0.171
 3129SOL    HW110286   4.364   3.793   0.270
 3129SOL    HW210287   4.425   3.742   0.128
 3130SOL     OW10288   6.957   4.886   2.467
 3130SOL    HW110289   6.858   4.869   2.474
 3130SOL    HW210290   6.992   4.841   2.385
 3131SOL     OW10291   6.122   4.425   2.897
 3131SOL    HW110292   6.127   4.447   2.994
 3131SOL    HW210293   6.195   4.473   2.848
 3132SOL     OW10294   4.291   4.607   0.015
 3132SOL    HW110295   4.225   4.567   0.080
 3132SOL    HW210296   4.384   4.593   0.049
 3133SOL     OW10297   4.197   0.189   4.400
 3133SOL    HW110298   4.241   0.100   4.411
 3133SOL    HW210299   4.260   0.261   4.428
 3134SOL     OW10300   5.254   4.766   2.364
 3134SOL    HW110301   5.169   4.817   2.348
 3134SOL    HW210302   5.236   4.690   2.427
 3135SOL     OW10303   4.502   5.594   6.680
 3135SOL    HW110304   4.478   5.659   6.609
 3135SOL    HW210305   4.600   5.599   6.699
 3136SOL     OW10306   6.892   1.427   3.253
 3136SOL    HW110307   6.986   1.448   3.278
 3136SOL    HW210308   6.829   1.476   3.313
 3137SOL     OW10309   6.132   6.513   6.384
 3137SOL    HW110310   6.230   6.493   6.379
 3137SOL    HW210311   6.085   6.470   6.307
 3138SOL     OW10312   5.943   6.335   4.067
 3138SOL    HW110313   5.868   6.373   4.012
 3138SOL    HW210314   5.905   6.273   4.136
 3139SOL     OW10315   2.542   5.312   1.471
 3139SOL    HW110316   2.500   5.224   1.496
 3139SOL    HW210317   2.481   5.361   1.409
 3140SOL     OW10318   6.694   6.563   6.345
 3140SOL    HW110319   6.702   6.497   6.420
 3140SOL    HW210320   6.604   6.606   6.348
 3141SOL     OW10321   6.720   1.650   6.277
 3141SOL    HW110322   6.695   1.624   6.184
 3141SOL    HW210323   6.637   1.652   6.334
 3142SOL     OW10324   4.125   0.884   4.003
 3142SOL    HW110325   4.164   0.807   4.054
 3142SOL    HW210326   4.194   0.920   3.940
 3143SOL     OW10327   6.272   1.219   0.562
 3143SOL    HW110328   6.342   1.246   0.630
 3143SOL    HW210329   6.206   1.158   0.605
 3144SOL     OW10330   3.790   4.094   0.242
 3144SOL    HW110331   3.860   4.022   0.238
 3144SOL    HW210332   3.701   4.052   0.260
 3145SOL     OW10333   0.018   6.700   0.575
 3145SOL    HW110334   0.042   6.622   0.517
 3145SOL    HW210335   6.939   6.709   0.581
 3146SOL     OW10336   0.350   0.722   4.846
 3146SOL    HW110337   0.303   0.651   4.900
 3146SOL    HW210338   0.383   0.682   4.760
 3147SOL     OW10339   3.607   5.395   0.813
 3147SOL    HW110340   3.592   5.494   0.814
 3147SOL    HW210341   3.700   5.375   0.842
 3148SOL     OW10342   6.772   5.399   1.954
 3148SOL    HW110343   6.790   5.301   1.943
 3148SOL    HW210344   6.842   5.451   1.906
 3149SOL     OW10345   2.819   1.903   6.960
 3149SOL    HW110346   2.860   1.994   6.970
 3149SOL    HW210347   2.727   1.911   6.922
 3150SOL     OW10348   6.283   5.444   5.199
 3150SOL    HW110349   6.272   5.404   5.290
 3150SOL    HW210350   6.193   5.465   5.161
 3151SOL     OW10351   6.941   0.578   5.823
 3151SOL    HW110352   6.958   0.555   5.919
 3151SOL    HW210353   7.018   0.633   5.789
 3152SOL     OW10354   1.474   3.382   6.220
 3152SOL    HW110355   1.384   3.342   6.236
 3152SOL    HW210356   1.540   3.309   6.204
 3153SOL     OW10357   6.079   4.855   1.000
 3153SOL    HW110358   6.104   4.950   0.980
 3153SOL    HW210359   6.057   4.846   1.097
 3154SOL     OW10360   4.902   1.294   0.220
 3154SOL    HW110361   4.824   1.352   0.243
 3154SOL    HW210362   4.883   1.245   0.135
 3155SOL     OW10363   0.971   4.736   0.409
 3155SOL    HW110364   0.875   4.730   0.436
 3155SOL    HW210365   1.019   4.802   0.467
 3156SOL     OW10366   3.693   4.218   1.824
 3156SOL    HW110367   3.754   4.261   1.757
 3156SOL    HW210368   3.748   4.177   1.897
 3157SOL     OW10369   0.578   0.989   5.782
 3157SOL    HW110370   0.657   1.000   5.721
 3157SOL    HW210371   0.507   0.937   5.735
 3158SOL     OW10372   1.375   1.130   6.068
 3158SOL    HW110373   1.381   1.200   5.997
 3158SOL    HW210374   1.363   1.174   6.157
 3159SOL     OW10375   6.133   0.350   6.789
 3159SOL    HW110376   6.083   0.302   6.716
 3159SOL    HW210377   6.125   0.298   6.874
 3160SOL     OW10378   1.930   7.016   6.309
 3160SOL    HW110379   2.014   7.010   6.362
 3160SOL    HW210380   1.943   6.971   6.221
 3161SOL     OW10381   2.317   2.152   2.025
 3161SOL    HW110382   2.378   2.231   2.035
 3161SOL    HW210383   2.235   2.167   2.080
 3162SOL     OW10384   2.016   5.197   1.140
 3162SOL    HW110385   2.016   5.282   1.193
 3162SOL    HW210386   1.924   5.180   1.105
 3163SOL     OW10387   4.319   4.202   0.246
 3163SOL    HW110388   4.312   4.225   0.343
 3163SOL    HW210389   4.395   4.252   0.205
 3164SOL     OW10390   2.383   6.800   2.945
 3164SOL    HW110391   2.307   6.785   2.882
 3164SOL    HW210392   2.399   6.718   2.998
 3165SOL     OW10393   0.831   6.654   6.635
 3165SOL    HW110394   0.740   6.658   6.595
 3165SOL    HW210395   0.837   6.719   6.711
 3166SOL     OW10396   4.933   0.701   4.720
 3166SOL    HW110397   4.920   0.667   4.813
 3166SOL    HW210398   4.966   0.627   4.661
 3167SOL     OW10399   5.685   3.074   0.616
 3167SOL    HW110400   5.661   3.157   0.668
 3167SOL    HW210401   5.775   3.086   0.574
 3168SOL     OW10402   5.329   2.012   0.514
 3168SOL    HW110403   5.380   2.096   0.531
 3168SOL    HW210404   5.232   2.027   0.534
 3169SOL     OW10405   2.310   4.717   2.027
 3169SOL    HW110406   2.344   4.805   2.059
 3169SOL    HW210407   2.387   4.657   2.006
 3170SOL     OW10408   2.213   4.302   3.207
 3170SOL    HW110409   2.218   4.378   3.272
 3170SOL    HW210410   2.232   4.216   3.254
 3171SOL     OW10411   5.083   2.172   3.950
 3171SOL    HW110412   5.023   2.115   4.004
 3171SOL    HW210413   5.176   2.166   3.986
 3172SOL     OW10414   6.288   4.347   1.905
 3172SOL    HW110415   6.246   4.324   1.993
 3172SOL    HW210416   6.256   4.283   1.835
 3173SOL     OW10417   4.391   3.291   0.727
 3173SOL    HW110418   4.388   3.220   0.797
 3173SOL    HW210419   4.432   3.253   0.644
 3174SOL     OW10420   2.899   3.566   6.337
 3174SOL    HW110421   2.869   3.648   6.288
 3174SOL    HW210422   2.993   3.544   6.311
 3175SOL     OW10423   5.823   1.002   4.570
 3175SOL    HW110424   5.812   0.950   4.655
 3175SOL    HW210425   5.771   0.959   4.497
 3176SOL     OW10426   0.855   4.799   4.846
 3176SOL    HW110427   0.782   4.856   4.808
 3176SOL    HW210428   0.936   4.855   4.863
 3177SOL     OW10429   5.174   3.653   3.699
 3177SOL    HW110430   5.090   3.668   3.646
 3177SOL    HW210431   5.186   3.729   3.763
 3178SOL     OW10432   6.774   1.134   1.805
 3178SOL    HW110433   6.845   1.133   1.875
 3178SOL    HW210434   6.728   1.045   1.803
 3179SOL     OW10435   1.008   1.772   1.856
 3179SOL    HW110436   0.991   1.673   1.861
 3179SOL    HW210437   1.017   1.809   1.948
 3180SOL     OW10438   0.108   6.224   0.125
 3180SOL    HW110439   0.083   6.164   0.200
 3180SOL    HW210440   0.171   6.176   0.063
 3181SOL     OW10441   1.844   6.937   4.605
 3181SOL    HW110442   1.804   6.854   4.566
 3181SOL    HW210443   1.869   7.000   4.531
 3182SOL     OW10444   2.657   1.560   0.639
 3182SOL    HW110445   2.721   1.499   0.684
 3182SOL    HW210446   2.632   1.522   0.550
 3183SOL     OW10447   4.143   3.832   1.184
 3183SOL    HW110448   4.130   3.867   1.277
 3183SOL    HW210449   4.085   3.751   1.170
 3184SOL     OW10450   0.599   2.431   5.025
 3184SOL    HW110451   0.581   2.379   4.942
 3184SOL    HW210452   0.560   2.523   5.015
 3185SOL     OW10453   0.548   5.320   5.980
 3185SOL    HW110454   0.536   5.222   5.994
 3185SOL    HW210455   0.462   5.367   5.998
 3186SOL     OW10456   0.433   1.823   6.334
 3186SOL    HW110457   0.433   1.923   6.330
 3186SOL    HW210458   0.482   1.793   6.416
 3187SOL     OW10459   4.327   5.700   2.159
 3187SOL    HW110460   4.356   5.642   2.235
 3187SOL    HW210461   4.248   5.660   2.114
 3188SOL     OW10462   2.377   5.184   6.079
 3188SOL    HW110463   2.434   5.135   6.014
 3188SOL    HW210464   2.281   5.176   6.051
 3189SOL     OW10465   3.442   1.892   5.317
 3189SOL    HW110466   3.422   1.936   5.230
 3189SOL    HW210467   3.388   1.809   5.326
 3190SOL     OW10468   5.766   6.188   4.858
 3190SOL    HW110469   5.695   6.122   4.831
 3190SOL    HW210470   5.730   6.247   4.929
 3191SOL     OW10471   4.363   5.461   1.665
 3191SOL    HW110472   4.413   5.380   1.696
 3191SOL    HW210473   4.351   5.457   1.566
 3192SOL     OW10474   5.717   2.248   2.718
 3192SOL    HW110475   5.744   2.183   2.789
 3192SOL    HW210476   5.619   2.267   2.726
 3193SOL     OW10477   3.504   7.014   5.214
 3193SOL    HW110478   3.438   0.007   5.140
 3193SOL    HW210479   3.594   0.022   5.184
 3194SOL     OW10480   1.738   0.385   6.489
 3194SOL    HW110481   1.790   0.379   6.404
 3194SOL    HW210482   1.767   0.313   6.552
 3195SOL     OW10483   6.918   1.849   1.340
 3195SOL    HW110484   6.945   1.941   1.366
 3195SOL    HW210485   6.919   1.789   1.420
 3196SOL     OW10486   6.324   0.675   3.739
 3196SOL    HW110487   6.379   0.593   3.758
 3196SOL    HW210488   6.239   0.671   3.792
 3197SOL     OW10489   2.003   1.103   6.494
 3197SOL    HW110490   2.092   1.062   6.512
 3197SOL    HW210491   1.942   1.085   6.571
 3198SOL     OW10492   5.686   2.841   3.045
 3198SOL    HW110493   5.773   2.887   3.061
 3198SOL    HW210494   5.622   2.905   3.002
 3199SOL     OW10495   5.490   3.753   3.413
 3199SOL    HW110496   5.485   3.724   3.317
 3199SOL    HW210497   5.403   3.795   3.439
 3200SOL     OW10498   5.556   3.099   3.917
 3200SOL    HW110499   5.496   3.177   3.896
 3200SOL    HW210500   5.503   3.014   3.912
 3201SOL     OW10501   5.936   4.344   2.729
 3201SOL    HW110502   5.859   4.322   2.790
 3201SOL    HW210503   6.019   4.355   2.784
 3202SOL     OW10504   1.534   4.118   6.716
 3202SOL    HW110505   1.543   4.024   6.685
 3202SOL    HW210506   1.458   4.162   6.669
 3203SOL     OW10507   3.389   6.917   1.754
 3203SOL    HW110508   3.291   6.921   1.776
 3203SOL    HW210509   3.402   6.860   1.673
 3204SOL     OW10510   2.963   1.416   3.060
 3204SOL    HW110511   3.059   1.445   3.052
 3204SOL    HW210512   2.938   1.412   3.157
 3205SOL     OW10513   5.036   3.404   5.355
 3205SOL    HW110514   5.004   3.497   5.374
 3205SOL    HW210515   4.959   3.347   5.327
 3206SOL     OW10516   3.356   3.618   1.156
 3206SOL    HW110517   3.454   3.638   1.152
 3206SOL    HW210518   3.314   3.670   1.230
 3207SOL     OW10519   1.447   5.551   5.479
 3207SOL    HW110520   1.354   5.551   5.514
 3207SOL    HW210521   1.509   5.517   5.549
 3208SOL     OW10522   6.239   5.063   6.131
 3208SOL    HW110523   6.290   4.996   6.185
 3208SOL    HW210524   6.281   5.072   6.040
 3209SOL     OW10525   5.202   6.000   7.004
 3209SOL    HW110526   5.184   5.911   6.962
 3209SOL    HW210527   5.296   6.028   6.983
 3210SOL     OW10528   6.221   5.711   1.971
 3210SOL    HW110529   6.296   5.741   2.030
 3210SOL    HW210530   6.137   5.758   1.996
 3211SOL     OW10531   1.032   4.901   6.253
 3211SOL    HW110532   0.994   4.821   6.206
 3211SOL    HW210533   1.132   4.900   6.242
 3212SOL     OW10534   2.141   0.599   3.176
 3212SOL    HW110535   2.192   0.513   3.178
 3212SOL    HW210536   2.044   0.580   3.187
 3213SOL     OW10537   1.467   0.486   6.582
 3213SOL    HW110538   1.395   0.423   6.553
 3213SOL    HW210539   1.556   0.444   6.567
 3214SOL     OW10540   3.349   1.060   2.837
 3214SOL    HW110541   3.407   1.127   2.885
 3214SOL    HW210542   3.278   1.028   2.899
 3215SOL     OW10543   2.091   3.063   0.788
 3215SOL    HW110544   2.141   2.978   0.809
 3215SOL    HW210545   2.156   3.138   0.779
 3216SOL     OW10546   6.034   4.590   0.481
 3216SOL    HW110547   6.112   4.540   0.517
 3216SOL    HW210548   5.950   4.537   0.497
 3217SOL     OW10549   0.480   5.981   2.468
 3217SOL    HW110550   0.564   6.025   2.438
 3217SOL    HW210551   0.456   6.015   2.559
 3218SOL     OW10552   5.541   1.072   2.944
 3218SOL    HW110553   5.530   1.115   2.854
 3218SOL    HW210554   5.588   1.135   3.005
 3219SOL     OW10555   6.170   1.239   5.444
 3219SOL    HW110556   6.252   1.278   5.485
 3219SOL    HW210557   6.089   1.286   5.480
 3220SOL     OW10558   0.022   4.474   6.635
 3220SOL    HW110559   6.994   4.549   6.678
 3220SOL    HW210560   0.051   4.501   6.543
 3221SOL     OW10561   3.501   0.617   1.327
 3221SOL    HW110562   3.431   0.648   1.263
 3221SOL    HW210563   3.474   0.641   1.421
 3222SOL     OW10564   3.717   1.725   2.999
 3222SOL    HW110565   3.706   1.802   2.936
 3222SOL    HW210566   3.786   1.749   3.068
 3223SOL     OW10567   1.343   6.420   1.086
 3223SOL    HW110568   1.325   6.490   1.156
 3223SOL    HW210569   1.282   6.435   1.009
 3224SOL     OW10570   3.595   1.828   4.003
 3224SOL    HW110571   3.548   1.854   4.087
 3224SOL    HW210572   3.675   1.772   4.026
 3225SOL     OW10573   4.026   0.687   3.767
 3225SOL    HW110574   3.998   0.728   3.680
 3225SOL    HW210575   4.018   0.754   3.840
 3226SOL     OW10576   6.978   0.231   0.996
 3226SOL    HW110577   6.996   0.288   1.076
 3226SOL    HW210578   6.881   0.240   0.970
 3227SOL     OW10579   5.003   4.111   5.211
 3227SOL    HW110580   5.010   4.123   5.112
 3227SOL    HW210581   5.012   4.199   5.256
 3228SOL     OW10582   2.456   3.791   0.202
 3228SOL    HW110583   2.445   3.872   0.144
 3228SOL    HW210584   2.376   3.780   0.261
 3229SOL     OW10585   1.689   1.538   0.797
 3229SOL    HW110586   1.734   1.622   0.766
 3229SOL    HW210587   1.741   1.499   0.873
 3230SOL     OW10588   2.764   5.906   5.706
 3230SOL    HW110589   2.813   5.820   5.692
 3230SOL    HW210590   2.816   5.964   5.768
 3231SOL     OW10591   2.234   1.987   2.354
 3231SOL    HW110592   2.193   2.053   2.291
 3231SOL    HW210593   2.305   2.031   2.408
 3232SOL     OW10594   4.004   5.145   3.985
 3232SOL    HW110595   4.075   5.107   3.927
 3232SOL    HW210596   4.029   5.132   4.081
 3233SOL     OW10597   0.218   1.887   0.727
 3233SOL    HW110598   0.308   1.849   0.751
 3233SOL    HW210599   0.221   1.986   0.731
 3234SOL     OW10600   2.294   2.660   0.669
 3234SOL    HW110601   2.379   2.612   0.688
 3234SOL    HW210602   2.312   2.758   0.659
 3235SOL     OW10603   0.671   6.863   2.551
 3235SOL    HW110604   0.635   6.810   2.474
 3235SOL    HW210605   0.625   6.952   2.554
 3236SOL     OW10606   3.596   2.337   0.137
 3236SOL    HW110607   3.617   2.308   0.230
 3236SOL    HW210608   3.681   2.355   0.088
 3237SOL     OW10609   5.917   1.211   4.759
 3237SOL    HW110610   5.941   1.142   4.827
 3237SOL    HW210611   5.879   1.166   4.678
 3238SOL     OW10612   6.696   5.054   1.701
 3238SOL    HW110613   6.609   5.038   1.748
 3238SOL    HW210614   6.762   5.092   1.766
 3239SOL     OW10615   6.706   6.958   4.383
 3239SOL    HW110616   6.644   0.011   4.407
 3239SOL    HW210617   6.800   6.992   4.385
 3240SOL     OW10618   0.656   0.649   6.933
 3240SOL    HW110619   0.651   0.633   6.834
 3240SOL    HW210620   0.568   0.685   6.964
 3241SOL     OW10621   6.194   1.874   5.674
 3241SOL    HW110622   6.100   1.844   5.660
 3241SOL    HW210623   6.196   1.971   5.699
 3242SOL     OW10624   5.629   3.983   4.871
 3242SOL    HW110625   5.716   3.941   4.846
 3242SOL    HW210626   5.646   4.075   4.908
 3243SOL     OW10627   5.677   5.064   5.310
 3243SOL    HW110628   5.646   5.000   5.240
 3243SOL    HW210629   5.700   5.014   5.393
 3244SOL     OW10630   5.309   0.237   6.767
 3244SOL    HW110631   5.215   0.205   6.781
 3244SOL    HW210632   5.309   0.336   6.755
 3245SOL     OW10633   3.923   0.886   5.439
 3245SOL    HW110634   4.005   0.841   5.404
 3245SOL    HW210635   3.865   0.820   5.486
 3246SOL     OW10636   6.545   0.053   2.737
 3246SOL    HW110637   6.472   0.049   2.806
 3246SOL    HW210638   6.633   0.066   2.782
 3247SOL     OW10639   0.469   4.562   3.085
 3247SOL    HW110640   0.518   4.477   3.105
 3247SOL    HW210641   0.397   4.543   3.017
 3248SOL     OW10642   5.341   2.102   4.096
 3248SOL    HW110643   5.416   2.150   4.050
 3248SOL    HW210644   5.343   2.005   4.071
 3249SOL     OW10645   2.994   3.890   3.988
 3249SOL    HW110646   3.012   3.928   3.897
 3249SOL    HW210647   2.911   3.931   4.026
 3250SOL     OW10648   4.660   5.449   2.354
 3250SOL    HW110649   4.685   5.405   2.268
 3250SOL    HW210650   4.578   5.406   2.390
 3251SOL     OW10651   2.380   1.442   2.992
 3251SOL    HW110652   2.284   1.439   3.019
 3251SOL    HW210653   2.388   1.426   2.894
 3252SOL     OW10654   2.208   1.207   2.937
 3252SOL    HW110655   2.302   1.173   2.933
 3252SOL    HW210656   2.184   1.226   3.032
 3253SOL     OW10657   6.664   3.541   0.702
 3253SOL    HW110658   6.616   3.628   0.711
 3253SOL    HW210659   6.643   3.500   0.613
 3254SOL     OW10660   6.166   0.464   0.963
 3254SOL    HW110661   6.253   0.440   0.922
 3254SOL    HW210662   6.156   0.415   1.050
 3255SOL     OW10663   4.770   5.940   1.148
 3255SOL    HW110664   4.737   6.025   1.106
 3255SOL    HW210665   4.864   5.924   1.120
 3256SOL     OW10666   4.943   1.979   1.249
 3256SOL    HW110667   4.852   2.020   1.262
 3256SOL    HW210668   5.011   2.051   1.240
 3257SOL     OW10669   2.554   2.132   3.134
 3257SOL    HW110670   2.600   2.105   3.050
 3257SOL    HW210671   2.621   2.162   3.201
 3258SOL     OW10672   2.245   5.732   3.741
 3258SOL    HW110673   2.327   5.693   3.701
 3258SOL    HW210674   2.170   5.667   3.734
 3259SOL     OW10675   4.808   4.411   3.557
 3259SOL    HW110676   4.802   4.482   3.487
 3259SOL    HW210677   4.728   4.416   3.617
 3260SOL     OW10678   0.709   4.407   2.613
 3260SOL    HW110679   0.666   4.495   2.634
 3260SOL    HW210680   0.781   4.389   2.680
 3261SOL     OW10681   5.465   6.814   3.691
 3261SOL    HW110682   5.509   6.877   3.755
 3261SOL    HW210683   5.526   6.800   3.612
 3262SOL     OW10684   3.163   2.067   2.497
 3262SOL    HW110685   3.123   2.121   2.422
 3262SOL    HW210686   3.128   1.974   2.493
 3263SOL     OW10687   0.318   1.639   2.265
 3263SOL    HW110688   0.293   1.735   2.278
 3263SOL    HW210689   0.416   1.633   2.245
 3264SOL     OW10690   1.599   5.086   0.484
 3264SOL    HW110691   1.678   5.045   0.437
 3264SOL    HW210692   1.597   5.184   0.466
 3265SOL     OW10693   5.968   4.801   6.423
 3265SOL    HW110694   5.902   4.742   6.377
 3265SOL    HW210695   5.925   4.888   6.445
 3266SOL     OW10696   3.210   5.010   6.798
 3266SOL    HW110697   3.231   4.959   6.715
 3266SOL    HW210698   3.227   5.107   6.784
 3267SOL     OW10699   4.181   6.829   1.052
 3267SOL    HW110700   4.207   6.924   1.069
 3267SOL    HW210701   4.249   6.767   1.093
 3268SOL     OW10702   6.370   5.478   1.901
 3268SOL    HW110703   6.300   5.409   1.886
 3268SOL    HW210704   6.331   5.557   1.947
 3269SOL     OW10705   1.518   4.964   2.127
 3269SOL    HW110706   1.566   4.915   2.055
 3269SOL    HW210707   1.562   5.053   2.143
 3270SOL     OW10708   0.893   3.098   5.283
 3270SOL    HW110709   0.972   3.042   5.258
 3270SOL    HW210710   0.817   3.076   5.222
 3271SOL     OW10711   0.562   2.973   2.609
 3271SOL    HW110712   0.501   3.041   2.651
 3271SOL    HW210713   0.531   2.881   2.634
 3272SOL     OW10714   4.172   6.142   0.793
 3272SOL    HW110715   4.246   6.199   0.758
 3272SOL    HW210716   4.087   6.164   0.745
 3273SOL     OW10717   5.006   2.356   6.118
 3273SOL    HW110718   5.064   2.394   6.046
 3273SOL    HW210719   4.918   2.403   6.118
 3274SOL     OW10720   5.744   0.531   0.510
 3274SOL    HW110721   5.794   0.614   0.537
 3274SOL    HW210722   5.669   0.556   0.449
 3275SOL     OW10723   4.602   0.369   1.398
 3275SOL    HW110724   4.531   0.320   1.449
 3275SOL    HW210725   4.639   0.310   1.327
 3276SOL     OW10726   5.087   0.317   0.499
 3276SOL    HW110727   5.126   0.309   0.590
 3276SOL    HW210728   5.001   0.265   0.495
 3277SOL     OW10729   3.946   1.809   1.776
 3277SOL    HW110730   3.850   1.807   1.747
 3277SOL    HW210731   3.975   1.904   1.784
 3278SOL     OW10732   0.009   0.327   0.347
 3278SOL    HW110733   6.948   0.364   0.304
 3278SOL    HW210734   0.041   0.389   0.419
 3279SOL     OW10735   3.512   0.188   1.737
 3279SOL    HW110736   3.480   0.093   1.743
 3279SOL    HW210737   3.574   0.207   1.814
 3280SOL     OW10738   5.783   4.043   4.381
 3280SOL    HW110739   5.780   4.143   4.390
 3280SOL    HW210740   5.690   4.007   4.382
 3281SOL     OW10741   6.106   3.421   1.194
 3281SOL    HW110742   6.140   3.487   1.262
 3281SOL    HW210743   6.008   3.432   1.183
 3282SOL     OW10744   0.698   4.840   4.039
 3282SOL    HW110745   0.744   4.861   3.953
 3282SOL    HW210746   0.652   4.752   4.032
 3283SOL     OW10747   3.662   1.742   0.563
 3283SOL    HW110748   3.685   1.791   0.480
 3283SOL    HW210749   3.745   1.700   0.601
 3284SOL     OW10750   1.680   6.184   4.195
 3284SOL    HW110751   1.683   6.145   4.287
 3284SOL    HW210752   1.769   6.221   4.171
 3285SOL     OW10753   4.191   1.602   4.772
 3285SOL    HW110754   4.206   1.586   4.674
 3285SOL    HW210755   4.279   1.611   4.818
 3286SOL     OW10756   3.197   1.486   1.293
 3286SOL    HW110757   3.284   1.514   1.253
 3286SOL    HW210758   3.204   1.486   1.393
 3287SOL     OW10759   2.289   0.134   6.681
 3287SOL    HW110760   2.285   0.153   6.583
 3287SOL    HW210761   2.197   0.135   6.719
 3288SOL     OW10762   2.003   6.621   1.697
 3288SOL    HW110763   1.968   6.530   1.673
 3288SOL    HW210764   2.099   6.628   1.668
 3289SOL     OW10765   4.049   1.655   0.020
 3289SOL    HW110766   3.987   1.687   6.970
 3289SOL    HW210767   4.001   1.592   0.081
 3290SOL     OW10768   0.475   5.357   0.336
 3290SOL    HW110769   0.561   5.397   0.306
 3290SOL    HW210770   0.493   5.284   0.402
 3291SOL     OW10771   4.855   6.471   5.302
 3291SOL    HW110772   4.817   6.403   5.364
 3291SOL    HW210773   4.882   6.428   5.216
 3292SOL     OW10774   6.668   2.301   1.225
 3292SOL    HW110775   6.718   2.380   1.260
 3292SOL    HW210776   6.732   2.239   1.180
 3293SOL     OW10777   5.866   5.541   3.092
 3293SOL    HW110778   5.836   5.628   3.053
 3293SOL    HW210779   5.801   5.470   3.066
 3294SOL     OW10780   5.048   2.320   5.233
 3294SOL    HW110781   5.074   2.353   5.324
 3294SOL    HW210782   4.980   2.382   5.194
 3295SOL     OW10783   1.409   2.841   2.358
 3295SOL    HW110784   1.435   2.935   2.380
 3295SOL    HW210785   1.400   2.831   2.259
 3296SOL     OW10786   1.797   0.278   5.753
 3296SOL    HW110787   1.740   0.286   5.835
 3296SOL    HW210788   1.764   0.201   5.698
 3297SOL     OW10789   3.213   1.416   4.879
 3297SOL    HW110790   3.132   1.428   4.935
 3297SOL    HW210791   3.203   1.333   4.823
 3298SOL     OW10792   5.618   4.160   5.813
 3298SOL    HW110793   5.594   4.066   5.791
 3298SOL    HW210794   5.545   4.221   5.783
 3299SOL     OW10795   2.762   4.917   4.370
 3299SOL    HW110796   2.682   4.975   4.384
 3299SOL    HW210797   2.845   4.969   4.393
 3300SOL     OW10798   1.721   0.212   4.144
 3300SOL    HW110799   1.640   0.170   4.185
 3300SOL    HW210800   1.798   0.148   4.150
 3301SOL     OW10801   1.387   1.166   2.931
 3301SOL    HW110802   1.465   1.118   2.891
 3301SOL    HW210803   1.354   1.236   2.867
 3302SOL     OW10804   2.382   4.986   6.293
 3302SOL    HW110805   2.380   5.030   6.203
 3302SOL    HW210806   2.477   4.983   6.326
 3303SOL     OW10807   3.700   3.045   0.146
 3303SOL    HW110808   3.652   3.093   0.073
 3303SOL    HW210809   3.728   2.954   0.115
 3304SOL     OW10810   2.856   5.080   6.476
 3304SOL    HW110811   2.854   5.174   6.509
 3304SOL    HW210812   2.830   5.018   6.549
 3305SOL     OW10813   3.175   2.417   1.076
 3305SOL    HW110814   3.135   2.378   1.159
 3305SOL    HW210815   3.274   2.407   1.078
 3306SOL     OW10816   2.209   0.747   6.953
 3306SOL    HW110817   2.128   0.745   7.012
 3306SOL    HW210818   2.291   0.754   7.010
 3307SOL     OW10819   1.823   6.876   5.092
 3307SOL    HW110820   1.906   6.832   5.127
 3307SOL    HW210821   1.758   6.806   5.064
 3308SOL     OW10822   4.016   4.389   1.133
 3308SOL    HW110823   4.055   4.367   1.223
 3308SOL    HW210824   4.089   4.420   1.072
 3309SOL     OW10825   5.958   3.281   3.630
 3309SOL    HW110826   5.885   3.244   3.688
 3309SOL    HW210827   6.011   3.348   3.683
 3310SOL     OW10828   6.474   5.478   5.749
 3310SOL    HW110829   6.451   5.552   5.687
 3310SOL    HW210830   6.470   5.512   5.843
 3311SOL     OW10831   3.394   3.297   0.357
 3311SOL    HW110832   3.468   3.276   0.421
 3311SOL    HW210833   3.308   3.307   0.407
 3312SOL     OW10834   4.354   2.554   5.903
 3312SOL    HW110835   4.294   2.498   5.847
 3312SOL    HW210836   4.308   2.640   5.926
 3313SOL     OW10837   1.043   1.065   3.315
 3313SOL    HW110838   1.039   0.966   3.320
 3313SOL    HW210839   1.051   1.093   3.219
 3314SOL     OW10840   2.696   5.558   2.767
 3314SOL    HW110841   2.633   5.585   2.839
 3314SOL    HW210842   2.756   5.635   2.745
 3315SOL     OW10843   0.133   5.536   5.125
 3315SOL    HW110844   0.128   5.472   5.049
 3315SOL    HW210845   0.197   5.610   5.103
 3316SOL     OW10846   3.348   2.131   5.938
 3316SOL    HW110847   3.429   2.075   5.954
 3316SOL    HW210848   3.373   2.213   5.887
 3317SOL     OW10849   4.770   2.556   3.126
 3317SOL    HW110850   4.786   2.651   3.098
 3317SOL    HW210851   4.704   2.554   3.201
 3318SOL     OW10852   3.368   2.317   0.715
 3318SOL    HW110853   3.317   2.236   0.745
 3318SOL    HW210854   3.455   2.322   0.763
 3319SOL     OW10855   6.865   6.120   3.366
 3319SOL    HW110856   6.917   6.202   3.390
 3319SOL    HW210857   6.863   6.109   3.267
 3320SOL     OW10858   6.082   0.035   1.259
 3320SOL    HW110859   6.159   0.000   1.205
 3320SOL    HW210860   6.074   7.003   1.344
 3321SOL     OW10861   4.737   1.221   0.504
 3321SOL    HW110862   4.827   1.230   0.462
 3321SOL    HW210863   4.667   1.219   0.432
 3322SOL     OW10864   6.675   3.966   0.915
 3322SOL    HW110865   6.623   4.033   0.969
 3322SOL    HW210866   6.766   4.001   0.896
 3323SOL     OW10867   1.294   2.238   1.665
 3323SOL    HW110868   1.199   2.233   1.637
 3323SOL    HW210869   1.303   2.203   1.758
 3324SOL     OW10870   5.195   5.497   6.029
 3324SOL    HW110871   5.246   5.478   5.946
 3324SOL    HW210872   5.192   5.596   6.045
 3325SOL     OW10873   2.208   4.136   6.424
 3325SOL    HW110874   2.125   4.083   6.442
 3325SOL    HW210875   2.282   4.074   6.399
 3326SOL     OW10876   4.499   0.924   2.969
 3326SOL    HW110877   4.459   0.844   2.924
 3326SOL    HW210878   4.427   0.992   2.984
 3327SOL     OW10879   1.247   5.293   0.895
 3327SOL    HW110880   1.191   5.316   0.974
 3327SOL    HW210881   1.325   5.238   0.924
 3328SOL     OW10882   4.620   2.145   0.012
 3328SOL    HW110883   4.660   2.234   7.009
 3328SOL    HW210884   4.531   2.137   6.988
 3329SOL     OW10885   6.705   5.365   5.627
 3329SOL    HW110886   6.791   5.399   5.664
 3329SOL    HW210887   6.629   5.417   5.667
 3330SOL     OW10888   6.377   3.465   2.136
 3330SOL    HW110889   6.362   3.412   2.219
 3330SOL    HW210890   6.394   3.403   2.059
 3331SOL     OW10891   2.163   2.802   0.888
 3331SOL    HW110892   2.212   2.725   0.848
 3331SOL    HW210893   2.089   2.768   0.946
 3332SOL     OW10894   5.799   4.761   0.775
 3332SOL    HW110895   5.897   4.782   0.769
 3332SOL    HW210896   5.761   4.804   0.857
 3333SOL     OW10897   4.364   4.784   5.994
 3333SOL    HW110898   4.289   4.790   5.928
 3333SOL    HW210899   4.349   4.851   6.067
 3334SOL     OW10900   2.488   4.304   1.802
 3334SOL    HW110901   2.413   4.274   1.743
 3334SOL    HW210902   2.573   4.259   1.772
 3335SOL     OW10903   5.346   4.570   5.404
 3335SOL    HW110904   5.360   4.532   5.313
 3335SOL    HW210905   5.248   4.576   5.424
 3336SOL     OW10906   3.451   5.540   6.180
 3336SOL    HW110907   3.403   5.519   6.095
 3336SOL    HW210908   3.408   5.491   6.256
 3337SOL     OW10909   3.514   1.955   0.805
 3337SOL    HW110910   3.504   1.890   0.881
 3337SOL    HW210911   3.429   1.956   0.752
 3338SOL     OW10912   0.052   4.709   1.068
 3338SOL    HW110913   0.034   4.808   1.067
 3338SOL    HW210914   7.016   4.666   1.138
 3339SOL     OW10915   0.101   5.762   6.979
 3339SOL    HW110916   0.147   5.813   0.032
 3339SOL    HW210917   0.102   5.816   6.895
 3340SOL     OW10918   3.428   6.355   1.360
 3340SOL    HW110919   3.482   6.437   1.342
 3340SOL    HW210920   3.332   6.371   1.334
 3341SOL     OW10921   0.878   1.018   2.291
 3341SOL    HW110922   0.874   0.961   2.209
 3341SOL    HW210923   0.938   0.975   2.358
 3342SOL     OW10924   2.445   6.572   4.361
 3342SOL    HW110925   2.504   6.491   4.362
 3342SOL    HW210926   2.360   6.553   4.410
 3343SOL     OW10927   5.480   2.894   0.705
 3343SOL    HW110928   5.394   2.943   0.722
 3343SOL    HW210929   5.552   2.960   0.686
 3344SOL     OW10930   0.083   3.732   5.722
 3344SOL    HW110931   0.102   3.660   5.656
 3344SOL    HW210932   0.088   3.821   5.677
 3345SOL     OW10933   3.058   3.128   5.769
 3345SOL    HW110934   3.145   3.168   5.742
 3345SOL    HW210935   3.061   3.029   5.757
 3346SOL     OW10936   1.063   6.985   2.049
 3346SOL    HW110937   1.132   0.022   2.004
 3346SOL    HW210938   0.991   6.962   1.984
 3347SOL     OW10939   5.858   4.319   5.263
 3347SOL    HW110940   5.938   4.318   5.324
 3347SOL    HW210941   5.805   4.235   5.277
 3348SOL     OW10942   3.706   2.926   4.133
 3348SOL    HW110943   3.793   2.940   4.180
 3348SOL    HW210944   3.705   2.977   4.048
 3349SOL     OW10945   6.166   3.952   5.141
 3349SOL    HW110946   6.208   3.925   5.227
 3349SOL    HW210947   6.080   3.903   5.128
 3350SOL     OW10948   1.396   1.200   1.323
 3350SOL    HW110949   1.348   1.263   1.383
 3350SOL    HW210950   1.480   1.168   1.368
 3351SOL     OW10951   5.037   1.637   1.915
 3351SOL    HW110952   5.028   1.669   1.821
 3351SOL    HW210953   5.130   1.655   1.948
 3352SOL     OW10954   0.174   3.866   0.921
 3352SOL    HW110955   0.248   3.807   0.955
 3352SOL    HW210956   0.172   3.861   0.821
 3353SOL     OW10957   2.305   6.710   5.857
 3353SOL    HW110958   2.317   6.796   5.908
 3353SOL    HW210959   2.258   6.644   5.915
 3354SOL     OW10960   0.968   2.055   3.197
 3354SOL    HW110961   0.990   1.986   3.128
 3354SOL    HW210962   0.869   2.069   3.200
 3355SOL     OW10963   6.797   1.350   2.711
 3355SOL    HW110964   6.778   1.378   2.806
 3355SOL    HW210965   6.787   1.251   2.703
 3356SOL     OW10966   2.594   3.107   0.063
 3356SOL    HW110967   2.549   3.196   0.062
 3356SOL    HW210968   2.690   3.118   0.088
 3357SOL     OW10969   2.567   4.858   2.071
 3357SOL    HW110970   2.605   4.798   2.001
 3357SOL    HW210971   2.576   4.953   2.041
 3358SOL     OW10972   5.126   5.029   2.244
 3358SOL    HW110973   5.040   5.065   2.207
 3358SOL    HW210974   5.154   5.085   2.322
 3359SOL     OW10975   1.567   1.491   2.613
 3359SOL    HW110976   1.628   1.479   2.534
 3359SOL    HW210977   1.621   1.515   2.693
 3360SOL     OW10978   1.293   0.606   0.047
 3360SOL    HW110979   1.320   0.640   6.977
 3360SOL    HW210980   1.359   0.638   0.115
 3361SOL     OW10981   5.614   6.992   2.908
 3361SOL    HW110982   5.675   6.922   2.946
 3361SOL    HW210983   5.525   6.951   2.888
 3362SOL     OW10984   1.766   1.164   5.844
 3362SOL    HW110985   1.733   1.216   5.765
 3362SOL    HW210986   1.783   1.227   5.920
 3363SOL     OW10987   0.314   0.946   6.624
 3363SOL    HW110988   0.293   0.978   6.531
 3363SOL    HW210989   0.405   0.977   6.650
 3364SOL     OW10990   1.788   4.865   6.242
 3364SOL    HW110991   1.857   4.794   6.231
 3364SOL    HW210992   1.729   4.867   6.161
 3365SOL     OW10993   6.465   2.040   5.244
 3365SOL    HW110994   6.476   1.960   5.185
 3365SOL    HW210995   6.475   2.013   5.339
 3366SOL     OW10996   5.554   0.980   5.943
 3366SOL    HW110997   5.501   1.054   5.901
 3366SOL    HW210998   5.605   1.016   6.021
 3367SOL     OW10999   0.987   0.647   2.081
 3367SOL    HW111000   0.964   0.573   2.018
 3367SOL    HW211001   0.972   0.735   2.037
 3368SOL     OW11002   6.679   5.868   6.116
 3368SOL    HW111003   6.689   5.923   6.032
 3368SOL    HW211004   6.690   5.928   6.195
 3369SOL     OW11005   4.350   7.010   6.426
 3369SOL    HW111006   4.268   6.982   6.377
 3369SOL    HW211007   4.329   0.003   6.523
 3370SOL     OW11008   5.884   6.564   5.593
 3370SOL    HW111009   5.841   6.614   5.517
 3370SOL    HW211010   5.836   6.477   5.606
 3371SOL     OW11011   0.623   5.308   1.880
 3371SOL    HW111012   0.669   5.279   1.964
 3371SOL    HW211013   0.541   5.361   1.903
 3372SOL     OW11014   0.708   1.259   2.862
 3372SOL    HW111015   0.647   1.302   2.796
 3372SOL    HW211016   0.724   1.164   2.834
 3373SOL     OW11017   6.300   2.158   5.073
 3373SOL    HW111018   6.206   2.149   5.105
 3373SOL    HW211019   6.362   2.127   5.145
 3374SOL     OW11020   3.206   5.066   5.313
 3374SOL    HW111021   3.199   5.160   5.278
 3374SOL    HW211022   3.130   5.012   5.278
 3375SOL     OW11023   4.506   4.686   5.391
 3375SOL    HW111024   4.557   4.601   5.406
 3375SOL    HW211025   4.480   4.726   5.479
 3376SOL     OW11026   3.298   3.758   2.029
 3376SOL    HW111027   3.256   3.797   1.947
 3376SOL    HW211028   3.233   3.695   2.072
 3377SOL     OW11029   1.553   6.198   5.525
 3377SOL    HW111030   1.529   6.199   5.622
 3377SOL    HW211031   1.472   6.173   5.471
 3378SOL     OW11032   6.457   1.802   1.202
 3378SOL    HW111033   6.417   1.793   1.111
 3378SOL    HW211034   6.420   1.883   1.248
 3379SOL     OW11035   0.685   4.481   5.525
 3379SOL    HW111036   0.686   4.539   5.444
 3379SOL    HW211037   0.626   4.402   5.509
 3380SOL     OW11038   0.182   4.145   6.536
 3380SOL    HW111039   0.188   4.055   6.580
 3380SOL    HW211040   0.168   4.215   6.606
 3381SOL     OW11041   2.998   2.174   0.448
 3381SOL    HW111042   2.964   2.080   0.445
 3381SOL    HW211043   2.991   2.216   0.357
 3382SOL     OW11044   6.947   1.165   1.076
 3382SOL    HW111045   6.927   1.259   1.047
 3382SOL    HW211046   6.871   1.129   1.129
 3383SOL     OW11047   6.048   5.161   2.740
 3383SOL    HW111048   6.029   5.226   2.665
 3383SOL    HW211049   5.997   5.077   2.724
 3384SOL     OW11050   3.971   3.018   4.223
 3384SOL    HW111051   3.947   3.096   4.281
 3384SOL    HW211052   4.021   2.950   4.278
 3385SOL     OW11053   6.219   3.735   3.398
 3385SOL    HW111054   6.284   3.787   3.453
 3385SOL    HW211055   6.265   3.655   3.360
 3386SOL     OW11056   6.090   4.272   5.410
 3386SOL    HW111057   6.073   4.303   5.504
 3386SOL    HW211058   6.145   4.341   5.362
 3387SOL     OW11059   2.320   2.213   2.612
 3387SOL    HW111060   2.289   2.157   2.689
 3387SOL    HW211061   2.260   2.292   2.602
 3388SOL     OW11062   5.825   2.450   1.357
 3388SOL    HW111063   5.773   2.392   1.295
 3388SOL    HW211064   5.797   2.431   1.452
 3389SOL     OW11065   5.439   4.453   3.635
 3389SOL    HW111066   5.500   4.376   3.652
 3389SOL    HW211067   5.363   4.449   3.700
 3390SOL     OW11068   4.612   2.936   5.571
 3390SOL    HW111069   4.551   3.012   5.594
 3390SOL    HW211070   4.601   2.863   5.639
 3391SOL     OW11071   4.023   2.111   4.768
 3391SOL    HW111072   4.047   2.027   4.818
 3391SOL    HW211073   3.983   2.087   4.680
 3392SOL     OW11074   3.592   0.006   4.127
 3392SOL    HW111075   3.539   0.086   4.154
 3392SOL    HW211076   3.674   7.020   4.183
 3393SOL     OW11077   6.618   6.997   7.012
 3393SOL    HW111078   6.652   6.930   0.058
 3393SOL    HW211079   6.519   6.989   7.004
 3394SOL     OW11080   6.019   2.830   1.325
 3394SOL    HW111081   6.050   2.796   1.236
 3394SOL    HW211082   5.997   2.752   1.384
 3395SOL     OW11083   1.561   3.605   5.005
 3395SOL    HW111084   1.470   3.643   5.025
 3395SOL    HW211085   1.624   3.680   4.981
 3396SOL     OW11086   0.096   4.270   3.880
 3396SOL    HW111087   0.109   4.304   3.973
 3396SOL    HW211088   0.039   4.335   3.828
 3397SOL     OW11089   3.671   6.314   5.842
 3397SOL    HW111090   3.710   6.251   5.908
 3397SOL    HW211091   3.631   6.263   5.766
 3398SOL     OW11092   1.044   6.830   4.516
 3398SOL    HW111093   1.139   6.857   4.498
 3398SOL    HW211094   0.989   6.844   4.434
 3399SOL     OW11095   5.219   4.795   4.213
 3399SOL    HW111096   5.313   4.760   4.213
 3399SOL    HW211097   5.155   4.721   4.231
 3400SOL     OW11098   5.186   2.231   0.349
 3400SOL    HW111099   5.115   2.162   0.364
 3400SOL    HW211100   5.173   2.272   0.259
 3401SOL     OW11101   5.941   3.998   0.096
 3401SOL    HW111102   5.987   4.004   0.007
 3401SOL    HW211103   5.977   4.068   0.157
 3402SOL     OW11104   5.497   5.627   1.632
 3402SOL    HW111105   5.408   5.648   1.592
 3402SOL    HW211106   5.566   5.691   1.597
 3403SOL     OW11107   3.471   1.011   5.395
 3403SOL    HW111108   3.444   0.977   5.305
 3403SOL    HW211109   3.565   1.045   5.390
 3404SOL     OW11110   4.415   0.965   0.489
 3404SOL    HW111111   4.350   0.889   0.494
 3404SOL    HW211112   4.456   0.966   0.398
 3405SOL     OW11113   6.960   3.621   6.447
 3405SOL    HW111114   6.921   3.704   6.487
 3405SOL    HW211115   6.957   3.547   6.515
 3406SOL     OW11116   1.672   3.807   2.603
 3406SOL    HW111117   1.599   3.741   2.618
 3406SOL    HW211118   1.759   3.769   2.634
 3407SOL     OW11119   1.152   5.832   2.346
 3407SOL    HW111120   1.152   5.915   2.290
 3407SOL    HW211121   1.160   5.752   2.286
 3408SOL     OW11122   5.376   4.520   2.571
 3408SOL    HW111123   5.424   4.456   2.630
 3408SOL    HW211124   5.425   4.528   2.484
 3409SOL     OW11125   3.798   0.665   5.520
 3409SOL    HW111126   3.709   0.624   5.535
 3409SOL    HW211127   3.848   0.612   5.451
 3410SOL     OW11128   6.522   6.700   0.626
 3410SOL    HW111129   6.595   6.637   0.600
 3410SOL    HW211130   6.534   6.728   0.721
 3411SOL     OW11131   4.670   2.369   2.937
 3411SOL    HW111132   4.717   2.428   3.002
 3411SOL    HW211133   4.638   2.424   2.859
 3412SOL     OW11134   3.629   4.494   0.061
 3412SOL    HW111135   3.630   4.400   0.027
 3412SOL    HW211136   3.536   4.530   0.058
 3413SOL     OW11137   3.546   1.573   3.689
 3413SOL    HW111138   3.491   1.656   3.681
 3413SOL    HW211139   3.560   1.534   3.598
 3414SOL     OW11140   2.769   2.240   5.295
 3414SOL    HW111141   2.788   2.292   5.211
 3414SOL    HW211142   2.855   2.223   5.344
 3415SOL     OW11143   0.474   4.698   3.935
 3415SOL    HW111144   0.525   4.627   3.982
 3415SOL    HW211145   0.376   4.687   3.952
 3416SOL     OW11146   1.045   5.648   5.201
 3416SOL    HW111147   1.132   5.663   5.248
 3416SOL    HW211148   1.058   5.655   5.102
 3417SOL     OW11149   0.017   6.937   2.537
 3417SOL    HW111150   0.088   6.890   2.485
 3417SOL    HW211151   6.961   6.874   2.554
 3418SOL     OW11152   3.004   1.647   5.411
 3418SOL    HW111153   2.981   1.625   5.506
 3418SOL    HW211154   2.966   1.577   5.351
 3419SOL     OW11155   4.101   4.822   0.160
 3419SOL    HW111156   4.065   4.910   0.190
 3419SOL    HW211157   4.031   4.752   0.171
 3420SOL     OW11158   4.167   2.260   3.726
 3420SOL    HW111159   4.089   2.271   3.664
 3420SOL    HW211160   4.249   2.240   3.673
 3421SOL     OW11161   0.324   5.848   5.430
 3421SOL    HW111162   0.289   5.774   5.488
 3421SOL    HW211163   0.366   5.918   5.488
 3422SOL     OW11164   3.352   1.139   1.532
 3422SOL    HW111165   3.412   1.217   1.548
 3422SOL    HW211166   3.275   1.168   1.475
 3423SOL     OW11167   2.339   0.264   1.012
 3423SOL    HW111168   2.260   0.319   0.986
 3423SOL    HW211169   2.421   0.321   1.013
 3424SOL     OW11170   4.435   0.847   3.309
 3424SOL    HW111171   4.489   0.923   3.344
 3424SOL    HW211172   4.342   0.878   3.290
 3425SOL     OW11173   4.565   4.398   1.674
 3425SOL    HW111174   4.532   4.338   1.747
 3425SOL    HW211175   4.546   4.357   1.585
 3426SOL     OW11176   4.184   3.866   0.551
 3426SOL    HW111177   4.283   3.855   0.553
 3426SOL    HW211178   4.141   3.790   0.601
 3427SOL     OW11179   0.378   1.175   0.361
 3427SOL    HW111180   0.407   1.111   0.289
 3427SOL    HW211181   0.279   1.181   0.361
 3428SOL     OW11182   4.107   4.766   2.113
 3428SOL    HW111183   4.115   4.864   2.133
 3428SOL    HW211184   4.010   4.741   2.104
 3429SOL     OW11185   1.436   3.397   0.451
 3429SOL    HW111186   1.370   3.471   0.444
 3429SOL    HW211187   1.529   3.435   0.454
 3430SOL     OW11188   1.704   6.994   0.092
 3430SOL    HW111189   1.711   6.900   0.058
 3430SOL    HW211190   1.706   6.993   0.192
 3431SOL     OW11191   0.794   5.993   0.766
 3431SOL    HW111192   0.731   6.037   0.830
 3431SOL    HW211193   0.744   5.926   0.711
 3432SOL     OW11194   3.151   1.671   6.069
 3432SOL    HW111195   3.052   1.658   6.068
 3432SOL    HW211196   3.174   1.747   6.130
 3433SOL     OW11197   3.596   0.781   4.985
 3433SOL    HW111198   3.555   0.748   4.899
 3433SOL    HW211199   3.579   0.715   5.057
 3434SOL     OW11200   4.845   2.814   2.117
 3434SOL    HW111201   4.818   2.907   2.091
 3434SOL    HW211202   4.835   2.803   2.216
 3435SOL     OW11203   7.009   2.037   2.106
 3435SOL    HW111204   6.935   2.094   2.070
 3435SOL    HW211205   0.075   2.083   2.092
 3436SOL     OW11206   4.016   6.916   4.639
 3436SOL    HW111207   4.064   7.003   4.654
 3436SOL    HW211208   4.070   6.841   4.678
 3437SOL     OW11209   4.044   0.026   5.468
 3437SOL    HW111210   4.026   0.121   5.493
 3437SOL    HW211211   3.968   6.989   5.497
 3438SOL     OW11212   1.138   2.839   6.527
 3438SOL    HW111213   1.184   2.768   6.473
 3438SOL    HW211214   1.143   2.816   6.624
 3439SOL     OW11215   2.591   6.381   4.104
 3439SOL    HW111216   2.558   6.343   4.191
 3439SOL    HW211217   2.560   6.476   4.096
 3440SOL     OW11218   4.842   3.345   0.929
 3440SOL    HW111219   4.786   3.290   0.991
 3440SOL    HW211220   4.939   3.330   0.950
 3441SOL     OW11221   2.863   0.234   3.851
 3441SOL    HW111222   2.962   0.237   3.838
 3441SOL    HW211223   2.828   0.327   3.860
 3442SOL     OW11224   1.938   5.080   3.609
 3442SOL    HW111225   1.909   5.156   3.668
 3442SOL    HW211226   1.858   5.024   3.586
 3443SOL     OW11227   6.437   1.742   2.960
 3443SOL    HW111228   6.345   1.766   2.931
 3443SOL    HW211229   6.495   1.824   2.960
 3444SOL     OW11230   4.950   5.649   0.087
 3444SOL    HW111231   4.963   5.688   0.178
 3444SOL    HW211232   4.853   5.629   0.073
 3445SOL     OW11233   6.542   4.819   4.176
 3445SOL    HW111234   6.605   4.831   4.099
 3445SOL    HW211235   6.582   4.758   4.243
 3446SOL     OW11236   3.902   0.035   2.593
 3446SOL    HW111237   3.826   0.099   2.582
 3446SOL    HW211238   3.903   6.992   2.516
 3447SOL     OW11239   5.420   6.542   0.099
 3447SOL    HW111240   5.486   6.545   0.023
 3447SOL    HW211241   5.348   6.476   0.078
 3448SOL     OW11242   3.733   0.839   1.552
 3448SOL    HW111243   3.634   0.855   1.548
 3448SOL    HW211244   3.754   0.748   1.517
 3449SOL     OW11245   6.661   6.590   2.868
 3449SOL    HW111246   6.573   6.635   2.854
 3449SOL    HW211247   6.711   6.586   2.782
 3450SOL     OW11248   0.838   1.611   1.578
 3450SOL    HW111249   0.792   1.672   1.514
 3450SOL    HW211250   0.838   1.518   1.541
 3451SOL     OW11251   1.171   5.953   3.950
 3451SOL    HW111252   1.200   5.951   4.045
 3451SOL    HW211253   1.246   5.984   3.892
 3452SOL     OW11254   5.966   1.367   0.428
 3452SOL    HW111255   6.057   1.371   0.470
 3452SOL    HW211256   5.964   1.290   0.363
 3453SOL     OW11257   5.333   5.830   4.703
 3453SOL    HW111258   5.317   5.747   4.757
 3453SOL    HW211259   5.373   5.900   4.761
 3454SOL     OW11260   1.128   1.033   0.857
 3454SOL    HW111261   1.124   0.988   0.767
 3454SOL    HW211262   1.133   1.132   0.844
 3455SOL     OW11263   1.922   2.592   4.269
 3455SOL    HW111264   1.871   2.534   4.206
 3455SOL    HW211265   1.859   2.632   4.336
 3456SOL     OW11266   5.615   6.868   1.458
 3456SOL    HW111267   5.546   6.852   1.387
 3456SOL    HW211268   5.705   6.877   1.416
 3457SOL     OW11269   2.637   4.614   3.676
 3457SOL    HW111270   2.621   4.578   3.584
 3457SOL    HW211271   2.735   4.612   3.696
 3458SOL     OW11272   5.939   6.761   1.057
 3458SOL    HW111273   5.900   6.837   1.006
 3458SOL    HW211274   5.889   6.677   1.037
 3459SOL     OW11275   0.219   4.966   3.761
 3459SOL    HW111276   0.301   4.938   3.711
 3459SOL    HW211277   0.141   4.965   3.698
 3460SOL     OW11278   4.595   2.669   6.943
 3460SOL    HW111279   4.562   2.763   6.953
 3460SOL    HW211280   4.523   2.606   6.973
 3461SOL     OW11281   3.790   6.227   3.995
 3461SOL    HW111282   3.710   6.269   3.952
 3461SOL    HW211283   3.834   6.292   4.056
 3462SOL     OW11284   4.878   3.564   3.100
 3462SOL    HW111285   4.881   3.659   3.068
 3462SOL    HW211286   4.821   3.558   3.182
 3463SOL     OW11287   2.355   2.922   1.091
 3463SOL    HW111288   2.293   2.907   1.014
 3463SOL    HW211289   2.413   3.001   1.071
 3464SOL     OW11290   5.154   3.115   6.176
 3464SOL    HW111291   5.252   3.131   6.167
 3464SOL    HW211292   5.138   3.022   6.208
 3465SOL     OW11293   2.069   3.720   1.924
 3465SOL    HW111294   2.114   3.641   1.965
 3465SOL    HW211295   2.111   3.804   1.960
 3466SOL     OW11296   5.935   4.893   4.826
 3466SOL    HW111297   5.849   4.843   4.826
 3466SOL    HW211298   5.916   4.991   4.820
 3467SOL     OW11299   2.747   2.873   0.974
 3467SOL    HW111300   2.798   2.959   0.978
 3467SOL    HW211301   2.787   2.813   0.904
 3468SOL     OW11302   4.708   1.474   1.424
 3468SOL    HW111303   4.624   1.529   1.429
 3468SOL    HW211304   4.684   1.377   1.421
 3469SOL     OW11305   4.596   6.815   5.706
 3469SOL    HW111306   4.545   6.746   5.655
 3469SOL    HW211307   4.607   6.897   5.650
 3470SOL     OW11308   0.172   2.703   2.032
 3470SOL    HW111309   0.163   2.798   2.061
 3470SOL    HW211310   0.205   2.648   2.109
 3471SOL     OW11311   4.793   4.068   3.013
 3471SOL    HW111312   4.729   4.145   3.010
 3471SOL    HW211313   4.812   4.037   2.919
 3472SOL     OW11314   4.755   1.921   3.264
 3472SOL    HW111315   4.749   1.831   3.307
 3472SOL    HW211316   4.830   1.973   3.305
 3473SOL     OW11317   6.909   3.939   3.362
 3473SOL    HW111318   6.945   3.958   3.453
 3473SOL    HW211319   6.951   3.855   3.327
 3474SOL     OW11320   6.442   5.334   4.819
 3474SOL    HW111321   6.512   5.347   4.749
 3474SOL    HW211322   6.445   5.239   4.851
 3475SOL     OW11323   6.791   4.052   4.323
 3475SOL    HW111324   6.753   4.094   4.406
 3475SOL    HW211325   6.882   4.088   4.306
 3476SOL     OW11326   1.407   1.831   3.570
 3476SOL    HW111327   1.350   1.788   3.500
 3476SOL    HW211328   1.430   1.764   3.641
 3477SOL     OW11329   0.288   3.823   1.386
 3477SOL    HW111330   0.329   3.738   1.354
 3477SOL    HW211331   0.312   3.838   1.482
 3478SOL     OW11332   2.358   6.841   0.038
 3478SOL    HW111333   2.293   6.895   0.092
 3478SOL    HW211334   2.390   6.896   6.981
 3479SOL     OW11335   0.728   3.393   3.523
 3479SOL    HW111336   0.759   3.418   3.615
 3479SOL    HW211337   0.808   3.368   3.468
 3480SOL     OW11338   1.239   5.594   6.946
 3480SOL    HW111339   1.146   5.621   6.922
 3480SOL    HW211340   1.289   5.672   6.983
 3481SOL     OW11341   6.513   0.514   6.541
 3481SOL    HW111342   6.558   0.603   6.546
 3481SOL    HW211343   6.447   0.513   6.466
 3482SOL     OW11344   5.845   3.825   4.783
 3482SOL    HW111345   5.864   3.769   4.703
 3482SOL    HW211346   5.888   3.914   4.773
 3483SOL     OW11347   4.610   1.802   3.681
 3483SOL    HW111348   4.682   1.838   3.741
 3483SOL    HW211349   4.613   1.702   3.683
 3484SOL     OW11350   2.037   3.469   6.075
 3484SOL    HW111351   2.009   3.529   6.151
 3484SOL    HW211352   2.068   3.525   5.999
 3485SOL     OW11353   0.188   1.784   5.899
 3485SOL    HW111354   0.165   1.697   5.943
 3485SOL    HW211355   0.105   1.838   5.887
 3486SOL     OW11356   2.237   0.207   4.798
 3486SOL    HW111357   2.171   0.142   4.836
 3486SOL    HW211358   2.262   0.180   4.705
 3487SOL     OW11359   6.236   1.696   6.729
 3487SOL    HW111360   6.210   1.785   6.692
 3487SOL    HW211361   6.180   1.624   6.687
 3488SOL     OW11362   6.117   0.702   4.242
 3488SOL    HW111363   6.143   0.606   4.247
 3488SOL    HW211364   6.017   0.710   4.239
 3489SOL     OW11365   3.179   0.125   0.848
 3489SOL    HW111366   3.223   0.211   0.876
 3489SOL    HW211367   3.148   0.134   0.753
 3490SOL     OW11368   4.200   5.140   0.764
 3490SOL    HW111369   4.281   5.096   0.801
 3490SOL    HW211370   4.199   5.131   0.664
 3491SOL     OW11371   4.977   4.283   0.181
 3491SOL    HW111372   4.992   4.345   0.103
 3491SOL    HW211373   4.888   4.238   0.170
 3492SOL     OW11374   5.759   4.365   2.523
 3492SOL    HW111375   5.776   4.422   2.443
 3492SOL    HW211376   5.841   4.362   2.580
 3493SOL     OW11377   6.136   3.554   4.571
 3493SOL    HW111378   6.111   3.534   4.665
 3493SOL    HW211379   6.235   3.541   4.559
 3494SOL     OW11380   3.465   1.844   2.449
 3494SOL    HW111381   3.440   1.915   2.514
 3494SOL    HW211382   3.402   1.844   2.372
 3495SOL     OW11383   1.243   3.341   1.874
 3495SOL    HW111384   1.278   3.426   1.914
 3495SOL    HW211385   1.289   3.324   1.787
 3496SOL     OW11386   6.507   5.037   0.889
 3496SOL    HW111387   6.480   5.058   0.794
 3496SOL    HW211388   6.428   5.047   0.949
 3497SOL     OW11389   4.270   0.663   2.545
 3497SOL    HW111390   4.336   0.592   2.570
 3497SOL    HW211391   4.186   0.650   2.597
 3498SOL     OW11392   1.882   1.957   1.550
 3498SOL    HW111393   1.939   1.899   1.608
 3498SOL    HW211394   1.900   2.053   1.572
 3499SOL     OW11395   5.646   5.567   5.627
 3499SOL    HW111396   5.665   5.644   5.567
 3499SOL    HW211397   5.659   5.595   5.722
 3500SOL     OW11398   1.503   1.847   3.935
 3500SOL    HW111399   1.476   1.873   4.028
 3500SOL    HW211400   1.465   1.913   3.870
 3501SOL     OW11401   2.165   6.975   6.436
 3501SOL    HW111402   2.261   6.968   6.408
 3501SOL    HW211403   2.158   6.965   6.535
 3502SOL     OW11404   5.088   3.516   1.700
 3502SOL    HW111405   5.028   3.592   1.676
 3502SOL    HW211406   5.049   3.431   1.665
 3503SOL     OW11407   6.761   5.758   6.384
 3503SOL    HW111408   6.678   5.732   6.335
 3503SOL    HW211409   6.752   5.736   6.481
 3504SOL     OW11410   1.497   0.640   2.153
 3504SOL    HW111411   1.511   0.723   2.098
 3504SOL    HW211412   1.459   0.568   2.096
 3505SOL     OW11413   5.670   5.132   5.617
 3505SOL    HW111414   5.580   5.148   5.656
 3505SOL    HW211415   5.686   5.034   5.608
 3506SOL     OW11416   5.136   4.481   4.449
 3506SOL    HW111417   5.166   4.400   4.397
 3506SOL    HW211418   5.088   4.543   4.388
 3507SOL     OW11419   2.446   0.203   0.461
 3507SOL    HW111420   2.395   0.178   0.543
 3507SOL    HW211421   2.532   0.152   0.457
 3508SOL     OW11422   3.052   2.519   5.390
 3508SOL    HW111423   3.114   2.472   5.328
 3508SOL    HW211424   2.989   2.576   5.337
 3509SOL     OW11425   4.201   5.858   6.999
 3509SOL    HW111426   4.298   5.880   7.008
 3509SOL    HW211427   4.147   5.927   0.027
 3510SOL     OW11428   2.009   0.763   1.041
 3510SOL    HW111429   1.992   0.860   1.021
 3510SOL    HW211430   2.094   0.734   0.998
 3511SOL     OW11431   2.406   4.550   1.471
 3511SOL    HW111432   2.330   4.569   1.409
 3511SOL    HW211433   2.404   4.616   1.546
 3512SOL     OW11434   1.160   3.914   6.826
 3512SOL    HW111435   1.152   4.003   6.872
 3512SOL    HW211436   1.165   3.928   6.728
 3513SOL     OW11437   5.881   2.227   0.526
 3513SOL    HW111438   5.952   2.192   0.586
 3513SOL    HW211439   5.809   2.271   0.580
 3514SOL     OW11440   4.971   0.719   2.565
 3514SOL    HW111441   4.961   0.622   2.586
 3514SOL    HW211442   4.911   0.772   2.626
 3515SOL     OW11443   5.689   5.981   4.615
 3515SOL    HW111444   5.619   6.053   4.624
 3515SOL    HW211445   5.685   5.942   4.524
 3516SOL     OW11446   5.201   0.229   1.080
 3516SOL    HW111447   5.286   0.216   1.029
 3516SOL    HW211448   5.220   0.280   1.164
 3517SOL     OW11449   6.462   1.711   0.659
 3517SOL    HW111450   6.409   1.635   0.622
 3517SOL    HW211451   6.501   1.764   0.584
 3518SOL     OW11452   6.050   1.832   5.088
 3518SOL    HW111453   6.003   1.918   5.109
 3518SOL    HW211454   6.040   1.769   5.165
 3519SOL     OW11455   3.192   0.589   0.280
 3519SOL    HW111456   3.249   0.581   0.362
 3519SOL    HW211457   3.105   0.633   0.303
 3520SOL     OW11458   3.061   5.373   5.368
 3520SOL    HW111459   3.064   5.344   5.463
 3520SOL    HW211460   3.044   5.472   5.364
 3521SOL     OW11461   3.064   3.218   6.825
 3521SOL    HW111462   2.992   3.172   6.877
 3521SOL    HW211463   3.022   3.271   6.751
 3522SOL     OW11464   6.883   5.459   6.954
 3522SOL    HW111465   6.943   5.492   0.006
 3522SOL    HW211466   6.932   5.460   6.867
 3523SOL     OW11467   1.239   5.086   5.813
 3523SOL    HW111468   1.258   4.997   5.770
 3523SOL    HW211469   1.196   5.146   5.746
 3524SOL     OW11470   6.232   1.919   3.219
 3524SOL    HW111471   6.155   1.870   3.258
 3524SOL    HW211472   6.315   1.864   3.230
 3525SOL     OW11473   6.056   4.724   4.022
 3525SOL    HW111474   6.063   4.823   4.020
 3525SOL    HW211475   6.111   4.688   4.098
 3526SOL     OW11476   1.066   5.795   3.183
 3526SOL    HW111477   1.062   5.855   3.263
 3526SOL    HW211478   1.129   5.833   3.116
 3527SOL     OW11479   6.627   2.665   6.047
 3527SOL    HW111480   6.629   2.582   5.992
 3527SOL    HW211481   6.546   2.665   6.106
 3528SOL     OW11482   2.632   6.337   5.559
 3528SOL    HW111483   2.714   6.285   5.584
 3528SOL    HW211484   2.656   6.403   5.487
 3529SOL     OW11485   5.084   5.765   6.900
 3529SOL    HW111486   5.042   5.722   6.980
 3529SOL    HW211487   5.172   5.721   6.880
 3530SOL     OW11488   7.016   6.120   2.170
 3530SOL    HW111489   6.925   6.145   2.136
 3530SOL    HW211490   0.044   6.071   2.098
 3531SOL     OW11491   4.633   1.559   1.931
 3531SOL    HW111492   4.634   1.602   1.841
 3531SOL    HW211493   4.539   1.542   1.959
 3532SOL     OW11494   2.255   1.160   2.208
 3532SOL    HW111495   2.192   1.087   2.183
 3532SOL    HW211496   2.231   1.243   2.158
 3533SOL     OW11497   6.490   1.545   2.268
 3533SOL    HW111498   6.420   1.480   2.299
 3533SOL    HW211499   6.557   1.559   2.341
 3534SOL     OW11500   0.222   2.112   2.030
 3534SOL    HW111501   0.297   2.049   2.052
 3534SOL    HW211502   0.257   2.206   2.029
 3535SOL     OW11503   2.880   5.145   5.050
 3535SOL    HW111504   2.914   5.055   5.076
 3535SOL    HW211505   2.859   5.198   5.133
 3536SOL     OW11506   3.136   1.835   2.968
 3536SOL    HW111507   3.067   1.898   2.931
 3536SOL    HW211508   3.153   1.858   3.064
 3537SOL     OW11509   1.511   5.810   3.105
 3537SOL    HW111510   1.583   5.795   3.036
 3537SOL    HW211511   1.553   5.838   3.191
 3538SOL     OW11512   3.104   5.428   4.977
 3538SOL    HW111513   3.012   5.396   4.956
 3538SOL    HW211514   3.103   5.527   4.991
 3539SOL     OW11515   3.718   4.157   4.508
 3539SOL    HW111516   3.789   4.098   4.546
 3539SOL    HW211517   3.667   4.201   4.582
 3540SOL     OW11518   1.931   2.114   4.131
 3540SOL    HW111519   1.906   2.042   4.066
 3540SOL    HW211520   1.853   2.175   4.144
 3541SOL     OW11521   3.264   3.280   4.885
 3541SOL    HW111522   3.355   3.273   4.844
 3541SOL    HW211523   3.225   3.369   4.865
 3542SOL     OW11524   1.404   4.960   2.636
 3542SOL    HW111525   1.457   5.032   2.682
 3542SOL    HW211526   1.426   4.872   2.677
 3543SOL     OW11527   5.364   2.451   4.222
 3543SOL    HW111528   5.343   2.427   4.317
 3543SOL    HW211529   5.280   2.450   4.168
 3544SOL     OW11530   1.937   3.978   6.504
 3544SOL    HW111531   1.889   4.060   6.535
 3544SOL    HW211532   1.887   3.937   6.427
 3545SOL     OW11533   4.359   5.449   6.405
 3545SOL    HW111534   4.308   5.491   6.480
 3545SOL    HW211535   4.296   5.426   6.331
 3546SOL     OW11536   6.971   5.653   3.391
 3546SOL    HW111537   0.043   5.684   3.372
 3546SOL    HW211538   6.941   5.690   3.479
 3547SOL     OW11539   4.412   5.104   4.295
 3547SOL    HW111540   4.331   5.115   4.238
 3547SOL    HW211541   4.451   5.194   4.316
 3548SOL     OW11542   4.677   2.525   5.530
 3548SOL    HW111543   4.734   2.549   5.609
 3548SOL    HW211544   4.602   2.466   5.560
 3549SOL     OW11545   6.393   4.851   3.528
 3549SOL    HW111546   6.362   4.756   3.518
 3549SOL    HW211547   6.493   4.854   3.534
 3550SOL     OW11548   5.059   2.199   3.023
 3550SOL    HW111549   5.103   2.281   3.060
 3550SOL    HW211550   4.971   2.185   3.070
 3551SOL     OW11551   3.054   6.432   2.859
 3551SOL    HW111552   3.042   6.413   2.761
 3551SOL    HW211553   3.131   6.378   2.894
 3552SOL     OW11554   5.414   6.109   2.614
 3552SOL    HW111555   5.498   6.144   2.572
 3552SOL    HW211556   5.437   6.056   2.696
 3553SOL     OW11557   5.371   2.369   2.428
 3553SOL    HW111558   5.398   2.453   2.475
 3553SOL    HW211559   5.292   2.329   2.475
 3554SOL     OW11560   4.212   4.772   6.602
 3554SOL    HW111561   4.228   4.754   6.505
 3554SOL    HW211562   4.116   4.792   6.618
 3555SOL     OW11563   0.945   3.234   3.073
 3555SOL    HW111564   1.044   3.224   3.058
 3555SOL    HW211565   0.896   3.169   3.016
 3556SOL     OW11566   2.984   0.447   5.408
 3556SOL    HW111567   3.007   0.462   5.311
 3556SOL    HW211568   2.957   0.533   5.450
 3557SOL     OW11569   1.903   0.256   4.777
 3557SOL    HW111570   1.936   0.173   4.823
 3557SOL    HW211571   1.952   0.267   4.690
 3558SOL     OW11572   0.044   6.038   1.702
 3558SOL    HW111573   0.078   6.042   1.796
 3558SOL    HW211574   0.104   6.093   1.643
 3559SOL     OW11575   0.617   0.893   4.549
 3559SOL    HW111576   0.675   0.974   4.563
 3559SOL    HW211577   0.584   0.859   4.637
 3560SOL     OW11578   0.935   5.663   1.384
 3560SOL    HW111579   0.866   5.592   1.378
 3560SOL    HW211580   1.026   5.621   1.387
 3561SOL     OW11581   4.844   4.391   5.768
 3561SOL    HW111582   4.891   4.321   5.821
 3561SOL    HW211583   4.750   4.399   5.798
 3562SOL     OW11584   5.902   0.348   3.764
 3562SOL    HW111585   5.906   0.285   3.687
 3562SOL    HW211586   5.809   0.348   3.802
 3563SOL     OW11587   5.379   1.180   1.133
 3563SOL    HW111588   5.341   1.104   1.186
 3563SOL    HW211589   5.311   1.211   1.066
 3564SOL     OW11590   0.296   4.471   4.323
 3564SOL    HW111591   0.362   4.544   4.303
 3564SOL    HW211592   0.343   4.383   4.321
 3565SOL     OW11593   2.798   0.776   4.592
 3565SOL    HW111594   2.814   0.843   4.519
 3565SOL    HW211595   2.876   0.714   4.598
 3566SOL     OW11596   0.247   3.278   5.949
 3566SOL    HW111597   0.196   3.199   5.914
 3566SOL    HW211598   0.183   3.352   5.972
 3567SOL     OW11599   0.132   3.294   0.720
 3567SOL    HW111600   0.086   3.344   0.794
 3567SOL    HW211601   0.161   3.359   0.649
 3568SOL     OW11602   4.340   4.629   3.157
 3568SOL    HW111603   4.281   4.703   3.190
 3568SOL    HW211604   4.362   4.568   3.232
 3569SOL     OW11605   3.006   3.818   4.686
 3569SOL    HW111606   3.005   3.866   4.774
 3569SOL    HW211607   2.950   3.736   4.692
 3570SOL     OW11608   6.639   1.701   5.825
 3570SOL    HW111609   6.704   1.712   5.750
 3570SOL    HW211610   6.546   1.703   5.789
 3571SOL     OW11611   1.834   6.568   5.350
 3571SOL    HW111612   1.933   6.570   5.367
 3571SOL    HW211613   1.805   6.654   5.309
 3572SOL     OW11614   5.008   4.550   1.334
 3572SOL    HW111615   5.036   4.464   1.292
 3572SOL    HW211616   5.049   4.558   1.425
 3573SOL     OW11617   6.515   3.615   1.949
 3573SOL    HW111618   6.549   3.701   1.988
 3573SOL    HW211619   6.493   3.551   2.022
 3574SOL     OW11620   2.629   3.233   5.971
 3574SOL    HW111621   2.703   3.173   5.939
 3574SOL    HW211622   2.635   3.244   6.070
 3575SOL     OW11623   5.316   6.884   0.382
 3575SOL    HW111624   5.232   6.934   0.402
 3575SOL    HW211625   5.378   6.941   0.329
 3576SOL     OW11626   0.784   3.060   6.922
 3576SOL    HW111627   0.786   3.159   6.937
 3576SOL    HW211628   0.759   3.040   6.827
 3577SOL     OW11629   2.400   2.759   5.533
 3577SOL    HW111630   2.488   2.712   5.539
 3577SOL    HW211631   2.405   2.831   5.464
 3578SOL     OW11632   3.403   3.021   6.668
 3578SOL    HW111633   3.457   2.939   6.646
 3578SOL    HW211634   3.392   3.076   6.585
 3579SOL     OW11635   0.363   3.437   2.400
 3579SOL    HW111636   0.365   3.483   2.311
 3579SOL    HW211637   0.455   3.436   2.439
 3580SOL     OW11638   0.607   3.739   1.501
 3580SOL    HW111639   0.550   3.721   1.420
 3580SOL    HW211640   0.556   3.717   1.584
 3581SOL     OW11641   0.723   0.315   2.660
 3581SOL    HW111642   0.639   0.351   2.703
 3581SOL    HW211643   0.699   0.239   2.600
 3582SOL     OW11644   3.548   3.802   5.710
 3582SOL    HW111645   3.646   3.798   5.729
 3582SOL    HW211646   3.533   3.854   5.625
 3583SOL     OW11647   0.533   4.701   1.061
 3583SOL    HW111648   0.474   4.775   1.029
 3583SOL    HW211649   0.505   4.616   1.016
 3584SOL     OW11650   5.655   4.536   5.013
 3584SOL    HW111651   5.751   4.514   5.032
 3584SOL    HW211652   5.619   4.472   4.945
 3585SOL     OW11653   2.800   1.761   3.777
 3585SOL    HW111654   2.893   1.724   3.777
 3585SOL    HW211655   2.796   1.841   3.717
 3586SOL     OW11656   6.338   2.883   4.224
 3586SOL    HW111657   6.260   2.945   4.213
 3586SOL    HW211658   6.395   2.915   4.300
 3587SOL     OW11659   3.398   6.768   6.293
 3587SOL    HW111660   3.484   6.788   6.341
 3587SOL    HW211661   3.349   6.696   6.341
 3588SOL     OW11662   6.707   4.237   4.521
 3588SOL    HW111663   6.768   4.315   4.507
 3588SOL    HW211664   6.612   4.270   4.524
 3589SOL     OW11665   0.254   6.968   6.256
 3589SOL    HW111666   0.223   6.878   6.225
 3589SOL    HW211667   0.225   6.984   6.350
 3590SOL     OW11668   6.947   4.872   0.680
 3590SOL    HW111669   6.977   4.792   0.628
 3590SOL    HW211670   6.916   4.943   0.616
 3591SOL     OW11671   5.458   2.269   6.695
 3591SOL    HW111672   5.370   2.266   6.648
 3591SOL    HW211673   5.507   2.352   6.668
 3592SOL     OW11674   1.577   6.940   1.686
 3592SOL    HW111675   1.663   6.890   1.686
 3592SOL    HW211676   1.565   6.985   1.597
 3593SOL     OW11677   5.032   3.262   5.973
 3593SOL    HW111678   5.031   3.211   5.887
 3593SOL    HW211679   5.083   3.211   6.042
 3594SOL     OW11680   4.370   4.822   4.410
 3594SOL    HW111681   4.366   4.921   4.421
 3594SOL    HW211682   4.324   4.778   4.487
 3595SOL     OW11683   5.519   5.947   5.963
 3595SOL    HW111684   5.492   5.858   5.925
 3595SOL    HW211685   5.438   6.006   5.968
 3596SOL     OW11686   3.622   1.459   3.180
 3596SOL    HW111687   3.564   1.541   3.181
 3596SOL    HW211688   3.669   1.454   3.092
 3597SOL     OW11689   2.211   3.368   5.157
 3597SOL    HW111690   2.182   3.272   5.153
 3597SOL    HW211691   2.309   3.373   5.171
 3598SOL     OW11692   1.525   5.514   4.727
 3598SOL    HW111693   1.431   5.482   4.735
 3598SOL    HW211694   1.549   5.569   4.808
 3599SOL     OW11695   4.924   1.679   5.055
 3599SOL    HW111696   4.856   1.743   5.019
 3599SOL    HW211697   4.970   1.634   4.978
 3600SOL     OW11698   3.629   3.262   0.820
 3600SOL    HW111699   3.624   3.164   0.803
 3600SOL    HW211700   3.664   3.278   0.913
 3601SOL     OW11701   4.963   0.815   5.175
 3601SOL    HW111702   4.890   0.834   5.240
 3601SOL    HW211703   4.975   0.894   5.115
 3602SOL     OW11704   2.374   1.999   1.225
 3602SOL    HW111705   2.401   1.985   1.130
 3602SOL    HW211706   2.330   2.089   1.234
 3603SOL     OW11707   2.891   1.424   5.908
 3603SOL    HW111708   2.976   1.470   5.885
 3603SOL    HW211709   2.839   1.481   5.972
 3604SOL     OW11710   6.653   0.559   3.570
 3604SOL    HW111711   6.739   0.513   3.550
 3604SOL    HW211712   6.671   0.647   3.615
 3605SOL     OW11713   0.894   5.579   3.543
 3605SOL    HW111714   0.980   5.579   3.491
 3605SOL    HW211715   0.867   5.674   3.562
 3606SOL     OW11716   2.301   6.660   1.677
 3606SOL    HW111717   2.290   6.651   1.776
 3606SOL    HW211718   2.382   6.715   1.657
 3607SOL     OW11719   5.313   2.817   3.032
 3607SOL    HW111720   5.275   2.774   2.950
 3607SOL    HW211721   5.281   2.912   3.037
 3608SOL     OW11722   3.146   1.854   4.748
 3608SOL    HW111723   3.145   1.914   4.828
 3608SOL    HW211724   3.074   1.881   4.685
 3609SOL     OW11725   2.238   6.804   4.477
 3609SOL    HW111726   2.292   6.811   4.561
 3609SOL    HW211727   2.300   6.807   4.397
 3610SOL     OW11728   2.581   6.473   5.190
 3610SOL    HW111729   2.583   6.383   5.146
 3610SOL    HW211730   2.558   6.543   5.122
 3611SOL     OW11731   5.085   4.951   3.103
 3611SOL    HW111732   5.152   5.016   3.139
 3611SOL    HW211733   5.083   4.959   3.003
 3612SOL     OW11734   6.110   1.234   6.649
 3612SOL    HW111735   6.102   1.136   6.664
 3612SOL    HW211736   6.143   1.278   6.732
 3613SOL     OW11737   3.797   5.210   1.362
 3613SOL    HW111738   3.758   5.302   1.355
 3613SOL    HW211739   3.800   5.169   1.271
 3614SOL     OW11740   4.000   4.236   6.402
 3614SOL    HW111741   4.042   4.311   6.452
 3614SOL    HW211742   4.025   4.243   6.305
 3615SOL     OW11743   6.184   2.420   5.560
 3615SOL    HW111744   6.197   2.464   5.649
 3615SOL    HW211745   6.198   2.488   5.487
 3616SOL     OW11746   1.524   1.941   6.740
 3616SOL    HW111747   1.434   1.899   6.724
 3616SOL    HW211748   1.558   1.979   6.655
 3617SOL     OW11749   3.642   6.396   6.402
 3617SOL    HW111750   3.741   6.404   6.414
 3617SOL    HW211751   3.614   6.302   6.424
 3618SOL     OW11752   1.824   4.334   4.647
 3618SOL    HW111753   1.843   4.422   4.690
 3618SOL    HW211754   1.908   4.296   4.607
 3619SOL     OW11755   5.571   2.925   1.624
 3619SOL    HW111756   5.480   2.958   1.649
 3619SOL    HW211757   5.563   2.836   1.580
 3620SOL     OW11758   6.253   6.145   4.711
 3620SOL    HW111759   6.192   6.180   4.782
 3620SOL    HW211760   6.305   6.068   4.747
 3621SOL     OW11761   2.898   3.315   3.484
 3621SOL    HW111762   2.922   3.225   3.520
 3621SOL    HW211763   2.912   3.316   3.385
 3622SOL     OW11764   0.912   6.630   0.135
 3622SOL    HW111765   0.833   6.591   0.182
 3622SOL    HW211766   0.973   6.673   0.202
 3623SOL     OW11767   1.124   4.748   5.970
 3623SOL    HW111768   1.085   4.669   6.018
 3623SOL    HW211769   1.201   4.718   5.914
 3624SOL     OW11770   3.660   1.047   1.894
 3624SOL    HW111771   3.724   1.108   1.941
 3624SOL    HW211772   3.677   0.953   1.922
 3625SOL     OW11773   6.837   2.348   0.580
 3625SOL    HW111774   6.770   2.277   0.561
 3625SOL    HW211775   6.796   2.418   0.639
 3626SOL     OW11776   1.229   2.523   5.141
 3626SOL    HW111777   1.261   2.594   5.078
 3626SOL    HW211778   1.133   2.501   5.120
 3627SOL     OW11779   4.033   2.056   1.865
 3627SOL    HW111780   4.103   2.116   1.901
 3627SOL    HW211781   3.942   2.090   1.891
 3628SOL     OW11782   6.604   1.983   1.975
 3628SOL    HW111783   6.632   1.906   1.917
 3628SOL    HW211784   6.604   1.954   2.071
 3629SOL     OW11785   1.508   1.569   4.306
 3629SOL    HW111786   1.571   1.503   4.264
 3629SOL    HW211787   1.415   1.534   4.299
 3630SOL     OW11788   6.927   2.567   3.611
 3630SOL    HW111789   7.001   2.509   3.646
 3630SOL    HW211790   6.843   2.548   3.661
 3631SOL     OW11791   1.931   6.506   2.203
 3631SOL    HW111792   1.950   6.513   2.105
 3631SOL    HW211793   1.992   6.566   2.254
 3632SOL     OW11794   4.932   4.106   0.949
 3632SOL    HW111795   4.840   4.142   0.965
 3632SOL    HW211796   4.996   4.181   0.934
 3633SOL     OW11797   3.603   3.079   6.412
 3633SOL    HW111798   3.553   3.006   6.365
 3633SOL    HW211799   3.579   3.167   6.371
 3634SOL     OW11800   3.200   5.226   6.533
 3634SOL    HW111801   3.248   5.257   6.615
 3634SOL    HW211802   3.104   5.254   6.538
 3635SOL     OW11803   2.621   0.149   1.353
 3635SOL    HW111804   2.617   0.085   1.276
 3635SOL    HW211805   2.556   0.121   1.424
 3636SOL     OW11806   1.231   4.794   6.946
 3636SOL    HW111807   1.208   4.847   0.007
 3636SOL    HW211808   1.241   4.698   6.971
 3637SOL     OW11809   6.877   3.141   6.510
 3637SOL    HW111810   6.867   3.057   6.563
 3637SOL    HW211811   6.789   3.189   6.507
 3638SOL     OW11812   5.870   4.595   2.911
 3638SOL    HW111813   5.829   4.612   2.822
 3638SOL    HW211814   5.909   4.503   2.913
 3639SOL     OW11815   3.709   3.766   4.518
 3639SOL    HW111816   3.786   3.780   4.581
 3639SOL    HW211817   3.625   3.801   4.559
 3640SOL     OW11818   5.337   2.179   0.868
 3640SOL    HW111819   5.293   2.244   0.807
 3640SOL    HW211820   5.390   2.113   0.814
 3641SOL     OW11821   5.953   3.633   2.251
 3641SOL    HW111822   5.980   3.592   2.338
 3641SOL    HW211823   5.854   3.632   2.243
 3642SOL     OW11824   6.138   2.950   6.379
 3642SOL    HW111825   6.118   2.938   6.282
 3642SOL    HW211826   6.101   3.037   6.410
 3643SOL     OW11827   3.972   5.334   5.560
 3643SOL    HW111828   3.996   5.397   5.634
 3643SOL    HW211829   4.053   5.279   5.536
 3644SOL     OW11830   2.815   0.720   1.749
 3644SOL    HW111831   2.893   0.661   1.770
 3644SOL    HW211832   2.829   0.762   1.659
 3645SOL     OW11833   1.715   4.387   3.611
 3645SOL    HW111834   1.615   4.393   3.617
 3645SOL    HW211835   1.755   4.426   3.693
 3646SOL     OW11836   2.272   4.256   4.595
 3646SOL    HW111837   2.186   4.229   4.551
 3646SOL    HW211838   2.318   4.176   4.632
 3647SOL     OW11839   3.252   6.658   6.943
 3647SOL    HW111840   3.235   6.756   6.956
 3647SOL    HW211841   3.324   6.628   7.005
 3648SOL     OW11842   4.329   5.546   3.174
 3648SOL    HW111843   4.386   5.626   3.158
 3648SOL    HW211844   4.360   5.471   3.115
 3649SOL     OW11845   5.798   2.881   0.195
 3649SOL    HW111846   5.879   2.837   0.233
 3649SOL    HW211847   5.718   2.857   0.249
 3650SOL     OW11848   5.465   5.488   0.400
 3650SOL    HW111849   5.525   5.412   0.374
 3650SOL    HW211850   5.377   5.478   0.354
 3651SOL     OW11851   1.020   2.042   5.767
 3651SOL    HW111852   0.991   2.083   5.854
 3651SOL    HW211853   0.986   1.948   5.762
 3652SOL     OW11854   4.250   1.442   2.168
 3652SOL    HW111855   4.330   1.385   2.148
 3652SOL    HW211856   4.177   1.420   2.103
 3653SOL     OW11857   0.785   1.534   1.222
 3653SOL    HW111858   0.795   1.458   1.159
 3653SOL    HW211859   0.717   1.511   1.292
 3654SOL     OW11860   5.349   0.499   0.856
 3654SOL    HW111861   5.307   0.419   0.814
 3654SOL    HW211862   5.406   0.471   0.933
 3655SOL     OW11863   1.689   2.270   4.289
 3655SOL    HW111864   1.682   2.299   4.385
 3655SOL    HW211865   1.700   2.350   4.231
 3656SOL     OW11866   6.817   6.892   1.552
 3656SOL    HW111867   6.845   6.800   1.579
 3656SOL    HW211868   6.773   6.938   1.629
 3657SOL     OW11869   4.942   6.176   4.888
 3657SOL    HW111870   4.943   6.079   4.913
 3657SOL    HW211871   4.924   6.185   4.790
 3658SOL     OW11872   1.718   4.715   5.976
 3658SOL    HW111873   1.811   4.713   5.940
 3658SOL    HW211874   1.666   4.787   5.930
 3659SOL     OW11875   6.714   1.877   6.464
 3659SOL    HW111876   6.653   1.887   6.386
 3659SOL    HW211877   6.800   1.835   6.434
 3660SOL     OW11878   5.688   5.455   6.554
 3660SOL    HW111879   5.697   5.406   6.467
 3660SOL    HW211880   5.658   5.549   6.537
 3661SOL     OW11881   0.247   2.379   4.826
 3661SOL    HW111882   0.183   2.399   4.900
 3661SOL    HW211883   0.269   2.464   4.777
 3662SOL     OW11884   2.743   1.652   5.748
 3662SOL    HW111885   2.696   1.708   5.680
 3662SOL    HW211886   2.716   1.556   5.735
 3663SOL     OW11887   2.622   2.060   6.711
 3663SOL    HW111888   2.592   2.134   6.650
 3663SOL    HW211889   2.661   1.986   6.657
 3664SOL     OW11890   3.810   1.349   2.073
 3664SOL    HW111891   3.888   1.359   2.012
 3664SOL    HW211892   3.815   1.417   2.145
 3665SOL     OW11893   1.140   5.844   6.017
 3665SOL    HW111894   1.226   5.830   5.969
 3665SOL    HW211895   1.143   5.932   6.066
 3666SOL     OW11896   2.230   2.399   4.548
 3666SOL    HW111897   2.223   2.482   4.603
 3666SOL    HW211898   2.192   2.416   4.457
 3667SOL     OW11899   1.741   0.565   1.863
 3667SOL    HW111900   1.753   0.500   1.789
 3667SOL    HW211901   1.655   0.614   1.851
 3668SOL     OW11902   0.545   1.064   1.858
 3668SOL    HW111903   0.538   1.133   1.786
 3668SOL    HW211904   0.604   1.097   1.931
 3669SOL     OW11905   0.361   1.374   3.649
 3669SOL    HW111906   0.287   1.314   3.680
 3669SOL    HW211907   0.374   1.362   3.551
 3670SOL     OW11908   3.173   5.483   1.788
 3670SOL    HW111909   3.095   5.517   1.735
 3670SOL    HW211910   3.149   5.478   1.885
 3671SOL     OW11911   6.494   0.335   3.554
 3671SOL    HW111912   6.515   0.306   3.647
 3671SOL    HW211913   6.530   0.427   3.538
 3672SOL     OW11914   4.054   6.746   2.676
 3672SOL    HW111915   4.096   6.826   2.717
 3672SOL    HW211916   3.993   6.774   2.602
 3673SOL     OW11917   3.851   5.809   1.330
 3673SOL    HW111918   3.762   5.812   1.285
 3673SOL    HW211919   3.873   5.900   1.366
 3674SOL     OW11920   1.341   4.442   6.209
 3674SOL    HW111921   1.420   4.382   6.200
 3674SOL    HW211922   1.362   4.530   6.167
 3675SOL     OW11923   1.323   0.798   4.136
 3675SOL    HW111924   1.331   0.873   4.071
 3675SOL    HW211925   1.377   0.819   4.218
 3676SOL     OW11926   4.156   1.811   4.015
 3676SOL    HW111927   4.098   1.826   3.935
 3676SOL    HW211928   4.118   1.858   4.094
 3677SOL     OW11929   2.387   0.567   4.077
 3677SOL    HW111930   2.372   0.468   4.076
 3677SOL    HW211931   2.481   0.586   4.104
 3678SOL     OW11932   1.217   0.698   3.593
 3678SOL    HW111933   1.124   0.735   3.586
 3678SOL    HW211934   1.281   0.761   3.548
 3679SOL     OW11935   4.488   0.867   2.560
 3679SOL    HW111936   4.392   0.838   2.567
 3679SOL    HW211937   4.548   0.787   2.572
 3680SOL     OW11938   3.914   1.282   4.568
 3680SOL    HW111939   3.935   1.225   4.488
 3680SOL    HW211940   3.850   1.354   4.542
 3681SOL     OW11941   1.779   6.242   4.566
 3681SOL    HW111942   1.873   6.260   4.595
 3681SOL    HW211943   1.773   6.151   4.524
 3682SOL     OW11944   5.428   1.836   1.964
 3682SOL    HW111945   5.395   1.812   2.056
 3682SOL    HW211946   5.358   1.888   1.916
 3683SOL     OW11947   6.013   1.436   5.780
 3683SOL    HW111948   5.915   1.452   5.773
 3683SOL    HW211949   6.031   1.374   5.857
 3684SOL     OW11950   2.181   6.778   5.593
 3684SOL    HW111951   2.226   6.861   5.561
 3684SOL    HW211952   2.225   6.746   5.677
 3685SOL     OW11953   2.065   6.481   5.677
 3685SOL    HW111954   1.997   6.537   5.629
 3685SOL    HW211955   2.131   6.444   5.610
 3686SOL     OW11956   0.911   3.956   3.534
 3686SOL    HW111957   0.853   3.917   3.462
 3686SOL    HW211958   0.974   3.886   3.568
 3687SOL     OW11959   5.540   5.490   4.470
 3687SOL    HW111960   5.498   5.553   4.535
 3687SOL    HW211961   5.537   5.530   4.379
 3688SOL     OW11962   6.129   2.403   0.623
 3688SOL    HW111963   6.057   2.452   0.575
 3688SOL    HW211964   6.102   2.386   0.718
 3689SOL     OW11965   1.672   6.663   5.782
 3689SOL    HW111966   1.756   6.712   5.760
 3689SOL    HW211967   1.595   6.705   5.735
 3690SOL     OW11968   4.968   5.507   1.391
 3690SOL    HW111969   4.932   5.599   1.403
 3690SOL    HW211970   5.055   5.499   1.440
 3691SOL     OW11971   1.655   2.498   0.665
 3691SOL    HW111972   1.747   2.477   0.697
 3691SOL    HW211973   1.659   2.569   0.595
 3692SOL     OW11974   0.837   3.667   5.680
 3692SOL    HW111975   0.772   3.659   5.756
 3692SOL    HW211976   0.810   3.604   5.607
 3693SOL     OW11977   6.345   1.124   2.097
 3693SOL    HW111978   6.319   1.150   2.190
 3693SOL    HW211979   6.266   1.133   2.037
 3694SOL     OW11980   6.591   0.647   2.286
 3694SOL    HW111981   6.494   0.659   2.308
 3694SOL    HW211982   6.613   0.549   2.288
 3695SOL     OW11983   5.935   3.205   2.928
 3695SOL    HW111984   5.926   3.168   2.835
 3695SOL    HW211985   5.885   3.147   2.992
 3696SOL     OW11986   4.448   0.834   4.555
 3696SOL    HW111987   4.524   0.862   4.613
 3696SOL    HW211988   4.447   0.890   4.472
 3697SOL     OW11989   0.199   6.202   3.038
 3697SOL    HW111990   0.146   6.186   3.121
 3697SOL    HW211991   0.159   6.150   2.963
 3698SOL     OW11992   1.481   0.333   3.070
 3698SOL    HW111993   1.414   0.263   3.044
 3698SOL    HW211994   1.485   0.403   2.999
 3699SOL     OW11995   2.478   2.603   3.830
 3699SOL    HW111996   2.518   2.652   3.907
 3699SOL    HW211997   2.422   2.527   3.864
 3700SOL     OW11998   1.084   4.759   3.959
 3700SOL    HW111999   1.108   4.842   4.008
 3700SOL    HW212000   0.999   4.721   3.997
 3701SOL     OW12001   1.621   0.582   2.389
 3701SOL    HW112002   1.585   0.609   2.299
 3701SOL    HW212003   1.617   0.483   2.398
 3702SOL     OW12004   5.322   4.456   3.376
 3702SOL    HW112005   5.279   4.366   3.374
 3702SOL    HW212006   5.353   4.476   3.469
 3703SOL     OW12007   1.157   1.513   4.518
 3703SOL    HW112008   1.086   1.563   4.567
 3703SOL    HW212009   1.196   1.443   4.577
 3704SOL     OW12010   6.634   2.268   0.790
 3704SOL    HW112011   6.575   2.316   0.725
 3704SOL    HW212012   6.660   2.180   0.751
 3705SOL     OW12013   4.992   4.822   2.720
 3705SOL    HW112014   4.970   4.814   2.623
 3705SOL    HW212015   4.929   4.764   2.773
 3706SOL     OW12016   0.508   3.857   0.314
 3706SOL    HW112017   0.449   3.790   0.268
 3706SOL    HW212018   0.568   3.900   0.247
 3707SOL     OW12019   1.052   4.911   3.732
 3707SOL    HW112020   0.964   4.944   3.767
 3707SOL    HW212021   1.098   4.857   3.803
 3708SOL     OW12022   2.747   6.542   0.657
 3708SOL    HW112023   2.741   6.636   0.623
 3708SOL    HW212024   2.695   6.533   0.742
 3709SOL     OW12025   1.387   1.550   2.309
 3709SOL    HW112026   1.291   1.561   2.332
 3709SOL    HW212027   1.436   1.635   2.330
 3710SOL     OW12028   0.426   4.706   5.237
 3710SOL    HW112029   0.525   4.698   5.253
 3710SOL    HW212030   0.386   4.768   5.304
 3711SOL     OW12031   1.202   5.895   4.405
 3711SOL    HW112032   1.257   5.891   4.488
 3711SOL    HW212033   1.183   5.802   4.372
 3712SOL     OW12034   1.914   5.241   4.582
 3712SOL    HW112035   1.820   5.236   4.614
 3712SOL    HW212036   1.942   5.153   4.545
 3713SOL     OW12037   5.698   0.152   4.245
 3713SOL    HW112038   5.631   0.096   4.196
 3713SOL    HW212039   5.790   0.119   4.224
 3714SOL     OW12040   0.602   4.478   0.758
 3714SOL    HW112041   0.682   4.429   0.723
 3714SOL    HW212042   0.519   4.438   0.721
 3715SOL     OW12043   5.505   5.523   3.493
 3715SOL    HW112044   5.518   5.436   3.445
 3715SOL    HW212045   5.428   5.572   3.451
 3716SOL     OW12046   5.038   5.690   4.101
 3716SOL    HW112047   5.067   5.599   4.129
 3716SOL    HW212048   5.035   5.695   4.001
 3717SOL     OW12049   4.299   1.370   1.090
 3717SOL    HW112050   4.372   1.387   1.023
 3717SOL    HW212051   4.232   1.444   1.083
 3718SOL     OW12052   6.981   0.091   5.693
 3718SOL    HW112053   6.953   0.181   5.726
 3718SOL    HW212054   6.984   0.026   5.769
 3719SOL     OW12055   3.505   4.238   0.029
 3719SOL    HW112056   3.584   4.189   7.013
 3719SOL    HW212057   3.422   4.207   7.004
 3720SOL     OW12058   0.171   2.910   1.296
 3720SOL    HW112059   0.209   2.862   1.375
 3720SOL    HW212060   0.242   2.967   1.254
 3721SOL     OW12061   6.528   5.464   6.036
 3721SOL    HW112062   6.586   5.502   6.108
 3721SOL    HW212063   6.580   5.398   5.982
 3722SOL     OW12064   4.980   6.088   2.997
 3722SOL    HW112065   4.972   6.160   3.066
 3722SOL    HW212066   4.915   6.105   2.923
 3723SOL     OW12067   4.712   3.529   0.362
 3723SOL    HW112068   4.729   3.433   0.341
 3723SOL    HW212069   4.780   3.585   0.315
 3724SOL     OW12070   1.289   4.749   4.755
 3724SOL    HW112071   1.240   4.821   4.804
 3724SOL    HW212072   1.375   4.785   4.720
 3725SOL     OW12073   0.739   5.536   6.901
 3725SOL    HW112074   0.642   5.552   6.920
 3725SOL    HW212075   0.792   5.618   6.924
 3726SOL     OW12076   6.249   3.780   4.952
 3726SOL    HW112077   6.255   3.856   5.017
 3726SOL    HW212078   6.234   3.695   5.002
 3727SOL     OW12079   6.488   3.835   3.887
 3727SOL    HW112080   6.510   3.917   3.939
 3727SOL    HW212081   6.462   3.861   3.794
 3728SOL     OW12082   3.513   2.593   0.202
 3728SOL    HW112083   3.419   2.575   0.230
 3728SOL    HW212084   3.564   2.507   0.198
 3729SOL     OW12085   0.616   0.305   5.327
 3729SOL    HW112086   0.680   0.331   5.254
 3729SOL    HW212087   0.666   0.252   5.397
 3730SOL     OW12088   3.873   6.065   4.219
 3730SOL    HW112089   3.866   6.111   4.307
 3730SOL    HW212090   3.842   6.127   4.147
 3731SOL     OW12091   0.340   1.931   6.749
 3731SOL    HW112092   0.412   1.995   6.773
 3731SOL    HW212093   0.278   1.973   6.683
 3732SOL     OW12094   3.129   1.689   6.433
 3732SOL    HW112095   3.223   1.672   6.402
 3732SOL    HW212096   3.128   1.695   6.533
 3733SOL     OW12097   2.122   1.504   3.786
 3733SOL    HW112098   2.038   1.541   3.825
 3733SOL    HW212099   2.115   1.405   3.780
 3734SOL     OW12100   3.897   6.490   0.831
 3734SOL    HW112101   3.852   6.528   0.912
 3734SOL    HW212102   3.996   6.487   0.845
 3735SOL     OW12103   3.889   6.794   2.427
 3735SOL    HW112104   3.802   6.784   2.476
 3735SOL    HW212105   3.874   6.782   2.329
 3736SOL     OW12106   6.682   1.095   1.169
 3736SOL    HW112107   6.603   1.120   1.225
 3736SOL    HW212108   6.682   0.996   1.153
 3737SOL     OW12109   6.939   2.519   2.944
 3737SOL    HW112110   6.866   2.564   2.893
 3737SOL    HW212111   7.019   2.579   2.947
 3738SOL     OW12112   6.992   7.014   1.167
 3738SOL    HW112113   0.040   0.014   1.237
 3738SOL    HW212114   6.994   0.065   1.097
 3739SOL     OW12115   3.235   4.007   0.772
 3739SOL    HW112116   3.254   3.948   0.850
 3739SOL    HW212117   3.190   3.954   0.700
 3740SOL     OW12118   5.156   5.510   6.440
 3740SOL    HW112119   5.139   5.427   6.387
 3740SOL    HW212120   5.117   5.589   6.391
 3741SOL     OW12121   5.363   3.440   0.579
 3741SOL    HW112122   5.433   3.462   0.647
 3741SOL    HW212123   5.288   3.506   0.585
 3742SOL     OW12124   3.589   5.565   7.012
 3742SOL    HW112125   3.552   5.562   6.919
 3742SOL    HW212126   3.662   5.497   7.021
 3743SOL     OW12127   4.093   3.481   1.620
 3743SOL    HW112128   4.063   3.387   1.641
 3743SOL    HW212129   4.140   3.519   1.700
 3744SOL     OW12130   0.646   0.190   2.372
 3744SOL    HW112131   0.718   0.128   2.341
 3744SOL    HW212132   0.621   0.252   2.297
 3745SOL     OW12133   4.864   3.635   2.486
 3745SOL    HW112134   4.863   3.687   2.400
 3745SOL    HW212135   4.854   3.538   2.466
 3746SOL     OW12136   6.172   0.576   4.653
 3746SOL    HW112137   6.150   0.598   4.748
 3746SOL    HW212138   6.098   0.606   4.594
 3747SOL     OW12139   3.387   6.848   5.789
 3747SOL    HW112140   3.443   6.821   5.867
 3747SOL    HW212141   3.425   6.930   5.747
 3748SOL     OW12142   5.005   1.710   2.695
 3748SOL    HW112143   5.081   1.774   2.682
 3748SOL    HW212144   4.957   1.732   2.780
 3749SOL     OW12145   0.011   6.291   2.410
 3749SOL    HW112146   7.003   6.357   2.341
 3749SOL    HW212147   6.988   6.202   2.391
 3750SOL     OW12148   5.806   4.166   0.505
 3750SOL    HW112149   5.788   4.259   0.475
 3750SOL    HW212150   5.898   4.160   0.543
 3751SOL     OW12151   2.031   3.795   2.228
 3751SOL    HW112152   1.937   3.794   2.195
 3751SOL    HW212153   2.068   3.702   2.227
 3752SOL     OW12154   0.710   6.336   6.918
 3752SOL    HW112155   0.785   6.367   6.859
 3752SOL    HW212156   0.630   6.393   6.901
 3753SOL     OW12157   6.405   6.523   4.649
 3753SOL    HW112158   6.374   6.515   4.554
 3753SOL    HW212159   6.505   6.527   4.651
 3754SOL     OW12160   6.787   6.772   1.238
 3754SOL    HW112161   6.824   6.680   1.223
 3754SOL    HW212162   6.861   6.838   1.243
 3755SOL     OW12163   5.169   3.870   3.237
 3755SOL    HW112164   5.129   3.958   3.211
 3755SOL    HW212165   5.164   3.808   3.159
 3756SOL     OW12166   3.059   0.389   0.111
 3756SOL    HW112167   3.108   0.422   0.191
 3756SOL    HW212168   3.103   0.424   0.028
 3757SOL     OW12169   2.970   5.374   6.577
 3757SOL    HW112170   3.035   5.431   6.628
 3757SOL    HW212171   2.879   5.384   6.616
 3758SOL     OW12172   2.162   1.397   4.144
 3758SOL    HW112173   2.235   1.465   4.145
 3758SOL    HW212174   2.077   1.440   4.115
 3759SOL     OW12175   4.730   4.763   6.271
 3759SOL    HW112176   4.760   4.678   6.227
 3759SOL    HW212177   4.744   4.840   6.209
 3760SOL     OW12178   1.499   2.575   4.853
 3760SOL    HW112179   1.554   2.612   4.927
 3760SOL    HW212180   1.458   2.488   4.881
 3761SOL     OW12181   0.199   6.224   4.198
 3761SOL    HW112182   0.111   6.227   4.245
 3761SOL    HW212183   0.239   6.133   4.206
 3762SOL     OW12184   0.095   4.115   0.179
 3762SOL    HW112185   0.140   4.044   0.125
 3762SOL    HW212186   0.013   4.077   0.223
 3763SOL     OW12187   0.090   3.416   6.296
 3763SOL    HW112188   0.026   3.363   6.241
 3763SOL    HW212189   0.038   3.480   6.354
 3764SOL     OW12190   2.222   6.786   3.367
 3764SOL    HW112191   2.182   6.736   3.290
 3764SOL    HW212192   2.223   6.726   3.447
 3765SOL     OW12193   5.969   0.661   4.471
 3765SOL    HW112194   5.944   0.723   4.398
 3765SOL    HW212195   5.886   0.624   4.514
 3766SOL     OW12196   1.366   0.871   5.086
 3766SOL    HW112197   1.365   0.777   5.054
 3766SOL    HW212198   1.309   0.879   5.168
 3767SOL     OW12199   1.436   5.164   1.075
 3767SOL    HW112200   1.399   5.072   1.060
 3767SOL    HW212201   1.387   5.207   1.150
 3768SOL     OW12202   4.457   6.802   0.409
 3768SOL    HW112203   4.414   6.876   0.357
 3768SOL    HW212204   4.549   6.829   0.436
 3769SOL     OW12205   4.403   6.562   5.292
 3769SOL    HW112206   4.473   6.491   5.294
 3769SOL    HW212207   4.424   6.628   5.220
 3770SOL     OW12208   1.893   1.932   6.815
 3770SOL    HW112209   1.831   2.008   6.835
 3770SOL    HW212210   1.975   1.968   6.771
 3771SOL     OW12211   5.478   2.462   6.140
 3771SOL    HW112212   5.566   2.485   6.099
 3771SOL    HW212213   5.492   2.432   6.234
 3772SOL     OW12214   5.396   1.129   2.139
 3772SOL    HW112215   5.348   1.182   2.210
 3772SOL    HW212216   5.393   1.180   2.053
 3773SOL     OW12217   6.568   2.906   6.430
 3773SOL    HW112218   6.516   2.990   6.444
 3773SOL    HW212219   6.647   2.904   6.491
 3774SOL     OW12220   0.562   0.836   1.478
 3774SOL    HW112221   0.485   0.896   1.499
 3774SOL    HW212222   0.570   0.766   1.549
 3775SOL     OW12223   5.576   3.981   4.071
 3775SOL    HW112224   5.670   4.011   4.090
 3775SOL    HW212225   5.564   3.887   4.102
 3776SOL     OW12226   2.675   3.532   1.001
 3776SOL    HW112227   2.592   3.581   0.975
 3776SOL    HW212228   2.718   3.494   0.919
 3777SOL     OW12229   2.249   4.601   4.029
 3777SOL    HW112230   2.300   4.563   3.952
 3777SOL    HW212231   2.218   4.693   4.005
 3778SOL     OW12232   2.853   5.857   1.994
 3778SOL    HW112233   2.946   5.836   1.964
 3778SOL    HW212234   2.791   5.784   1.965
 3779SOL     OW12235   2.618   4.944   6.407
 3779SOL    HW112236   2.612   4.845   6.402
 3779SOL    HW212237   2.712   4.971   6.430
 3780SOL     OW12238   3.201   6.569   5.203
 3780SOL    HW112239   3.194   6.639   5.132
 3780SOL    HW212240   3.290   6.523   5.196
 3781SOL     OW12241   2.806   5.446   4.942
 3781SOL    HW112242   2.755   5.362   4.960
 3781SOL    HW212243   2.756   5.503   4.877
 3782SOL     OW12244   2.429   1.862   3.567
 3782SOL    HW112245   2.331   1.881   3.562
 3782SOL    HW212246   2.460   1.874   3.661
 3783SOL     OW12247   5.238   6.123   5.344
 3783SOL    HW112248   5.196   6.073   5.268
 3783SOL    HW212249   5.228   6.222   5.328
 3784SOL     OW12250   5.398   1.648   3.360
 3784SOL    HW112251   5.420   1.699   3.444
 3784SOL    HW212252   5.469   1.582   3.341
 3785SOL     OW12253   2.079   1.659   1.138
 3785SOL    HW112254   2.018   1.676   1.216
 3785SOL    HW212255   2.160   1.717   1.146
 3786SOL     OW12256   3.145   5.251   3.078
 3786SOL    HW112257   3.059   5.212   3.109
 3786SOL    HW212258   3.137   5.277   2.982
 3787SOL     OW12259   3.910   1.418   3.826
 3787SOL    HW112260   3.960   1.466   3.898
 3787SOL    HW212261   3.896   1.481   3.749
 3788SOL     OW12262   5.423   3.249   2.182
 3788SOL    HW112263   5.390   3.155   2.174
 3788SOL    HW212264   5.514   3.257   2.142
 3789SOL     OW12265   1.709   4.916   3.559
 3789SOL    HW112266   1.626   4.863   3.577
 3789SOL    HW212267   1.778   4.856   3.520
 3790SOL     OW12268   1.910   3.307   3.567
 3790SOL    HW112269   1.817   3.339   3.548
 3790SOL    HW212270   1.967   3.385   3.594
 3791SOL     OW12271   4.686   0.029   1.512
 3791SOL    HW112272   4.641   6.961   1.500
 3791SOL    HW212273   4.642   0.098   1.454
 3792SOL     OW12274   6.563   6.392   5.313
 3792SOL    HW112275   6.584   6.377   5.410
 3792SOL    HW212276   6.633   6.349   5.256
 3793SOL     OW12277   1.820   0.899   2.547
 3793SOL    HW112278   1.792   0.803   2.556
 3793SOL    HW212279   1.746   0.952   2.506
 3794SOL     OW12280   4.562   6.299   1.723
 3794SOL    HW112281   4.549   6.260   1.814
 3794SOL    HW212282   4.478   6.287   1.669
 3795SOL     OW12283   5.828   6.885   6.137
 3795SOL    HW112284   5.860   6.820   6.207
 3795SOL    HW212285   5.852   6.850   6.046
 3796SOL     OW12286   1.354   2.800   2.086
 3796SOL    HW112287   1.339   2.718   2.030
 3796SOL    HW212288   1.330   2.881   2.034
 3797SOL     OW12289   0.574   5.069   2.924
 3797SOL    HW112290   0.637   5.115   2.986
 3797SOL    HW212291   0.586   4.970   2.931
 3798SOL     OW12292   1.889   4.965   2.110
 3798SOL    HW112293   1.952   4.919   2.174
 3798SOL    HW212294   1.822   4.899   2.076
 3799SOL     OW12295   2.220   0.368   5.804
 3799SOL    HW112296   2.227   0.272   5.776
 3799SOL    HW212297   2.310   0.403   5.830
 3800SOL     OW12298   4.591   2.487   4.506
 3800SOL    HW112299   4.635   2.402   4.536
 3800SOL    HW212300   4.581   2.549   4.584
 3801SOL     OW12301   0.054   6.647   6.011
 3801SOL    HW112302   0.117   6.696   6.072
 3801SOL    HW212303   0.065   6.548   6.024
 3802SOL     OW12304   1.562   1.579   5.377
 3802SOL    HW112305   1.499   1.507   5.348
 3802SOL    HW212306   1.579   1.571   5.475
 3803SOL     OW12307   3.902   0.961   1.370
 3803SOL    HW112308   3.865   0.894   1.435
 3803SOL    HW212309   3.873   1.053   1.396
 3804SOL     OW12310   4.664   1.818   4.151
 3804SOL    HW112311   4.580   1.872   4.159
 3804SOL    HW212312   4.682   1.772   4.238
 3805SOL     OW12313   2.720   4.447   1.688
 3805SOL    HW112314   2.797   4.478   1.743
 3805SOL    HW212315   2.635   4.484   1.725
 3806SOL     OW12316   2.672   1.616   0.098
 3806SOL    HW112317   2.577   1.645   0.113
 3806SOL    HW212318   2.691   1.534   0.151
 3807SOL     OW12319   1.470   6.538   3.346
 3807SOL    HW112320   1.428   6.545   3.255
 3807SOL    HW212321   1.399   6.518   3.414
 3808SOL     OW12322   2.967   6.954   1.461
 3808SOL    HW112323   2.915   7.019   1.515
 3808SOL    HW212324   3.055   6.995   1.435
 3809SOL     OW12325   5.409   1.234   6.750
 3809SOL    HW112326   5.382   1.148   6.794
 3809SOL    HW212327   5.470   1.214   6.674
 3810SOL     OW12328   3.025   3.054   5.242
 3810SOL    HW112329   3.015   3.152   5.259
 3810SOL    HW212330   3.065   3.039   5.152
 3811SOL     OW12331   0.611   5.551   4.968
 3811SOL    HW112332   0.563   5.579   5.050
 3811SOL    HW212333   0.547   5.507   4.905
 3812SOL     OW12334   5.603   1.734   5.295
 3812SOL    HW112335   5.588   1.745   5.197
 3812SOL    HW212336   5.516   1.719   5.341
 3813SOL     OW12337   3.373   5.049   0.794
 3813SOL    HW112338   3.420   5.108   0.861
 3813SOL    HW212339   3.301   4.997   0.841
 3814SOL     OW12340   0.254   6.187   2.208
 3814SOL    HW112341   0.156   6.182   2.189
 3814SOL    HW212342   0.305   6.159   2.126
 3815SOL     OW12343   4.974   2.379   1.788
 3815SOL    HW112344   5.063   2.384   1.743
 3815SOL    HW212345   4.980   2.416   1.881
 3816SOL     OW12346   1.663   0.222   0.973
 3816SOL    HW112347   1.667   0.122   0.973
 3816SOL    HW212348   1.617   0.254   0.890
 3817SOL     OW12349   5.386   2.215   5.526
 3817SOL    HW112350   5.391   2.221   5.625
 3817SOL    HW212351   5.410   2.122   5.497
 3818SOL     OW12352   4.673   5.118   1.517
 3818SOL    HW112353   4.700   5.191   1.455
 3818SOL    HW212354   4.755   5.070   1.549
 3819SOL     OW12355   5.452   4.844   0.363
 3819SOL    HW112356   5.507   4.777   0.312
 3819SOL    HW212357   5.478   4.842   0.459
 3820SOL     OW12358   5.231   6.452   4.413
 3820SOL    HW112359   5.209   6.466   4.317
 3820SOL    HW212360   5.298   6.378   4.421
 3821SOL     OW12361   1.206   4.084   2.111
 3821SOL    HW112362   1.219   4.055   2.206
 3821SOL    HW212363   1.288   4.131   2.079
 3822SOL     OW12364   2.580   5.684   1.517
 3822SOL    HW112365   2.631   5.658   1.599
 3822SOL    HW212366   2.637   5.667   1.436
 3823SOL     OW12367   3.592   2.712   5.727
 3823SOL    HW112368   3.515   2.713   5.663
 3823SOL    HW212369   3.644   2.797   5.718
 3824SOL     OW12370   6.987   2.384   5.951
 3824SOL    HW112371   0.010   2.334   6.025
 3824SOL    HW212372   0.030   2.453   5.916
 3825SOL     OW12373   6.760   6.783   6.569
 3825SOL    HW112374   6.802   6.839   6.641
 3825SOL    HW212375   6.793   6.814   6.480
 3826SOL     OW12376   6.855   2.994   1.896
 3826SOL    HW112377   6.832   2.927   1.826
 3826SOL    HW212378   6.939   3.041   1.871
 3827SOL     OW12379   4.276   3.499   1.100
 3827SOL    HW112380   4.185   3.469   1.131
 3827SOL    HW212381   4.281   3.492   1.001
 3828SOL     OW12382   4.582   1.058   2.730
 3828SOL    HW112383   4.530   1.004   2.664
 3828SOL    HW212384   4.579   1.014   2.820
 3829SOL     OW12385   2.157   4.860   3.984
 3829SOL    HW112386   2.238   4.919   3.994
 3829SOL    HW212387   2.123   4.866   3.890
 3830SOL     OW12388   2.748   1.228   5.247
 3830SOL    HW112389   2.846   1.243   5.258
 3830SOL    HW212390   2.701   1.251   5.333
 3831SOL     OW12391   3.476   1.158   2.049
 3831SOL    HW112392   3.537   1.108   1.987
 3831SOL    HW212393   3.472   1.254   2.021
 3832SOL     OW12394   6.871   0.765   2.259
 3832SOL    HW112395   6.780   0.778   2.299
 3832SOL    HW212396   6.921   0.697   2.312
 3833SOL     OW12397   1.740   4.565   0.183
 3833SOL    HW112398   1.659   4.608   0.143
 3833SOL    HW212399   1.712   4.483   0.234
 3834SOL     OW12400   2.576   1.802   6.896
 3834SOL    HW112401   2.484   1.811   6.934
 3834SOL    HW212402   2.639   1.771   6.968
 3835SOL     OW12403   3.942   5.286   5.293
 3835SOL    HW112404   3.932   5.311   5.389
 3835SOL    HW212405   3.969   5.367   5.240
 3836SOL     OW12406   0.893   3.769   6.148
 3836SOL    HW112407   0.883   3.824   6.065
 3836SOL    HW212408   0.839   3.809   6.222
 3837SOL     OW12409   3.434   2.975   0.594
 3837SOL    HW112410   3.374   2.908   0.552
 3837SOL    HW212411   3.503   3.004   0.528
 3838SOL     OW12412   6.111   3.265   5.318
 3838SOL    HW112413   6.035   3.326   5.338
 3838SOL    HW212414   6.076   3.175   5.292
 3839SOL     OW12415   6.339   6.796   6.070
 3839SOL    HW112416   6.402   6.814   6.146
 3839SOL    HW212417   6.317   6.699   6.067
 3840SOL     OW12418   1.634   0.841   4.175
 3840SOL    HW112419   1.599   0.925   4.135
 3840SOL    HW212420   1.593   0.827   4.265
 3841SOL     OW12421   0.551   3.725   4.707
 3841SOL    HW112422   0.597   3.808   4.676
 3841SOL    HW212423   0.572   3.710   4.804
 3842SOL     OW12424   0.818   5.400   6.686
 3842SOL    HW112425   0.794   5.442   6.774
 3842SOL    HW212426   0.781   5.455   6.612
 3843SOL     OW12427   5.451   2.963   1.329
 3843SOL    HW112428   5.388   3.039   1.342
 3843SOL    HW212429   5.405   2.889   1.280
 3844SOL     OW12430   2.027   4.748   6.234
 3844SOL    HW112431   2.101   4.725   6.297
 3844SOL    HW212432   2.065   4.792   6.152
 3845SOL     OW12433   3.727   4.102   4.062
 3845SOL    HW112434   3.690   4.010   4.049
 3845SOL    HW212435   3.703   4.159   3.984
 3846SOL     OW12436   6.927   4.444   3.787
 3846SOL    HW112437   6.835   4.448   3.827
 3846SOL    HW212438   6.961   4.536   3.773
 3847SOL     OW12439   0.702   0.258   0.623
 3847SOL    HW112440   0.706   0.218   0.531
 3847SOL    HW212441   0.793   0.292   0.648
 3848SOL     OW12442   2.559   5.472   0.841
 3848SOL    HW112443   2.568   5.389   0.896
 3848SOL    HW212444   2.469   5.512   0.857
 3849SOL     OW12445   1.421   2.276   5.926
 3849SOL    HW112446   1.344   2.336   5.905
 3849SOL    HW212447   1.448   2.289   6.022
 3850SOL     OW12448   2.793   3.894   1.594
 3850SOL    HW112449   2.832   3.842   1.670
 3850SOL    HW212450   2.848   3.975   1.577
 3851SOL     OW12451   2.468   2.496   1.744
 3851SOL    HW112452   2.555   2.544   1.737
 3851SOL    HW212453   2.436   2.497   1.838
 3852SOL     OW12454   3.866   0.792   4.939
 3852SOL    HW112455   3.772   0.823   4.951
 3852SOL    HW212456   3.870   0.727   4.863
 3853SOL     OW12457   1.576   3.117   1.746
 3853SOL    HW112458   1.630   3.158   1.673
 3853SOL    HW212459   1.590   3.018   1.748
 3854SOL     OW12460   1.229   3.205   3.924
 3854SOL    HW112461   1.304   3.140   3.913
 3854SOL    HW212462   1.231   3.242   4.017
 3855SOL     OW12463   6.882   2.052   5.290
 3855SOL    HW112464   6.950   2.060   5.218
 3855SOL    HW212465   6.827   2.135   5.295
 3856SOL     OW12466   0.539   6.498   5.912
 3856SOL    HW112467   0.629   6.458   5.900
 3856SOL    HW212468   0.518   6.504   6.009
 3857SOL     OW12469   0.529   6.765   5.825
 3857SOL    HW112470   0.526   6.674   5.866
 3857SOL    HW212471   0.436   6.793   5.799
 3858SOL     OW12472   2.242   5.284   0.002
 3858SOL    HW112473   2.192   5.288   0.088
 3858SOL    HW212474   2.236   5.192   6.985
 3859SOL     OW12475   6.956   2.521   1.984
 3859SOL    HW112476   6.954   2.433   1.936
 3859SOL    HW212477   0.023   2.566   1.966
 3860SOL     OW12478   2.307   6.313   5.523
 3860SOL    HW112479   2.314   6.379   5.449
 3860SOL    HW212480   2.262   6.230   5.490
 3861SOL     OW12481   4.338   4.718   0.337
 3861SOL    HW112482   4.296   4.706   0.427
 3861SOL    HW212483   4.282   4.781   0.283
 3862SOL     OW12484   1.373   5.491   6.117
 3862SOL    HW112485   1.463   5.514   6.154
 3862SOL    HW212486   1.304   5.549   6.159
 3863SOL     OW12487   3.353   3.062   1.044
 3863SOL    HW112488   3.297   2.984   1.072
 3863SOL    HW212489   3.428   3.074   1.109
 3864SOL     OW12490   3.739   1.726   0.041
 3864SOL    HW112491   3.784   1.800   7.012
 3864SOL    HW212492   3.646   1.714   0.006
 3865SOL     OW12493   4.566   0.638   2.628
 3865SOL    HW112494   4.596   0.543   2.637
 3865SOL    HW212495   4.517   0.664   2.711
 3866SOL     OW12496   3.909   6.428   6.450
 3866SOL    HW112497   3.997   6.475   6.445
 3866SOL    HW212498   3.905   6.374   6.533
 3867SOL     OW12499   1.823   3.301   3.902
 3867SOL    HW112500   1.897   3.361   3.934
 3867SOL    HW212501   1.834   3.283   3.804
 3868SOL     OW12502   1.629   6.000   2.643
 3868SOL    HW112503   1.644   5.902   2.658
 3868SOL    HW212504   1.536   6.023   2.670
 3869SOL     OW12505   1.323   2.460   3.433
 3869SOL    HW112506   1.296   2.379   3.486
 3869SOL    HW212507   1.417   2.486   3.456
 3870SOL     OW12508   3.235   4.539   0.559
 3870SOL    HW112509   3.302   4.526   0.486
 3870SOL    HW212510   3.147   4.501   0.530
 3871SOL     OW12511   2.605   1.270   4.314
 3871SOL    HW112512   2.580   1.267   4.217
 3871SOL    HW212513   2.539   1.326   4.364
 3872SOL     OW12514   4.222   3.447   0.196
 3872SOL    HW112515   4.253   3.455   0.101
 3872SOL    HW212516   4.301   3.452   0.257
 3873SOL     OW12517   4.970   4.773   1.998
 3873SOL    HW112518   5.033   4.700   1.969
 3873SOL    HW212519   5.012   4.862   1.979
 3874SOL     OW12520   4.236   6.598   5.916
 3874SOL    HW112521   4.268   6.653   5.839
 3874SOL    HW212522   4.281   6.509   5.914
 3875SOL     OW12523   2.378   3.845   0.649
 3875SOL    HW112524   2.466   3.867   0.607
 3875SOL    HW212525   2.308   3.839   0.578
 3876SOL     OW12526   5.296   3.708   2.739
 3876SOL    HW112527   5.366   3.654   2.692
 3876SOL    HW212528   5.303   3.694   2.837
 3877SOL     OW12529   5.318   0.994   2.392
 3877SOL    HW112530   5.390   0.936   2.354
 3877SOL    HW212531   5.250   1.014   2.321
 3878SOL     OW12532   3.535   5.720   4.823
 3878SOL    HW112533   3.546   5.665   4.906
 3878SOL    HW212534   3.442   5.706   4.787
 3879SOL     OW12535   3.222   6.116   0.913
 3879SOL    HW112536   3.229   6.090   0.817
 3879SOL    HW212537   3.287   6.190   0.932
 3880SOL     OW12538   5.188   2.585   3.835
 3880SOL    HW112539   5.227   2.556   3.922
 3880SOL    HW212540   5.091   2.609   3.847
 3881SOL     OW12541   0.457   4.931   0.731
 3881SOL    HW112542   0.382   4.895   0.786
 3881SOL    HW212543   0.508   4.855   0.691
 3882SOL     OW12544   0.315   6.903   6.834
 3882SOL    HW112545   0.281   6.825   6.780
 3882SOL    HW212546   0.315   6.985   6.777
 3883SOL     OW12547   3.184   1.116   6.037
 3883SOL    HW112548   3.209   1.021   6.054
 3883SOL    HW212549   3.110   1.120   5.969
 3884SOL     OW12550   1.424   4.889   5.656
 3884SOL    HW112551   1.377   4.817   5.707
 3884SOL    HW212552   1.509   4.853   5.618
 3885SOL     OW12553   0.369   1.998   4.970
 3885SOL    HW112554   0.409   1.966   4.884
 3885SOL    HW212555   0.284   1.948   4.987
 3886SOL     OW12556   6.977   5.679   4.736
 3886SOL    HW112557   7.003   5.757   4.793
 3886SOL    HW212558   7.000   5.698   4.641
 3887SOL     OW12559   5.344   2.417   5.320
 3887SOL    HW112560   5.435   2.411   5.278
 3887SOL    HW212561   5.329   2.337   5.378
 3888SOL     OW12562   5.788   2.079   1.896
 3888SOL    HW112563   5.717   2.083   1.966
 3888SOL    HW212564   5.796   2.168   1.851
 3889SOL     OW12565   0.231   5.371   0.192
 3889SOL    HW112566   0.254   5.361   0.096
 3889SOL    HW212567   0.314   5.376   0.247
 3890SOL     OW12568   6.394   3.655   1.194
 3890SOL    HW112569   6.475   3.629   1.246
 3890SOL    HW212570   6.331   3.705   1.253
 3891SOL     OW12571   5.713   5.273   5.907
 3891SOL    HW112572   5.754   5.217   5.979
 3891SOL    HW212573   5.768   5.265   5.823
 3892SOL     OW12574   5.298   6.383   3.989
 3892SOL    HW112575   5.337   6.462   4.036
 3892SOL    HW212576   5.258   6.413   3.902
 3893SOL     OW12577   2.902   6.101   4.178
 3893SOL    HW112578   2.990   6.055   4.162
 3893SOL    HW212579   2.913   6.199   4.163
 3894SOL     OW12580   5.258   5.157   6.514
 3894SOL    HW112581   5.169   5.197   6.495
 3894SOL    HW212582   5.260   5.063   6.480
 3895SOL     OW12583   1.557   1.684   6.095
 3895SOL    HW112584   1.655   1.683   6.110
 3895SOL    HW212585   1.538   1.664   5.999
 3896SOL     OW12586   6.901   2.580   5.639
 3896SOL    HW112587   6.976   2.618   5.585
 3896SOL    HW212588   6.936   2.505   5.695
 3897SOL     OW12589   3.326   6.526   2.620
 3897SOL    HW112590   3.361   6.441   2.581
 3897SOL    HW212591   3.343   6.602   2.557
 3898SOL     OW12592   3.535   4.204   4.694
 3898SOL    HW112593   3.545   4.195   4.793
 3898SOL    HW212594   3.455   4.261   4.673
 3899SOL     OW12595   5.381   1.582   5.107
 3899SOL    HW112596   5.397   1.680   5.098
 3899SOL    HW212597   5.293   1.566   5.152
 3900SOL     OW12598   6.887   2.573   4.075
 3900SOL    HW112599   6.792   2.605   4.072
 3900SOL    HW212600   6.906   2.533   4.165
 3901SOL     OW12601   2.458   5.331   4.654
 3901SOL    HW112602   2.361   5.312   4.671
 3901SOL    HW212603   2.514   5.274   4.713
 3902SOL     OW12604   3.813   4.884   2.014
 3902SOL    HW112605   3.718   4.858   2.031
 3902SOL    HW212606   3.832   4.879   1.916
 3903SOL     OW12607   4.287   2.495   6.303
 3903SOL    HW112608   4.344   2.513   6.383
 3903SOL    HW212609   4.342   2.453   6.231
 3904SOL     OW12610   2.312   5.614   0.708
 3904SOL    HW112611   2.394   5.672   0.707
 3904SOL    HW212612   2.328   5.534   0.651
 3905SOL     OW12613   0.474   0.282   5.990
 3905SOL    HW112614   0.395   0.224   6.010
 3905SOL    HW212615   0.444   0.367   5.946
 3906SOL     OW12616   0.762   6.245   4.982
 3906SOL    HW112617   0.764   6.244   5.082
 3906SOL    HW212618   0.689   6.306   4.951
 3907SOL     OW12619   1.119   1.272   5.014
 3907SOL    HW112620   1.212   1.277   5.050
 3907SOL    HW212621   1.067   1.353   5.044
 3908SOL     OW12622   2.490   1.161   4.708
 3908SOL    HW112623   2.462   1.103   4.632
 3908SOL    HW212624   2.454   1.124   4.793
 3909SOL     OW12625   5.142   2.754   1.465
 3909SOL    HW112626   5.149   2.832   1.403
 3909SOL    HW212627   5.228   2.703   1.466
 3910SOL     OW12628   3.687   2.509   1.231
 3910SOL    HW112629   3.740   2.435   1.187
 3910SOL    HW212630   3.666   2.580   1.163
 3911SOL     OW12631   6.758   1.229   1.532
 3911SOL    HW112632   6.804   1.151   1.489
 3911SOL    HW212633   6.723   1.202   1.622
 3912SOL     OW12634   3.902   3.312   6.842
 3912SOL    HW112635   3.905   3.256   6.925
 3912SOL    HW212636   3.964   3.390   6.852
 3913SOL     OW12637   4.206   5.603   1.824
 3913SOL    HW112638   4.262   5.683   1.845
 3913SOL    HW212639   4.253   5.546   1.757
 3914SOL     OW12640   6.660   1.652   6.810
 3914SOL    HW112641   6.715   1.590   6.755
 3914SOL    HW212642   6.720   1.703   6.872
 3915SOL     OW12643   5.517   6.560   5.188
 3915SOL    HW112644   5.512   6.653   5.152
 3915SOL    HW212645   5.603   6.517   5.157
 3916SOL     OW12646   2.015   2.082   2.655
 3916SOL    HW112647   2.112   2.057   2.654
 3916SOL    HW212648   1.961   2.005   2.688
 3917SOL     OW12649   3.449   4.924   1.478
 3917SOL    HW112650   3.414   4.831   1.487
 3917SOL    HW212651   3.519   4.941   1.547
 3918SOL     OW12652   4.784   1.146   6.684
 3918SOL    HW112653   4.729   1.063   6.689
 3918SOL    HW212654   4.858   1.133   6.618
 3919SOL     OW12655   4.329   6.206   2.626
 3919SOL    HW112656   4.388   6.195   2.546
 3919SOL    HW212657   4.338   6.126   2.685
 3920SOL     OW12658   3.252   1.696   5.342
 3920SOL    HW112659   3.271   1.657   5.251
 3920SOL    HW212660   3.155   1.684   5.363
 3921SOL     OW12661   0.691   2.638   6.507
 3921SOL    HW112662   0.761   2.674   6.568
 3921SOL    HW212663   0.602   2.676   6.532
 3922SOL     OW12664   5.146   4.118   3.141
 3922SOL    HW112665   5.101   4.177   3.073
 3922SOL    HW212666   5.164   4.171   3.224
 3923SOL     OW12667   4.900   1.397   1.865
 3923SOL    HW112668   4.805   1.407   1.895
 3923SOL    HW212669   4.952   1.478   1.891
 3924SOL     OW12670   5.524   5.231   3.759
 3924SOL    HW112671   5.456   5.295   3.724
 3924SOL    HW212672   5.488   5.138   3.752
 3925SOL     OW12673   5.245   5.480   1.007
 3925SOL    HW112674   5.150   5.488   0.979
 3925SOL    HW212675   5.278   5.569   1.037
 3926SOL     OW12676   0.858   5.523   4.403
 3926SOL    HW112677   0.783   5.588   4.402
 3926SOL    HW212678   0.823   5.432   4.380
 3927SOL     OW12679   5.943   1.757   5.649
 3927SOL    HW112680   5.885   1.709   5.584
 3927SOL    HW212681   5.902   1.753   5.740
 3928SOL     OW12682   3.488   5.637   2.058
 3928SOL    HW112683   3.570   5.676   2.098
 3928SOL    HW212684   3.411   5.700   2.071
 3929SOL     OW12685   0.844   1.554   5.744
 3929SOL    HW112686   0.826   1.476   5.684
 3929SOL    HW212687   0.919   1.609   5.707
 3930SOL     OW12688   1.799   4.445   3.861
 3930SOL    HW112689   1.733   4.474   3.931
 3930SOL    HW212690   1.833   4.526   3.813
 3931SOL     OW12691   1.130   2.424   0.293
 3931SOL    HW112692   1.080   2.378   0.367
 3931SOL    HW212693   1.224   2.442   0.322
 3932SOL     OW12694   2.398   4.426   3.547
 3932SOL    HW112695   2.488   4.429   3.503
 3932SOL    HW212696   2.330   4.466   3.486
 3933SOL     OW12697   1.758   6.261   1.274
 3933SOL    HW112698   1.734   6.184   1.214
 3933SOL    HW212699   1.674   6.303   1.310
 3934SOL     OW12700   1.450   6.902   0.983
 3934SOL    HW112701   1.490   6.909   0.892
 3934SOL    HW212702   1.523   6.900   1.051
 3935SOL     OW12703   0.206   3.970   5.336
 3935SOL    HW112704   0.201   3.871   5.350
 3935SOL    HW212705   0.173   3.992   5.245
 3936SOL     OW12706   0.228   4.197   4.871
 3936SOL    HW112707   0.307   4.247   4.907
 3936SOL    HW212708   0.235   4.101   4.895
 3937SOL     OW12709   0.490   5.890   1.305
 3937SOL    HW112710   0.496   5.818   1.374
 3937SOL    HW212711   0.581   5.927   1.287
 3938SOL     OW12712   0.789   3.225   1.116
 3938SOL    HW112713   0.850   3.150   1.093
 3938SOL    HW212714   0.702   3.189   1.149
 3939SOL     OW12715   0.755   0.633   3.241
 3939SOL    HW112716   0.670   0.601   3.199
 3939SOL    HW212717   0.832   0.580   3.205
 3940SOL     OW12718   2.874   5.863   6.947
 3940SOL    HW112719   2.793   5.915   6.921
 3940SOL    HW212720   2.915   5.905   0.008
 3941SOL     OW12721   4.868   6.119   2.259
 3941SOL    HW112722   4.824   6.108   2.347
 3941SOL    HW212723   4.837   6.048   2.196
 3942SOL     OW12724   6.939   5.961   5.827
 3942SOL    HW112725   7.016   5.963   5.762
 3942SOL    HW212726   6.964   5.905   5.906
 3943SOL     OW12727   1.972   3.321   0.427
 3943SOL    HW112728   1.907   3.252   0.395
 3943SOL    HW212729   2.065   3.294   0.404
 3944SOL     OW12730   4.864   2.810   7.003
 3944SOL    HW112731   4.773   2.773   6.981
 3944SOL    HW212732   4.874   2.901   6.963
 3945SOL     OW12733   5.893   0.379   4.116
 3945SOL    HW112734   5.806   0.336   4.140
 3945SOL    HW212735   5.876   0.468   4.075
 3946SOL     OW12736   6.952   4.209   0.597
 3946SOL    HW112737   0.021   4.249   0.616
 3946SOL    HW212738   6.913   4.172   0.681
 3947SOL     OW12739   5.988   5.916   1.995
 3947SOL    HW112740   5.891   5.898   2.011
 3947SOL    HW212741   6.012   6.006   2.031
 3948SOL     OW12742   1.477   2.913   5.569
 3948SOL    HW112743   1.524   2.846   5.511
 3948SOL    HW212744   1.431   2.866   5.644
 3949SOL     OW12745   6.158   0.410   2.385
 3949SOL    HW112746   6.121   0.402   2.292
 3949SOL    HW212747   6.124   0.334   2.440
 3950SOL     OW12748   3.016   4.502   1.528
 3950SOL    HW112749   2.978   4.595   1.530
 3950SOL    HW212750   3.014   4.463   1.619
 3951SOL     OW12751   0.694   2.783   4.884
 3951SOL    HW112752   0.616   2.721   4.884
 3951SOL    HW212753   0.763   2.750   4.820
 3952SOL     OW12754   5.479   4.137   0.414
 3952SOL    HW112755   5.532   4.203   0.361
 3952SOL    HW212756   5.386   4.133   0.379
 3953SOL     OW12757   3.142   3.650   6.633
 3953SOL    HW112758   3.187   3.622   6.549
 3953SOL    HW212759   3.078   3.578   6.662
 3954SOL     OW12760   1.166   3.335   5.231
 3954SOL    HW112761   1.163   3.368   5.326
 3954SOL    HW212762   1.118   3.400   5.172
 3955SOL     OW12763   6.474   3.815   0.499
 3955SOL    HW112764   6.486   3.812   0.599
 3955SOL    HW212765   6.379   3.795   0.476
 3956SOL     OW12766   6.700   2.925   5.431
 3956SOL    HW112767   6.789   2.905   5.471
 3956SOL    HW212768   6.679   3.023   5.443
 3957SOL     OW12769   0.779   1.901   2.898
 3957SOL    HW112770   0.715   1.833   2.934
 3957SOL    HW212771   0.730   1.965   2.839
 3958SOL     OW12772   5.385   0.027   0.147
 3958SOL    HW112773   5.322   0.023   0.069
 3958SOL    HW212774   5.392   0.122   0.179
 3959SOL     OW12775   2.188   6.029   1.237
 3959SOL    HW112776   2.253   6.059   1.166
 3959SOL    HW212777   2.173   6.103   1.302
 3960SOL     OW12778   5.179   3.406   1.132
 3960SOL    HW112779   5.118   3.457   1.192
 3960SOL    HW212780   5.225   3.469   1.069
 3961SOL     OW12781   5.782   0.362   1.224
 3961SOL    HW112782   5.793   0.460   1.211
 3961SOL    HW212783   5.872   0.319   1.230
 3962SOL     OW12784   0.424   6.418   5.687
 3962SOL    HW112785   0.408   6.495   5.624
 3962SOL    HW212786   0.451   6.454   5.776
 3963SOL     OW12787   4.511   4.496   2.632
 3963SOL    HW112788   4.439   4.528   2.570
 3963SOL    HW212789   4.470   4.467   2.719
 3964SOL     OW12790   6.058   5.921   6.911
 3964SOL    HW112791   6.066   5.865   6.829
 3964SOL    HW212792   5.987   5.990   6.897
 3965SOL     OW12793   3.899   3.408   0.886
 3965SOL    HW112794   3.847   3.392   0.970
 3965SOL    HW212795   3.931   3.503   0.885
 3966SOL     OW12796   6.398   3.818   5.337
 3966SOL    HW112797   6.471   3.770   5.386
 3966SOL    HW212798   6.333   3.856   5.403
 3967SOL     OW12799   1.701   6.961   6.832
 3967SOL    HW112800   1.640   7.019   6.779
 3967SOL    HW212801   1.687   6.978   6.930
 3968SOL     OW12802   4.759   1.196   1.413
 3968SOL    HW112803   4.830   1.168   1.347
 3968SOL    HW212804   4.803   1.227   1.497
 3969SOL     OW12805   0.632   6.204   1.487
 3969SOL    HW112806   0.727   6.198   1.459
 3969SOL    HW212807   0.611   6.129   1.550
 3970SOL     OW12808   4.855   3.772   4.416
 3970SOL    HW112809   4.867   3.751   4.319
 3970SOL    HW212810   4.907   3.706   4.471
 3971SOL     OW12811   0.829   5.847   3.595
 3971SOL    HW112812   0.751   5.908   3.607
 3971SOL    HW212813   0.890   5.854   3.674
 3972SOL     OW12814   0.993   0.370   6.665
 3972SOL    HW112815   0.969   0.381   6.761
 3972SOL    HW212816   1.068   0.304   6.656
 3973SOL     OW12817   3.144   3.178   3.891
 3973SOL    HW112818   3.227   3.179   3.947
 3973SOL    HW212819   3.063   3.184   3.950
 3974SOL     OW12820   5.595   0.577   6.577
 3974SOL    HW112821   5.625   0.543   6.488
 3974SOL    HW212822   5.658   0.545   6.648
 3975SOL     OW12823   6.979   6.194   5.050
 3975SOL    HW112824   6.928   6.113   5.079
 3975SOL    HW212825   6.932   6.276   5.081
 3976SOL     OW12826   0.563   2.971   0.054
 3976SOL    HW112827   0.647   3.016   0.024
 3976SOL    HW212828   0.541   3.000   0.147
 3977SOL     OW12829   3.544   5.263   5.586
 3977SOL    HW112830   3.592   5.199   5.526
 3977SOL    HW212831   3.583   5.258   5.678
 3978SOL     OW12832   6.339   4.216   6.181
 3978SOL    HW112833   6.438   4.210   6.174
 3978SOL    HW212834   6.306   4.148   6.247
 3979SOL     OW12835   1.204   6.719   3.253
 3979SOL    HW112836   1.116   6.692   3.213
 3979SOL    HW212837   1.214   6.678   3.343
 3980SOL     OW12838   4.934   3.433   4.809
 3980SOL    HW112839   4.906   3.337   4.808
 3980SOL    HW212840   4.871   3.486   4.867
 3981SOL     OW12841   6.659   1.771   5.311
 3981SOL    HW112842   6.568   1.739   5.337
 3981SOL    HW212843   6.695   1.830   5.384
 3982SOL     OW12844   2.375   2.774   4.110
 3982SOL    HW112845   2.459   2.734   4.146
 3982SOL    HW212846   2.297   2.740   4.162
 3983SOL     OW12847   3.239   0.456   3.590
 3983SOL    HW112848   3.202   0.549   3.595
 3983SOL    HW212849   3.212   0.414   3.504
 3984SOL     OW12850   1.841   6.841   1.641
 3984SOL    HW112851   1.914   6.899   1.606
 3984SOL    HW212852   1.877   6.750   1.660
 3985SOL     OW12853   1.827   3.490   1.735
 3985SOL    HW112854   1.793   3.410   1.686
 3985SOL    HW212855   1.927   3.486   1.738
 3986SOL     OW12856   1.628   2.156   1.786
 3986SOL    HW112857   1.616   2.096   1.706
 3986SOL    HW212858   1.725   2.160   1.810
 3987SOL     OW12859   1.638   4.296   5.092
 3987SOL    HW112860   1.629   4.374   5.155
 3987SOL    HW212861   1.730   4.259   5.098
 3988SOL     OW12862   4.763   0.932   0.286
 3988SOL    HW112863   4.726   0.839   0.291
 3988SOL    HW212864   4.825   0.947   0.364
 3989SOL     OW12865   4.570   0.884   6.196
 3989SOL    HW112866   4.502   0.910   6.127
 3989SOL    HW212867   4.563   0.946   6.274
 3990SOL     OW12868   0.861   2.594   4.130
 3990SOL    HW112869   0.870   2.515   4.069
 3990SOL    HW212870   0.952   2.630   4.150
 3991SOL     OW12871   0.575   1.229   4.007
 3991SOL    HW112872   0.531   1.169   3.941
 3991SOL    HW212873   0.553   1.324   3.986
 3992SOL     OW12874   5.879   3.947   6.337
 3992SOL    HW112875   5.843   4.035   6.305
 3992SOL    HW212876   5.844   3.928   6.429
 3993SOL     OW12877   1.583   0.436   4.398
 3993SOL    HW112878   1.613   0.363   4.461
 3993SOL    HW212879   1.563   0.518   4.451
 3994SOL     OW12880   2.637   2.190   2.777
 3994SOL    HW112881   2.691   2.224   2.700
 3994SOL    HW212882   2.587   2.265   2.819
 3995SOL     OW12883   1.183   3.631   2.626
 3995SOL    HW112884   1.132   3.610   2.710
 3995SOL    HW212885   1.204   3.545   2.578
 3996SOL     OW12886   5.709   6.503   4.079
 3996SOL    HW112887   5.704   6.487   4.177
 3996SOL    HW212888   5.617   6.518   4.043
 3997SOL     OW12889   5.025   3.318   2.785
 3997SOL    HW112890   5.030   3.414   2.758
 3997SOL    HW212891   5.017   3.311   2.884
 3998SOL     OW12892   5.214   2.444   3.029
 3998SOL    HW112893   5.209   2.505   3.108
 3998SOL    HW212894   5.194   2.496   2.946
 3999SOL     OW12895   4.649   2.887   1.189
 3999SOL    HW112896   4.687   2.805   1.232
 3999SOL    HW212897   4.656   2.964   1.252
 4000SOL     OW12898   2.822   5.122   2.508
 4000SOL    HW112899   2.872   5.123   2.422
 4000SOL    HW212900   2.816   5.216   2.544
 4001SOL     OW12901   1.305   4.821   4.223
 4001SOL    HW112902   1.266   4.912   4.234
 4001SOL    HW212903   1.371   4.822   4.148
 4002SOL     OW12904   3.448   4.109   3.836
 4002SOL    HW112905   3.439   4.133   3.933
 4002SOL    HW212906   3.357   4.088   3.800
 4003SOL     OW12907   2.098   0.678   5.524
 4003SOL    HW112908   2.171   0.718   5.578
 4003SOL    HW212909   2.129   0.592   5.483
 4004SOL     OW12910   0.880   3.499   3.729
 4004SOL    HW112911   0.891   3.490   3.828
 4004SOL    HW212912   0.940   3.572   3.696
 4005SOL     OW12913   5.084   3.248   0.358
 4005SOL    HW112914   5.036   3.258   0.271
 4005SOL    HW212915   5.178   3.219   0.342
 4006SOL     OW12916   5.528   5.459   2.793
 4006SOL    HW112917   5.584   5.539   2.814
 4006SOL    HW212918   5.499   5.463   2.697
 4007SOL     OW12919   7.008   0.495   2.876
 4007SOL    HW112920   0.058   0.543   2.927
 4007SOL    HW212921   6.953   0.562   2.825
 4008SOL     OW12922   3.303   0.715   0.794
 4008SOL    HW112923   3.290   0.676   0.704
 4008SOL    HW212924   3.266   0.808   0.797
 4009SOL     OW12925   5.040   1.935   0.935
 4009SOL    HW112926   5.132   1.923   0.898
 4009SOL    HW212927   5.040   1.914   1.032
 4010SOL     OW12928   2.441   5.074   1.533
 4010SOL    HW112929   2.380   5.083   1.612
 4010SOL    HW212930   2.490   4.986   1.539
 4011SOL     OW12931   5.068   6.496   6.589
 4011SOL    HW112932   5.144   6.531   6.533
 4011SOL    HW212933   5.102   6.473   6.680
 4012SOL     OW12934   4.700   7.012   2.801
 4012SOL    HW112935   4.662   0.034   2.884
 4012SOL    HW212936   4.627   6.997   2.735
 4013SOL     OW12937   7.004   0.970   5.679
 4013SOL    HW112938   6.904   0.968   5.684
 4013SOL    HW212939   0.012   1.046   5.620
 4014SOL     OW12940   3.158   5.180   2.549
 4014SOL    HW112941   3.183   5.189   2.452
 4014SOL    HW212942   3.130   5.085   2.567
 4015SOL     OW12943   4.113   4.728   5.870
 4015SOL    HW112944   4.050   4.805   5.865
 4015SOL    HW212945   4.088   4.660   5.801
 4016SOL     OW12946   4.524   5.142   5.234
 4016SOL    HW112947   4.533   5.129   5.333
 4016SOL    HW212948   4.431   5.169   5.212
 4017SOL     OW12949   0.914   4.772   5.686
 4017SOL    HW112950   0.959   4.853   5.723
 4017SOL    HW212951   0.970   4.691   5.703
 4018SOL     OW12952   4.107   5.776   1.288
 4018SOL    HW112953   4.169   5.845   1.325
 4018SOL    HW212954   4.012   5.801   1.309
 4019SOL     OW12955   5.560   3.733   2.903
 4019SOL    HW112956   5.573   3.681   2.819
 4019SOL    HW212957   5.532   3.827   2.881
 4020SOL     OW12958   0.181   5.282   4.622
 4020SOL    HW112959   0.177   5.346   4.699
 4020SOL    HW212960   0.242   5.206   4.645
 4021SOL     OW12961   4.398   3.840   6.531
 4021SOL    HW112962   4.417   3.936   6.509
 4021SOL    HW212963   4.419   3.783   6.451
 4022SOL     OW12964   2.046   0.330   1.197
 4022SOL    HW112965   1.976   0.385   1.243
 4022SOL    HW212966   2.002   0.264   1.136
 4023SOL     OW12967   0.465   1.299   4.533
 4023SOL    HW112968   0.527   1.376   4.550
 4023SOL    HW212969   0.445   1.293   4.436
 4024SOL     OW12970   0.797   6.331   4.335
 4024SOL    HW112971   0.813   6.255   4.272
 4024SOL    HW212972   0.883   6.357   4.379
 4025SOL     OW12973   6.964   5.400   3.665
 4025SOL    HW112974   6.875   5.443   3.684
 4025SOL    HW212975   0.010   5.430   3.733
 4026SOL     OW12976   0.198   0.430   3.987
 4026SOL    HW112977   0.150   0.508   4.027
 4026SOL    HW212978   0.292   0.428   4.020
 4027SOL     OW12979   3.240   4.392   6.015
 4027SOL    HW112980   3.204   4.361   5.927
 4027SOL    HW212981   3.166   4.395   6.082
 4028SOL     OW12982   4.790   1.642   3.403
 4028SOL    HW112983   4.725   1.599   3.467
 4028SOL    HW212984   4.883   1.634   3.439
 4029SOL     OW12985   1.835   5.805   7.003
 4029SOL    HW112986   1.795   5.725   0.029
 4029SOL    HW212987   1.907   5.774   6.942
 4030SOL     OW12988   0.113   1.182   2.502
 4030SOL    HW112989   0.058   1.157   2.582
 4030SOL    HW212990   0.149   1.275   2.514
 4031SOL     OW12991   6.051   6.183   0.464
 4031SOL    HW112992   6.147   6.213   0.467
 4031SOL    HW212993   6.044   6.101   0.407
 4032SOL     OW12994   5.244   0.510   2.138
 4032SOL    HW112995   5.167   0.498   2.201
 4032SOL    HW212996   5.235   0.597   2.091
 4033SOL     OW12997   2.305   2.784   2.755
 4033SOL    HW112998   2.336   2.708   2.698
 4033SOL    HW212999   2.369   2.799   2.830
 4034SOL     OW13000   0.018   3.147   5.403
 4034SOL    HW113001   6.984   3.229   5.388
 4034SOL    HW213002   7.015   3.078   5.335
 4035SOL     OW13003   4.365   1.626   1.945
 4035SOL    HW113004   4.359   1.651   2.041
 4035SOL    HW213005   4.321   1.697   1.889
 4036SOL     OW13006   2.924   5.712   2.738
 4036SOL    HW113007   2.995   5.728   2.806
 4036SOL    HW213008   2.866   5.793   2.731
 4037SOL     OW13009   2.743   1.864   5.909
 4037SOL    HW113010   2.650   1.899   5.913
 4037SOL    HW213011   2.743   1.777   5.859
 4038SOL     OW13012   3.395   3.692   5.907
 4038SOL    HW113013   3.344   3.612   5.877
 4038SOL    HW213014   3.464   3.716   5.838
 4039SOL     OW13015   5.986   5.020   1.815
 4039SOL    HW113016   5.940   4.955   1.754
 4039SOL    HW213017   5.918   5.077   1.860
 4040SOL     OW13018   3.086   6.306   5.010
 4040SOL    HW113019   3.150   6.382   5.020
 4040SOL    HW213020   2.993   6.339   5.025
 4041SOL     OW13021   2.340   6.497   0.633
 4041SOL    HW113022   2.328   6.428   0.561
 4041SOL    HW213023   2.395   6.573   0.597
 4042SOL     OW13024   6.581   0.802   2.908
 4042SOL    HW113025   6.531   0.801   2.995
 4042SOL    HW213026   6.516   0.798   2.832
 4043SOL     OW13027   5.706   3.495   6.943
 4043SOL    HW113028   5.787   3.542   6.978
 4043SOL    HW213029   5.625   3.526   6.993
 4044SOL     OW13030   4.644   5.194   3.417
 4044SOL    HW113031   4.660   5.117   3.354
 4044SOL    HW213032   4.602   5.270   3.367
 4045SOL     OW13033   5.006   0.673   5.489
 4045SOL    HW113034   4.928   0.729   5.517
 4045SOL    HW213035   5.013   0.673   5.389
 4046SOL     OW13036   6.104   1.832   2.540
 4046SOL    HW113037   6.129   1.844   2.444
 4046SOL    HW213038   6.019   1.779   2.546
 4047SOL     OW13039   2.969   3.553   0.242
 4047SOL    HW113040   3.068   3.559   0.227
 4047SOL    HW213041   2.929   3.490   0.176
 4048SOL     OW13042   4.332   1.600   2.363
 4048SOL    HW113043   4.431   1.591   2.368
 4048SOL    HW213044   4.295   1.529   2.302
 4049SOL     OW13045   3.937   4.599   6.892
 4049SOL    HW113046   3.897   4.638   6.975
 4049SOL    HW213047   3.878   4.526   6.857
 4050SOL     OW13048   0.420   5.603   2.177
 4050SOL    HW113049   0.466   5.543   2.243
 4050SOL    HW213050   0.453   5.697   2.190
 4051SOL     OW13051   5.464   0.984   5.038
 4051SOL    HW113052   5.463   1.010   5.134
 4051SOL    HW213053   5.503   1.058   4.983
 4052SOL     OW13054   6.246   2.125   3.571
 4052SOL    HW113055   6.286   2.217   3.572
 4052SOL    HW213056   6.237   2.091   3.664
 4053SOL     OW13057   1.632   5.129   4.372
 4053SOL    HW113058   1.569   5.191   4.326
 4053SOL    HW213059   1.647   5.159   4.466
 4054SOL     OW13060   4.011   4.081   0.624
 4054SOL    HW113061   4.036   4.057   0.718
 4054SOL    HW213062   4.043   4.010   0.562
 4055SOL     OW13063   0.480   4.688   1.510
 4055SOL    HW113064   0.469   4.620   1.582
 4055SOL    HW213065   0.469   4.645   1.421
 4056SOL     OW13066   5.312   3.585   0.962
 4056SOL    HW113067   5.282   3.677   0.989
 4056SOL    HW213068   5.259   3.556   0.882
 4057SOL     OW13069   0.100   3.507   0.146
 4057SOL    HW113070   0.094   3.428   0.085
 4057SOL    HW213071   0.035   3.577   0.116
 4058SOL     OW13072   3.166   6.816   6.022
 4058SOL    HW113073   3.168   6.734   6.078
 4058SOL    HW213074   3.220   6.800   5.939
 4059SOL     OW13075   0.473   1.758   3.955
 4059SOL    HW113076   0.547   1.799   3.902
 4059SOL    HW213077   0.457   1.812   4.037
 4060SOL     OW13078   5.794   5.714   5.445
 4060SOL    HW113079   5.827   5.802   5.481
 4060SOL    HW213080   5.813   5.710   5.347
 4061SOL     OW13081   1.954   5.477   0.917
 4061SOL    HW113082   1.983   5.390   0.876
 4061SOL    HW213083   1.903   5.530   0.850
 4062SOL     OW13084   1.405   2.498   1.568
 4062SOL    HW113085   1.488   2.482   1.515
 4062SOL    HW213086   1.344   2.419   1.560
 4063SOL     OW13087   4.508   0.963   0.220
 4063SOL    HW113088   4.502   0.936   0.124
 4063SOL    HW213089   4.603   0.961   0.250
 4064SOL     OW13090   2.169   1.833   5.292
 4064SOL    HW113091   2.153   1.918   5.343
 4064SOL    HW213092   2.251   1.788   5.327
 4065SOL     OW13093   2.612   6.684   0.923
 4065SOL    HW113094   2.656   6.769   0.894
 4065SOL    HW213095   2.518   6.702   0.951
 4066SOL     OW13096   0.281   4.342   3.556
 4066SOL    HW113097   0.340   4.404   3.504
 4066SOL    HW213098   0.334   4.297   3.628
 4067SOL     OW13099   4.711   4.790   0.861
 4067SOL    HW113100   4.632   4.744   0.903
 4067SOL    HW213101   4.728   4.752   0.771
 4068SOL     OW13102   2.112   2.604   5.239
 4068SOL    HW113103   2.208   2.627   5.223
 4068SOL    HW213104   2.057   2.688   5.240
 4069SOL     OW13105   4.200   6.925   6.663
 4069SOL    HW113106   4.290   6.907   6.704
 4069SOL    HW213107   4.130   6.924   6.735
 4070SOL     OW13108   1.334   2.942   3.802
 4070SOL    HW113109   1.290   2.999   3.732
 4070SOL    HW213110   1.429   2.924   3.776
 4071SOL     OW13111   1.043   0.320   4.055
 4071SOL    HW113112   1.090   0.350   4.139
 4071SOL    HW213113   1.082   0.233   4.025
 4072SOL     OW13114   2.474   5.922   3.264
 4072SOL    HW113115   2.393   5.882   3.223
 4072SOL    HW213116   2.482   5.892   3.359
 4073SOL     OW13117   2.991   4.736   0.388
 4073SOL    HW113118   3.031   4.784   0.310
 4073SOL    HW213119   3.039   4.650   0.402
 4074SOL     OW13120   1.809   5.777   3.126
 4074SOL    HW113121   1.899   5.734   3.137
 4074SOL    HW213122   1.767   5.792   3.215
 4075SOL     OW13123   5.970   0.660   1.045
 4075SOL    HW113124   5.893   0.657   0.981
 4075SOL    HW213125   6.044   0.602   1.009
 4076SOL     OW13126   2.810   4.066   5.281
 4076SOL    HW113127   2.737   4.130   5.255
 4076SOL    HW213128   2.770   3.977   5.302
 4077SOL     OW13129   2.564   1.094   1.334
 4077SOL    HW113130   2.531   1.145   1.255
 4077SOL    HW213131   2.487   1.064   1.390
 4078SOL     OW13132   2.621   4.596   2.909
 4078SOL    HW113133   2.584   4.514   2.953
 4078SOL    HW213134   2.718   4.581   2.887
 4079SOL     OW13135   0.850   2.440   4.904
 4079SOL    HW113136   0.773   2.409   4.959
 4079SOL    HW213137   0.820   2.511   4.841
 4080SOL     OW13138   6.159   1.639   4.916
 4080SOL    HW113139   6.111   1.703   4.977
 4080SOL    HW213140   6.095   1.568   4.886
 4081SOL     OW13141   2.073   3.424   3.908
 4081SOL    HW113142   2.139   3.418   3.833
 4081SOL    HW213143   2.109   3.378   3.989
 4082SOL     OW13144   1.243   3.432   1.050
 4082SOL    HW113145   1.287   3.366   0.988
 4082SOL    HW213146   1.282   3.523   1.034
 4083SOL     OW13147   5.333   2.561   5.039
 4083SOL    HW113148   5.279   2.552   5.122
 4083SOL    HW213149   5.410   2.497   5.042
 4084SOL     OW13150   0.686   0.952   4.031
 4084SOL    HW113151   0.602   0.993   3.996
 4084SOL    HW213152   0.672   0.919   4.124
 4085SOL     OW13153   3.451   6.547   0.093
 4085SOL    HW113154   3.447   6.448   0.083
 4085SOL    HW213155   3.413   6.573   0.182
 4086SOL     OW13156   1.801   4.622   0.741
 4086SOL    HW113157   1.720   4.625   0.800
 4086SOL    HW213158   1.845   4.712   0.742
 4087SOL     OW13159   1.254   1.324   3.314
 4087SOL    HW113160   1.199   1.247   3.283
 4087SOL    HW213161   1.312   1.295   3.390
 4088SOL     OW13162   6.628   1.659   1.360
 4088SOL    HW113163   6.646   1.702   1.448
 4088SOL    HW213164   6.584   1.725   1.299
 4089SOL     OW13165   1.109   0.738   4.292
 4089SOL    HW113166   1.036   0.798   4.323
 4089SOL    HW213167   1.181   0.792   4.248
 4090SOL     OW13168   1.910   4.176   5.436
 4090SOL    HW113169   1.870   4.247   5.378
 4090SOL    HW213170   1.894   4.197   5.532
 4091SOL     OW13171   4.464   5.774   0.261
 4091SOL    HW113172   4.446   5.803   0.166
 4091SOL    HW213173   4.450   5.852   0.322
 4092SOL     OW13174   0.140   2.856   4.881
 4092SOL    HW113175   0.177   2.776   4.928
 4092SOL    HW213176   0.135   2.933   4.946
 4093SOL     OW13177   5.714   0.658   4.073
 4093SOL    HW113178   5.659   0.698   4.000
 4093SOL    HW213179   5.671   0.574   4.106
 4094SOL     OW13180   2.224   4.244   5.104
 4094SOL    HW113181   2.233   4.152   5.065
 4094SOL    HW213182   2.200   4.237   5.200
 4095SOL     OW13183   1.069   3.636   6.319
 4095SOL    HW113184   1.019   3.583   6.387
 4095SOL    HW213185   1.005   3.677   6.254
 4096SOL     OW13186   3.437   4.216   0.295
 4096SOL    HW113187   3.453   4.237   0.198
 4096SOL    HW213188   3.480   4.286   0.352
 4097SOL     OW13189   3.298   3.273   5.660
 4097SOL    HW113190   3.319   3.230   5.573
 4097SOL    HW213191   3.382   3.309   5.701
 4098SOL     OW13192   0.702   2.123   3.171
 4098SOL    HW113193   0.666   2.124   3.265
 4098SOL    HW213194   0.668   2.041   3.124
 4099SOL     OW13195   4.065   5.630   2.072
 4099SOL    HW113196   3.983   5.687   2.065
 4099SOL    HW213197   4.098   5.606   1.981
 4100SOL     OW13198   3.558   5.901   3.534
 4100SOL    HW113199   3.595   5.894   3.626
 4100SOL    HW213200   3.626   5.942   3.473
 4101SOL     OW13201   6.012   1.643   6.360
 4101SOL    HW113202   6.079   1.709   6.327
 4101SOL    HW213203   6.040   1.609   6.449
 4102SOL     OW13204   6.046   1.485   0.158
 4102SOL    HW113205   6.063   1.495   0.256
 4102SOL    HW213206   6.057   1.574   0.113
 4103SOL     OW13207   0.608   0.375   2.138
 4103SOL    HW113208   0.640   0.423   2.056
 4103SOL    HW213209   0.594   0.440   2.212
 4104SOL     OW13210   1.081   4.908   2.489
 4104SOL    HW113211   1.043   4.816   2.479
 4104SOL    HW213212   1.041   4.969   2.421
 4105SOL     OW13213   4.003   5.081   0.251
 4105SOL    HW113214   3.970   5.150   0.316
 4105SOL    HW213215   4.037   5.126   0.168
 4106SOL     OW13216   6.728   3.503   4.576
 4106SOL    HW113217   6.660   3.575   4.565
 4106SOL    HW213218   6.806   3.538   4.628
 4107SOL     OW13219   6.704   0.696   1.569
 4107SOL    HW113220   6.666   0.742   1.489
 4107SOL    HW213221   6.723   0.600   1.546
 4108SOL     OW13222   6.426   3.565   6.130
 4108SOL    HW113223   6.355   3.631   6.155
 4108SOL    HW213224   6.514   3.597   6.165
 4109SOL     OW13225   3.145   6.306   3.831
 4109SOL    HW113226   3.198   6.265   3.905
 4109SOL    HW213227   3.049   6.279   3.840
 4110SOL     OW13228   5.041   3.476   6.133
 4110SOL    HW113229   4.988   3.559   6.115
 4110SOL    HW213230   5.057   3.428   6.046
 4111SOL     OW13231   4.550   2.925   6.949
 4111SOL    HW113232   4.515   2.978   6.871
 4111SOL    HW213233   4.532   2.976   0.013
 4112SOL     OW13234   3.355   1.285   3.845
 4112SOL    HW113235   3.406   1.353   3.898
 4112SOL    HW213236   3.343   1.203   3.900
 4113SOL     OW13237   3.456   4.975   4.993
 4113SOL    HW113238   3.380   4.961   4.930
 4113SOL    HW213239   3.540   4.993   4.942
 4114SOL     OW13240   2.736   1.823   2.922
 4114SOL    HW113241   2.667   1.865   2.863
 4114SOL    HW213242   2.698   1.808   3.013
 4115SOL     OW13243   5.212   4.990   1.669
 4115SOL    HW113244   5.191   4.933   1.589
 4115SOL    HW213245   5.194   4.937   1.752
 4116SOL     OW13246   3.430   1.429   1.445
 4116SOL    HW113247   3.513   1.414   1.499
 4116SOL    HW213248   3.353   1.446   1.506
 4117SOL     OW13249   1.376   5.428   1.444
 4117SOL    HW113250   1.343   5.340   1.410
 4117SOL    HW213251   1.475   5.432   1.437
 4118SOL     OW13252   1.613   6.133   0.576
 4118SOL    HW113253   1.685   6.201   0.564
 4118SOL    HW213254   1.629   6.056   0.514
 4119SOL     OW13255   3.479   0.557   4.197
 4119SOL    HW113256   3.404   0.595   4.252
 4119SOL    HW213257   3.476   0.595   4.105
 4120SOL     OW13258   3.193   0.526   1.449
 4120SOL    HW113259   3.256   0.574   1.510
 4120SOL    HW213260   3.183   0.579   1.365
 4121SOL     OW13261   6.721   3.097   4.762
 4121SOL    HW113262   6.672   3.170   4.715
 4121SOL    HW213263   6.759   3.132   4.848
 4122SOL     OW13264   1.420   5.778   5.838
 4122SOL    HW113265   1.471   5.694   5.816
 4122SOL    HW213266   1.482   5.844   5.880
 4123SOL     OW13267   4.736   4.134   6.516
 4123SOL    HW113268   4.793   4.205   6.475
 4123SOL    HW213269   4.729   4.150   6.615
 4124SOL     OW13270   5.633   7.017   3.843
 4124SOL    HW113271   5.730   6.999   3.862
 4124SOL    HW213272   5.583   0.001   3.930
 4125SOL     OW13273   4.237   0.831   1.114
 4125SOL    HW113274   4.161   0.877   1.068
 4125SOL    HW213275   4.314   0.894   1.122
 4126SOL     OW13276   2.078   4.125   4.869
 4126SOL    HW113277   2.153   4.086   4.923
 4126SOL    HW213278   1.999   4.139   4.928
 4127SOL     OW13279   5.550   3.354   5.639
 4127SOL    HW113280   5.484   3.376   5.567
 4127SOL    HW213281   5.640   3.338   5.598
 4128SOL     OW13282   1.017   2.951   2.368
 4128SOL    HW113283   0.924   2.983   2.351
 4128SOL    HW213284   1.040   2.879   2.302
 4129SOL     OW13285   5.755   2.520   6.006
 4129SOL    HW113286   5.786   2.485   6.095
 4129SOL    HW213287   5.827   2.505   5.938
 4130SOL     OW13288   6.291   3.976   0.120
 4130SOL    HW113289   6.234   3.910   0.169
 4130SOL    HW213290   6.353   4.020   0.185
 4131SOL     OW13291   6.321   4.968   4.141
 4131SOL    HW113292   6.315   5.027   4.060
 4131SOL    HW213293   6.411   4.924   4.143
 4132SOL     OW13294   5.183   2.599   3.312
 4132SOL    HW113295   5.161   2.680   3.366
 4132SOL    HW213296   5.256   2.548   3.357
 4133SOL     OW13297   2.951   1.002   1.116
 4133SOL    HW113298   2.956   1.075   1.048
 4133SOL    HW213299   3.043   0.976   1.145
 4134SOL     OW13300   1.434   1.871   0.038
 4134SOL    HW113301   1.439   1.914   0.128
 4134SOL    HW213302   1.417   1.773   0.050
 4135SOL     OW13303   2.074   1.343   1.837
 4135SOL    HW113304   1.979   1.331   1.868
 4135SOL    HW213305   2.108   1.431   1.868
 4136SOL     OW13306   0.248   2.106   4.115
 4136SOL    HW113307   0.339   2.064   4.113
 4136SOL    HW213308   0.255   2.202   4.091
 4137SOL     OW13309   3.116   3.891   6.772
 4137SOL    HW113310   3.166   3.810   6.740
 4137SOL    HW213311   3.181   3.964   6.791
 4138SOL     OW13312   4.071   4.739   3.423
 4138SOL    HW113313   4.010   4.763   3.498
 4138SOL    HW213314   4.057   4.802   3.347
 4139SOL     OW13315   1.787   2.168   6.199
 4139SOL    HW113316   1.807   2.104   6.125
 4139SOL    HW213317   1.696   2.207   6.187
 4140SOL     OW13318   4.403   1.220   4.962
 4140SOL    HW113319   4.418   1.219   4.863
 4140SOL    HW213320   4.486   1.187   5.008
 4141SOL     OW13321   5.391   5.741   0.525
 4141SOL    HW113322   5.467   5.774   0.582
 4141SOL    HW213323   5.426   5.677   0.456
 4142SOL     OW13324   0.028   4.395   1.277
 4142SOL    HW113325   0.033   4.300   1.310
 4142SOL    HW213326   0.071   4.455   1.344
 4143SOL     OW13327   6.920   2.783   0.714
 4143SOL    HW113328   6.993   2.719   0.689
 4143SOL    HW213329   6.952   2.876   0.703
 4144SOL     OW13330   5.006   1.338   2.368
 4144SOL    HW113331   4.938   1.339   2.295
 4144SOL    HW213332   4.962   1.354   2.456
 4145SOL     OW13333   2.188   6.491   1.461
 4145SOL    HW113334   2.169   6.559   1.390
 4145SOL    HW213335   2.243   6.533   1.533
 4146SOL     OW13336   4.632   0.093   0.151
 4146SOL    HW113337   4.721   0.133   0.173
 4146SOL    HW213338   4.592   0.142   0.073
 4147SOL     OW13339   3.455   1.307   5.138
 4147SOL    HW113340   3.457   1.405   5.158
 4147SOL    HW213341   3.453   1.293   5.038
 4148SOL     OW13342   6.686   0.641   3.225
 4148SOL    HW113343   6.637   0.570   3.276
 4148SOL    HW213344   6.761   0.599   3.174
 4149SOL     OW13345   5.993   3.969   1.927
 4149SOL    HW113346   5.960   4.058   1.897
 4149SOL    HW213347   5.980   3.960   2.026
 4150SOL     OW13348   5.585   0.284   6.666
 4150SOL    HW113349   5.614   0.274   6.571
 4150SOL    HW213350   5.485   0.284   6.670
 4151SOL     OW13351   0.284   5.520   0.776
 4151SOL    HW113352   0.243   5.489   0.862
 4151SOL    HW213353   0.230   5.488   0.699
 4152SOL     OW13354   3.981   4.583   1.710
 4152SOL    HW113355   3.887   4.616   1.719
 4152SOL    HW213356   4.023   4.623   1.629
 4153SOL     OW13357   6.198   4.721   6.299
 4153SOL    HW113358   6.110   4.761   6.326
 4153SOL    HW213359   6.267   4.793   6.293
 4154SOL     OW13360   5.904   3.176   5.748
 4154SOL    HW113361   6.002   3.159   5.761
 4154SOL    HW213362   5.866   3.216   5.831
 4155SOL     OW13363   1.380   3.288   1.651
 4155SOL    HW113364   1.443   3.365   1.665
 4155SOL    HW213365   1.429   3.203   1.667
 4156SOL     OW13366   5.973   6.830   5.423
 4156SOL    HW113367   5.992   6.861   5.516
 4156SOL    HW213368   6.059   6.805   5.378
 4157SOL     OW13369   3.783   0.607   4.746
 4157SOL    HW113370   3.741   0.635   4.660
 4157SOL    HW213371   3.866   0.554   4.727
 4158SOL     OW13372   0.769   6.206   3.670
 4158SOL    HW113373   0.822   6.184   3.588
 4158SOL    HW213374   0.773   6.304   3.688
 4159SOL     OW13375   1.275   2.767   5.022
 4159SOL    HW113376   1.286   2.791   4.926
 4159SOL    HW213377   1.301   2.845   5.079
 4160SOL     OW13378   0.246   0.542   1.435
 4160SOL    HW113379   0.283   0.585   1.517
 4160SOL    HW213380   0.270   0.598   1.355
 4161SOL     OW13381   6.595   1.847   0.403
 4161SOL    HW113382   6.603   1.772   0.338
 4161SOL    HW213383   6.662   1.918   0.380
 4162SOL     OW13384   6.175   6.844   5.084
 4162SOL    HW113385   6.216   6.907   5.150
 4162SOL    HW213386   6.136   6.765   5.132
 4163SOL     OW13387   5.767   1.439   4.329
 4163SOL    HW113388   5.829   1.475   4.399
 4163SOL    HW213389   5.767   1.501   4.250
 4164SOL     OW13390   1.836   0.548   6.870
 4164SOL    HW113391   1.905   0.577   6.803
 4164SOL    HW213392   1.802   0.627   6.920
 4165SOL     OW13393   3.948   6.586   1.531
 4165SOL    HW113394   3.983   6.541   1.613
 4165SOL    HW213395   3.868   6.642   1.555
 4166SOL     OW13396   4.793   3.135   0.668
 4166SOL    HW113397   4.773   3.221   0.716
 4166SOL    HW213398   4.878   3.097   0.702
 4167SOL     OW13399   2.708   2.797   1.414
 4167SOL    HW113400   2.645   2.733   1.370
 4167SOL    HW213401   2.698   2.887   1.373
 4168SOL     OW13402   1.501   5.324   1.724
 4168SOL    HW113403   1.448   5.364   1.649
 4168SOL    HW213404   1.472   5.229   1.739
 4169SOL     OW13405   5.280   2.975   4.255
 4169SOL    HW113406   5.199   2.918   4.271
 4169SOL    HW213407   5.254   3.057   4.203
 4170SOL     OW13408   3.961   2.836   5.726
 4170SOL    HW113409   4.011   2.780   5.659
 4170SOL    HW213410   4.003   2.826   5.816
 4171SOL     OW13411   5.023   3.563   1.304
 4171SOL    HW113412   4.939   3.541   1.353
 4171SOL    HW213413   5.009   3.647   1.251
 4172SOL     OW13414   0.961   2.210   0.831
 4172SOL    HW113415   0.899   2.190   0.756
 4172SOL    HW213416   0.998   2.124   0.868
 4173SOL     OW13417   5.277   3.078   5.454
 4173SOL    HW113418   5.205   3.009   5.457
 4173SOL    HW213419   5.328   3.078   5.540
 4174SOL     OW13420   4.795   0.688   4.253
 4174SOL    HW113421   4.770   0.709   4.158
 4174SOL    HW213422   4.894   0.694   4.263
 4175SOL     OW13423   2.905   0.591   2.864
 4175SOL    HW113424   2.953   0.550   2.787
 4175SOL    HW213425   2.961   0.664   2.903
 4176SOL     OW13426   4.801   6.571   3.254
 4176SOL    HW113427   4.848   6.556   3.341
 4176SOL    HW213428   4.859   6.626   3.194
 4177SOL     OW13429   0.452   6.238   2.670
 4177SOL    HW113430   0.454   6.230   2.770
 4177SOL    HW213431   0.371   6.192   2.634
 4178SOL     OW13432   3.745   2.209   5.699
 4178SOL    HW113433   3.725   2.117   5.663
 4178SOL    HW213434   3.664   2.242   5.748
 4179SOL     OW13435   5.490   3.910   5.526
 4179SOL    HW113436   5.495   3.862   5.614
 4179SOL    HW213437   5.531   3.853   5.455
 4180SOL     OW13438   4.604   4.054   1.377
 4180SOL    HW113439   4.540   4.056   1.300
 4180SOL    HW213440   4.590   3.970   1.429
 4181SOL     OW13441   1.065   1.270   0.505
 4181SOL    HW113442   0.985   1.227   0.546
 4181SOL    HW213443   1.070   1.365   0.535
 4182SOL     OW13444   5.591   0.736   2.502
 4182SOL    HW113445   5.576   0.638   2.490
 4182SOL    HW213446   5.537   0.769   2.580
 4183SOL     OW13447   1.486   2.074   1.553
 4183SOL    HW113448   1.424   2.148   1.581
 4183SOL    HW213449   1.435   1.987   1.552
 4184SOL     OW13450   3.977   5.297   0.438
 4184SOL    HW113451   3.933   5.277   0.525
 4184SOL    HW213452   3.922   5.362   0.386
 4185SOL     OW13453   0.279   0.415   3.705
 4185SOL    HW113454   0.367   0.449   3.673
 4185SOL    HW213455   0.276   0.420   3.805
 4186SOL     OW13456   2.858   3.956   1.062
 4186SOL    HW113457   2.780   3.962   1.000
 4186SOL    HW213458   2.839   3.887   1.132
 4187SOL     OW13459   4.082   3.364   6.548
 4187SOL    HW113460   4.127   3.358   6.459
 4187SOL    HW213461   4.040   3.454   6.558
 4188SOL     OW13462   4.798   6.924   4.694
 4188SOL    HW113463   4.757   7.015   4.695
 4188SOL    HW213464   4.727   6.855   4.710
 4189SOL     OW13465   2.319   1.922   4.313
 4189SOL    HW113466   2.246   1.918   4.382
 4189SOL    HW213467   2.321   2.013   4.273
 4190SOL     OW13468   2.641   1.137   0.559
 4190SOL    HW113469   2.564   1.136   0.623
 4190SOL    HW213470   2.666   1.043   0.535
 4191SOL     OW13471   6.592   1.907   2.240
 4191SOL    HW113472   6.549   1.827   2.280
 4191SOL    HW213473   6.692   1.897   2.245
 4192SOL     OW13474   6.489   1.178   3.260
 4192SOL    HW113475   6.552   1.218   3.326
 4192SOL    HW213476   6.435   1.250   3.217
 4193SOL     OW13477   2.055   6.960   1.945
 4193SOL    HW113478   2.077   6.900   2.021
 4193SOL    HW213479   2.021   0.027   1.980
 4194SOL     OW13480   0.394   0.776   4.039
 4194SOL    HW113481   0.404   0.798   3.942
 4194SOL    HW213482   0.482   0.747   4.076
 4195SOL     OW13483   5.165   0.405   1.312
 4195SOL    HW113484   5.193   0.360   1.397
 4195SOL    HW213485   5.068   0.387   1.295
 4196SOL     OW13486   4.837   2.420   3.527
 4196SOL    HW113487   4.864   2.435   3.431
 4196SOL    HW213488   4.773   2.491   3.555
 4197SOL     OW13489   4.937   4.164   4.273
 4197SOL    HW113490   4.840   4.176   4.254
 4197SOL    HW213491   4.991   4.205   4.199
 4198SOL     OW13492   6.543   3.344   6.789
 4198SOL    HW113493   6.541   3.250   6.824
 4198SOL    HW213494   6.462   3.393   6.820
 4199SOL     OW13495   2.876   3.469   5.431
 4199SOL    HW113496   2.966   3.509   5.420
 4199SOL    HW213497   2.846   3.428   5.345
 4200SOL     OW13498   2.045   0.131   6.820
 4200SOL    HW113499   2.008   0.208   6.874
 4200SOL    HW213500   2.039   0.047   6.874
 4201SOL     OW13501   5.471   5.907   3.586
 4201SOL    HW113502   5.546   5.843   3.605
 4201SOL    HW213503   5.392   5.883   3.644
 4202SOL     OW13504   5.504   4.801   4.655
 4202SOL    HW113505   5.421   4.778   4.604
 4202SOL    HW213506   5.480   4.833   4.746
 4203SOL     OW13507   5.364   5.699   3.348
 4203SOL    HW113508   5.427   5.776   3.332
 4203SOL    HW213509   5.295   5.697   3.275
 4204SOL     OW13510   3.512   3.415   1.493
 4204SOL    HW113511   3.502   3.368   1.405
 4204SOL    HW213512   3.568   3.497   1.480
 4205SOL     OW13513   2.894   4.762   3.638
 4205SOL    HW113514   2.979   4.813   3.626
 4205SOL    HW213515   2.839   4.770   3.554
 4206SOL     OW13516   5.351   0.349   4.568
 4206SOL    HW113517   5.371   0.288   4.491
 4206SOL    HW213518   5.348   0.296   4.653
 4207SOL     OW13519   1.389   1.340   1.683
 4207SOL    HW113520   1.358   1.387   1.766
 4207SOL    HW213521   1.346   1.383   1.603
 4208SOL     OW13522   0.776   3.723   1.210
 4208SOL    HW113523   0.797   3.694   1.116
 4208SOL    HW213524   0.720   3.806   1.206
 4209SOL     OW13525   3.009   0.402   4.901
 4209SOL    HW113526   3.100   0.378   4.867
 4209SOL    HW213527   2.946   0.408   4.823
 4210SOL     OW13528   5.107   3.243   0.634
 4210SOL    HW113529   5.162   3.159   0.643
 4210SOL    HW213530   5.089   3.261   0.538
 4211SOL     OW13531   4.361   4.911   3.381
 4211SOL    HW113532   4.423   4.917   3.303
 4211SOL    HW213533   4.339   4.815   3.399
 4212SOL     OW13534   6.003   0.738   2.807
 4212SOL    HW113535   5.905   0.721   2.808
 4212SOL    HW213536   6.030   0.783   2.892
 4213SOL     OW13537   1.044   0.838   2.397
 4213SOL    HW113538   1.109   0.767   2.369
 4213SOL    HW213539   1.074   0.879   2.483
 4214SOL     OW13540   1.469   2.801   4.438
 4214SOL    HW113541   1.420   2.724   4.398
 4214SOL    HW213542   1.406   2.859   4.488
 4215SOL     OW13543   1.102   5.229   4.233
 4215SOL    HW113544   1.117   5.325   4.207
 4215SOL    HW213545   1.006   5.216   4.258
 4216SOL     OW13546   1.564   3.325   5.050
 4216SOL    HW113547   1.586   3.418   5.022
 4216SOL    HW213548   1.495   3.328   5.123
 4217SOL     OW13549   0.019   0.228   2.946
 4217SOL    HW113550   0.004   0.326   2.933
 4217SOL    HW213551   0.026   0.184   2.857
 4218SOL     OW13552   4.517   0.143   2.071
 4218SOL    HW113553   4.488   0.061   2.021
 4218SOL    HW213554   4.604   0.176   2.033
 4219SOL     OW13555   4.340   6.483   3.173
 4219SOL    HW113556   4.272   6.458   3.242
 4219SOL    HW213557   4.330   6.579   3.149
 4220SOL     OW13558   6.093   2.855   3.337
 4220SOL    HW113559   6.128   2.949   3.330
 4220SOL    HW213560   6.149   2.794   3.282
 4221SOL     OW13561   5.635   5.529   5.927
 4221SOL    HW113562   5.645   5.429   5.924
 4221SOL    HW213563   5.683   5.565   6.006
 4222SOL     OW13564   4.376   2.240   0.834
 4222SOL    HW113565   4.294   2.252   0.778
 4222SOL    HW213566   4.414   2.149   0.818
 4223SOL     OW13567   3.705   3.996   2.568
 4223SOL    HW113568   3.625   3.967   2.515
 4223SOL    HW213569   3.680   4.003   2.664
 4224SOL     OW13570   4.436   2.509   4.959
 4224SOL    HW113571   4.513   2.550   5.009
 4224SOL    HW213572   4.353   2.517   5.013
 4225SOL     OW13573   5.790   0.419   4.796
 4225SOL    HW113574   5.819   0.476   4.873
 4225SOL    HW213575   5.719   0.355   4.827
 4226SOL     OW13576   1.085   1.311   4.153
 4226SOL    HW113577   1.106   1.406   4.175
 4226SOL    HW213578   0.995   1.306   4.108
 4227SOL     OW13579   5.688   3.909   0.071
 4227SOL    HW113580   5.649   3.884   0.161
 4227SOL    HW213581   5.779   3.947   0.084
 4228SOL     OW13582   6.157   5.343   2.305
 4228SOL    HW113583   6.240   5.391   2.275
 4228SOL    HW213584   6.093   5.338   2.229
 4229SOL     OW13585   5.367   4.708   5.723
 4229SOL    HW113586   5.391   4.805   5.725
 4229SOL    HW213587   5.444   4.656   5.686
 4230SOL     OW13588   2.841   6.817   4.637
 4230SOL    HW113589   2.813   6.727   4.672
 4230SOL    HW213590   2.928   6.843   4.680
 4231SOL     OW13591   4.459   6.647   5.548
 4231SOL    HW113592   4.423   6.563   5.590
 4231SOL    HW213593   4.450   6.640   5.448
 4232SOL     OW13594   1.978   4.512   2.274
 4232SOL    HW113595   1.956   4.429   2.222
 4232SOL    HW213596   2.075   4.533   2.264
 4233SOL     OW13597   6.179   6.776   0.913
 4233SOL    HW113598   6.096   6.781   0.968
 4233SOL    HW213599   6.159   6.803   0.819
 4234SOL     OW13600   2.931   4.516   5.679
 4234SOL    HW113601   2.857   4.554   5.624
 4234SOL    HW213602   2.978   4.444   5.628
 4235SOL     OW13603   6.495   3.782   5.782
 4235SOL    HW113604   6.402   3.804   5.753
 4235SOL    HW213605   6.505   3.683   5.791
 4236SOL     OW13606   1.334   3.216   4.305
 4236SOL    HW113607   1.289   3.297   4.343
 4236SOL    HW213608   1.426   3.240   4.274
 4237SOL     OW13609   5.214   3.426   4.872
 4237SOL    HW113610   5.115   3.409   4.871
 4237SOL    HW213611   5.240   3.465   4.960
 4238SOL     OW13612   4.595   4.893   4.220
 4238SOL    HW113613   4.627   4.832   4.293
 4238SOL    HW213614   4.506   4.930   4.244
 4239SOL     OW13615   4.912   5.357   5.664
 4239SOL    HW113616   4.973   5.280   5.680
 4239SOL    HW213617   4.966   5.439   5.645
 4240SOL     OW13618   2.516   4.685   6.540
 4240SOL    HW113619   2.598   4.647   6.498
 4240SOL    HW213620   2.456   4.610   6.570
 4241SOL     OW13621   3.848   0.841   6.388
 4241SOL    HW113622   3.854   0.926   6.440
 4241SOL    HW213623   3.754   0.809   6.387
 4242SOL     OW13624   1.775   0.652   2.617
 4242SOL    HW113625   1.702   0.685   2.676
 4242SOL    HW213626   1.736   0.612   2.534
 4243SOL     OW13627   1.833   2.714   3.157
 4243SOL    HW113628   1.816   2.812   3.170
 4243SOL    HW213629   1.849   2.696   3.059
 4244SOL     OW13630   3.526   6.292   1.815
 4244SOL    HW113631   3.429   6.300   1.840
 4244SOL    HW213632   3.533   6.271   1.718
 4245SOL     OW13633   6.302   3.738   0.949
 4245SOL    HW113634   6.217   3.792   0.946
 4245SOL    HW213635   6.332   3.729   1.043
 4246SOL     OW13636   5.010   1.546   3.754
 4246SOL    HW113637   5.030   1.567   3.658
 4246SOL    HW213638   4.966   1.625   3.797
 4247SOL     OW13639   1.374   5.204   6.019
 4247SOL    HW113640   1.311   5.158   5.956
 4247SOL    HW213641   1.368   5.303   6.006
 4248SOL     OW13642   1.656   0.846   3.645
 4248SOL    HW113643   1.678   0.931   3.693
 4248SOL    HW213644   1.629   0.776   3.711
 4249SOL     OW13645   6.581   6.640   5.006
 4249SOL    HW113646   6.648   6.681   4.944
 4249SOL    HW213647   6.553   6.551   4.969
 4250SOL     OW13648   0.219   5.315   4.058
 4250SOL    HW113649   0.188   5.407   4.033
 4250SOL    HW213650   0.265   5.319   4.147
 4251SOL     OW13651   6.451   2.339   5.674
 4251SOL    HW113652   6.414   2.335   5.581
 4251SOL    HW213653   6.506   2.422   5.684
 4252SOL     OW13654   6.958   6.655   6.956
 4252SOL    HW113655   6.989   6.750   6.951
 4252SOL    HW213656   0.013   6.595   6.931
 4253SOL     OW13657   4.980   5.489   2.621
 4253SOL    HW113658   5.031   5.527   2.698
 4253SOL    HW213659   4.952   5.396   2.642
 4254SOL     OW13660   1.746   3.304   0.013
 4254SOL    HW113661   1.717   3.209   0.005
 4254SOL    HW213662   1.689   3.351   0.081
 4255SOL     OW13663   1.293   3.345   3.241
 4255SOL    HW113664   1.283   3.424   3.181
 4255SOL    HW213665   1.264   3.369   3.334
 4256SOL     OW13666   0.813   5.977   1.806
 4256SOL    HW113667   0.879   6.016   1.870
 4256SOL    HW213668   0.843   5.886   1.779
 4257SOL     OW13669   6.315   0.415   4.502
 4257SOL    HW113670   6.270   0.333   4.468
 4257SOL    HW213671   6.250   0.467   4.559
 4258SOL     OW13672   3.281   6.101   0.647
 4258SOL    HW113673   3.318   6.194   0.649
 4258SOL    HW213674   3.332   6.047   0.580
 4259SOL     OW13675   1.179   0.304   1.510
 4259SOL    HW113676   1.272   0.280   1.479
 4259SOL    HW213677   1.167   0.403   1.504
 4260SOL     OW13678   5.452   1.487   4.721
 4260SOL    HW113679   5.498   1.400   4.703
 4260SOL    HW213680   5.519   1.552   4.756
 4261SOL     OW13681   2.159   6.394   4.052
 4261SOL    HW113682   2.158   6.482   4.101
 4261SOL    HW213683   2.195   6.408   3.960
 4262SOL     OW13684   2.185   4.259   6.645
 4262SOL    HW113685   2.213   4.207   6.564
 4262SOL    HW213686   2.104   4.313   6.624
 4263SOL     OW13687   2.295   1.648   4.241
 4263SOL    HW113688   2.292   1.568   4.301
 4263SOL    HW213689   2.293   1.731   4.297
 4264SOL     OW13690   5.130   1.548   5.210
 4264SOL    HW113691   5.115   1.455   5.244
 4264SOL    HW213692   5.050   1.578   5.159
 4265SOL     OW13693   3.035   0.077   6.854
 4265SOL    HW113694   3.083   0.106   6.771
 4265SOL    HW213695   2.965   0.145   6.877
 4266SOL     OW13696   1.156   5.545   1.122
 4266SOL    HW113697   1.223   5.616   1.143
 4266SOL    HW213698   1.069   5.588   1.096
 4267SOL     OW13699   1.747   4.806   4.487
 4267SOL    HW113700   1.658   4.822   4.445
 4267SOL    HW213701   1.780   4.715   4.461
 4268SOL     OW13702   1.007   4.132   6.904
 4268SOL    HW113703   0.997   4.212   6.963
 4268SOL    HW213704   0.939   4.135   6.831
 4269SOL     OW13705   2.984   1.430   5.082
 4269SOL    HW113706   2.988   1.529   5.096
 4269SOL    HW213707   3.006   1.383   5.168
 4270SOL     OW13708   3.676   2.973   0.769
 4270SOL    HW113709   3.697   2.908   0.841
 4270SOL    HW213710   3.600   2.939   0.713
 4271SOL     OW13711   0.174   1.009   1.625
 4271SOL    HW113712   0.098   0.985   1.564
 4271SOL    HW213713   0.155   1.096   1.669
 4272SOL     OW13714   0.233   1.264   6.693
 4272SOL    HW113715   0.159   1.197   6.706
 4272SOL    HW213716   0.321   1.218   6.705
 4273SOL     OW13717   3.106   6.008   4.695
 4273SOL    HW113718   3.013   6.041   4.678
 4273SOL    HW213719   3.108   5.955   4.780
 4274SOL     OW13720   6.890   1.448   1.999
 4274SOL    HW113721   6.870   1.350   2.006
 4274SOL    HW213722   6.976   1.467   2.046
 4275SOL     OW13723   6.862   2.942   3.403
 4275SOL    HW113724   6.858   3.039   3.428
 4275SOL    HW213725   6.888   2.888   3.484
 4276SOL     OW13726   2.360   5.852   3.482
 4276SOL    HW113727   2.418   5.818   3.556
 4276SOL    HW213728   2.283   5.790   3.468
 4277SOL     OW13729   5.826   5.844   2.559
 4277SOL    HW113730   5.841   5.800   2.471
 4277SOL    HW213731   5.778   5.781   2.620
 4278SOL     OW13732   1.375   6.777   2.089
 4278SOL    HW113733   1.330   6.767   2.178
 4278SOL    HW213734   1.373   6.873   2.061
 4279SOL     OW13735   0.936   1.529   3.493
 4279SOL    HW113736   0.984   1.559   3.410
 4279SOL    HW213737   0.926   1.430   3.491
 4280SOL     OW13738   1.189   6.843   6.534
 4280SOL    HW113739   1.188   6.804   6.626
 4280SOL    HW213740   1.197   6.769   6.466
 4281SOL     OW13741   5.210   5.662   3.118
 4281SOL    HW113742   5.208   5.575   3.069
 4281SOL    HW213743   5.125   5.712   3.102
 4282SOL     OW13744   3.725   4.267   0.877
 4282SOL    HW113745   3.625   4.263   0.879
 4282SOL    HW213746   3.756   4.274   0.782
 4283SOL     OW13747   4.905   1.306   4.787
 4283SOL    HW113748   4.848   1.345   4.715
 4283SOL    HW213749   4.977   1.249   4.745
 4284SOL     OW13750   4.601   5.530   6.250
 4284SOL    HW113751   4.515   5.581   6.241
 4284SOL    HW213752   4.588   5.437   6.215
 4285SOL     OW13753   3.523   0.585   5.530
 4285SOL    HW113754   3.520   0.640   5.614
 4285SOL    HW213755   3.430   0.553   5.508
 4286SOL     OW13756   5.964   0.560   6.268
 4286SOL    HW113757   5.988   0.481   6.212
 4286SOL    HW213758   5.979   0.644   6.215
 4287SOL     OW13759   3.976   0.066   0.510
 4287SOL    HW113760   4.006   0.147   0.460
 4287SOL    HW213761   4.049   7.019   0.513
 4288SOL     OW13762   6.865   6.559   2.682
 4288SOL    HW113763   6.946   6.593   2.633
 4288SOL    HW213764   6.862   6.459   2.674
 4289SOL     OW13765   0.305   4.012   4.335
 4289SOL    HW113766   0.370   4.070   4.385
 4289SOL    HW213767   0.348   3.924   4.313
 4290SOL     OW13768   0.706   1.236   3.531
 4290SOL    HW113769   0.805   1.234   3.514
 4290SOL    HW213770   0.676   1.331   3.541
 4291SOL     OW13771   4.708   3.549   6.256
 4291SOL    HW113772   4.732   3.452   6.246
 4291SOL    HW213773   4.761   3.604   6.192
 4292SOL     OW13774   6.303   2.437   1.336
 4292SOL    HW113775   6.321   2.341   1.313
 4292SOL    HW213776   6.215   2.464   1.298
 4293SOL     OW13777   4.106   3.841   0.015
 4293SOL    HW113778   4.113   3.868   6.939
 4293SOL    HW213779   4.198   3.826   0.052
 4294SOL     OW13780   1.853   2.238   6.536
 4294SOL    HW113781   1.914   2.191   6.472
 4294SOL    HW213782   1.857   2.337   6.520
 4295SOL     OW13783   3.919   6.181   2.961
 4295SOL    HW113784   3.987   6.149   3.026
 4295SOL    HW213785   3.961   6.245   2.897
 4296SOL     OW13786   3.007   6.531   3.106
 4296SOL    HW113787   3.013   6.482   3.019
 4296SOL    HW213788   3.034   6.627   3.092
 4297SOL     OW13789   5.615   5.259   0.331
 4297SOL    HW113790   5.588   5.175   0.284
 4297SOL    HW213791   5.687   5.238   0.397
 4298SOL     OW13792   2.129   6.547   0.811
 4298SOL    HW113793   2.052   6.574   0.753
 4298SOL    HW213794   2.205   6.518   0.753
 4299SOL     OW13795   0.619   2.678   0.124
 4299SOL    HW113796   0.609   2.775   0.100
 4299SOL    HW213797   0.549   2.653   0.190
 4300SOL     OW13798   2.914   0.769   0.983
 4300SOL    HW113799   2.943   0.857   1.021
 4300SOL    HW213800   2.849   0.726   1.046
 4301SOL     OW13801   2.723   6.098   0.393
 4301SOL    HW113802   2.741   6.176   0.453
 4301SOL    HW213803   2.625   6.092   0.375
 4302SOL     OW13804   2.278   5.721   6.107
 4302SOL    HW113805   2.231   5.806   6.085
 4302SOL    HW213806   2.217   5.643   6.089
 4303SOL     OW13807   5.957   5.525   2.719
 4303SOL    HW113808   5.982   5.464   2.645
 4303SOL    HW213809   6.036   5.538   2.780
 4304SOL     OW13810   3.733   3.625   1.415
 4304SOL    HW113811   3.795   3.643   1.339
 4304SOL    HW213812   3.680   3.707   1.436
 4305SOL     OW13813   1.330   6.655   5.470
 4305SOL    HW113814   1.392   6.582   5.443
 4305SOL    HW213815   1.273   6.681   5.393
 4306SOL     OW13816   6.125   4.179   4.987
 4306SOL    HW113817   6.055   4.140   4.927
 4306SOL    HW213818   6.154   4.110   5.054
 4307SOL     OW13819   0.372   1.380   6.029
 4307SOL    HW113820   0.399   1.327   5.948
 4307SOL    HW213821   0.287   1.429   6.010
 4308SOL     OW13822   4.970   5.958   6.747
 4308SOL    HW113823   4.871   5.964   6.759
 4308SOL    HW213824   5.006   5.883   6.802
 4309SOL     OW13825   1.148   1.886   0.704
 4309SOL    HW113826   1.194   1.969   0.736
 4309SOL    HW213827   1.070   1.911   0.647
 4310SOL     OW13828   6.975   2.191   2.737
 4310SOL    HW113829   6.988   2.092   2.743
 4310SOL    HW213830   6.986   2.231   2.828
 4311SOL     OW13831   0.509   0.284   1.716
 4311SOL    HW113832   0.582   0.215   1.719
 4311SOL    HW213833   0.459   0.277   1.629
 4312SOL     OW13834   0.168   4.653   2.551
 4312SOL    HW113835   0.200   4.743   2.522
 4312SOL    HW213836   0.240   4.586   2.537
 4313SOL     OW13837   0.116   2.812   6.671
 4313SOL    HW113838   0.089   2.802   6.767
 4313SOL    HW213839   0.216   2.809   6.664
 4314SOL     OW13840   0.444   1.242   5.788
 4314SOL    HW113841   0.513   1.174   5.813
 4314SOL    HW213842   0.355   1.198   5.781
 4315SOL     OW13843   2.914   1.195   4.365
 4315SOL    HW113844   2.894   1.278   4.313
 4315SOL    HW213845   2.829   1.148   4.388
 4316SOL     OW13846   5.167   6.051   1.349
 4316SOL    HW113847   5.188   5.969   1.296
 4316SOL    HW213848   5.079   6.088   1.320
 4317SOL     OW13849   4.704   0.968   5.850
 4317SOL    HW113850   4.757   0.986   5.933
 4317SOL    HW213851   4.618   0.924   5.875
 4318SOL     OW13852   0.835   0.138   4.314
 4318SOL    HW113853   0.909   0.113   4.251
 4318SOL    HW213854   0.859   0.222   4.362
 4319SOL     OW13855   1.502   5.232   2.903
 4319SOL    HW113856   1.587   5.232   2.956
 4319SOL    HW213857   1.427   5.200   2.961
 4320SOL     OW13858   3.248   6.813   1.269
 4320SOL    HW113859   3.182   6.888   1.269
 4320SOL    HW213860   3.244   6.765   1.182
 4321SOL     OW13861   6.201   6.660   2.926
 4321SOL    HW113862   6.115   6.638   2.882
 4321SOL    HW213863   6.197   6.752   2.965
 4322SOL     OW13864   1.531   3.064   4.968
 4322SOL    HW113865   1.489   3.013   5.044
 4322SOL    HW213866   1.529   3.162   4.988
 4323SOL     OW13867   3.657   4.958   6.840
 4323SOL    HW113868   3.717   4.993   6.767
 4323SOL    HW213869   3.708   4.952   6.925
 4324SOL     OW13870   0.299   4.446   5.856
 4324SOL    HW113871   0.376   4.492   5.812
 4324SOL    HW213872   0.277   4.362   5.807
 4325SOL     OW13873   2.459   0.726   2.696
 4325SOL    HW113874   2.401   0.681   2.629
 4325SOL    HW213875   2.476   0.663   2.772
 4326SOL     OW13876   5.189   2.320   2.609
 4326SOL    HW113877   5.135   2.400   2.585
 4326SOL    HW213878   5.137   2.264   2.675
 4327SOL     OW13879   2.801   6.105   3.585
 4327SOL    HW113880   2.761   6.123   3.495
 4327SOL    HW213881   2.808   6.191   3.636
 4328SOL     OW13882   6.212   7.008   4.508
 4328SOL    HW113883   6.166   6.945   4.445
 4328SOL    HW213884   6.199   6.977   4.602
 4329SOL     OW13885   0.083   1.832   6.205
 4329SOL    HW113886   0.122   1.901   6.144
 4329SOL    HW213887   0.156   1.796   6.264
 4330SOL     OW13888   3.283   4.903   4.583
 4330SOL    HW113889   3.234   4.888   4.670
 4330SOL    HW213890   3.310   4.999   4.576
 4331SOL     OW13891   5.909   1.180   2.116
 4331SOL    HW113892   5.896   1.193   2.018
 4331SOL    HW213893   5.956   1.260   2.154
 4332SOL     OW13894   0.470   5.198   2.172
 4332SOL    HW113895   0.559   5.207   2.127
 4332SOL    HW213896   0.446   5.102   2.181
 4333SOL     OW13897   3.872   2.180   5.951
 4333SOL    HW113898   3.837   2.217   5.865
 4333SOL    HW213899   3.811   2.205   6.026
 4334SOL     OW13900   0.022   3.270   4.407
 4334SOL    HW113901   0.118   3.285   4.433
 4334SOL    HW213902   7.006   3.193   4.459
 4335SOL     OW13903   2.610   3.727   1.461
 4335SOL    HW113904   2.533   3.712   1.523
 4335SOL    HW213905   2.682   3.777   1.510
 4336SOL     OW13906   2.634   5.297   5.834
 4336SOL    HW113907   2.549   5.343   5.861
 4336SOL    HW213908   2.641   5.209   5.882
 4337SOL     OW13909   1.145   5.032   4.049
 4337SOL    HW113910   1.177   5.100   3.983
 4337SOL    HW213911   1.113   5.078   4.132
 4338SOL     OW13912   3.709   1.601   5.553
 4338SOL    HW113913   3.720   1.549   5.468
 4338SOL    HW213914   3.620   1.646   5.553
 4339SOL     OW13915   4.121   3.836   6.301
 4339SOL    HW113916   4.042   3.777   6.283
 4339SOL    HW213917   4.102   3.893   6.381
 4340SOL     OW13918   6.374   4.083   0.923
 4340SOL    HW113919   6.287   4.094   0.874
 4340SOL    HW213920   6.356   4.061   1.018
 4341SOL     OW13921   6.770   0.145   2.397
 4341SOL    HW113922   6.758   0.238   2.364
 4341SOL    HW213923   6.825   0.146   2.481
 4342SOL     OW13924   5.074   3.573   2.664
 4342SOL    HW113925   5.149   3.627   2.701
 4342SOL    HW213926   5.006   3.634   2.624
 4343SOL     OW13927   3.975   6.646   5.764
 4343SOL    HW113928   4.007   6.564   5.811
 4343SOL    HW213929   4.052   6.708   5.748
 4344SOL     OW13930   6.893   3.333   3.590
 4344SOL    HW113931   6.962   3.366   3.654
 4344SOL    HW213932   6.851   3.249   3.626
 4345SOL     OW13933   2.986   3.157   2.612
 4345SOL    HW113934   2.889   3.173   2.626
 4345SOL    HW213935   3.012   3.185   2.520
 4346SOL     OW13936   1.281   3.384   2.568
 4346SOL    HW113937   1.214   3.353   2.636
 4346SOL    HW213938   1.360   3.323   2.569
 4347SOL     OW13939   6.486   5.955   0.324
 4347SOL    HW113940   6.429   5.876   0.303
 4347SOL    HW213941   6.535   5.985   0.242
 4348SOL     OW13942   5.719   5.384   3.894
 4348SOL    HW113943   5.787   5.316   3.921
 4348SOL    HW213944   5.638   5.337   3.859
 4349SOL     OW13945   0.066   3.734   4.091
 4349SOL    HW113946   0.003   3.790   4.037
 4349SOL    HW213947   0.030   3.641   4.097
 4350SOL     OW13948   3.926   1.553   4.854
 4350SOL    HW113949   4.020   1.553   4.822
 4350SOL    HW213950   3.864   1.546   4.776
 4351SOL     OW13951   1.246   6.322   0.426
 4351SOL    HW113952   1.191   6.381   0.485
 4351SOL    HW213953   1.207   6.319   0.334
 4352SOL     OW13954   3.864   3.993   0.929
 4352SOL    HW113955   3.829   4.085   0.911
 4352SOL    HW213956   3.796   3.925   0.904
 4353SOL     OW13957   2.976   2.897   1.311
 4353SOL    HW113958   2.954   2.817   1.367
 4353SOL    HW213959   2.914   2.972   1.335
 4354SOL     OW13960   5.926   0.217   3.510
 4354SOL    HW113961   5.855   0.274   3.468
 4354SOL    HW213962   6.015   0.240   3.470
 4355SOL     OW13963   1.903   5.981   2.737
 4355SOL    HW113964   1.926   5.884   2.738
 4355SOL    HW213965   1.811   5.993   2.698
 4356SOL     OW13966   5.430   2.448   5.753
 4356SOL    HW113967   5.400   2.544   5.752
 4356SOL    HW213968   5.517   2.441   5.703
 4357SOL     OW13969   5.754   0.542   2.163
 4357SOL    HW113970   5.706   0.455   2.148
 4357SOL    HW213971   5.786   0.546   2.257
 4358SOL     OW13972   2.448   0.024   6.873
 4358SOL    HW113973   2.380   0.057   6.808
 4358SOL    HW213974   2.529   7.014   6.824
 4359SOL     OW13975   2.373   2.172   0.352
 4359SOL    HW113976   2.354   2.127   0.439
 4359SOL    HW213977   2.471   2.187   0.342
 4360SOL     OW13978   1.840   3.785   3.739
 4360SOL    HW113979   1.824   3.868   3.793
 4360SOL    HW213980   1.788   3.709   3.779
 4361SOL     OW13981   6.375   1.821   0.903
 4361SOL    HW113982   6.395   1.780   0.814
 4361SOL    HW213983   6.331   1.910   0.890
 4362SOL     OW13984   1.088   5.497   3.216
 4362SOL    HW113985   1.052   5.556   3.143
 4362SOL    HW213986   1.113   5.553   3.295
 4363SOL     OW13987   4.692   1.304   2.757
 4363SOL    HW113988   4.712   1.289   2.853
 4363SOL    HW213989   4.640   1.227   2.721
 4364SOL     OW13990   4.065   3.392   2.538
 4364SOL    HW113991   4.062   3.475   2.594
 4364SOL    HW213992   4.040   3.313   2.594
 4365SOL     OW13993   2.315   2.125   1.556
 4365SOL    HW113994   2.370   2.209   1.554
 4365SOL    HW213995   2.282   2.108   1.649
 4366SOL     OW13996   4.550   5.981   4.758
 4366SOL    HW113997   4.631   5.956   4.706
 4366SOL    HW213998   4.516   5.902   4.808
 4367SOL     OW13999   2.752   5.465   3.107
 4367SOL    HW114000   2.700   5.547   3.082
 4367SOL    HW214001   2.849   5.488   3.109
 4368SOL     OW14002   4.763   3.972   3.277
 4368SOL    HW114003   4.704   4.037   3.325
 4368SOL    HW214004   4.770   3.999   3.181
 4369SOL     OW14005   4.601   4.461   3.279
 4369SOL    HW114006   4.565   4.436   3.369
 4369SOL    HW214007   4.694   4.496   3.288
 4370SOL     OW14008   3.661   4.594   1.620
 4370SOL    HW114009   3.661   4.495   1.615
 4370SOL    HW214010   3.620   4.623   1.707
 4371SOL     OW14011   2.951   1.936   0.814
 4371SOL    HW114012   2.874   1.916   0.754
 4371SOL    HW214013   2.921   1.999   0.886
 4372SOL     OW14014   1.859   3.480   4.838
 4372SOL    HW114015   1.945   3.430   4.837
 4372SOL    HW214016   1.870   3.566   4.787
 4373SOL     OW14017   4.124   1.324   6.178
 4373SOL    HW114018   4.026   1.320   6.160
 4373SOL    HW214019   4.167   1.392   6.119
 4374SOL     OW14020   2.087   0.783   1.321
 4374SOL    HW114021   2.063   0.764   1.225
 4374SOL    HW214022   2.077   0.699   1.374
 4375SOL     OW14023   4.514   1.467   4.279
 4375SOL    HW114024   4.568   1.393   4.320
 4375SOL    HW214025   4.514   1.458   4.180
 4376SOL     OW14026   1.728   6.044   0.054
 4376SOL    HW114027   1.755   5.962   0.004
 4376SOL    HW214028   1.647   6.024   0.110
 4377SOL     OW14029   5.896   0.071   6.321
 4377SOL    HW114030   5.848   7.013   6.281
 4377SOL    HW214031   5.993   0.065   6.299
 4378SOL     OW14032   2.720   5.717   2.376
 4378SOL    HW114033   2.670   5.739   2.460
 4378SOL    HW214034   2.774   5.796   2.348
 4379SOL     OW14035   1.186   0.609   1.813
 4379SOL    HW114036   1.175   0.517   1.851
 4379SOL    HW214037   1.192   0.676   1.887
 4380SOL     OW14038   2.146   5.355   4.657
 4380SOL    HW114039   2.155   5.439   4.604
 4380SOL    HW214040   2.069   5.302   4.622
 4381SOL     OW14041   4.227   6.146   5.789
 4381SOL    HW114042   4.245   6.081   5.717
 4381SOL    HW214043   4.139   6.192   5.772
 4382SOL     OW14044   4.878   3.575   3.415
 4382SOL    HW114045   4.832   3.555   3.502
 4382SOL    HW214046   4.886   3.674   3.404
 4383SOL     OW14047   1.220   2.444   0.019
 4383SOL    HW114048   1.186   2.443   0.113
 4383SOL    HW214049   1.263   2.356   7.020
 4384SOL     OW14050   3.922   6.066   1.388
 4384SOL    HW114051   3.974   6.119   1.321
 4384SOL    HW214052   3.929   6.110   1.478
 4385SOL     OW14053   6.787   1.778   2.581
 4385SOL    HW114054   6.859   1.835   2.541
 4385SOL    HW214055   6.807   1.762   2.677
 4386SOL     OW14056   1.127   3.661   0.025
 4386SOL    HW114057   1.125   3.734   0.094
 4386SOL    HW214058   1.038   3.654   7.002
 4387SOL     OW14059   6.550   3.138   1.735
 4387SOL    HW114060   6.533   3.049   1.692
 4387SOL    HW214061   6.531   3.211   1.670
 4388SOL     OW14062   3.451   1.580   5.148
 4388SOL    HW114063   3.535   1.545   5.106
 4388SOL    HW214064   3.417   1.658   5.095
 4389SOL     OW14065   4.668   2.645   2.721
 4389SOL    HW114066   4.582   2.634   2.771
 4389SOL    HW214067   4.679   2.570   2.656
 4390SOL     OW14068   4.606   2.652   2.233
 4390SOL    HW114069   4.533   2.720   2.230
 4390SOL    HW214070   4.673   2.677   2.303
 4391SOL     OW14071   0.602   5.812   1.017
 4391SOL    HW114072   0.594   5.901   0.973
 4391SOL    HW214073   0.511   5.779   1.043
 4392SOL     OW14074   5.364   3.359   4.603
 4392SOL    HW114075   5.452   3.312   4.602
 4392SOL    HW214076   5.330   3.365   4.696
 4393SOL     OW14077   4.581   6.696   3.474
 4393SOL    HW114078   4.529   6.775   3.443
 4393SOL    HW214079   4.638   6.661   3.399
 4394SOL     OW14080   5.049   1.021   2.265
 4394SOL    HW114081   5.070   1.059   2.175
 4394SOL    HW214082   4.978   1.076   2.309
 4395SOL     OW14083   4.697   1.800   2.039
 4395SOL    HW114084   4.608   1.818   2.081
 4395SOL    HW214085   4.710   1.701   2.029
 4396SOL     OW14086   1.603   0.444   4.043
 4396SOL    HW114087   1.524   0.441   4.105
 4396SOL    HW214088   1.652   0.357   4.047
 4397SOL     OW14089   6.606   0.509   6.050
 4397SOL    HW114090   6.550   0.565   6.112
 4397SOL    HW214091   6.625   0.560   5.967
 4398SOL     OW14092   6.320   4.875   4.690
 4398SOL    HW114093   6.330   4.787   4.645
 4398SOL    HW214094   6.236   4.919   4.658
 4399SOL     OW14095   2.197   1.602   1.919
 4399SOL    HW114096   2.161   1.633   1.831
 4399SOL    HW214097   2.248   1.677   1.962
 4400SOL     OW14098   3.297   6.208   4.646
 4400SOL    HW114099   3.220   6.148   4.668
 4400SOL    HW214100   3.287   6.241   4.552
 4401SOL     OW14101   5.214   6.259   4.873
 4401SOL    HW114102   5.249   6.237   4.783
 4401SOL    HW214103   5.125   6.216   4.886
 4402SOL     OW14104   6.939   0.133   3.366
 4402SOL    HW114105   6.871   0.144   3.439
 4402SOL    HW214106   6.895   0.144   3.277
 4403SOL     OW14107   0.943   6.868   2.618
 4403SOL    HW114108   0.961   6.797   2.686
 4403SOL    HW214109   0.851   6.858   2.582
 4404SOL     OW14110   1.564   4.150   3.299
 4404SOL    HW114111   1.518   4.195   3.375
 4404SOL    HW214112   1.630   4.212   3.257
 4405SOL     OW14113   3.494   4.449   5.910
 4405SOL    HW114114   3.410   4.464   5.963
 4405SOL    HW214115   3.497   4.353   5.880
 4406SOL     OW14116   5.262   3.986   1.396
 4406SOL    HW114117   5.162   3.982   1.401
 4406SOL    HW214118   5.297   3.896   1.370
 4407SOL     OW14119   6.401   6.675   6.901
 4407SOL    HW114120   6.451   6.630   6.974
 4407SOL    HW214121   6.446   6.657   6.813
 4408SOL     OW14122   4.629   5.845   6.811
 4408SOL    HW114123   4.662   5.754   6.787
 4408SOL    HW214124   4.618   5.900   6.728
 4409SOL     OW14125   3.186   1.487   1.988
 4409SOL    HW114126   3.232   1.563   1.942
 4409SOL    HW214127   3.089   1.489   1.967
 4410SOL     OW14128   2.623   5.455   1.700
 4410SOL    HW114129   2.713   5.420   1.729
 4410SOL    HW214130   2.594   5.408   1.618
 4411SOL     OW14131   3.758   3.034   2.344
 4411SOL    HW114132   3.742   2.989   2.256
 4411SOL    HW214133   3.697   2.995   2.413
 4412SOL     OW14134   3.521   2.361   6.550
 4412SOL    HW114135   3.611   2.385   6.515
 4412SOL    HW214136   3.507   2.404   6.639
 4413SOL     OW14137   3.851   5.822   4.457
 4413SOL    HW114138   3.807   5.779   4.379
 4413SOL    HW214139   3.785   5.880   4.505
 4414SOL     OW14140   3.491   5.114   2.191
 4414SOL    HW114141   3.490   5.158   2.102
 4414SOL    HW214142   3.467   5.017   2.181
 4415SOL     OW14143   5.217   2.599   0.212
 4415SOL    HW114144   5.205   2.516   0.158
 4415SOL    HW214145   5.175   2.676   0.164
 4416SOL     OW14146   3.906   0.540   3.437
 4416SOL    HW114147   3.889   0.456   3.386
 4416SOL    HW214148   3.984   0.527   3.498
 4417SOL     OW14149   0.161   0.098   1.713
 4417SOL    HW114150   0.130   0.135   1.801
 4417SOL    HW214151   0.176   0.173   1.648
 4418SOL     OW14152   3.867   6.766   3.412
 4418SOL    HW114153   3.937   6.739   3.478
 4418SOL    HW214154   3.855   6.865   3.415
 4419SOL     OW14155   0.526   5.085   6.601
 4419SOL    HW114156   0.602   5.030   6.635
 4419SOL    HW214157   0.513   5.165   6.659
 4420SOL     OW14158   5.247   1.424   6.587
 4420SOL    HW114159   5.176   1.353   6.589
 4420SOL    HW214160   5.331   1.389   6.628
 4421SOL     OW14161   2.133   1.938   3.619
 4421SOL    HW114162   2.065   1.924   3.690
 4421SOL    HW214163   2.093   1.917   3.529
 4422SOL     OW14164   2.627   3.710   5.936
 4422SOL    HW114165   2.541   3.750   5.970
 4422SOL    HW214166   2.672   3.776   5.876
 4423SOL     OW14167   0.871   2.037   6.619
 4423SOL    HW114168   0.787   2.062   6.572
 4423SOL    HW214169   0.949   2.052   6.559
 4424SOL     OW14170   0.213   0.128   3.156
 4424SOL    HW114171   0.193   0.099   3.250
 4424SOL    HW214172   0.127   0.152   3.109
 4425SOL     OW14173   4.610   4.456   6.963
 4425SOL    HW114174   4.674   4.391   7.006
 4425SOL    HW214175   4.574   4.416   6.879
 4426SOL     OW14176   0.962   0.503   5.597
 4426SOL    HW114177   1.025   0.523   5.522
 4426SOL    HW214178   0.998   0.539   5.683
 4427SOL     OW14179   1.029   7.003   3.771
 4427SOL    HW114180   1.096   7.006   3.697
 4427SOL    HW214181   0.937   7.006   3.732
 4428SOL     OW14182   2.732   5.887   3.142
 4428SOL    HW114183   2.642   5.896   3.184
 4428SOL    HW214184   2.801   5.929   3.202
 4429SOL     OW14185   4.137   6.902   3.222
 4429SOL    HW114186   4.208   6.837   3.195
 4429SOL    HW214187   4.050   6.876   3.180
 4430SOL     OW14188   1.613   0.884   1.766
 4430SOL    HW114189   1.709   0.911   1.758
 4430SOL    HW214190   1.569   0.890   1.676
 4431SOL     OW14191   1.715   2.037   3.127
 4431SOL    HW114192   1.641   2.074   3.184
 4431SOL    HW214193   1.803   2.051   3.172
 4432SOL     OW14194   2.985   3.586   2.769
 4432SOL    HW114195   2.950   3.509   2.822
 4432SOL    HW214196   3.081   3.602   2.793
 4433SOL     OW14197   6.422   0.117   3.066
 4433SOL    HW114198   6.374   0.135   2.981
 4433SOL    HW214199   6.503   0.176   3.071
 4434SOL     OW14200   5.338   2.144   4.711
 4434SOL    HW114201   5.277   2.137   4.790
 4434SOL    HW214202   5.379   2.055   4.692
 4435SOL     OW14203   3.751   2.705   1.747
 4435SOL    HW114204   3.761   2.786   1.805
 4435SOL    HW214205   3.662   2.662   1.766
 4436SOL     OW14206   5.063   0.856   0.020
 4436SOL    HW114207   5.031   0.922   6.973
 4436SOL    HW214208   5.013   0.770   0.010
 4437SOL     OW14209   3.356   6.925   4.666
 4437SOL    HW114210   3.407   6.902   4.584
 4437SOL    HW214211   3.383   7.015   4.699
 4438SOL     OW14212   4.206   3.536   6.234
 4438SOL    HW114213   4.185   3.554   6.138
 4438SOL    HW214214   4.132   3.571   6.291
 4439SOL     OW14215   2.603   5.525   2.222
 4439SOL    HW114216   2.660   5.598   2.259
 4439SOL    HW214217   2.570   5.551   2.131
 4440SOL     OW14218   0.144   0.703   6.115
 4440SOL    HW114219   0.237   0.691   6.149
 4440SOL    HW214220   0.079   0.657   6.175
 4441SOL     OW14221   6.233   2.587   2.980
 4441SOL    HW114222   6.165   2.516   2.999
 4441SOL    HW214223   6.201   2.646   2.906
 4442SOL     OW14224   2.780   6.901   2.779
 4442SOL    HW114225   2.760   6.879   2.684
 4442SOL    HW214226   2.752   6.824   2.837
 4443SOL     OW14227   2.499   1.804   5.309
 4443SOL    HW114228   2.470   1.898   5.327
 4443SOL    HW214229   2.462   1.774   5.221
 4444SOL     OW14230   4.994   0.481   2.248
 4444SOL    HW114231   5.035   0.462   2.337
 4444SOL    HW214232   4.965   0.576   2.244
 4445SOL     OW14233   1.694   1.112   6.232
 4445SOL    HW114234   1.655   1.144   6.318
 4445SOL    HW214235   1.770   1.171   6.205
 4446SOL     OW14236   6.608   6.263   3.726
 4446SOL    HW114237   6.702   6.234   3.708
 4446SOL    HW214238   6.609   6.352   3.771
 4447SOL     OW14239   5.063   2.864   5.489
 4447SOL    HW114240   5.105   2.782   5.527
 4447SOL    HW214241   4.981   2.887   5.542
 4448SOL     OW14242   2.782   2.937   6.265
 4448SOL    HW114243   2.769   3.004   6.339
 4448SOL    HW214244   2.721   2.860   6.279
 4449SOL     OW14245   0.952   1.454   5.120
 4449SOL    HW114246   0.945   1.551   5.144
 4449SOL    HW214247   0.860   1.416   5.108
 4450SOL     OW14248   3.607   4.194   3.636
 4450SOL    HW114249   3.554   4.172   3.718
 4450SOL    HW214250   3.544   4.210   3.559
 4451SOL     OW14251   6.171   4.211   2.116
 4451SOL    HW114252   6.147   4.301   2.152
 4451SOL    HW214253   6.101   4.180   2.051
 4452SOL     OW14254   6.285   5.668   6.468
 4452SOL    HW114255   6.275   5.728   6.548
 4452SOL    HW214256   6.228   5.586   6.481
 4453SOL     OW14257   5.685   2.050   1.535
 4453SOL    HW114258   5.731   1.969   1.572
 4453SOL    HW214259   5.655   2.032   1.442
 4454SOL     OW14260   4.979   3.285   1.654
 4454SOL    HW114261   4.939   3.275   1.745
 4454SOL    HW214262   5.017   3.197   1.624
 4455SOL     OW14263   4.066   1.359   1.993
 4455SOL    HW114264   4.123   1.298   1.939
 4455SOL    HW214265   4.051   1.444   1.942
 4456SOL     OW14266   0.980   5.640   2.976
 4456SOL    HW114267   0.975   5.703   3.053
 4456SOL    HW214268   1.065   5.655   2.925
 4457SOL     OW14269   5.324   2.050   6.393
 4457SOL    HW114270   5.279   2.138   6.383
 4457SOL    HW214271   5.324   2.024   6.490
 4458SOL     OW14272   3.910   1.849   5.870
 4458SOL    HW114273   3.984   1.913   5.891
 4458SOL    HW214274   3.856   1.884   5.793
 4459SOL     OW14275   4.810   6.064   5.124
 4459SOL    HW114276   4.828   6.162   5.121
 4459SOL    HW214277   4.736   6.041   5.060
 4460SOL     OW14278   1.808   1.727   6.171
 4460SOL    HW114279   1.865   1.700   6.094
 4460SOL    HW214280   1.858   1.792   6.229
 4461SOL     OW14281   2.393   0.226   1.996
 4461SOL    HW114282   2.345   0.225   1.908
 4461SOL    HW214283   2.471   0.288   1.991
 4462SOL     OW14284   6.826   5.648   1.841
 4462SOL    HW114285   6.760   5.591   1.792
 4462SOL    HW214286   6.894   5.684   1.777
 4463SOL     OW14287   1.513   3.560   6.030
 4463SOL    HW114288   1.528   3.500   5.951
 4463SOL    HW214289   1.467   3.508   6.102
 4464SOL     OW14290   5.649   3.138   6.553
 4464SOL    HW114291   5.677   3.156   6.459
 4464SOL    HW214292   5.666   3.219   6.609
 4465SOL     OW14293   1.392   6.154   2.180
 4465SOL    HW114294   1.467   6.116   2.234
 4465SOL    HW214295   1.424   6.233   2.129
 4466SOL     OW14296   0.804   2.402   3.958
 4466SOL    HW114297   0.800   2.307   3.989
 4466SOL    HW214298   0.760   2.410   3.869
 4467SOL     OW14299   0.850   6.806   3.148
 4467SOL    HW114300   0.832   6.874   3.077
 4467SOL    HW214301   0.892   6.725   3.107
 4468SOL     OW14302   1.395   2.539   0.365
 4468SOL    HW114303   1.460   2.500   0.299
 4468SOL    HW214304   1.440   2.612   0.417
 4469SOL     OW14305   4.323   0.299   0.071
 4469SOL    HW114306   4.242   0.344   0.035
 4469SOL    HW214307   4.309   0.276   0.167
 4470SOL     OW14308   4.670   4.503   1.379
 4470SOL    HW114309   4.617   4.427   1.418
 4470SOL    HW214310   4.700   4.478   1.287
 4471SOL     OW14311   6.503   3.307   0.747
 4471SOL    HW114312   6.588   3.358   0.732
 4471SOL    HW214313   6.429   3.372   0.765
 4472SOL     OW14314   1.720   4.782   1.982
 4472SOL    HW114315   1.733   4.729   2.066
 4472SOL    HW214316   1.656   4.733   1.923
 4473SOL     OW14317   0.166   6.531   5.276
 4473SOL    HW114318   0.217   6.611   5.308
 4473SOL    HW214319   0.126   6.483   5.354
 4474SOL     OW14320   5.059   0.579   3.636
 4474SOL    HW114321   5.002   0.548   3.712
 4474SOL    HW214322   5.085   0.500   3.579
 4475SOL     OW14323   1.927   4.119   0.504
 4475SOL    HW114324   1.920   4.164   0.415
 4475SOL    HW214325   1.845   4.064   0.520
 4476SOL     OW14326   4.584   6.513   1.886
 4476SOL    HW114327   4.650   6.588   1.879
 4476SOL    HW214328   4.590   6.456   1.804
 4477SOL     OW14329   1.389   1.565   0.739
 4477SOL    HW114330   1.448   1.491   0.771
 4477SOL    HW214331   1.414   1.588   0.645
 4478SOL     OW14332   2.064   5.741   1.712
 4478SOL    HW114333   2.151   5.732   1.759
 4478SOL    HW214334   1.999   5.789   1.770
 4479SOL     OW14335   0.539   0.063   5.026
 4479SOL    HW114336   0.468   7.017   5.000
 4479SOL    HW214337   0.503   0.123   5.098
 4480SOL     OW14338   0.588   4.391   3.579
 4480SOL    HW114339   0.646   4.362   3.503
 4480SOL    HW214340   0.620   4.348   3.664
 4481SOL     OW14341   1.035   0.090   4.608
 4481SOL    HW114342   1.012   0.005   4.560
 4481SOL    HW214343   0.975   0.164   4.576
 4482SOL     OW14344   6.801   4.131   3.964
 4482SOL    HW114345   6.720   4.089   4.007
 4482SOL    HW214346   6.857   4.174   4.034
 4483SOL     OW14347   5.504   2.533   2.163
 4483SOL    HW114348   5.515   2.434   2.166
 4483SOL    HW214349   5.554   2.575   2.239
 4484SOL     OW14350   4.123   2.722   5.545
 4484SOL    HW114351   4.072   2.770   5.474
 4484SOL    HW214352   4.200   2.673   5.502
 4485SOL     OW14353   5.280   1.500   6.338
 4485SOL    HW114354   5.271   1.458   6.428
 4485SOL    HW214355   5.197   1.551   6.317
 4486SOL     OW14356   6.256   2.603   4.209
 4486SOL    HW114357   6.291   2.696   4.205
 4486SOL    HW214358   6.285   2.553   4.127
 4487SOL     OW14359   3.302   3.143   6.407
 4487SOL    HW114360   3.236   3.072   6.434
 4487SOL    HW214361   3.266   3.195   6.330
 4488SOL     OW14362   0.688   1.340   5.195
 4488SOL    HW114363   0.656   1.259   5.145
 4488SOL    HW214364   0.649   1.339   5.287
 4489SOL     OW14365   6.450   0.069   4.113
 4489SOL    HW114366   6.380   0.052   4.043
 4489SOL    HW214367   6.527   0.007   4.098
 4490SOL     OW14368   6.991   2.254   3.765
 4490SOL    HW114369   6.938   2.309   3.830
 4490SOL    HW214370   7.018   2.168   3.808
 4491SOL     OW14371   1.476   3.142   2.846
 4491SOL    HW114372   1.459   3.241   2.853
 4491SOL    HW214373   1.390   3.094   2.835
 4492SOL     OW14374   4.518   3.424   6.572
 4492SOL    HW114375   4.486   3.466   6.487
 4492SOL    HW214376   4.618   3.420   6.571
 4493SOL     OW14377   6.048   5.263   4.116
 4493SOL    HW114378   6.078   5.353   4.084
 4493SOL    HW214379   6.069   5.253   4.213
 4494SOL     OW14380   6.201   4.077   4.049
 4494SOL    HW114381   6.103   4.055   4.044
 4494SOL    HW214382   6.232   4.067   4.144
 4495SOL     OW14383   5.011   6.513   0.954
 4495SOL    HW114384   4.931   6.469   0.994
 4495SOL    HW214385   5.030   6.474   0.864
 4496SOL     OW14386   4.977   3.959   5.432
 4496SOL    HW114387   5.050   3.991   5.491
 4496SOL    HW214388   4.974   4.015   5.349
 4497SOL     OW14389   5.945   5.086   0.381
 4497SOL    HW114390   5.896   5.063   0.297
 4497SOL    HW214391   5.882   5.128   0.446
 4498SOL     OW14392   0.254   3.904   0.042
 4498SOL    HW114393   0.270   3.822   0.098
 4498SOL    HW214394   0.322   3.907   6.989
 4499SOL     OW14395   7.020   3.013   6.030
 4499SOL    HW114396   0.076   2.961   6.066
 4499SOL    HW214397   6.983   3.072   6.102
 4500SOL     OW14398   3.334   4.124   4.424
 4500SOL    HW114399   3.275   4.118   4.344
 4500SOL    HW214400   3.416   4.177   4.401
 4501SOL     OW14401   0.597   4.006   4.893
 4501SOL    HW114402   0.607   4.105   4.886
 4501SOL    HW214403   0.665   3.962   4.835
 4502SOL     OW14404   0.349   3.332   0.368
 4502SOL    HW114405   0.330   3.421   0.408
 4502SOL    HW214406   0.341   3.337   0.268
 4503SOL     OW14407   1.767   1.841   3.405
 4503SOL    HW114408   1.703   1.783   3.356
 4503SOL    HW214409   1.716   1.904   3.464
 4504SOL     OW14410   5.047   1.978   5.032
 4504SOL    HW114411   4.972   2.022   4.983
 4504SOL    HW214412   5.009   1.920   5.104
 4505SOL     OW14413   1.860   5.309   6.048
 4505SOL    HW114414   1.847   5.396   6.097
 4505SOL    HW214415   1.776   5.255   6.054
 4506SOL     OW14416   3.986   0.248   5.623
 4506SOL    HW114417   3.893   0.285   5.632
 4506SOL    HW214418   4.046   0.318   5.586
 4507SOL     OW14419   6.240   4.418   0.574
 4507SOL    HW114420   6.184   4.386   0.651
 4507SOL    HW214421   6.337   4.411   0.599
 4508SOL     OW14422   1.400   3.861   0.601
 4508SOL    HW114423   1.328   3.798   0.629
 4508SOL    HW214424   1.485   3.810   0.587
 4509SOL     OW14425   1.624   1.430   4.078
 4509SOL    HW114426   1.525   1.425   4.066
 4509SOL    HW214427   1.655   1.348   4.126
 4510SOL     OW14428   3.900   6.448   5.152
 4510SOL    HW114429   3.984   6.498   5.172
 4510SOL    HW214430   3.854   6.491   5.073
 4511SOL     OW14431   5.856   2.433   0.255
 4511SOL    HW114432   5.851   2.334   0.244
 4511SOL    HW214433   5.874   2.456   0.350
 4512SOL     OW14434   2.604   5.012   0.027
 4512SOL    HW114435   2.549   4.996   6.966
 4512SOL    HW214436   2.555   5.074   0.089
 4513SOL     OW14437   4.959   0.683   1.814
 4513SOL    HW114438   4.883   0.657   1.874
 4513SOL    HW214439   4.970   0.613   1.743
 4514SOL     OW14440   3.684   1.525   4.966
 4514SOL    HW114441   3.652   1.619   4.953
 4514SOL    HW214442   3.783   1.521   4.951
 4515SOL     OW14443   0.471   5.109   1.190
 4515SOL    HW114444   0.374   5.110   1.165
 4515SOL    HW214445   0.482   5.143   1.283
 4516SOL     OW14446   1.061   0.579   5.022
 4516SOL    HW114447   1.082   0.665   4.974
 4516SOL    HW214448   1.014   0.599   5.108
 4517SOL     OW14449   3.582   6.710   5.165
 4517SOL    HW114450   3.597   6.774   5.240
 4517SOL    HW214451   3.520   6.638   5.195
 4518SOL     OW14452   0.997   1.940   4.542
 4518SOL    HW114453   1.070   1.967   4.479
 4518SOL    HW214454   0.908   1.950   4.497
 4519SOL     OW14455   6.416   2.920   3.960
 4519SOL    HW114456   6.377   2.872   4.039
 4519SOL    HW214457   6.365   3.004   3.944
 4520SOL     OW14458   6.747   3.809   2.821
 4520SOL    HW114459   6.839   3.802   2.782
 4520SOL    HW214460   6.680   3.790   2.750
 4521SOL     OW14461   6.070   1.943   6.608
 4521SOL    HW114462   6.138   2.001   6.653
 4521SOL    HW214463   6.001   1.914   6.675
 4522SOL     OW14464   6.069   0.556   3.813
 4522SOL    HW114465   6.002   0.484   3.795
 4522SOL    HW214466   6.128   0.529   3.889
 4523SOL     OW14467   3.882   3.490   0.097
 4523SOL    HW114468   3.855   3.564   0.157
 4523SOL    HW214469   3.890   3.405   0.149
 4524SOL     OW14470   6.003   6.728   4.915
 4524SOL    HW114471   6.073   6.668   4.876
 4524SOL    HW214472   6.047   6.794   4.976
 4525SOL     OW14473   6.873   1.378   5.094
 4525SOL    HW114474   6.822   1.352   5.012
 4525SOL    HW214475   6.812   1.377   5.173
 4526SOL     OW14476   4.582   0.483   0.889
 4526SOL    HW114477   4.542   0.499   0.980
 4526SOL    HW214478   4.617   0.569   0.853
 4527SOL     OW14479   4.818   0.796   2.764
 4527SOL    HW114480   4.776   0.729   2.826
 4527SOL    HW214481   4.843   0.878   2.816
 4528SOL     OW14482   6.029   0.125   6.646
 4528SOL    HW114483   5.974   0.058   6.694
 4528SOL    HW214484   6.010   0.120   6.548
 4529SOL     OW14485   3.707   6.307   2.718
 4529SOL    HW114486   3.621   6.296   2.667
 4529SOL    HW214487   3.719   6.229   2.780
 4530SOL     OW14488   0.813   3.357   5.373
 4530SOL    HW114489   0.846   3.269   5.339
 4530SOL    HW214490   0.796   3.351   5.471
 4531SOL     OW14491   0.260   3.905   4.032
 4531SOL    HW114492   0.291   3.975   4.096
 4531SOL    HW214493   0.196   3.843   4.078
 4532SOL     OW14494   6.028   1.540   0.959
 4532SOL    HW114495   5.946   1.576   0.913
 4532SOL    HW214496   6.001   1.489   1.040
 4533SOL     OW14497   2.874   6.250   2.652
 4533SOL    HW114498   2.816   6.221   2.575
 4533SOL    HW214499   2.839   6.336   2.689
 4534SOL     OW14500   5.944   4.057   5.407
 4534SOL    HW114501   5.850   4.085   5.389
 4534SOL    HW214502   6.008   4.126   5.371
 4535SOL     OW14503   4.914   2.979   1.795
 4535SOL    HW114504   4.831   3.005   1.846
 4535SOL    HW214505   4.970   2.919   1.851
 4536SOL     OW14506   6.740   0.897   4.454
 4536SOL    HW114507   6.758   0.978   4.398
 4536SOL    HW214508   6.641   0.882   4.459
 4537SOL     OW14509   3.433   2.852   6.237
 4537SOL    HW114510   3.337   2.823   6.234
 4537SOL    HW214511   3.487   2.783   6.285
 4538SOL     OW14512   3.083   1.173   2.832
 4538SOL    HW114513   3.124   1.218   2.752
 4538SOL    HW214514   3.127   1.208   2.915
 4539SOL     OW14515   1.733   1.512   2.976
 4539SOL    HW114516   1.771   1.484   2.887
 4539SOL    HW214517   1.748   1.610   2.988
 4540SOL     OW14518   3.273   3.089   4.611
 4540SOL    HW114519   3.182   3.124   4.633
 4540SOL    HW214520   3.282   2.995   4.643
 4541SOL     OW14521   4.977   1.535   1.335
 4541SOL    HW114522   5.057   1.544   1.395
 4541SOL    HW214523   4.899   1.504   1.389
 4542SOL     OW14524   4.532   0.424   2.984
 4542SOL    HW114525   4.508   0.465   3.072
 4542SOL    HW214526   4.488   0.334   2.976
 4543SOL     OW14527   5.618   1.648   1.871
 4543SOL    HW114528   5.673   1.710   1.816
 4543SOL    HW214529   5.535   1.694   1.901
 4544SOL     OW14530   3.680   4.818   6.087
 4544SOL    HW114531   3.746   4.755   6.046
 4544SOL    HW214532   3.591   4.808   6.042
 4545SOL     OW14533   4.001   2.233   5.554
 4545SOL    HW114534   3.953   2.170   5.615
 4545SOL    HW214535   4.096   2.242   5.584
 4546SOL     OW14536   1.305   6.479   6.065
 4546SOL    HW114537   1.385   6.528   6.029
 4546SOL    HW214538   1.257   6.434   5.990
 4547SOL     OW14539   4.460   1.839   2.128
 4547SOL    HW114540   4.364   1.850   2.102
 4547SOL    HW214541   4.470   1.861   2.225
 4548SOL     OW14542   1.194   3.450   3.746
 4548SOL    HW114543   1.189   3.493   3.656
 4548SOL    HW214544   1.186   3.351   3.736
 4549SOL     OW14545   6.510   2.802   2.669
 4549SOL    HW114546   6.511   2.736   2.744
 4549SOL    HW214547   6.491   2.754   2.583
 4550SOL     OW14548   1.262   6.070   4.206
 4550SOL    HW114549   1.216   6.036   4.287
 4550SOL    HW214550   1.354   6.031   4.200
 4551SOL     OW14551   1.005   2.917   5.742
 4551SOL    HW114552   0.940   2.957   5.677
 4551SOL    HW214553   0.954   2.863   5.809
 4552SOL     OW14554   6.995   3.449   4.762
 4552SOL    HW114555   0.011   3.367   4.719
 4552SOL    HW214556   0.046   3.519   4.766
 4553SOL     OW14557   4.923   4.938   0.356
 4553SOL    HW114558   4.881   4.847   0.364
 4553SOL    HW214559   5.021   4.927   0.341
 4554SOL     OW14560   5.268   6.919   2.589
 4554SOL    HW114561   5.218   7.003   2.566
 4554SOL    HW214562   5.245   6.848   2.523
 4555SOL     OW14563   5.382   1.903   6.916
 4555SOL    HW114564   5.461   1.916   6.976
 4555SOL    HW214565   5.331   1.822   6.944
 4556SOL     OW14566   4.874   1.016   4.106
 4556SOL    HW114567   4.810   0.964   4.050
 4556SOL    HW214568   4.901   1.099   4.057
 4557SOL     OW14569   5.039   0.013   5.534
 4557SOL    HW114570   5.000   0.013   5.626
 4557SOL    HW214571   5.092   6.951   5.520
 4558SOL     OW14572   6.374   3.097   6.481
 4558SOL    HW114573   6.367   3.171   6.414
 4558SOL    HW214574   6.300   3.031   6.467
 4559SOL     OW14575   1.210   6.938   1.133
 4559SOL    HW114576   1.275   6.916   1.060
 4559SOL    HW214577   1.222   0.013   1.160
 4560SOL     OW14578   5.040   3.331   3.062
 4560SOL    HW114579   5.002   3.419   3.092
 4560SOL    HW214580   5.024   3.262   3.132
 4561SOL     OW14581   3.138   0.145   6.593
 4561SOL    HW114582   3.089   0.175   6.511
 4561SOL    HW214583   3.231   0.181   6.592
 4562SOL     OW14584   2.895   4.785   6.339
 4562SOL    HW114585   2.854   4.830   6.259
 4562SOL    HW214586   2.964   4.846   6.379
 4563SOL     OW14587   6.415   2.477   6.726
 4563SOL    HW114588   6.432   2.485   6.824
 4563SOL    HW214589   6.477   2.537   6.676
 4564SOL     OW14590   1.530   5.645   0.303
 4564SOL    HW114591   1.503   5.591   0.383
 4564SOL    HW214592   1.560   5.584   0.230
 4565SOL     OW14593   2.535   0.387   5.356
 4565SOL    HW114594   2.553   0.418   5.262
 4565SOL    HW214595   2.546   0.464   5.419
 4566SOL     OW14596   6.998   1.664   6.574
 4566SOL    HW114597   0.062   1.661   6.520
 4566SOL    HW214598   7.018   1.703   6.664
 4567SOL     OW14599   0.221   1.120   0.801
 4567SOL    HW114600   0.300   1.059   0.810
 4567SOL    HW214601   0.249   1.206   0.759
 4568SOL     OW14602   3.902   4.456   5.311
 4568SOL    HW114603   3.833   4.526   5.327
 4568SOL    HW214604   3.986   4.499   5.278
 4569SOL     OW14605   0.524   2.284   4.798
 4569SOL    HW114606   0.442   2.249   4.844
 4569SOL    HW214607   0.572   2.208   4.754
 4570SOL     OW14608   0.801   4.999   3.812
 4570SOL    HW114609   0.800   5.044   3.901
 4570SOL    HW214610   0.819   5.066   3.740
 4571SOL     OW14611   3.323   2.895   4.808
 4571SOL    HW114612   3.259   2.914   4.882
 4571SOL    HW214613   3.411   2.939   4.827
 4572SOL     OW14614   1.724   6.021   1.083
 4572SOL    HW114615   1.627   6.025   1.061
 4572SOL    HW214616   1.742   5.943   1.143
 4573SOL     OW14617   5.116   6.985   1.150
 4573SOL    HW114618   5.114   0.059   1.120
 4573SOL    HW214619   5.172   6.931   1.088
 4574SOL     OW14620   0.627   4.729   2.392
 4574SOL    HW114621   0.615   4.798   2.320
 4574SOL    HW214622   0.699   4.665   2.365
 4575SOL     OW14623   6.163   0.356   2.951
 4575SOL    HW114624   6.127   0.298   2.878
 4575SOL    HW214625   6.165   0.451   2.921
 4576SOL     OW14626   2.667   5.733   5.348
 4576SOL    HW114627   2.638   5.820   5.388
 4576SOL    HW214628   2.681   5.745   5.249
 4577SOL     OW14629   0.890   2.927   3.482
 4577SOL    HW114630   0.968   2.980   3.513
 4577SOL    HW214631   0.869   2.951   3.387
 4578SOL     OW14632   6.646   4.318   3.857
 4578SOL    HW114633   6.716   4.250   3.879
 4578SOL    HW214634   6.563   4.297   3.908
 4579SOL     OW14635   5.900   1.767   3.820
 4579SOL    HW114636   5.849   1.844   3.782
 4579SOL    HW214637   5.901   1.692   3.754
 4580SOL     OW14638   7.015   5.765   0.698
 4580SOL    HW114639   6.986   5.723   0.784
 4580SOL    HW214640   0.044   5.697   0.643
 4581SOL     OW14641   3.618   6.012   2.823
 4581SOL    HW114642   3.596   6.018   2.726
 4581SOL    HW214643   3.549   6.061   2.876
 4582SOL     OW14644   4.658   6.405   2.110
 4582SOL    HW114645   4.583   6.433   2.169
 4582SOL    HW214646   4.660   6.462   2.028
 4583SOL     OW14647   4.404   1.697   5.866
 4583SOL    HW114648   4.347   1.754   5.807
 4583SOL    HW214649   4.346   1.628   5.910
 4584SOL     OW14650   0.520   5.484   5.475
 4584SOL    HW114651   0.486   5.458   5.565
 4584SOL    HW214652   0.606   5.535   5.485
 4585SOL     OW14653   4.109   6.443   2.353
 4585SOL    HW114654   4.031   6.481   2.403
 4585SOL    HW214655   4.094   6.346   2.337
 4586SOL     OW14656   3.521   5.277   2.452
 4586SOL    HW114657   3.558   5.243   2.366
 4586SOL    HW214658   3.490   5.200   2.508
 4587SOL     OW14659   1.897   4.163   1.866
 4587SOL    HW114660   1.911   4.237   1.932
 4587SOL    HW214661   1.947   4.183   1.782
 4588SOL     OW14662   4.258   3.616   5.149
 4588SOL    HW114663   4.222   3.582   5.062
 4588SOL    HW214664   4.182   3.631   5.213
 4589SOL     OW14665   6.540   2.408   4.638
 4589SOL    HW114666   6.479   2.460   4.698
 4589SOL    HW214667   6.532   2.311   4.658
 4590SOL     OW14668   4.854   5.775   2.272
 4590SOL    HW114669   4.776   5.838   2.265
 4590SOL    HW214670   4.878   5.742   2.181
 4591SOL     OW14671   5.583   6.160   5.548
 4591SOL    HW114672   5.507   6.169   5.613
 4591SOL    HW214673   5.548   6.128   5.460
 4592SOL     OW14674   3.877   2.057   6.504
 4592SOL    HW114675   3.855   2.019   6.414
 4592SOL    HW214676   3.810   2.027   6.571
 4593SOL     OW14677   3.896   6.008   2.695
 4593SOL    HW114678   3.850   6.016   2.784
 4593SOL    HW214679   3.951   6.090   2.679
 4594SOL     OW14680   2.600   0.814   1.917
 4594SOL    HW114681   2.673   0.781   1.857
 4594SOL    HW214682   2.523   0.845   1.861
 4595SOL     OW14683   3.872   2.586   5.980
 4595SOL    HW114684   3.905   2.681   5.978
 4595SOL    HW214685   3.944   2.526   6.016
 4596SOL     OW14686   5.652   0.066   1.801
 4596SOL    HW114687   5.601   0.126   1.863
 4596SOL    HW214688   5.727   0.116   1.760
 4597SOL     OW14689   6.245   4.870   6.750
 4597SOL    HW114690   6.158   4.878   6.799
 4597SOL    HW214691   6.302   4.801   6.794
 4598SOL     OW14692   2.802   4.566   6.768
 4598SOL    HW114693   2.829   4.508   6.691
 4598SOL    HW214694   2.741   4.515   6.828
 4599SOL     OW14695   1.476   4.690   0.352
 4599SOL    HW114696   1.458   4.728   0.261
 4599SOL    HW214697   1.464   4.762   0.421
 4600SOL     OW14698   3.165   5.695   1.196
 4600SOL    HW114699   3.156   5.677   1.098
 4600SOL    HW214700   3.207   5.785   1.209
 4601SOL     OW14701   2.037   6.030   5.105
 4601SOL    HW114702   2.103   5.955   5.100
 4601SOL    HW214703   2.086   6.117   5.114
 4602SOL     OW14704   1.885   0.594   1.232
 4602SOL    HW114705   1.918   0.634   1.147
 4602SOL    HW214706   1.835   0.510   1.212
 4603SOL     OW14707   3.779   6.773   1.626
 4603SOL    HW114708   3.796   6.872   1.631
 4603SOL    HW214709   3.720   6.746   1.701
 4604SOL     OW14710   3.398   6.728   2.462
 4604SOL    HW114711   3.458   6.794   2.506
 4604SOL    HW214712   3.305   6.765   2.457
 4605SOL     OW14713   5.041   6.943   4.811
 4605SOL    HW114714   5.071   0.017   4.821
 4605SOL    HW214715   4.958   6.940   4.755
 4606SOL     OW14716   7.009   6.023   5.559
 4606SOL    HW114717   6.915   6.051   5.540
 4606SOL    HW214718   0.041   6.103   5.589
 4607SOL     OW14719   3.224   2.048   1.099
 4607SOL    HW114720   3.136   2.048   1.051
 4607SOL    HW214721   3.215   1.996   1.184
 4608SOL     OW14722   1.575   4.081   5.312
 4608SOL    HW114723   1.576   4.178   5.333
 4608SOL    HW214724   1.545   4.067   5.218
 4609SOL     OW14725   4.422   6.475   6.642
 4609SOL    HW114726   4.327   6.490   6.669
 4609SOL    HW214727   4.475   6.559   6.658
 4610SOL     OW14728   0.697   3.056   6.675
 4610SOL    HW114729   0.636   2.998   6.730
 4610SOL    HW214730   0.644   3.105   6.606
 4611SOL     OW14731   0.735   4.113   0.314
 4611SOL    HW114732   0.722   4.067   0.226
 4611SOL    HW214733   0.791   4.055   0.373
 4612SOL     OW14734   2.148   6.881   6.723
 4612SOL    HW114735   2.129   6.890   6.821
 4612SOL    HW214736   2.233   6.830   6.710
 4613SOL     OW14737   3.251   5.038   1.992
 4613SOL    HW114738   3.250   4.941   1.966
 4613SOL    HW214739   3.180   5.087   1.941
 4614SOL     OW14740   1.711   5.505   0.120
 4614SOL    HW114741   1.623   5.463   0.099
 4614SOL    HW214742   1.783   5.463   0.065
 4615SOL     OW14743   0.287   2.370   0.427
 4615SOL    HW114744   0.193   2.379   0.395
 4615SOL    HW214745   0.350   2.375   0.350
 4616SOL     OW14746   5.745   0.966   6.547
 4616SOL    HW114747   5.797   0.912   6.480
 4616SOL    HW214748   5.746   1.062   6.520
 4617SOL     OW14749   0.326   2.929   2.290
 4617SOL    HW114750   0.247   2.952   2.235
 4617SOL    HW214751   0.389   3.007   2.292
 4618SOL     OW14752   0.978   2.040   6.076
 4618SOL    HW114753   0.926   1.977   6.019
 4618SOL    HW214754   0.915   2.089   6.137
 4619SOL     OW14755   3.605   0.770   3.733
 4619SOL    HW114756   3.579   0.705   3.804
 4619SOL    HW214757   3.569   0.860   3.755
 4620SOL     OW14758   2.296   3.706   6.542
 4620SOL    HW114759   2.388   3.727   6.509
 4620SOL    HW214760   2.286   3.740   6.636
 4621SOL     OW14761   0.001   5.897   6.268
 4621SOL    HW114762   6.936   5.869   6.311
 4621SOL    HW214763   7.009   5.986   6.224
 4622SOL     OW14764   2.380   3.844   1.248
 4622SOL    HW114765   2.423   3.918   1.300
 4622SOL    HW214766   2.410   3.756   1.285
 4623SOL     OW14767   5.947   4.462   2.011
 4623SOL    HW114768   6.026   4.481   2.069
 4623SOL    HW214769   5.895   4.547   1.997
 4624SOL     OW14770   5.017   6.685   5.081
 4624SOL    HW114771   4.956   6.612   5.051
 4624SOL    HW214772   5.006   6.764   5.021
 4625SOL     OW14773   0.783   3.357   6.961
 4625SOL    HW114774   0.818   3.437   6.912
 4625SOL    HW214775   0.811   3.362   0.037
 4626SOL     OW14776   6.360   5.165   1.477
 4626SOL    HW114777   6.287   5.142   1.541
 4626SOL    HW214778   6.438   5.203   1.526
 4627SOL     OW14779   3.182   6.893   6.425
 4627SOL    HW114780   3.214   6.891   6.520
 4627SOL    HW214781   3.256   6.868   6.363
 4628SOL     OW14782   0.044   3.813   1.844
 4628SOL    HW114783   0.120   3.767   1.890
 4628SOL    HW214784   6.980   3.797   1.896
 4629SOL     OW14785   2.498   4.976   5.455
 4629SOL    HW114786   2.554   5.011   5.380
 4629SOL    HW214787   2.536   4.888   5.486
 4630SOL     OW14788   1.714   6.799   2.668
 4630SOL    HW114789   1.696   6.702   2.686
 4630SOL    HW214790   1.734   6.845   2.754
 4631SOL     OW14791   3.205   7.011   2.443
 4631SOL    HW114792   3.161   6.935   2.491
 4631SOL    HW214793   3.164   0.000   2.353
 4632SOL     OW14794   5.099   5.422   4.145
 4632SOL    HW114795   5.043   5.397   4.067
 4632SOL    HW214796   5.194   5.432   4.117
 4633SOL     OW14797   6.354   2.430   5.064
 4633SOL    HW114798   6.336   2.332   5.056
 4633SOL    HW214799   6.268   2.478   5.080
 4634SOL     OW14800   3.286   4.255   0.686
 4634SOL    HW114801   3.253   4.167   0.720
 4634SOL    HW214802   3.275   4.259   0.587
 4635SOL     OW14803   5.446   3.932   1.602
 4635SOL    HW114804   5.539   3.907   1.575
 4635SOL    HW214805   5.392   3.951   1.520
 4636SOL     OW14806   2.327   5.157   0.609
 4636SOL    HW114807   2.290   5.130   0.520
 4636SOL    HW214808   2.290   5.097   0.680
 4637SOL     OW14809   1.447   1.313   5.295
 4637SOL    HW114810   1.469   1.299   5.198
 4637SOL    HW214811   1.521   1.276   5.351
 4638SOL     OW14812   5.343   3.369   5.444
 4638SOL    HW114813   5.282   3.425   5.388
 4638SOL    HW214814   5.334   3.273   5.419
 4639SOL     OW14815   0.116   3.979   5.078
 4639SOL    HW114816   0.102   3.920   4.999
 4639SOL    HW214817   0.035   4.038   5.090
 4640SOL     OW14818   5.846   3.849   2.739
 4640SOL    HW114819   5.826   3.942   2.707
 4640SOL    HW214820   5.764   3.809   2.779
 4641SOL     OW14821   2.050   4.930   5.347
 4641SOL    HW114822   2.010   4.955   5.258
 4641SOL    HW214823   2.136   4.979   5.359
 4642SOL     OW14824   5.545   6.197   4.063
 4642SOL    HW114825   5.497   6.227   3.981
 4642SOL    HW214826   5.634   6.242   4.068
 4643SOL     OW14827   4.166   1.918   1.281
 4643SOL    HW114828   4.190   1.823   1.299
 4643SOL    HW214829   4.112   1.954   1.357
 4644SOL     OW14830   2.136   5.509   5.105
 4644SOL    HW114831   2.058   5.449   5.087
 4644SOL    HW214832   2.121   5.559   5.190
 4645SOL     OW14833   2.082   5.995   4.813
 4645SOL    HW114834   2.033   6.010   4.899
 4645SOL    HW214835   2.094   5.897   4.798
 4646SOL     OW14836   4.015   0.294   1.469
 4646SOL    HW114837   4.095   0.267   1.523
 4646SOL    HW214838   3.934   0.298   1.529
 4647SOL     OW14839   6.641   0.388   4.621
 4647SOL    HW114840   6.672   0.343   4.705
 4647SOL    HW214841   6.602   0.319   4.559
 4648SOL     OW14842   2.363   6.076   2.881
 4648SOL    HW114843   2.357   6.145   2.953
 4648SOL    HW214844   2.282   6.083   2.822
 4649SOL     OW14845   5.838   0.030   5.723
 4649SOL    HW114846   5.819   0.086   5.804
 4649SOL    HW214847   5.857   0.090   5.645
 4650SOL     OW14848   6.406   4.493   2.302
 4650SOL    HW114849   6.454   4.406   2.285
 4650SOL    HW214850   6.469   4.569   2.287
 4651SOL     OW14851   0.143   2.363   1.754
 4651SOL    HW114852   0.193   2.389   1.837
 4651SOL    HW214853   0.154   2.435   1.685
 4652SOL     OW14854   6.952   6.135   6.172
 4652SOL    HW114855   6.966   6.178   6.084
 4652SOL    HW214856   6.855   6.140   6.197
 4653SOL     OW14857   0.673   5.859   0.012
 4653SOL    HW114858   0.702   5.924   0.083
 4653SOL    HW214859   0.624   5.783   0.055
 4654SOL     OW14860   1.173   0.974   6.980
 4654SOL    HW114861   1.257   1.023   6.957
 4654SOL    HW214862   1.111   1.035   0.007
 4655SOL     OW14863   0.234   4.789   3.474
 4655SOL    HW114864   0.170   4.865   3.489
 4655SOL    HW214865   0.278   4.799   3.385
 4656SOL     OW14866   1.747   6.684   3.378
 4656SOL    HW114867   1.653   6.659   3.400
 4656SOL    HW214868   1.799   6.692   3.463
 4657SOL     OW14869   5.947   0.424   0.345
 4657SOL    HW114870   5.872   0.459   0.401
 4657SOL    HW214871   5.911   0.388   0.259
 4658SOL     OW14872   5.317   0.550   3.433
 4658SOL    HW114873   5.394   0.514   3.485
 4658SOL    HW214874   5.293   0.486   3.360
 4659SOL     OW14875   1.892   2.474   4.955
 4659SOL    HW114876   1.821   2.404   4.952
 4659SOL    HW214877   1.873   2.537   5.030
 4660SOL     OW14878   0.162   0.370   6.025
 4660SOL    HW114879   0.166   0.271   6.035
 4660SOL    HW214880   0.069   0.402   6.044
 4661SOL     OW14881   4.048   3.767   3.725
 4661SOL    HW114882   3.999   3.817   3.797
 4661SOL    HW214883   3.999   3.776   3.639
 4662SOL     OW14884   5.043   0.375   5.348
 4662SOL    HW114885   5.044   0.382   5.447
 4662SOL    HW214886   4.949   0.381   5.314
 4663SOL     OW14887   0.253   2.162   2.632
 4663SOL    HW114888   0.305   2.243   2.658
 4663SOL    HW214889   0.161   2.166   2.672
 4664SOL     OW14890   3.043   2.095   6.812
 4664SOL    HW114891   3.119   2.159   6.825
 4664SOL    HW214892   3.006   2.106   6.720
 4665SOL     OW14893   5.557   0.684   0.353
 4665SOL    HW114894   5.541   0.714   0.447
 4665SOL    HW214895   5.469   0.659   0.311
 4666SOL     OW14896   2.224   1.351   0.804
 4666SOL    HW114897   2.260   1.436   0.765
 4666SOL    HW214898   2.193   1.367   0.897
 4667SOL     OW14899   0.810   5.291   5.928
 4667SOL    HW114900   0.811   5.196   5.958
 4667SOL    HW214901   0.718   5.328   5.936
 4668SOL     OW14902   6.556   1.861   3.923
 4668SOL    HW114903   6.462   1.844   3.953
 4668SOL    HW214904   6.614   1.784   3.951
 4669SOL     OW14905   2.295   0.367   0.727
 4669SOL    HW114906   2.382   0.401   0.691
 4669SOL    HW214907   2.250   0.439   0.779
 4670SOL     OW14908   2.026   1.719   3.960
 4670SOL    HW114909   2.119   1.754   3.965
 4670SOL    HW214910   1.961   1.795   3.961
 4671SOL     OW14911   5.844   3.922   0.742
 4671SOL    HW114912   5.774   3.968   0.688
 4671SOL    HW214913   5.854   3.827   0.711
 4672SOL     OW14914   2.163   3.846   5.888
 4672SOL    HW114915   2.173   3.761   5.837
 4672SOL    HW214916   2.236   3.910   5.863
 4673SOL     OW14917   4.153   0.755   2.848
 4673SOL    HW114918   4.148   0.851   2.822
 4673SOL    HW214919   4.089   0.737   2.923
 4674SOL     OW14920   4.751   6.050   6.310
 4674SOL    HW114921   4.805   5.984   6.257
 4674SOL    HW214922   4.774   6.143   6.281
 4675SOL     OW14923   0.752   4.327   0.004
 4675SOL    HW114924   0.700   4.369   0.079
 4675SOL    HW214925   0.849   4.347   0.016
 4676SOL     OW14926   1.039   5.757   3.804
 4676SOL    HW114927   1.089   5.671   3.808
 4676SOL    HW214928   1.087   5.827   3.857
 4677SOL     OW14929   1.536   3.135   0.375
 4677SOL    HW114930   1.509   3.223   0.415
 4677SOL    HW214931   1.530   3.063   0.444
 4678SOL     OW14932   2.506   4.524   2.353
 4678SOL    HW114933   2.551   4.505   2.440
 4678SOL    HW214934   2.573   4.559   2.288
 4679SOL     OW14935   5.059   6.911   1.640
 4679SOL    HW114936   5.089   6.991   1.692
 4679SOL    HW214937   5.082   6.828   1.690
 4680SOL     OW14938   2.198   1.327   1.584
 4680SOL    HW114939   2.120   1.293   1.531
 4680SOL    HW214940   2.176   1.319   1.682
 4681SOL     OW14941   4.968   4.775   1.170
 4681SOL    HW114942   4.963   4.697   1.232
 4681SOL    HW214943   5.054   4.824   1.184
 4682SOL     OW14944   3.997   3.633   6.616
 4682SOL    HW114945   4.030   3.726   6.598
 4682SOL    HW214946   4.024   3.605   6.708
 4683SOL     OW14947   6.221   4.423   3.417
 4683SOL    HW114948   6.186   4.330   3.430
 4683SOL    HW214949   6.153   4.489   3.448
 4684SOL     OW14950   5.223   6.908   6.953
 4684SOL    HW114951   5.223   6.844   0.008
 4684SOL    HW214952   5.298   6.885   6.890
 4685SOL     OW14953   3.022   3.375   5.851
 4685SOL    HW114954   3.024   3.290   5.797
 4685SOL    HW214955   2.930   3.414   5.848
 4686SOL     OW14956   2.844   5.087   0.147
 4686SOL    HW114957   2.788   5.032   0.085
 4686SOL    HW214958   2.788   5.120   0.222
 4687SOL     OW14959   2.880   0.986   3.150
 4687SOL    HW114960   2.812   1.053   3.179
 4687SOL    HW214961   2.877   0.977   3.050
 4688SOL     OW14962   5.778   3.241   5.519
 4688SOL    HW114963   5.861   3.206   5.563
 4688SOL    HW214964   5.742   3.172   5.456
 4689SOL     OW14965   5.641   1.374   1.758
 4689SOL    HW114966   5.642   1.445   1.828
 4689SOL    HW214967   5.680   1.289   1.796
 4690SOL     OW14968   2.766   1.826   0.655
 4690SOL    HW114969   2.715   1.898   0.608
 4690SOL    HW214970   2.725   1.737   0.632
 4691SOL     OW14971   6.962   4.173   2.052
 4691SOL    HW114972   6.899   4.108   2.094
 4691SOL    HW214973   0.036   4.146   2.071
 4692SOL     OW14974   5.544   3.936   2.319
 4692SOL    HW114975   5.606   3.997   2.269
 4692SOL    HW214976   5.476   3.899   2.256
 4693SOL     OW14977   2.148   1.036   3.885
 4693SOL    HW114978   2.093   0.984   3.820
 4693SOL    HW214979   2.202   0.974   3.941
 4694SOL     OW14980   1.919   1.200   0.150
 4694SOL    HW114981   1.916   1.289   0.195
 4694SOL    HW214982   1.839   1.146   0.178
 4695SOL     OW14983   0.902   6.218   1.443
 4695SOL    HW114984   0.939   6.299   1.398
 4695SOL    HW214985   0.973   6.149   1.452
 4696SOL     OW14986   1.081   5.274   5.685
 4696SOL    HW114987   1.129   5.356   5.716
 4696SOL    HW214988   0.986   5.297   5.664
 4697SOL     OW14989   3.747   4.799   0.936
 4697SOL    HW114990   3.802   4.719   0.963
 4697SOL    HW214991   3.654   4.769   0.915
 4698SOL     OW14992   5.411   1.252   3.298
 4698SOL    HW114993   5.454   1.163   3.280
 4698SOL    HW214994   5.482   1.319   3.320
 4699SOL     OW14995   1.103   0.085   2.767
 4699SOL    HW114996   1.066   7.018   2.734
 4699SOL    HW214997   1.191   0.102   2.721
 4700SOL     OW14998   6.405   1.993   2.797
 4700SOL    HW114999   6.322   1.980   2.852
 4700SOL    HW215000   6.399   2.080   2.747
 4701SOL     OW15001   3.270   2.164   1.805
 4701SOL    HW115002   3.330   2.223   1.751
 4701SOL    HW215003   3.318   2.133   1.887
 4702SOL     OW15004   5.501   4.410   6.500
 4702SOL    HW115005   5.598   4.393   6.479
 4702SOL    HW215006   5.445   4.341   6.454
 4703SOL     OW15007   0.845   5.140   3.584
 4703SOL    HW115008   0.923   5.110   3.529
 4703SOL    HW215009   0.794   5.210   3.534
 4704SOL     OW15010   1.108   4.743   5.169
 4704SOL    HW115011   1.091   4.655   5.214
 4704SOL    HW215012   1.024   4.796   5.165
 4705SOL     OW15013   3.469   2.316   1.694
 4705SOL    HW115014   3.539   2.301   1.764
 4705SOL    HW215015   3.509   2.369   1.619
 4706SOL     OW15016   2.146   0.376   0.449
 4706SOL    HW115017   2.221   0.351   0.511
 4706SOL    HW215018   2.152   0.321   0.366
 4707SOL     OW15019   1.930   5.723   1.473
 4707SOL    HW115020   1.984   5.733   1.390
 4707SOL    HW215021   1.990   5.729   1.553
 4708SOL     OW15022   0.579   3.137   4.227
 4708SOL    HW115023   0.598   3.041   4.206
 4708SOL    HW215024   0.483   3.157   4.207
 4709SOL     OW15025   4.741   3.785   5.357
 4709SOL    HW115026   4.777   3.871   5.320
 4709SOL    HW215027   4.700   3.732   5.283
 4710SOL     OW15028   6.121   6.425   4.306
 4710SOL    HW115029   6.061   6.432   4.227
 4710SOL    HW215030   6.104   6.338   4.353
 4711SOL     OW15031   5.718   3.332   3.383
 4711SOL    HW115032   5.741   3.409   3.442
 4711SOL    HW215033   5.711   3.248   3.438
 4712SOL     OW15034   4.516   3.987   5.298
 4712SOL    HW115035   4.539   3.989   5.395
 4712SOL    HW215036   4.422   3.953   5.287
 4713SOL     OW15037   6.262   4.243   1.360
 4713SOL    HW115038   6.275   4.159   1.309
 4713SOL    HW215039   6.179   4.289   1.328
 4714SOL     OW15040   5.626   1.409   6.043
 4714SOL    HW115041   5.661   1.462   5.965
 4714SOL    HW215042   5.572   1.469   6.102
 4715SOL     OW15043   6.090   1.425   1.909
 4715SOL    HW115044   6.114   1.328   1.910
 4715SOL    HW215045   6.157   1.476   1.856
 4716SOL     OW15046   3.827   4.344   5.984
 4716SOL    HW115047   3.750   4.346   6.047
 4716SOL    HW215048   3.793   4.334   5.890
 4717SOL     OW15049   2.600   5.216   4.846
 4717SOL    HW115050   2.535   5.150   4.881
 4717SOL    HW215051   2.691   5.174   4.842
 4718SOL     OW15052   4.733   4.617   0.364
 4718SOL    HW115053   4.675   4.669   0.301
 4718SOL    HW215054   4.820   4.595   0.320
 4719SOL     OW15055   0.204   4.035   3.787
 4719SOL    HW115056   0.208   3.978   3.869
 4719SOL    HW215057   0.166   4.124   3.810
 4720SOL     OW15058   2.672   4.003   0.109
 4720SOL    HW115059   2.719   3.951   0.037
 4720SOL    HW215060   2.706   3.975   0.198
 4721SOL     OW15061   6.126   3.300   3.425
 4721SOL    HW115062   6.198   3.279   3.491
 4721SOL    HW215063   6.042   3.324   3.474
 4722SOL     OW15064   1.683   4.427   6.871
 4722SOL    HW115065   1.667   4.339   6.915
 4722SOL    HW215066   1.758   4.419   6.805
 4723SOL     OW15067   3.725   4.065   6.974
 4723SOL    HW115068   3.799   4.097   6.915
 4723SOL    HW215069   3.755   3.983   0.002
 4724SOL     OW15070   1.390   6.782   4.725
 4724SOL    HW115071   1.386   6.830   4.637
 4724SOL    HW215072   1.411   6.847   4.798
 4725SOL     OW15073   5.111   6.058   0.246
 4725SOL    HW115074   5.119   6.064   0.146
 4725SOL    HW215075   5.015   6.041   0.270
 4726SOL     OW15076   1.226   3.224   5.570
 4726SOL    HW115077   1.163   3.275   5.629
 4726SOL    HW215078   1.211   3.126   5.581
 4727SOL     OW15079   0.683   5.615   0.812
 4727SOL    HW115080   0.649   5.687   0.874
 4727SOL    HW215081   0.760   5.651   0.759
 4728SOL     OW15082   6.296   1.953   4.841
 4728SOL    HW115083   6.270   2.042   4.804
 4728SOL    HW215084   6.345   1.966   4.927
 4729SOL     OW15085   6.008   1.158   1.619
 4729SOL    HW115086   6.009   1.088   1.547
 4729SOL    HW215087   6.101   1.190   1.635
 4730SOL     OW15088   3.169   6.804   5.033
 4730SOL    HW115089   3.268   6.820   5.029
 4730SOL    HW215090   3.127   6.870   5.096
 4731SOL     OW15091   3.503   0.101   0.298
 4731SOL    HW115092   3.560   0.125   0.377
 4731SOL    HW215093   3.513   0.172   0.228
 4732SOL     OW15094   0.203   4.706   3.964
 4732SOL    HW115095   0.158   4.795   3.972
 4732SOL    HW215096   0.211   4.681   3.868
 4733SOL     OW15097   1.856   3.755   3.209
 4733SOL    HW115098   1.869   3.854   3.202
 4733SOL    HW215099   1.937   3.709   3.174
 4734SOL     OW15100   4.968   3.217   0.108
 4734SOL    HW115101   4.947   3.129   0.065
 4734SOL    HW215102   4.924   3.290   0.057
 4735SOL     OW15103   6.960   0.174   5.297
 4735SOL    HW115104   6.932   0.090   5.344
 4735SOL    HW215105   7.018   0.151   5.219
 4736SOL     OW15106   6.955   2.246   3.504
 4736SOL    HW115107   6.949   2.148   3.483
 4736SOL    HW215108   6.974   2.258   3.601
 4737SOL     OW15109   2.509   4.402   1.097
 4737SOL    HW115110   2.506   4.345   1.178
 4737SOL    HW215111   2.416   4.426   1.069
 4738SOL     OW15112   1.772   6.510   3.750
 4738SOL    HW115113   1.815   6.518   3.840
 4738SOL    HW215114   1.786   6.594   3.698
 4739SOL     OW15115   5.769   3.259   3.815
 4739SOL    HW115116   5.732   3.337   3.764
 4739SOL    HW215117   5.695   3.197   3.840
 4740SOL     OW15118   0.692   1.081   1.606
 4740SOL    HW115119   0.780   1.039   1.587
 4740SOL    HW215120   0.619   1.014   1.592
 4741SOL     OW15121   4.295   4.440   1.761
 4741SOL    HW115122   4.361   4.374   1.795
 4741SOL    HW215123   4.282   4.513   1.828
 4742SOL     OW15124   2.811   6.325   1.775
 4742SOL    HW115125   2.891   6.299   1.720
 4742SOL    HW215126   2.728   6.294   1.730
 4743SOL     OW15127   2.034   2.549   0.543
 4743SOL    HW115128   2.108   2.486   0.521
 4743SOL    HW215129   2.060   2.642   0.517
 4744SOL     OW15130   1.811   3.380   5.400
 4744SOL    HW115131   1.748   3.457   5.390
 4744SOL    HW215132   1.896   3.399   5.351
 4745SOL     OW15133   2.758   5.742   5.094
 4745SOL    HW115134   2.832   5.809   5.086
 4745SOL    HW215135   2.771   5.669   5.028
 4746SOL     OW15136   6.557   0.710   0.677
 4746SOL    HW115137   6.600   0.633   0.725
 4746SOL    HW215138   6.459   0.711   0.699
 4747SOL     OW15139   6.310   2.563   0.828
 4747SOL    HW115140   6.301   2.625   0.906
 4747SOL    HW215141   6.236   2.496   0.830
 4748SOL     OW15142   1.501   0.910   2.002
 4748SOL    HW115143   1.548   0.896   1.915
 4748SOL    HW215144   1.427   0.976   1.990
 4749SOL     OW15145   1.471   6.684   6.823
 4749SOL    HW115146   1.385   6.665   6.775
 4749SOL    HW215147   1.456   6.677   6.921
 4750SOL     OW15148   0.184   0.971   4.615
 4750SOL    HW115149   0.089   0.991   4.638
 4750SOL    HW215150   0.204   0.875   4.636
 4751SOL     OW15151   1.209   3.717   6.560
 4751SOL    HW115152   1.179   3.664   6.480
 4751SOL    HW215153   1.183   3.813   6.547
 4752SOL     OW15154   2.921   5.868   1.181
 4752SOL    HW115155   2.906   5.952   1.128
 4752SOL    HW215156   2.948   5.794   1.119
 4753SOL     OW15157   6.335   6.479   5.176
 4753SOL    HW115158   6.374   6.495   5.086
 4753SOL    HW215159   6.405   6.446   5.239
 4754SOL     OW15160   0.967   0.229   5.617
 4754SOL    HW115161   0.960   0.328   5.632
 4754SOL    HW215162   0.972   0.182   5.705
 4755SOL     OW15163   2.572   1.766   6.639
 4755SOL    HW115164   2.510   1.688   6.635
 4755SOL    HW215165   2.586   1.793   6.734
 4756SOL     OW15166   4.885   2.727   0.954
 4756SOL    HW115167   4.898   2.771   1.043
 4756SOL    HW215168   4.958   2.661   0.938
 4757SOL     OW15169   1.991   2.142   0.995
 4757SOL    HW115170   2.050   2.061   1.004
 4757SOL    HW215171   1.950   2.143   0.903
 4758SOL     OW15172   5.361   4.981   5.742
 4758SOL    HW115173   5.393   5.066   5.784
 4758SOL    HW215174   5.345   4.997   5.644
 4759SOL     OW15175   5.440   5.439   5.500
 4759SOL    HW115176   5.505   5.473   5.568
 4759SOL    HW215177   5.489   5.396   5.425
 4760SOL     OW15178   1.564   2.063   1.269
 4760SOL    HW115179   1.535   2.069   1.364
 4760SOL    HW215180   1.663   2.063   1.264
 4761SOL     OW15181   0.591   6.178   5.964
 4761SOL    HW115182   0.512   6.225   6.003
 4761SOL    HW215183   0.640   6.241   5.903
 4762SOL     OW15184   2.799   5.964   2.732
 4762SOL    HW115185   2.886   6.004   2.760
 4762SOL    HW215186   2.756   6.024   2.663
 4763SOL     OW15187   6.241   5.811   3.775
 4763SOL    HW115188   6.288   5.723   3.776
 4763SOL    HW215189   6.300   5.881   3.735
 4764SOL     OW15190   3.769   3.758   4.232
 4764SOL    HW115191   3.722   3.685   4.183
 4764SOL    HW215192   3.752   3.749   4.330
 4765SOL     OW15193   5.576   5.798   5.011
 4765SOL    HW115194   5.520   5.869   4.968
 4765SOL    HW215195   5.566   5.712   4.961
 4766SOL     OW15196   3.215   0.802   2.494
 4766SOL    HW115197   3.224   0.791   2.395
 4766SOL    HW215198   3.263   0.885   2.523
 4767SOL     OW15199   4.173   5.755   6.755
 4767SOL    HW115200   4.172   5.832   6.691
 4767SOL    HW215201   4.195   5.789   6.847
 4768SOL     OW15202   0.087   0.562   5.228
 4768SOL    HW115203   0.001   0.613   5.229
 4768SOL    HW215204   0.084   0.490   5.298
 4769SOL     OW15205   3.784   0.058   1.512
 4769SOL    HW115206   3.704   0.099   1.467
 4769SOL    HW215207   3.835   0.004   1.445
 4770SOL     OW15208   2.575   0.837   3.276
 4770SOL    HW115209   2.603   0.816   3.182
 4770SOL    HW215210   2.490   0.890   3.274
 4771SOL     OW15211   3.916   4.185   5.230
 4771SOL    HW115212   3.892   4.279   5.254
 4771SOL    HW215213   3.859   4.154   5.154
 4772SOL     OW15214   2.552   2.247   1.686
 4772SOL    HW115215   2.652   2.256   1.690
 4772SOL    HW215216   2.510   2.336   1.701
 4773SOL     OW15217   0.066   6.028   3.725
 4773SOL    HW115218   0.092   5.932   3.723
 4773SOL    HW215219   0.040   6.055   3.818
 4774SOL     OW15220   0.639   4.209   1.324
 4774SOL    HW115221   0.701   4.279   1.288
 4774SOL    HW215222   0.545   4.241   1.317
 4775SOL     OW15223   3.850   0.821   1.936
 4775SOL    HW115224   3.906   0.786   1.860
 4775SOL    HW215225   3.872   0.917   1.952
 4776SOL     OW15226   3.121   5.403   2.044
 4776SOL    HW115227   3.196   5.385   2.108
 4776SOL    HW215228   3.035   5.370   2.083
 4777SOL     OW15229   3.338   4.349   1.148
 4777SOL    HW115230   3.259   4.383   1.199
 4777SOL    HW215231   3.316   4.344   1.050
 4778SOL     OW15232   4.981   3.913   2.299
 4778SOL    HW115233   5.009   3.957   2.214
 4778SOL    HW215234   4.975   3.982   2.371
 4779SOL     OW15235   5.127   0.797   2.952
 4779SOL    HW115236   5.090   0.705   2.954
 4779SOL    HW215237   5.056   0.862   2.925
 4780SOL     OW15238   1.198   6.284   6.333
 4780SOL    HW115239   1.192   6.327   6.423
 4780SOL    HW215240   1.250   6.343   6.271
 4781SOL     OW15241   2.326   5.228   1.752
 4781SOL    HW115242   2.383   5.308   1.733
 4781SOL    HW215243   2.335   5.203   1.848
 4782SOL     OW15244   5.748   6.339   6.352
 4782SOL    HW115245   5.832   6.351   6.299
 4782SOL    HW215246   5.710   6.248   6.334
 4783SOL     OW15247   5.738   4.558   1.322
 4783SOL    HW115248   5.799   4.542   1.244
 4783SOL    HW215249   5.653   4.507   1.308
 4784SOL     OW15250   5.983   5.342   4.641
 4784SOL    HW115251   6.052   5.414   4.647
 4784SOL    HW215252   5.902   5.378   4.594
 4785SOL     OW15253   6.547   0.789   1.356
 4785SOL    HW115254   6.538   0.888   1.369
 4785SOL    HW215255   6.533   0.766   1.260
 4786SOL     OW15256   1.776   2.831   1.938
 4786SOL    HW115257   1.703   2.770   1.969
 4786SOL    HW215258   1.772   2.841   1.839
 4787SOL     OW15259   3.917   2.177   2.989
 4787SOL    HW115260   3.922   2.172   2.890
 4787SOL    HW215261   3.861   2.102   3.023
 4788SOL     OW15262   1.596   5.343   4.132
 4788SOL    HW115263   1.689   5.328   4.099
 4788SOL    HW215264   1.531   5.301   4.069
 4789SOL     OW15265   5.751   0.578   0.902
 4789SOL    HW115266   5.664   0.545   0.939
 4789SOL    HW215267   5.798   0.503   0.856
 4790SOL     OW15268   5.595   1.858   6.562
 4790SOL    HW115269   5.505   1.861   6.604
 4790SOL    HW215270   5.586   1.860   6.462
 4791SOL     OW15271   5.259   6.850   2.093
 4791SOL    HW115272   5.340   6.856   2.151
 4791SOL    HW215273   5.205   6.770   2.119
 4792SOL     OW15274   2.297   2.465   1.974
 4792SOL    HW115275   2.216   2.410   1.958
 4792SOL    HW215276   2.372   2.406   2.006
 4793SOL     OW15277   1.258   6.895   6.100
 4793SOL    HW115278   1.169   6.925   6.064
 4793SOL    HW215279   1.243   6.824   6.169
 4794SOL     OW15280   2.923   1.008   2.517
 4794SOL    HW115281   2.973   0.993   2.601
 4794SOL    HW215282   2.908   0.921   2.470
 4795SOL     OW15283   6.139   3.077   4.198
 4795SOL    HW115284   6.077   3.076   4.277
 4795SOL    HW215285   6.086   3.088   4.114
 4796SOL     OW15286   5.669   4.508   1.041
 4796SOL    HW115287   5.572   4.522   1.061
 4796SOL    HW215288   5.693   4.413   1.062
 4797SOL     OW15289   0.315   5.058   4.946
 4797SOL    HW115290   0.358   4.967   4.951
 4797SOL    HW215291   0.219   5.051   4.973
 4798SOL     OW15292   6.712   4.467   4.247
 4798SOL    HW115293   6.750   4.388   4.198
 4798SOL    HW215294   6.768   4.486   4.327
 4799SOL     OW15295   4.060   1.869   4.898
 4799SOL    HW115296   4.159   1.869   4.881
 4799SOL    HW215297   4.033   1.779   4.932
 4800SOL     OW15298   1.926   2.170   4.794
 4800SOL    HW115299   1.863   2.233   4.838
 4800SOL    HW215300   1.943   2.200   4.700
 4801SOL     OW15301   0.527   2.173   0.901
 4801SOL    HW115302   0.607   2.234   0.902
 4801SOL    HW215303   0.558   2.078   0.914
 4802SOL     OW15304   2.622   0.547   1.797
 4802SOL    HW115305   2.704   0.600   1.775
 4802SOL    HW215306   2.563   0.541   1.716
 4803SOL     OW15307   1.079   6.679   0.345
 4803SOL    HW115308   1.032   6.757   0.386
 4803SOL    HW215309   1.177   6.691   0.354
 4804SOL     OW15310   3.984   5.075   6.708
 4804SOL    HW115311   4.048   5.137   6.753
 4804SOL    HW215312   3.988   4.985   6.752
 4805SOL     OW15313   6.712   1.874   0.912
 4805SOL    HW115314   6.787   1.808   0.906
 4805SOL    HW215315   6.625   1.825   0.913
 4806SOL     OW15316   0.803   3.011   2.760
 4806SOL    HW115317   0.724   3.013   2.700
 4806SOL    HW215318   0.774   2.988   2.853
 4807SOL     OW15319   0.080   6.923   1.532
 4807SOL    HW115320   7.011   6.882   1.551
 4807SOL    HW215321   0.096   7.000   1.593
 4808SOL     OW15322   4.842   3.158   1.291
 4808SOL    HW115323   4.850   3.250   1.332
 4808SOL    HW215324   4.850   3.089   1.363
 4809SOL     OW15325   4.031   5.516   6.529
 4809SOL    HW115326   4.068   5.427   6.500
 4809SOL    HW215327   4.074   5.589   6.476
 4810SOL     OW15328   1.000   0.207   1.286
 4810SOL    HW115329   1.064   0.180   1.213
 4810SOL    HW215330   1.052   0.243   1.363
 4811SOL     OW15331   4.084   5.496   2.311
 4811SOL    HW115332   4.178   5.515   2.338
 4811SOL    HW215333   4.060   5.553   2.232
 4812SOL     OW15334   6.957   5.907   4.374
 4812SOL    HW115335   7.018   5.968   4.424
 4812SOL    HW215336   6.869   5.952   4.359
 4813SOL     OW15337   5.672   2.528   3.319
 4813SOL    HW115338   5.691   2.551   3.223
 4813SOL    HW215339   5.673   2.612   3.374
 4814SOL     OW15340   6.843   3.252   1.778
 4814SOL    HW115341   6.805   3.343   1.793
 4814SOL    HW215342   6.775   3.183   1.801
 4815SOL     OW15343   4.344   6.368   1.228
 4815SOL    HW115344   4.426   6.311   1.228
 4815SOL    HW215345   4.329   6.406   1.137
 4816SOL     OW15346   5.153   5.135   3.570
 4816SOL    HW115347   5.168   5.048   3.524
 4816SOL    HW215348   5.062   5.170   3.547
 4817SOL     OW15349   0.586   1.752   6.552
 4817SOL    HW115350   0.559   1.657   6.567
 4817SOL    HW215351   0.670   1.770   6.604
 4818SOL     OW15352   0.633   0.340   4.273
 4818SOL    HW115353   0.583   0.356   4.188
 4818SOL    HW215354   0.713   0.283   4.254
 4819SOL     OW15355   1.688   3.494   0.418
 4819SOL    HW115356   1.692   3.480   0.319
 4819SOL    HW215357   1.770   3.455   0.460
 4820SOL     OW15358   6.611   3.047   2.040
 4820SOL    HW115359   6.552   3.057   1.960
 4820SOL    HW215360   6.703   3.022   2.010
 4821SOL     OW15361   6.990   5.568   2.214
 4821SOL    HW115362   6.990   5.537   2.119
 4821SOL    HW215363   6.918   5.521   2.264
 4822SOL     OW15364   1.257   3.537   4.010
 4822SOL    HW115365   1.243   3.528   3.912
 4822SOL    HW215366   1.169   3.537   4.057
 4823SOL     OW15367   1.930   3.109   1.410
 4823SOL    HW115368   1.909   3.012   1.404
 4823SOL    HW215369   2.008   3.122   1.471
 4824SOL     OW15370   6.184   1.566   5.535
 4824SOL    HW115371   6.219   1.494   5.595
 4824SOL    HW215372   6.120   1.624   5.585
 4825SOL     OW15373   1.735   0.026   3.826
 4825SOL    HW115374   1.692   7.003   3.905
 4825SOL    HW215375   1.717   0.124   3.829
 4826SOL     OW15376   3.997   0.523   1.269
 4826SOL    HW115377   4.096   0.530   1.257
 4826SOL    HW215378   3.977   0.461   1.345
 4827SOL     OW15379   6.527   1.780   1.590
 4827SOL    HW115380   6.537   1.789   1.689
 4827SOL    HW215381   6.484   1.863   1.554
 4828SOL     OW15382   5.162   0.817   4.074
 4828SOL    HW115383   5.228   0.883   4.111
 4828SOL    HW215384   5.108   0.780   4.149
 4829SOL     OW15385   3.798   6.781   4.761
 4829SOL    HW115386   3.714   6.777   4.707
 4829SOL    HW215387   3.859   6.851   4.723
 4830SOL     OW15388   3.046   5.736   2.976
 4830SOL    HW115389   3.020   5.819   3.024
 4830SOL    HW215390   3.019   5.656   3.030
 4831SOL     OW15391   3.029   4.777   5.258
 4831SOL    HW115392   2.946   4.726   5.282
 4831SOL    HW215393   3.106   4.714   5.251
 4832SOL     OW15394   3.794   2.975   4.591
 4832SOL    HW115395   3.710   2.928   4.567
 4832SOL    HW215396   3.811   3.048   4.524
 4833SOL     OW15397   6.660   3.344   4.143
 4833SOL    HW115398   6.709   3.318   4.060
 4833SOL    HW215399   6.719   3.399   4.202
 4834SOL     OW15400   1.171   5.288   1.186
 4834SOL    HW115401   1.177   5.385   1.162
 4834SOL    HW215402   1.097   5.245   1.134
 4835SOL     OW15403   6.679   2.225   5.279
 4835SOL    HW115404   6.593   2.175   5.265
 4835SOL    HW215405   6.660   2.314   5.319
 4836SOL     OW15406   4.939   1.132   5.441
 4836SOL    HW115407   5.022   1.088   5.406
 4836SOL    HW215408   4.957   1.229   5.455
 4837SOL     OW15409   0.381   4.326   4.035
 4837SOL    HW115410   0.450   4.393   4.062
 4837SOL    HW215411   0.289   4.366   4.045
 4838SOL     OW15412   2.316   4.399   6.267
 4838SOL    HW115413   2.233   4.399   6.210
 4838SOL    HW215414   2.327   4.309   6.310
 4839SOL     OW15415   2.535   1.366   0.437
 4839SOL    HW115416   2.582   1.303   0.499
 4839SOL    HW215417   2.437   1.345   0.436
 4840SOL     OW15418   6.009   4.047   4.527
 4840SOL    HW115419   5.917   4.046   4.488
 4840SOL    HW215420   6.058   3.964   4.500
 4841SOL     OW15421   3.289   6.337   2.941
 4841SOL    HW115422   3.317   6.423   2.899
 4841SOL    HW215423   3.363   6.302   2.997
 4842SOL     OW15424   3.279   5.479   3.167
 4842SOL    HW115425   3.356   5.486   3.103
 4842SOL    HW215426   3.219   5.405   3.138
 4843SOL     OW15427   0.332   1.686   1.096
 4843SOL    HW115428   0.396   1.720   1.164
 4843SOL    HW215429   0.239   1.704   1.126
 4844SOL     OW15430   1.409   5.371   5.253
 4844SOL    HW115431   1.386   5.429   5.331
 4844SOL    HW215432   1.470   5.420   5.191
 4845SOL     OW15433   4.974   3.755   4.824
 4845SOL    HW115434   4.943   3.706   4.743
 4845SOL    HW215435   4.905   3.745   4.896
 4846SOL     OW15436   6.536   3.725   4.549
 4846SOL    HW115437   6.457   3.769   4.590
 4846SOL    HW215438   6.608   3.793   4.532
 4847SOL     OW15439   2.662   5.886   6.644
 4847SOL    HW115440   2.582   5.940   6.618
 4847SOL    HW215441   2.632   5.801   6.686
 4848SOL     OW15442   3.429   0.765   4.451
 4848SOL    HW115443   3.342   0.813   4.463
 4848SOL    HW215444   3.478   0.804   4.373
 4849SOL     OW15445   2.097   6.696   1.322
 4849SOL    HW115446   2.007   6.690   1.366
 4849SOL    HW215447   2.085   6.702   1.223
 4850SOL     OW15448   4.325   0.272   0.336
 4850SOL    HW115449   4.413   0.282   0.384
 4850SOL    HW215450   4.252   0.307   0.394
 4851SOL     OW15451   3.727   4.246   6.480
 4851SOL    HW115452   3.813   4.234   6.431
 4851SOL    HW215453   3.657   4.188   6.440
 4852SOL     OW15454   5.186   5.360   4.715
 4852SOL    HW115455   5.139   5.434   4.667
 4852SOL    HW215456   5.238   5.305   4.649
 4853SOL     OW15457   4.428   6.762   2.135
 4853SOL    HW115458   4.351   6.803   2.183
 4853SOL    HW215459   4.441   6.808   2.047
 4854SOL     OW15460   5.045   6.430   1.764
 4854SOL    HW115461   5.013   6.436   1.670
 4854SOL    HW215462   4.986   6.368   1.816
 4855SOL     OW15463   5.334   4.883   6.055
 4855SOL    HW115464   5.379   4.960   6.100
 4855SOL    HW215465   5.337   4.896   5.956
 4856SOL     OW15466   0.086   3.978   2.734
 4856SOL    HW115467   0.096   4.044   2.808
 4856SOL    HW215468   0.027   4.016   2.663
 4857SOL     OW15469   2.537   1.995   4.859
 4857SOL    HW115470   2.448   2.017   4.899
 4857SOL    HW215471   2.566   2.070   4.799
 4858SOL     OW15472   0.782   6.118   4.735
 4858SOL    HW115473   0.758   6.153   4.826
 4858SOL    HW215474   0.865   6.063   4.741
 4859SOL     OW15475   0.588   6.376   2.477
 4859SOL    HW115476   0.536   6.310   2.531
 4859SOL    HW215477   0.600   6.460   2.530
 4860SOL     OW15478   4.509   5.121   1.074
 4860SOL    HW115479   4.584   5.090   1.132
 4860SOL    HW215480   4.536   5.112   0.978
 4861SOL     OW15481   0.275   4.348   6.377
 4861SOL    HW115482   0.251   4.263   6.425
 4861SOL    HW215483   0.289   4.328   6.280
 4862SOL     OW15484   2.093   5.637   5.325
 4862SOL    HW115485   2.037   5.685   5.392
 4862SOL    HW215486   2.190   5.648   5.347
 4863SOL     OW15487   4.557   2.034   3.067
 4863SOL    HW115488   4.586   1.969   3.138
 4863SOL    HW215489   4.459   2.054   3.078
 4864SOL     OW15490   2.015   1.295   1.355
 4864SOL    HW115491   1.939   1.281   1.292
 4864SOL    HW215492   2.073   1.214   1.356
 4865SOL     OW15493   3.755   6.026   5.676
 4865SOL    HW115494   3.675   6.078   5.645
 4865SOL    HW215495   3.727   5.932   5.695
 4866SOL     OW15496   0.145   4.351   2.261
 4866SOL    HW115497   0.093   4.309   2.186
 4866SOL    HW215498   0.233   4.305   2.270
 4867SOL     OW15499   4.695   5.702   3.398
 4867SOL    HW115500   4.655   5.628   3.452
 4867SOL    HW215501   4.636   5.782   3.403
 4868SOL     OW15502   0.849   6.198   1.104
 4868SOL    HW115503   0.923   6.146   1.147
 4868SOL    HW215504   0.761   6.155   1.125
 4869SOL     OW15505   6.368   0.914   0.877
 4869SOL    HW115506   6.446   0.856   0.850
 4869SOL    HW215507   6.391   1.010   0.859
 4870SOL     OW15508   6.509   6.848   1.508
 4870SOL    HW115509   6.599   6.884   1.534
 4870SOL    HW215510   6.443   6.922   1.503
 4871SOL     OW15511   0.768   3.327   4.221
 4871SOL    HW115512   0.692   3.264   4.211
 4871SOL    HW215513   0.842   3.301   4.159
 4872SOL     OW15514   0.862   0.773   3.465
 4872SOL    HW115515   0.800   0.724   3.403
 4872SOL    HW215516   0.888   0.713   3.541
 4873SOL     OW15517   0.702   6.158   5.252
 4873SOL    HW115518   0.653   6.103   5.185
 4873SOL    HW215519   0.722   6.102   5.332
 4874SOL     OW15520   5.227   3.498   3.328
 4874SOL    HW115521   5.198   3.593   3.334
 4874SOL    HW215522   5.147   3.438   3.335
 4875SOL     OW15523   6.033   2.815   6.598
 4875SOL    HW115524   6.074   2.877   6.531
 4875SOL    HW215525   6.087   2.731   6.602
 4876SOL     OW15526   0.515   1.074   6.743
 4876SOL    HW115527   0.577   1.117   6.677
 4876SOL    HW215528   0.555   1.078   6.835
 4877SOL     OW15529   6.680   1.532   0.817
 4877SOL    HW115530   6.663   1.441   0.779
 4877SOL    HW215531   6.629   1.601   0.765
 4878SOL     OW15532   6.633   2.012   1.398
 4878SOL    HW115533   6.686   2.018   1.314
 4878SOL    HW215534   6.671   2.074   1.466
 4879SOL     OW15535   4.076   6.069   3.239
 4879SOL    HW115536   4.064   6.111   3.329
 4879SOL    HW215537   4.037   5.977   3.239
 4880SOL     OW15538   5.746   2.137   6.054
 4880SOL    HW115539   5.765   2.195   6.133
 4880SOL    HW215540   5.749   2.041   6.082
 4881SOL     OW15541   3.355   5.997   6.660
 4881SOL    HW115542   3.300   5.930   6.710
 4881SOL    HW215543   3.443   6.008   6.707
 4882SOL     OW15544   5.149   0.824   5.922
 4882SOL    HW115545   5.149   0.873   5.835
 4882SOL    HW215546   5.242   0.791   5.940
 4883SOL     OW15547   0.069   6.071   0.953
 4883SOL    HW115548   0.056   6.016   0.870
 4883SOL    HW215549   0.159   6.052   0.992
 4884SOL     OW15550   3.182   6.429   2.115
 4884SOL    HW115551   3.235   6.352   2.152
 4884SOL    HW215552   3.087   6.401   2.102
 4885SOL     OW15553   1.985   0.193   2.027
 4885SOL    HW115554   2.058   0.241   2.075
 4885SOL    HW215555   1.910   0.256   2.007
 4886SOL     OW15556   6.233   0.745   5.904
 4886SOL    HW115557   6.133   0.747   5.896
 4886SOL    HW215558   6.261   0.660   5.948
 4887SOL     OW15559   0.602   2.041   5.143
 4887SOL    HW115560   0.586   2.134   5.176
 4887SOL    HW215561   0.534   2.017   5.073
 4888SOL     OW15562   2.850   5.332   1.775
 4888SOL    HW115563   2.869   5.334   1.873
 4888SOL    HW215564   2.845   5.238   1.743
 4889SOL     OW15565   1.448   2.580   6.823
 4889SOL    HW115566   1.420   2.626   6.908
 4889SOL    HW215567   1.547   2.566   6.824
 4890SOL     OW15568   1.438   0.298   4.708
 4890SOL    HW115569   1.401   0.390   4.716
 4890SOL    HW215570   1.511   0.285   4.775
 4891SOL     OW15571   1.163   3.997   0.834
 4891SOL    HW115572   1.110   3.966   0.913
 4891SOL    HW215573   1.254   3.956   0.837
 4892SOL     OW15574   1.486   6.017   1.411
 4892SOL    HW115575   1.554   5.984   1.345
 4892SOL    HW215576   1.465   5.943   1.476
 4893SOL     OW15577   0.930   3.478   6.491
 4893SOL    HW115578   0.865   3.467   6.415
 4893SOL    HW215579   0.920   3.401   6.555
 4894SOL     OW15580   2.159   1.261   3.742
 4894SOL    HW115581   2.159   1.184   3.806
 4894SOL    HW215582   2.250   1.301   3.738
 4895SOL     OW15583   6.713   3.780   6.915
 4895SOL    HW115584   6.625   3.793   6.961
 4895SOL    HW215585   6.709   3.697   6.859
 4896SOL     OW15586   4.252   5.681   3.414
 4896SOL    HW115587   4.266   5.703   3.318
 4896SOL    HW215588   4.231   5.583   3.423
 4897SOL     OW15589   3.438   5.620   5.718
 4897SOL    HW115590   3.456   5.560   5.640
 4897SOL    HW215591   3.418   5.713   5.685
 4898SOL     OW15592   5.650   2.478   5.588
 4898SOL    HW115593   5.730   2.423   5.567
 4898SOL    HW215594   5.650   2.561   5.533
 4899SOL     OW15595   5.376   4.409   5.108
 4899SOL    HW115596   5.305   4.426   5.040
 4899SOL    HW215597   5.447   4.479   5.101
 4900SOL     OW15598   1.200   6.678   5.217
 4900SOL    HW115599   1.184   6.777   5.209
 4900SOL    HW215600   1.151   6.630   5.144
 4901SOL     OW15601   1.304   6.463   3.107
 4901SOL    HW115602   1.347   6.522   3.039
 4901SOL    HW215603   1.219   6.506   3.138
 4902SOL     OW15604   2.922   4.829   1.834
 4902SOL    HW115605   2.998   4.802   1.774
 4902SOL    HW215606   2.877   4.747   1.869
 4903SOL     OW15607   5.005   6.260   6.435
 4903SOL    HW115608   5.014   6.320   6.515
 4903SOL    HW215609   4.927   6.290   6.380
 4904SOL     OW15610   3.189   6.185   3.332
 4904SOL    HW115611   3.092   6.208   3.333
 4904SOL    HW215612   3.204   6.102   3.386
 4905SOL     OW15613   6.147   3.123   3.236
 4905SOL    HW115614   6.142   3.197   3.303
 4905SOL    HW215615   6.084   3.141   3.161
 4906SOL     OW15616   5.819   1.182   1.861
 4906SOL    HW115617   5.771   1.097   1.881
 4906SOL    HW215618   5.884   1.167   1.787
 4907SOL     OW15619   2.742   1.167   2.426
 4907SOL    HW115620   2.775   1.260   2.414
 4907SOL    HW215621   2.812   1.112   2.470
 4908SOL     OW15622   3.492   5.516   6.718
 4908SOL    HW115623   3.395   5.525   6.737
 4908SOL    HW215624   3.506   5.450   6.643
 4909SOL     OW15625   6.601   0.479   5.207
 4909SOL    HW115626   6.673   0.544   5.181
 4909SOL    HW215627   6.516   0.502   5.160
 4910SOL     OW15628   6.354   0.276   5.326
 4910SOL    HW115629   6.408   0.254   5.407
 4910SOL    HW215630   6.396   0.352   5.278
 4911SOL     OW15631   0.506   3.261   6.044
 4911SOL    HW115632   0.529   3.336   6.106
 4911SOL    HW215633   0.413   3.274   6.008
 4912SOL     OW15634   2.519   2.305   2.084
 4912SOL    HW115635   2.593   2.259   2.036
 4912SOL    HW215636   2.556   2.380   2.140
 4913SOL     OW15637   2.879   3.518   2.223
 4913SOL    HW115638   2.891   3.547   2.317
 4913SOL    HW215639   2.782   3.499   2.206
 4914SOL     OW15640   1.511   6.251   3.340
 4914SOL    HW115641   1.459   6.207   3.267
 4914SOL    HW215642   1.494   6.350   3.337
 4915SOL     OW15643   3.313   5.558   3.415
 4915SOL    HW115644   3.281   5.511   3.332
 4915SOL    HW215645   3.410   5.578   3.407
 4916SOL     OW15646   2.357   1.617   2.354
 4916SOL    HW115647   2.376   1.624   2.256
 4916SOL    HW215648   2.400   1.534   2.389
 4917SOL     OW15649   1.424   5.257   0.270
 4917SOL    HW115650   1.469   5.289   0.187
 4917SOL    HW215651   1.343   5.204   0.245
 4918SOL     OW15652   2.513   0.415   2.584
 4918SOL    HW115653   2.605   0.451   2.570
 4918SOL    HW215654   2.517   0.333   2.641
 4919SOL     OW15655   2.685   2.846   1.723
 4919SOL    HW115656   2.684   2.848   1.623
 4919SOL    HW215657   2.692   2.752   1.755
 4920SOL     OW15658   4.312   0.670   0.060
 4920SOL    HW115659   4.257   0.588   0.044
 4920SOL    HW215660   4.256   0.740   0.105
 4921SOL     OW15661   1.558   4.655   1.807
 4921SOL    HW115662   1.570   4.714   1.726
 4921SOL    HW215663   1.493   4.582   1.785
 4922SOL     OW15664   0.935   2.747   5.943
 4922SOL    HW115665   1.018   2.773   5.994
 4922SOL    HW215666   0.866   2.715   6.007
 4923SOL     OW15667   3.776   1.717   1.285
 4923SOL    HW115668   3.838   1.703   1.207
 4923SOL    HW215669   3.811   1.668   1.364
 4924SOL     OW15670   0.727   4.171   4.496
 4924SOL    HW115671   0.757   4.229   4.420
 4924SOL    HW215672   0.771   4.081   4.489
 4925SOL     OW15673   4.587   5.836   6.173
 4925SOL    HW115674   4.595   5.811   6.077
 4925SOL    HW215675   4.670   5.806   6.222
 4926SOL     OW15676   4.591   2.599   1.971
 4926SOL    HW115677   4.600   2.640   2.062
 4926SOL    HW215678   4.672   2.621   1.916
 4927SOL     OW15679   3.791   3.864   2.905
 4927SOL    HW115680   3.809   3.893   2.999
 4927SOL    HW215681   3.723   3.924   2.864
 4928SOL     OW15682   0.863   6.368   0.661
 4928SOL    HW115683   0.894   6.326   0.747
 4928SOL    HW215684   0.766   6.351   0.649
 4929SOL     OW15685   0.721   4.782   4.302
 4929SOL    HW115686   0.810   4.819   4.329
 4929SOL    HW215687   0.703   4.803   4.206
 4930SOL     OW15688   6.749   2.028   0.700
 4930SOL    HW115689   6.845   2.034   0.672
 4930SOL    HW215690   6.744   1.987   0.791
 4931SOL     OW15691   7.011   0.692   1.250
 4931SOL    HW115692   0.090   0.689   1.252
 4931SOL    HW215693   6.981   0.749   1.173
 4932SOL     OW15694   3.564   2.210   0.905
 4932SOL    HW115695   3.659   2.244   0.900
 4932SOL    HW215696   3.559   2.121   0.860
 4933SOL     OW15697   2.412   0.944   4.941
 4933SOL    HW115698   2.319   0.945   4.977
 4933SOL    HW215699   2.466   1.016   4.984
 4934SOL     OW15700   1.129   6.235   4.958
 4934SOL    HW115701   1.083   6.310   4.911
 4934SOL    HW215702   1.177   6.270   5.039
 4935SOL     OW15703   1.541   1.119   0.679
 4935SOL    HW115704   1.453   1.127   0.631
 4935SOL    HW215705   1.608   1.180   0.637
 4936SOL     OW15706   3.788   5.709   0.528
 4936SOL    HW115707   3.751   5.681   0.616
 4936SOL    HW215708   3.888   5.702   0.530
 4937SOL     OW15709   0.850   3.051   6.310
 4937SOL    HW115710   0.895   3.078   6.395
 4937SOL    HW215711   0.905   3.082   6.233
 4938SOL     OW15712   3.425   4.583   1.380
 4938SOL    HW115713   3.371   4.582   1.464
 4938SOL    HW215714   3.519   4.611   1.401
 4939SOL     OW15715   1.234   2.037   2.382
 4939SOL    HW115716   1.139   2.009   2.397
 4939SOL    HW215717   1.241   2.136   2.397
 4940SOL     OW15718   6.854   2.158   5.008
 4940SOL    HW115719   6.948   2.178   5.037
 4940SOL    HW215720   6.800   2.243   5.008
 4941SOL     OW15721   4.049   1.861   5.276
 4941SOL    HW115722   4.128   1.838   5.219
 4941SOL    HW215723   4.002   1.940   5.236
 4942SOL     OW15724   0.102   1.536   3.383
 4942SOL    HW115725   0.174   1.468   3.369
 4942SOL    HW215726   0.033   1.498   3.446
 4943SOL     OW15727   4.980   2.943   6.535
 4943SOL    HW115728   4.889   2.961   6.572
 4943SOL    HW215729   5.048   2.996   6.586
 4944SOL     OW15730   1.037   4.989   0.516
 4944SOL    HW115731   1.079   5.018   0.602
 4944SOL    HW215732   0.974   5.060   0.484
 4945SOL     OW15733   2.356   0.828   5.268
 4945SOL    HW115734   2.451   0.812   5.240
 4945SOL    HW215735   2.300   0.749   5.244
 4946SOL     OW15736   2.699   4.729   6.941
 4946SOL    HW115737   2.761   4.794   6.985
 4946SOL    HW215738   2.749   4.673   6.875
 4947SOL     OW15739   1.242   0.790   2.000
 4947SOL    HW115740   1.205   0.808   2.091
 4947SOL    HW215741   1.342   0.798   2.003
 4948SOL     OW15742   1.722   2.564   1.666
 4948SOL    HW115743   1.720   2.483   1.607
 4948SOL    HW215744   1.815   2.601   1.669
 4949SOL     OW15745   0.226   4.617   6.837
 4949SOL    HW115746   0.144   4.573   6.799
 4949SOL    HW215747   0.219   4.620   6.937
 4950SOL     OW15748   2.930   3.984   5.737
 4950SOL    HW115749   2.839   3.948   5.758
 4950SOL    HW215750   2.974   3.924   5.669
 4951SOL     OW15751   5.244   5.387   3.296
 4951SOL    HW115752   5.146   5.388   3.274
 4951SOL    HW215753   5.295   5.432   3.223
 4952SOL     OW15754   0.666   6.927   6.493
 4952SOL    HW115755   0.635   6.839   6.528
 4952SOL    HW215756   0.725   6.971   6.562
 4953SOL     OW15757   0.767   1.759   4.825
 4953SOL    HW115758   0.744   1.775   4.921
 4953SOL    HW215759   0.813   1.840   4.788
 4954SOL     OW15760   3.305   3.808   5.018
 4954SOL    HW115761   3.255   3.889   4.987
 4954SOL    HW215762   3.266   3.777   5.105
 4955SOL     OW15763   3.683   5.045   6.225
 4955SOL    HW115764   3.701   4.959   6.177
 4955SOL    HW215765   3.761   5.106   6.212
 4956SOL     OW15766   2.953   0.109   4.716
 4956SOL    HW115767   3.022   0.177   4.695
 4956SOL    HW215768   2.998   0.022   4.737
 4957SOL     OW15769   5.791   4.290   6.565
 4957SOL    HW115770   5.885   4.319   6.545
 4957SOL    HW215771   5.782   4.271   6.662
 4958SOL     OW15772   3.616   6.312   0.376
 4958SOL    HW115773   3.578   6.236   0.428
 4958SOL    HW215774   3.637   6.282   0.283
 4959SOL     OW15775   0.652   2.325   2.817
 4959SOL    HW115776   0.669   2.332   2.915
 4959SOL    HW215777   0.719   2.380   2.768
 4960SOL     OW15778   4.357   4.628   4.051
 4960SOL    HW115779   4.378   4.590   4.141
 4960SOL    HW215780   4.357   4.727   4.055
 4961SOL     OW15781   3.770   0.950   0.585
 4961SOL    HW115782   3.853   1.005   0.583
 4961SOL    HW215783   3.691   1.009   0.599
 4962SOL     OW15784   1.449   3.913   0.971
 4962SOL    HW115785   1.442   3.999   1.021
 4962SOL    HW215786   1.545   3.896   0.949
 4963SOL     OW15787   1.345   3.762   6.281
 4963SOL    HW115788   1.255   3.721   6.294
 4963SOL    HW215789   1.415   3.699   6.314
 4964SOL     OW15790   2.409   6.858   4.695
 4964SOL    HW115791   2.495   6.909   4.696
 4964SOL    HW215792   2.348   6.893   4.765
 4965SOL     OW15793   1.803   6.242   3.383
 4965SOL    HW115794   1.703   6.243   3.392
 4965SOL    HW215795   1.845   6.263   3.471
 4966SOL     OW15796   2.642   6.974   4.604
 4966SOL    HW115797   2.602   6.970   4.513
 4966SOL    HW215798   2.718   6.911   4.611
 4967SOL     OW15799   4.335   4.782   4.898
 4967SOL    HW115800   4.344   4.845   4.975
 4967SOL    HW215801   4.332   4.688   4.932
 4968SOL     OW15802   6.286   2.795   3.135
 4968SOL    HW115803   6.329   2.853   3.066
 4968SOL    HW215804   6.254   2.711   3.092
 4969SOL     OW15805   0.903   6.395   3.269
 4969SOL    HW115806   0.815   6.440   3.283
 4969SOL    HW215807   0.891   6.316   3.209
 4970SOL     OW15808   0.510   1.763   1.296
 4970SOL    HW115809   0.430   1.773   1.355
 4970SOL    HW215810   0.570   1.692   1.333
 4971SOL     OW15811   6.576   6.142   2.616
 4971SOL    HW115812   6.650   6.082   2.643
 4971SOL    HW215813   6.510   6.090   2.561
 4972SOL     OW15814   0.888   4.353   0.900
 4972SOL    HW115815   0.886   4.453   0.899
 4972SOL    HW215816   0.981   4.322   0.922
 4973SOL     OW15817   6.731   0.845   0.844
 4973SOL    HW115818   6.801   0.909   0.815
 4973SOL    HW215819   6.709   0.783   0.769
 4974SOL     OW15820   3.509   5.577   5.075
 4974SOL    HW115821   3.470   5.606   5.163
 4974SOL    HW215822   3.501   5.477   5.067
 4975SOL     OW15823   5.810   4.478   0.805
 4975SOL    HW115824   5.808   4.569   0.762
 4975SOL    HW215825   5.762   4.482   0.892
 4976SOL     OW15826   1.694   6.936   3.242
 4976SOL    HW115827   1.613   6.897   3.199
 4976SOL    HW215828   1.727   6.874   3.313
 4977SOL     OW15829   1.742   4.542   6.215
 4977SOL    HW115830   1.720   4.522   6.119
 4977SOL    HW215831   1.823   4.601   6.218
 4978SOL     OW15832   4.946   4.452   4.655
 4978SOL    HW115833   4.869   4.391   4.634
 4978SOL    HW215834   5.008   4.456   4.577
 4979SOL     OW15835   2.502   6.966   6.047
 4979SOL    HW115836   2.491   0.036   6.087
 4979SOL    HW215837   2.483   6.897   6.117
 4980SOL     OW15838   5.351   3.479   3.621
 4980SOL    HW115839   5.279   3.537   3.658
 4980SOL    HW215840   5.347   3.480   3.521
 4981SOL     OW15841   3.099   4.849   2.349
 4981SOL    HW115842   3.052   4.764   2.373
 4981SOL    HW215843   3.198   4.837   2.363
 4982SOL     OW15844   4.077   1.604   5.843
 4982SOL    HW115845   4.035   1.692   5.867
 4982SOL    HW215846   4.086   1.597   5.744
 4983SOL     OW15847   5.724   5.650   2.802
 4983SOL    HW115848   5.805   5.593   2.782
 4983SOL    HW215849   5.750   5.724   2.864
 4984SOL     OW15850   5.007   4.300   2.965
 4984SOL    HW115851   4.907   4.297   2.977
 4984SOL    HW215852   5.029   4.359   2.887
 4985SOL     OW15853   5.333   6.696   2.438
 4985SOL    HW115854   5.328   6.646   2.352
 4985SOL    HW215855   5.348   6.631   2.513
 4986SOL     OW15856   0.239   4.886   2.456
 4986SOL    HW115857   0.141   4.885   2.476
 4986SOL    HW215858   0.283   4.955   2.512
 4987SOL     OW15859   0.861   1.283   2.338
 4987SOL    HW115860   0.763   1.292   2.319
 4987SOL    HW215861   0.891   1.191   2.311
 4988SOL     OW15862   6.030   6.420   3.264
 4988SOL    HW115863   6.036   6.376   3.354
 4988SOL    HW215864   6.117   6.465   3.243
 4989SOL     OW15865   4.264   0.196   2.751
 4989SOL    HW115866   4.185   0.136   2.763
 4989SOL    HW215867   4.247   0.258   2.674
 4990SOL     OW15868   4.529   2.206   5.250
 4990SOL    HW115869   4.442   2.244   5.282
 4990SOL    HW215870   4.593   2.198   5.326
 4991SOL     OW15871   1.247   5.125   5.007
 4991SOL    HW115872   1.287   5.113   5.097
 4991SOL    HW215873   1.198   5.212   5.004
 4992SOL     OW15874   0.571   2.917   3.946
 4992SOL    HW115875   0.567   2.885   4.041
 4992SOL    HW215876   0.623   2.852   3.891
 4993SOL     OW15877   3.269   5.834   3.898
 4993SOL    HW115878   3.325   5.914   3.881
 4993SOL    HW215879   3.268   5.776   3.816
 4994SOL     OW15880   3.246   4.625   5.332
 4994SOL    HW115881   3.279   4.591   5.420
 4994SOL    HW215882   3.309   4.693   5.296
 4995SOL     OW15883   0.763   0.145   5.476
 4995SOL    HW115884   0.817   0.144   5.391
 4995SOL    HW215885   0.821   0.175   5.552
 4996SOL     OW15886   6.919   1.286   4.341
 4996SOL    HW115887   6.969   1.351   4.397
 4996SOL    HW215888   6.873   1.334   4.266
 4997SOL     OW15889   3.684   1.838   1.693
 4997SOL    HW115890   3.637   1.911   1.742
 4997SOL    HW215891   3.689   1.862   1.596
 4998SOL     OW15892   0.226   3.802   3.629
 4998SOL    HW115893   0.221   3.891   3.675
 4998SOL    HW215894   0.223   3.816   3.530
 4999SOL     OW15895   0.746   3.360   4.549
 4999SOL    HW115896   0.687   3.291   4.507
 4999SOL    HW215897   0.806   3.316   4.616
 5000SOL     OW15898   3.110   5.513   2.650
 5000SOL    HW115899   3.102   5.432   2.709
 5000SOL    HW215900   3.059   5.589   2.690
 5001SOL     OW15901   0.550   5.359   3.227
 5001SOL    HW115902   0.543   5.443   3.280
 5001SOL    HW215903   0.644   5.347   3.196
 5002SOL     OW15904   0.503   3.072   3.438
 5002SOL    HW115905   0.563   3.112   3.369
 5002SOL    HW215906   0.470   2.984   3.406
 5003SOL     OW15907   4.168   0.066   3.949
 5003SOL    HW115908   4.201   0.059   3.855
 5003SOL    HW215909   4.080   0.020   3.957
 5004SOL     OW15910   2.462   5.705   6.783
 5004SOL    HW115911   2.478   5.640   6.857
 5004SOL    HW215912   2.376   5.754   6.799
 5005SOL     OW15913   3.264   2.184   0.252
 5005SOL    HW115914   3.345   2.236   0.280
 5005SOL    HW215915   3.254   2.103   0.310
 5006SOL     OW15916   5.339   1.723   2.236
 5006SOL    HW115917   5.386   1.742   2.322
 5006SOL    HW215918   5.273   1.795   2.217
 5007SOL     OW15919   6.009   6.587   2.018
 5007SOL    HW115920   6.108   6.572   2.017
 5007SOL    HW215921   5.980   6.614   2.110
 5008SOL     OW15922   5.410   6.476   2.202
 5008SOL    HW115923   5.480   6.537   2.165
 5008SOL    HW215924   5.445   6.431   2.283
 5009SOL     OW15925   6.762   2.563   0.731
 5009SOL    HW115926   6.666   2.591   0.729
 5009SOL    HW215927   6.820   2.645   0.727
 5010SOL     OW15928   3.903   3.678   0.925
 5010SOL    HW115929   3.995   3.707   0.898
 5010SOL    HW215930   3.836   3.714   0.860
 5011SOL     OW15931   2.163   3.475   6.816
 5011SOL    HW115932   2.129   3.468   6.723
 5011SOL    HW215933   2.263   3.478   6.815
 5012SOL     OW15934   5.925   2.320   5.028
 5012SOL    HW115935   6.013   2.284   5.000
 5012SOL    HW215936   5.871   2.248   5.072
 5013SOL     OW15937   5.993   0.484   5.583
 5013SOL    HW115938   6.005   0.385   5.587
 5013SOL    HW215939   6.061   0.524   5.521
 5014SOL     OW15940   6.623   3.604   1.342
 5014SOL    HW115941   6.684   3.655   1.402
 5014SOL    HW215942   6.663   3.516   1.320
 5015SOL     OW15943   5.512   6.569   3.897
 5015SOL    HW115944   5.478   6.615   3.815
 5015SOL    HW215945   5.500   6.628   3.976
 5016SOL     OW15946   1.672   3.835   5.400
 5016SOL    HW115947   1.632   3.917   5.360
 5016SOL    HW215948   1.663   3.839   5.500
 5017SOL     OW15949   0.510   2.780   1.601
 5017SOL    HW115950   0.548   2.867   1.633
 5017SOL    HW215951   0.411   2.790   1.590
 5018SOL     OW15952   0.822   6.683   0.837
 5018SOL    HW115953   0.847   6.745   0.911
 5018SOL    HW215954   0.749   6.622   0.867
 5019SOL     OW15955   1.132   5.168   5.387
 5019SOL    HW115956   1.124   5.238   5.457
 5019SOL    HW215957   1.059   5.180   5.319
 5020SOL     OW15958   2.023   0.036   4.450
 5020SOL    HW115959   2.032   0.128   4.486
 5020SOL    HW215960   2.110   7.008   4.461
 5021SOL     OW15961   1.489   1.549   1.183
 5021SOL    HW115962   1.506   1.458   1.146
 5021SOL    HW215963   1.391   1.565   1.187
 5022SOL     OW15964   0.435   3.615   1.312
 5022SOL    HW115965   0.429   3.515   1.316
 5022SOL    HW215966   0.444   3.643   1.216
 5023SOL     OW15967   6.753   4.492   2.783
 5023SOL    HW115968   6.730   4.408   2.733
 5023SOL    HW215969   6.685   4.507   2.855
 5024SOL     OW15970   4.728   3.728   1.398
 5024SOL    HW115971   4.630   3.710   1.412
 5024SOL    HW215972   4.764   3.664   1.330
 5025SOL     OW15973   3.951   0.894   3.596
 5025SOL    HW115974   3.960   0.975   3.655
 5025SOL    HW215975   3.867   0.902   3.542
 5026SOL     OW15976   4.437   6.978   5.013
 5026SOL    HW115977   4.405   0.032   5.072
 5026SOL    HW215978   4.424   7.003   4.917
 5027SOL     OW15979   5.145   0.529   0.038
 5027SOL    HW115980   5.240   0.526   0.006
 5027SOL    HW215981   5.088   0.570   6.988
 5028SOL     OW15982   0.488   2.021   3.027
 5028SOL    HW115983   0.508   2.024   2.929
 5028SOL    HW215984   0.430   2.098   3.052
 5029SOL     OW15985   6.186   1.875   2.942
 5029SOL    HW115986   6.099   1.847   2.901
 5029SOL    HW215987   6.176   1.880   3.041
 5030SOL     OW15988   0.192   4.610   6.417
 5030SOL    HW115989   0.249   4.689   6.438
 5030SOL    HW215990   0.244   4.526   6.436
 5031SOL     OW15991   6.743   0.307   6.171
 5031SOL    HW115992   6.690   0.249   6.234
 5031SOL    HW215993   6.683   0.378   6.134
 5032SOL     OW15994   3.091   3.368   5.161
 5032SOL    HW115995   3.151   3.388   5.084
 5032SOL    HW215996   3.124   3.414   5.243
 5033SOL     OW15997   1.624   1.381   6.987
 5033SOL    HW115998   1.528   1.380   6.959
 5033SOL    HW215999   1.643   1.299   0.020
 5034SOL     OW16000   4.344   6.524   3.883
 5034SOL    HW116001   4.262   6.467   3.895
 5034SOL    HW216002   4.368   6.526   3.786
 5035SOL     OW16003   1.187   4.418   3.778
 5035SOL    HW116004   1.243   4.476   3.837
 5035SOL    HW216005   1.205   4.322   3.799
 5036SOL     OW16006   6.302   2.976   5.449
 5036SOL    HW116007   6.335   2.896   5.398
 5036SOL    HW216008   6.291   3.053   5.386
 5037SOL     OW16009   4.513   4.543   0.495
 5037SOL    HW116010   4.607   4.550   0.462
 5037SOL    HW216011   4.459   4.621   0.462
 5038SOL     OW16012   3.582   3.854   4.034
 5038SOL    HW116013   3.490   3.820   4.013
 5038SOL    HW216014   3.624   3.794   4.102
 5039SOL     OW16015   0.593   3.399   6.737
 5039SOL    HW116016   0.543   3.315   6.716
 5039SOL    HW216017   0.664   3.381   6.804
 5040SOL     OW16018   0.781   6.153   6.586
 5040SOL    HW116019   0.781   6.084   6.659
 5040SOL    HW216020   0.699   6.210   6.595
 5041SOL     OW16021   0.149   3.400   2.057
 5041SOL    HW116022   0.221   3.389   2.125
 5041SOL    HW216023   0.060   3.393   2.102
 5042SOL     OW16024   0.641   3.430   5.764
 5042SOL    HW116025   0.705   3.352   5.761
 5042SOL    HW216026   0.677   3.500   5.826
 5043SOL     OW16027   3.859   6.704   0.670
 5043SOL    HW116028   3.865   6.792   0.718
 5043SOL    HW216029   3.862   6.629   0.736
 5044SOL     OW16030   5.900   5.420   0.723
 5044SOL    HW116031   5.879   5.446   0.817
 5044SOL    HW216032   5.999   5.409   0.713
 5045SOL     OW16033   6.515   3.361   5.969
 5045SOL    HW116034   6.486   3.449   6.005
 5045SOL    HW216035   6.438   3.297   5.971
 5046SOL     OW16036   3.690   2.942   3.424
 5046SOL    HW116037   3.741   2.920   3.508
 5046SOL    HW216038   3.592   2.933   3.441
 5047SOL     OW16039   1.781   4.214   2.958
 5047SOL    HW116040   1.823   4.197   3.047
 5047SOL    HW216041   1.726   4.298   2.963
 5048SOL     OW16042   1.167   1.028   5.890
 5048SOL    HW116043   1.249   1.036   5.947
 5048SOL    HW216044   1.109   0.955   5.925
 5049SOL     OW16045   5.532   0.778   6.183
 5049SOL    HW116046   5.555   0.849   6.115
 5049SOL    HW216047   5.593   0.786   6.261
 5050SOL     OW16048   1.874   0.977   1.412
 5050SOL    HW116049   1.821   0.967   1.327
 5050SOL    HW216050   1.965   0.939   1.398
 5051SOL     OW16051   3.778   4.805   1.459
 5051SOL    HW116052   3.755   4.750   1.539
 5051SOL    HW216053   3.803   4.898   1.489
 5052SOL     OW16054   2.750   1.201   5.965
 5052SOL    HW116055   2.812   1.274   5.936
 5052SOL    HW216056   2.784   1.113   5.933
 5053SOL     OW16057   0.361   6.409   2.309
 5053SOL    HW116058   0.450   6.388   2.350
 5053SOL    HW216059   0.308   6.325   2.300
 5054SOL     OW16060   4.125   4.898   4.268
 5054SOL    HW116061   4.209   4.843   4.278
 5054SOL    HW216062   4.081   4.876   4.181
 5055SOL     OW16063   6.364   3.040   6.777
 5055SOL    HW116064   6.354   2.950   6.736
 5055SOL    HW216065   6.323   3.109   6.716
 5056SOL     OW16066   5.434   4.227   5.308
 5056SOL    HW116067   5.377   4.209   5.388
 5056SOL    HW216068   5.389   4.295   5.250
 5057SOL     OW16069   1.000   6.653   2.784
 5057SOL    HW116070   0.996   6.637   2.883
 5057SOL    HW216071   1.008   6.565   2.737
 5058SOL     OW16072   2.836   4.451   6.074
 5058SOL    HW116073   2.838   4.501   5.988
 5058SOL    HW216074   2.742   4.425   6.096
 5059SOL     OW16075   0.442   0.906   2.423
 5059SOL    HW116076   0.515   0.950   2.476
 5059SOL    HW216077   0.458   0.921   2.326
 5060SOL     OW16078   6.478   1.968   5.513
 5060SOL    HW116079   6.553   1.990   5.575
 5060SOL    HW216080   6.442   1.877   5.536
 5061SOL     OW16081   5.233   3.820   0.192
 5061SOL    HW116082   5.311   3.853   0.138
 5061SOL    HW216083   5.152   3.873   0.170
 5062SOL     OW16084   0.159   6.790   1.322
 5062SOL    HW116085   0.158   6.848   1.404
 5062SOL    HW216086   0.192   6.843   1.244
 5063SOL     OW16087   1.072   6.768   1.681
 5063SOL    HW116088   1.162   6.808   1.697
 5063SOL    HW216089   1.045   6.713   1.760
 5064SOL     OW16090   4.535   2.867   0.290
 5064SOL    HW116091   4.596   2.928   0.341
 5064SOL    HW216092   4.589   2.804   0.234
 5065SOL     OW16093   2.370   6.414   6.144
 5065SOL    HW116094   2.332   6.384   6.057
 5065SOL    HW216095   2.324   6.368   6.219
 5066SOL     OW16096   5.805   5.264   1.099
 5066SOL    HW116097   5.741   5.244   1.173
 5066SOL    HW216098   5.888   5.305   1.137
 5067SOL     OW16099   4.604   1.515   0.563
 5067SOL    HW116100   4.670   1.576   0.608
 5067SOL    HW216101   4.647   1.427   0.545
 5068SOL     OW16102   2.617   4.944   0.790
 5068SOL    HW116103   2.678   4.968   0.865
 5068SOL    HW216104   2.601   5.025   0.733
 5069SOL     OW16105   0.375   4.657   2.797
 5069SOL    HW116106   0.361   4.596   2.719
 5069SOL    HW216107   0.299   4.647   2.861
 5070SOL     OW16108   5.458   2.859   3.824
 5070SOL    HW116109   5.464   2.787   3.893
 5070SOL    HW216110   5.469   2.819   3.733
 5071SOL     OW16111   4.851   1.771   6.984
 5071SOL    HW116112   4.770   1.752   6.930
 5071SOL    HW216113   4.910   1.835   6.934
 5072SOL     OW16114   1.077   4.421   1.459
 5072SOL    HW116115   1.033   4.346   1.510
 5072SOL    HW216116   1.015   4.499   1.453
 5073SOL     OW16117   4.693   0.760   3.162
 5073SOL    HW116118   4.687   0.782   3.064
 5073SOL    HW216119   4.602   0.770   3.203
 5074SOL     OW16120   2.584   3.891   6.335
 5074SOL    HW116121   2.569   3.885   6.434
 5074SOL    HW216122   2.603   3.985   6.310
 5075SOL     OW16123   0.413   5.879   4.619
 5075SOL    HW116124   0.366   5.945   4.560
 5075SOL    HW216125   0.511   5.900   4.621
 5076SOL     OW16126   3.165   0.092   1.372
 5076SOL    HW116127   3.201   0.110   1.281
 5076SOL    HW216128   3.210   0.153   1.438
 5077SOL     OW16129   0.597   2.149   3.467
 5077SOL    HW116130   0.648   2.235   3.470
 5077SOL    HW216131   0.501   2.167   3.450
 5078SOL     OW16132   1.220   1.726   4.078
 5078SOL    HW116133   1.142   1.788   4.068
 5078SOL    HW216134   1.302   1.778   4.100
 5079SOL     OW16135   3.935   5.059   5.767
 5079SOL    HW116136   3.934   5.076   5.669
 5079SOL    HW216137   3.845   5.024   5.796
 5080SOL     OW16138   6.061   6.887   5.677
 5080SOL    HW116139   6.139   6.946   5.655
 5080SOL    HW216140   5.989   6.941   5.720
 5081SOL     OW16141   3.655   3.562   4.084
 5081SOL    HW116142   3.651   3.465   4.108
 5081SOL    HW216143   3.661   3.571   3.985
 5082SOL     OW16144   5.403   6.012   4.893
 5082SOL    HW116145   5.405   6.111   4.906
 5082SOL    HW216146   5.336   5.971   4.955
 5083SOL     OW16147   2.106   6.072   1.580
 5083SOL    HW116148   2.157   6.123   1.510
 5083SOL    HW216149   2.153   5.986   1.600
 5084SOL     OW16150   1.677   5.799   3.352
 5084SOL    HW116151   1.640   5.708   3.372
 5084SOL    HW216152   1.657   5.860   3.429
 5085SOL     OW16153   6.514   2.530   6.285
 5085SOL    HW116154   6.613   2.524   6.272
 5085SOL    HW216155   6.487   2.470   6.360
 5086SOL     OW16156   6.765   5.033   3.232
 5086SOL    HW116157   6.678   5.058   3.188
 5086SOL    HW216158   6.835   5.017   3.163
 5087SOL     OW16159   6.955   5.416   5.781
 5087SOL    HW116160   6.974   5.318   5.780
 5087SOL    HW216161   0.017   5.466   5.808
 5088SOL     OW16162   5.593   0.426   6.235
 5088SOL    HW116163   5.542   0.374   6.167
 5088SOL    HW216164   5.643   0.500   6.191
 5089SOL     OW16165   5.708   3.779   3.606
 5089SOL    HW116166   5.778   3.722   3.562
 5089SOL    HW216167   5.622   3.768   3.556
 5090SOL     OW16168   1.703   5.193   1.139
 5090SOL    HW116169   1.716   5.201   1.238
 5090SOL    HW216170   1.606   5.180   1.119
 5091SOL     OW16171   1.339   6.064   2.660
 5091SOL    HW116172   1.329   6.147   2.714
 5091SOL    HW216173   1.267   5.999   2.684
 5092SOL     OW16174   4.244   2.379   1.407
 5092SOL    HW116175   4.326   2.323   1.401
 5092SOL    HW216176   4.263   2.462   1.460
 5093SOL     OW16177   0.772   1.981   1.955
 5093SOL    HW116178   0.774   1.925   2.038
 5093SOL    HW216179   0.865   2.006   1.929
 5094SOL     OW16180   0.694   6.878   5.359
 5094SOL    HW116181   0.679   6.968   5.399
 5094SOL    HW216182   0.659   6.808   5.422
 5095SOL     OW16183   2.837   6.937   5.011
 5095SOL    HW116184   2.831   7.001   5.088
 5095SOL    HW216185   2.810   6.985   4.927
 5096SOL     OW16186   4.179   4.236   0.916
 5096SOL    HW116187   4.117   4.160   0.935
 5096SOL    HW216188   4.258   4.202   0.864
 5097SOL     OW16189   1.638   6.899   6.244
 5097SOL    HW116190   1.561   6.944   6.289
 5097SOL    HW216191   1.724   6.931   6.284
 5098SOL     OW16192   0.539   1.768   2.599
 5098SOL    HW116193   0.613   1.754   2.534
 5098SOL    HW216194   0.480   1.843   2.568
 5099SOL     OW16195   1.376   0.342   5.292
 5099SOL    HW116196   1.392   0.261   5.348
 5099SOL    HW216197   1.456   0.360   5.235
 5100SOL     OW16198   5.343   0.052   6.322
 5100SOL    HW116199   5.398   7.013   6.262
 5100SOL    HW216200   5.248   0.024   6.318
 5101SOL     OW16201   4.223   6.318   0.410
 5101SOL    HW116202   4.142   6.356   0.453
 5101SOL    HW216203   4.260   6.383   0.344
 5102SOL     OW16204   3.388   6.028   5.420
 5102SOL    HW116205   3.391   6.009   5.322
 5102SOL    HW216206   3.308   6.085   5.440
 5103SOL     OW16207   0.533   0.627   4.274
 5103SOL    HW116208   0.538   0.563   4.351
 5103SOL    HW216209   0.559   0.580   4.190
 5104SOL     OW16210   1.550   0.500   1.321
 5104SOL    HW116211   1.519   0.568   1.255
 5104SOL    HW216212   1.617   0.541   1.383
 5105SOL     OW16213   3.085   3.891   6.451
 5105SOL    HW116214   3.124   3.879   6.542
 5105SOL    HW216215   3.038   3.806   6.424
 5106SOL     OW16216   3.537   0.599   2.329
 5106SOL    HW116217   3.487   0.568   2.248
 5106SOL    HW216218   3.575   0.690   2.312
 5107SOL     OW16219   1.909   6.810   5.740
 5107SOL    HW116220   1.993   6.771   5.701
 5107SOL    HW216221   1.927   6.903   5.770
 5108SOL     OW16222   3.466   3.572   4.347
 5108SOL    HW116223   3.437   3.664   4.322
 5108SOL    HW216224   3.411   3.505   4.297
 5109SOL     OW16225   0.331   1.271   1.307
 5109SOL    HW116226   0.308   1.367   1.324
 5109SOL    HW216227   0.277   1.236   1.231
 5110SOL     OW16228   2.204   5.848   5.687
 5110SOL    HW116229   2.136   5.776   5.679
 5110SOL    HW216230   2.283   5.815   5.740
 5111SOL     OW16231   1.448   0.972   1.182
 5111SOL    HW116232   1.395   0.964   1.097
 5111SOL    HW216233   1.403   1.036   1.244
 5112SOL     OW16234   0.408   5.972   3.774
 5112SOL    HW116235   0.317   5.992   3.809
 5112SOL    HW216236   0.468   5.945   3.850
 5113SOL     OW16237   1.408   6.984   7.019
 5113SOL    HW116238   1.450   0.044   0.041
 5113SOL    HW216239   1.341   7.013   6.951
 5114SOL     OW16240   3.803   4.930   0.048
 5114SOL    HW116241   3.855   5.000   0.096
 5114SOL    HW216242   3.828   4.840   0.082
 5115SOL     OW16243   1.800   3.451   5.645
 5115SOL    HW116244   1.897   3.472   5.656
 5115SOL    HW216245   1.787   3.397   5.562
 5116SOL     OW16246   6.833   4.460   0.659
 5116SOL    HW116247   6.735   4.474   0.674
 5116SOL    HW216248   6.851   4.362   0.646
 5117SOL     OW16249   2.384   4.445   4.444
 5117SOL    HW116250   2.386   4.406   4.352
 5117SOL    HW216251   2.346   4.378   4.508
 5118SOL     OW16252   4.407   6.636   1.052
 5118SOL    HW116253   4.434   6.565   0.987
 5118SOL    HW216254   4.488   6.674   1.096
 5119SOL     OW16255   5.688   6.864   1.989
 5119SOL    HW116256   5.736   6.949   2.010
 5119SOL    HW216257   5.643   6.873   1.901
 5120SOL     OW16258   4.997   1.650   2.440
 5120SOL    HW116259   4.975   1.677   2.534
 5120SOL    HW216260   5.007   1.550   2.436
 5121SOL     OW16261   0.755   3.628   5.327
 5121SOL    HW116262   0.801   3.542   5.351
 5121SOL    HW216263   0.770   3.647   5.230
 5122SOL     OW16264   1.913   6.279   3.642
 5122SOL    HW116265   1.866   6.366   3.660
 5122SOL    HW216266   2.011   6.297   3.628
 5123SOL     OW16267   5.736   4.734   2.378
 5123SOL    HW116268   5.732   4.834   2.370
 5123SOL    HW216269   5.646   4.695   2.358
 5124SOL     OW16270   2.684   6.629   7.019
 5124SOL    HW116271   2.782   6.645   7.018
 5124SOL    HW216272   2.647   6.638   6.927
 5125SOL     OW16273   0.094   3.108   4.996
 5125SOL    HW116274   0.109   3.197   5.039
 5125SOL    HW216275   7.017   3.096   4.978
 5126SOL     OW16276   5.430   3.697   6.199
 5126SOL    HW116277   5.499   3.762   6.231
 5126SOL    HW216278   5.464   3.604   6.210
 5127SOL     OW16279   5.959   3.067   6.704
 5127SOL    HW116280   5.898   3.082   6.783
 5127SOL    HW216281   6.002   2.977   6.712
 5128SOL     OW16282   0.409   0.744   7.018
 5128SOL    HW116283   0.361   0.828   0.020
 5128SOL    HW216284   0.356   0.693   6.950
 5129SOL     OW16285   4.112   2.060   2.558
 5129SOL    HW116286   4.185   2.021   2.615
 5129SOL    HW216287   4.079   1.990   2.495
 5130SOL     OW16288   1.046   6.165   4.583
 5130SOL    HW116289   1.024   6.075   4.544
 5130SOL    HW216290   0.963   6.217   4.596
 5131SOL     OW16291   3.139   4.895   3.625
 5131SOL    HW116292   3.164   4.982   3.665
 5131SOL    HW216293   3.173   4.820   3.682
 5132SOL     OW16294   3.802   1.039   6.884
 5132SOL    HW116295   3.880   1.085   6.927
 5132SOL    HW216296   3.745   1.107   6.838
 5133SOL     OW16297   4.771   4.401   6.629
 5133SOL    HW116298   4.823   4.464   6.686
 5133SOL    HW216299   4.674   4.426   6.633
 5134SOL     OW16300   6.432   6.285   1.077
 5134SOL    HW116301   6.440   6.381   1.105
 5134SOL    HW216302   6.474   6.273   0.987
 5135SOL     OW16303   6.423   3.272   1.941
 5135SOL    HW116304   6.332   3.230   1.950
 5135SOL    HW216305   6.477   3.219   1.876
 5136SOL     OW16306   1.047   0.815   6.004
 5136SOL    HW116307   0.953   0.841   5.980
 5136SOL    HW216308   1.048   0.778   6.097
 5137SOL     OW16309   6.155   1.104   4.466
 5137SOL    HW116310   6.070   1.140   4.427
 5137SOL    HW216311   6.205   1.178   4.510
 5138SOL     OW16312   2.910   3.401   4.029
 5138SOL    HW116313   3.004   3.432   4.040
 5138SOL    HW216314   2.877   3.426   3.938
 5139SOL     OW16315   2.733   0.321   5.724
 5139SOL    HW116316   2.779   0.263   5.656
 5139SOL    HW216317   2.792   0.329   5.804
 5140SOL     OW16318   4.058   2.558   6.745
 5140SOL    HW116319   4.098   2.622   6.810
 5140SOL    HW216320   4.015   2.482   6.795
 5141SOL     OW16321   6.811   2.768   1.744
 5141SOL    HW116322   6.721   2.725   1.751
 5141SOL    HW216323   6.845   2.757   1.650
 5142SOL     OW16324   0.181   0.180   2.383
 5142SOL    HW116325   0.119   0.111   2.347
 5142SOL    HW216326   0.157   0.270   2.346
 5143SOL     OW16327   6.970   6.261   2.885
 5143SOL    HW116328   7.002   6.354   2.904
 5143SOL    HW216329   6.927   6.258   2.795
 5144SOL     OW16330   2.364   2.976   5.372
 5144SOL    HW116331   2.447   2.997   5.320
 5144SOL    HW216332   2.344   3.052   5.434
 5145SOL     OW16333   2.030   5.626   6.820
 5145SOL    HW116334   1.965   5.566   6.774
 5145SOL    HW216335   2.120   5.583   6.822
 5146SOL     OW16336   5.682   5.355   6.297
 5146SOL    HW116337   5.655   5.450   6.283
 5146SOL    HW216338   5.779   5.344   6.276
 5147SOL     OW16339   4.633   2.629   3.609
 5147SOL    HW116340   4.549   2.576   3.597
 5147SOL    HW216341   4.624   2.687   3.690
 5148SOL     OW16342   0.825   0.404   6.272
 5148SOL    HW116343   0.889   0.413   6.195
 5148SOL    HW216344   0.732   0.414   6.238
 5149SOL     OW16345   4.802   4.713   3.680
 5149SOL    HW116346   4.881   4.672   3.727
 5149SOL    HW216347   4.735   4.641   3.662
 5150SOL     OW16348   0.119   6.285   3.908
 5150SOL    HW116349   0.173   6.355   3.953
 5150SOL    HW216350   0.072   6.324   3.829
 5151SOL     OW16351   6.352   5.571   2.247
 5151SOL    HW116352   6.322   5.663   2.223
 5151SOL    HW216353   6.435   5.548   2.195
 5152SOL     OW16354   1.320   1.162   0.536
 5152SOL    HW116355   1.369   1.201   0.458
 5152SOL    HW216356   1.226   1.196   0.536
 5153SOL     OW16357   0.991   1.960   0.987
 5153SOL    HW116358   1.006   2.027   1.060
 5153SOL    HW216359   1.046   1.879   1.005
 5154SOL     OW16360   0.392   2.726   0.295
 5154SOL    HW116361   0.451   2.675   0.357
 5154SOL    HW216362   0.297   2.696   0.307
 5155SOL     OW16363   1.660   1.342   0.568
 5155SOL    HW116364   1.654   1.409   0.643
 5155SOL    HW216365   1.595   1.367   0.496
 5156SOL     OW16366   5.222   5.955   5.653
 5156SOL    HW116367   5.237   5.971   5.555
 5156SOL    HW216368   5.151   5.887   5.665
 5157SOL     OW16369   3.327   0.268   1.555
 5157SOL    HW116370   3.269   0.341   1.591
 5157SOL    HW216371   3.403   0.253   1.617
 5158SOL     OW16372   1.918   2.196   1.672
 5158SOL    HW116373   1.976   2.174   1.750
 5158SOL    HW216374   1.962   2.268   1.617
 5159SOL     OW16375   6.347   3.139   5.931
 5159SOL    HW116376   6.261   3.190   5.943
 5159SOL    HW216377   6.380   3.152   5.837
 5160SOL     OW16378   5.943   6.309   3.537
 5160SOL    HW116379   5.924   6.352   3.625
 5160SOL    HW216380   6.031   6.262   3.541
 5161SOL     OW16381   1.260   3.594   0.427
 5161SOL    HW116382   1.164   3.583   0.402
 5161SOL    HW216383   1.268   3.596   0.527
 5162SOL     OW16384   0.324   0.144   3.631
 5162SOL    HW116385   0.258   0.103   3.568
 5162SOL    HW216386   0.306   0.242   3.639
 5163SOL     OW16387   3.097   0.397   1.778
 5163SOL    HW116388   3.063   0.403   1.684
 5163SOL    HW216389   3.139   0.484   1.804
 5164SOL     OW16390   3.188   3.587   0.502
 5164SOL    HW116391   3.209   3.589   0.404
 5164SOL    HW216392   3.160   3.494   0.527
 5165SOL     OW16393   1.795   4.085   6.086
 5165SOL    HW116394   1.829   4.177   6.106
 5165SOL    HW216395   1.768   4.040   6.171
 5166SOL     OW16396   1.232   5.476   0.685
 5166SOL    HW116397   1.236   5.422   0.769
 5166SOL    HW216398   1.238   5.573   0.707
 5167SOL     OW16399   5.448   3.116   5.070
 5167SOL    HW116400   5.358   3.109   5.028
 5167SOL    HW216401   5.478   3.211   5.070
 5168SOL     OW16402   4.228   2.125   3.028
 5168SOL    HW116403   4.238   2.183   3.109
 5168SOL    HW216404   4.192   2.180   2.952
 5169SOL     OW16405   4.116   5.934   4.530
 5169SOL    HW116406   4.186   5.894   4.470
 5169SOL    HW216407   4.026   5.919   4.490
 5170SOL     OW16408   1.962   3.333   6.360
 5170SOL    HW116409   1.887   3.386   6.321
 5170SOL    HW216410   1.951   3.236   6.338
 5171SOL     OW16411   1.953   5.776   5.521
 5171SOL    HW116412   1.981   5.859   5.472
 5171SOL    HW216413   1.894   5.801   5.598
 5172SOL     OW16414   6.348   5.679   4.586
 5172SOL    HW116415   6.444   5.662   4.610
 5172SOL    HW216416   6.339   5.684   4.486
 5173SOL     OW16417   4.425   4.055   5.653
 5173SOL    HW116418   4.499   3.993   5.626
 5173SOL    HW216419   4.344   4.001   5.679
 5174SOL     OW16420   2.237   6.461   3.293
 5174SOL    HW116421   2.220   6.524   3.217
 5174SOL    HW216422   2.333   6.431   3.290
 5175SOL     OW16423   3.278   3.411   6.998
 5175SOL    HW116424   3.285   3.322   6.952
 5175SOL    HW216425   3.357   3.423   0.038
 5176SOL     OW16426   6.344   6.135   0.124
 5176SOL    HW116427   6.278   6.064   0.149
 5176SOL    HW216428   6.381   6.178   0.206
 5177SOL     OW16429   6.138   6.853   0.638
 5177SOL    HW116430   6.056   6.884   0.685
 5177SOL    HW216431   6.113   6.800   0.557
 5178SOL     OW16432   0.834   4.495   2.383
 5178SOL    HW116433   0.927   4.460   2.390
 5178SOL    HW216434   0.784   4.474   2.466
 5179SOL     OW16435   4.752   6.126   2.502
 5179SOL    HW116436   4.734   6.107   2.599
 5179SOL    HW216437   4.821   6.198   2.495
 5180SOL     OW16438   2.514   6.705   2.364
 5180SOL    HW116439   2.491   6.800   2.382
 5180SOL    HW216440   2.430   6.650   2.361
 5181SOL     OW16441   0.258   0.105   6.029
 5181SOL    HW116442   0.262   0.046   5.949
 5181SOL    HW216443   0.250   0.049   6.112
 5182SOL     OW16444   2.851   6.547   3.335
 5182SOL    HW116445   2.906   6.522   3.256
 5182SOL    HW216446   2.776   6.607   3.307
 5183SOL     OW16447   4.310   1.471   3.858
 5183SOL    HW116448   4.375   1.433   3.924
 5183SOL    HW216449   4.223   1.422   3.864
 5184SOL     OW16450   3.079   1.116   3.852
 5184SOL    HW116451   2.985   1.082   3.859
 5184SOL    HW216452   3.078   1.216   3.855
 5185SOL     OW16453   6.496   0.537   1.808
 5185SOL    HW116454   6.465   0.568   1.897
 5185SOL    HW216455   6.595   0.521   1.811
 5186SOL     OW16456   0.544   3.183   6.485
 5186SOL    HW116457   0.504   3.108   6.431
 5186SOL    HW216458   0.506   3.270   6.454
 5187SOL     OW16459   1.592   4.723   5.061
 5187SOL    HW116460   1.657   4.742   5.134
 5187SOL    HW216461   1.502   4.756   5.087
 5188SOL     OW16462   5.931   0.154   2.508
 5188SOL    HW116463   5.980   0.113   2.432
 5188SOL    HW216464   5.833   0.133   2.501
 5189SOL     OW16465   5.542   6.931   6.202
 5189SOL    HW116466   5.517   6.889   6.115
 5189SOL    HW216467   5.637   6.910   6.224
 5190SOL     OW16468   2.009   3.944   0.862
 5190SOL    HW116469   1.988   3.861   0.913
 5190SOL    HW216470   2.107   3.964   0.872
 5191SOL     OW16471   2.917   5.006   2.055
 5191SOL    HW116472   2.962   5.077   2.000
 5191SOL    HW216473   2.936   4.916   2.016
 5192SOL     OW16474   2.025   5.391   2.114
 5192SOL    HW116475   2.066   5.376   2.204
 5192SOL    HW216476   1.996   5.303   2.076
 5193SOL     OW16477   5.184   0.104   5.277
 5193SOL    HW116478   5.146   0.192   5.307
 5193SOL    HW216479   5.139   0.030   5.326
 5194SOL     OW16480   5.496   1.581   6.219
 5194SOL    HW116481   5.406   1.549   6.249
 5194SOL    HW216482   5.509   1.676   6.248
 5195SOL     OW16483   6.973   0.750   4.956
 5195SOL    HW116484   6.900   0.709   4.900
 5195SOL    HW216485   0.023   0.786   4.896
 5196SOL     OW16486   5.671   0.018   3.213
 5196SOL    HW116487   5.621   6.964   3.168
 5196SOL    HW216488   5.766   7.012   3.227
 5197SOL     OW16489   1.062   3.597   5.141
 5197SOL    HW116490   1.123   3.648   5.080
 5197SOL    HW216491   1.064   3.639   5.232
 5198SOL     OW16492   5.843   5.339   3.369
 5198SOL    HW116493   5.899   5.344   3.286
 5198SOL    HW216494   5.754   5.382   3.351
 5199SOL     OW16495   0.575   4.704   1.871
 5199SOL    HW116496   0.605   4.626   1.816
 5199SOL    HW216497   0.475   4.703   1.878
 5200SOL     OW16498   0.016   3.842   4.486
 5200SOL    HW116499   0.038   3.909   4.416
 5200SOL    HW216500   6.945   3.861   4.523
 5201SOL     OW16501   1.463   4.755   4.443
 5201SOL    HW116502   1.430   4.661   4.455
 5201SOL    HW216503   1.404   4.803   4.378
 5202SOL     OW16504   0.838   5.147   1.573
 5202SOL    HW116505   0.830   5.088   1.492
 5202SOL    HW216506   0.806   5.097   1.654
 5203SOL     OW16507   0.704   2.961   0.659
 5203SOL    HW116508   0.728   2.989   0.566
 5203SOL    HW216509   0.622   2.903   0.655
 5204SOL     OW16510   4.854   4.619   6.788
 5204SOL    HW116511   4.758   4.631   6.815
 5204SOL    HW216512   4.889   4.704   6.749
 5205SOL     OW16513   1.397   0.282   1.351
 5205SOL    HW116514   1.368   0.256   1.259
 5205SOL    HW216515   1.437   0.374   1.348
 5206SOL     OW16516   0.468   4.291   4.981
 5206SOL    HW116517   0.559   4.320   4.952
 5206SOL    HW216518   0.439   4.345   5.060
 5207SOL     OW16519   2.047   4.411   4.038
 5207SOL    HW116520   1.961   4.446   4.000
 5207SOL    HW216521   2.115   4.485   4.040
 5208SOL     OW16522   4.435   1.310   6.748
 5208SOL    HW116523   4.383   1.390   6.780
 5208SOL    HW216524   4.374   1.231   6.742
 5209SOL     OW16525   4.898   6.303   3.162
 5209SOL    HW116526   4.939   6.333   3.247
 5209SOL    HW216527   4.806   6.343   3.153
 5210SOL     OW16528   4.440   5.045   3.578
 5210SOL    HW116529   4.416   4.984   3.502
 5210SOL    HW216530   4.512   5.109   3.548
 5211SOL     OW16531   3.959   3.891   2.608
 5211SOL    HW116532   4.008   3.927   2.687
 5211SOL    HW216533   3.876   3.944   2.592
 5212SOL     OW16534   0.980   1.945   0.490
 5212SOL    HW116535   0.993   2.014   0.418
 5212SOL    HW216536   0.963   1.856   0.447
 5213SOL     OW16537   4.034   1.652   6.623
 5213SOL    HW116538   4.018   1.720   6.694
 5213SOL    HW216539   3.952   1.642   6.567
 5214SOL     OW16540   5.701   1.551   5.836
 5214SOL    HW116541   5.610   1.543   5.794
 5214SOL    HW216542   5.725   1.648   5.843
 5215SOL     OW16543   4.953   5.449   2.361
 5215SOL    HW116544   4.969   5.456   2.459
 5215SOL    HW216545   4.856   5.469   2.342
 5216SOL     OW16546   4.990   5.131   1.064
 5216SOL    HW116547   4.953   5.223   1.078
 5216SOL    HW216548   4.918   5.063   1.081
 5217SOL     OW16549   2.575   4.982   3.944
 5217SOL    HW116550   2.533   4.918   4.008
 5217SOL    HW216551   2.671   4.960   3.931
 5218SOL     OW16552   1.608   6.913   4.036
 5218SOL    HW116553   1.601   6.959   4.125
 5218SOL    HW216554   1.599   6.814   4.050
 5219SOL     OW16555   2.521   5.566   7.002
 5219SOL    HW116556   2.575   5.640   0.021
 5219SOL    HW216557   2.469   5.520   0.053
 5220SOL     OW16558   0.556   6.810   2.306
 5220SOL    HW116559   0.608   6.875   2.250
 5220SOL    HW216560   0.606   6.724   2.311
 5221SOL     OW16561   4.611   1.263   5.165
 5221SOL    HW116562   4.591   1.360   5.180
 5221SOL    HW216563   4.704   1.253   5.130
 5222SOL     OW16564   1.270   0.462   2.461
 5222SOL    HW116565   1.271   0.506   2.371
 5222SOL    HW216566   1.190   0.493   2.513
 5223SOL     OW16567   5.145   0.100   1.432
 5223SOL    HW116568   5.148   0.043   1.514
 5223SOL    HW216569   5.112   0.045   1.355
 5224SOL     OW16570   5.804   2.114   2.479
 5224SOL    HW116571   5.900   2.085   2.483
 5224SOL    HW216572   5.776   2.152   2.567
 5225SOL     OW16573   5.414   5.924   5.395
 5225SOL    HW116574   5.438   5.865   5.318
 5225SOL    HW216575   5.356   5.999   5.364
 5226SOL     OW16576   1.162   6.308   4.100
 5226SOL    HW116577   1.203   6.227   4.143
 5226SOL    HW216578   1.106   6.279   4.022
 5227SOL     OW16579   6.017   4.879   3.331
 5227SOL    HW116580   6.030   4.936   3.251
 5227SOL    HW216581   5.923   4.846   3.333
 5228SOL     OW16582   5.612   1.209   1.004
 5228SOL    HW116583   5.673   1.286   1.022
 5228SOL    HW216584   5.525   1.224   1.049
 5229SOL     OW16585   1.380   4.478   4.819
 5229SOL    HW116586   1.316   4.410   4.852
 5229SOL    HW216587   1.337   4.568   4.820
 5230SOL     OW16588   1.028   6.984   6.987
 5230SOL    HW116589   1.102   0.022   6.955
 5230SOL    HW216590   0.970   0.013   0.030
 5231SOL     OW16591   3.990   3.192   3.541
 5231SOL    HW116592   3.948   3.228   3.457
 5231SOL    HW216593   3.952   3.102   3.561
 5232SOL     OW16594   4.843   2.568   6.480
 5232SOL    HW116595   4.795   2.531   6.400
 5232SOL    HW216596   4.783   2.630   6.529
 5233SOL     OW16597   0.768   0.764   2.425
 5233SOL    HW116598   0.867   0.776   2.424
 5233SOL    HW216599   0.726   0.846   2.463
 5234SOL     OW16600   3.913   6.791   0.943
 5234SOL    HW116601   3.888   6.876   0.897
 5234SOL    HW216602   4.010   6.792   0.966
 5235SOL     OW16603   0.853   3.478   1.313
 5235SOL    HW116604   0.825   3.556   1.257
 5235SOL    HW216605   0.870   3.399   1.254
 5236SOL     OW16606   4.969   2.977   0.816
 5236SOL    HW116607   4.979   3.052   0.882
 5236SOL    HW216608   4.923   2.900   0.861
 5237SOL     OW16609   2.356   1.682   5.077
 5237SOL    HW116610   2.297   1.643   5.148
 5237SOL    HW216611   2.299   1.719   5.003
 5238SOL     OW16612   1.811   4.411   1.079
 5238SOL    HW116613   1.868   4.387   1.000
 5238SOL    HW216614   1.865   4.466   1.143
 5239SOL     OW16615   2.912   3.673   4.267
 5239SOL    HW116616   2.870   3.645   4.181
 5239SOL    HW216617   3.008   3.647   4.268
 5240SOL     OW16618   3.196   2.145   4.799
 5240SOL    HW116619   3.174   2.187   4.887
 5240SOL    HW216620   3.187   2.212   4.726
 5241SOL     OW16621   1.998   5.626   6.400
 5241SOL    HW116622   1.953   5.602   6.486
 5241SOL    HW216623   2.091   5.590   6.400
 5242SOL     OW16624   5.880   0.788   5.345
 5242SOL    HW116625   5.921   0.748   5.427
 5242SOL    HW216626   5.862   0.885   5.360
 5243SOL     OW16627   1.399   4.743   1.227
 5243SOL    HW116628   1.448   4.703   1.304
 5243SOL    HW216629   1.369   4.670   1.165
 5244SOL     OW16630   5.390   4.118   6.087
 5244SOL    HW116631   5.487   4.097   6.080
 5244SOL    HW216632   5.374   4.181   6.163
 5245SOL     OW16633   4.980   3.710   6.688
 5245SOL    HW116634   4.946   3.639   6.749
 5245SOL    HW216635   4.951   3.689   6.594
 5246SOL     OW16636   1.123   3.284   2.774
 5246SOL    HW116637   1.109   3.207   2.712
 5246SOL    HW216638   1.156   3.250   2.862
 5247SOL     OW16639   0.680   4.917   1.111
 5247SOL    HW116640   0.596   4.971   1.117
 5247SOL    HW216641   0.657   4.819   1.113
 5248SOL     OW16642   4.926   0.971   6.030
 5248SOL    HW116643   5.018   0.936   6.012
 5248SOL    HW216644   4.931   1.065   6.063
 5249SOL     OW16645   0.843   5.293   4.729
 5249SOL    HW116646   0.851   5.219   4.662
 5249SOL    HW216647   0.813   5.376   4.683
 5250SOL     OW16648   0.612   1.207   6.341
 5250SOL    HW116649   0.521   1.248   6.332
 5250SOL    HW216650   0.674   1.250   6.275
 5251SOL     OW16651   6.873   3.257   1.040
 5251SOL    HW116652   6.822   3.197   0.978
 5251SOL    HW216653   6.935   3.201   1.095
 5252SOL     OW16654   4.138   5.937   0.593
 5252SOL    HW116655   4.150   5.985   0.507
 5252SOL    HW216656   4.181   5.989   0.667
 5253SOL     OW16657   5.652   3.460   3.649
 5253SOL    HW116658   5.555   3.482   3.645
 5253SOL    HW216659   5.706   3.544   3.651
 5254SOL     OW16660   4.795   0.708   3.969
 5254SOL    HW116661   4.837   0.629   3.924
 5254SOL    HW216662   4.703   0.722   3.934
 5255SOL     OW16663   3.385   6.312   4.880
 5255SOL    HW116664   3.482   6.324   4.857
 5255SOL    HW216665   3.332   6.297   4.796
 5256SOL     OW16666   5.620   6.379   3.551
 5256SOL    HW116667   5.591   6.451   3.488
 5256SOL    HW216668   5.653   6.300   3.499
 5257SOL     OW16669   3.284   0.720   1.166
 5257SOL    HW116670   3.191   0.683   1.155
 5257SOL    HW216671   3.284   0.817   1.141
 5258SOL     OW16672   5.761   3.334   2.351
 5258SOL    HW116673   5.728   3.312   2.443
 5258SOL    HW216674   5.856   3.304   2.342
 5259SOL     OW16675   4.811   4.990   2.378
 5259SOL    HW116676   4.747   4.936   2.325
 5259SOL    HW216677   4.894   4.937   2.394
 5260SOL     OW16678   5.561   3.305   1.307
 5260SOL    HW116679   5.473   3.272   1.340
 5260SOL    HW216680   5.549   3.398   1.271
 5261SOL     OW16681   1.621   2.620   4.595
 5261SOL    HW116682   1.573   2.684   4.536
 5261SOL    HW216683   1.574   2.615   4.684
 5262SOL     OW16684   2.519   6.980   2.333
 5262SOL    HW116685   2.439   0.020   2.339
 5262SOL    HW216686   2.593   7.017   2.389
 5263SOL     OW16687   0.922   6.418   6.758
 5263SOL    HW116688   0.957   6.367   6.679
 5263SOL    HW216689   0.881   6.503   6.726
 5264SOL     OW16690   0.327   2.366   0.811
 5264SOL    HW116691   0.402   2.307   0.841
 5264SOL    HW216692   0.269   2.389   0.889
 5265SOL     OW16693   5.255   4.728   1.833
 5265SOL    HW116694   5.186   4.657   1.818
 5265SOL    HW216695   5.333   4.712   1.772
 5266SOL     OW16696   1.774   6.518   0.984
 5266SOL    HW116697   1.727   6.607   0.989
 5266SOL    HW216698   1.869   6.529   1.011
 5267SOL     OW16699   4.836   4.613   4.857
 5267SOL    HW116700   4.896   4.599   4.778
 5267SOL    HW216701   4.768   4.540   4.859
 5268SOL     OW16702   5.666   4.586   4.604
 5268SOL    HW116703   5.758   4.601   4.640
 5268SOL    HW216704   5.611   4.669   4.615
 5269SOL     OW16705   1.963   5.960   4.004
 5269SOL    HW116706   1.965   5.861   4.019
 5269SOL    HW216707   2.046   5.987   3.953
 5270SOL     OW16708   5.998   2.676   2.027
 5270SOL    HW116709   6.055   2.610   1.979
 5270SOL    HW216710   6.056   2.738   2.080
 5271SOL     OW16711   5.148   4.382   4.837
 5271SOL    HW116712   5.070   4.424   4.790
 5271SOL    HW216713   5.120   4.295   4.878
 5272SOL     OW16714   1.674   0.935   5.049
 5272SOL    HW116715   1.711   1.026   5.030
 5272SOL    HW216716   1.574   0.939   5.050
 5273SOL     OW16717   0.418   1.086   3.849
 5273SOL    HW116718   0.451   1.002   3.806
 5273SOL    HW216719   0.339   1.120   3.798
 5274SOL     OW16720   6.349   5.112   3.911
 5274SOL    HW116721   6.311   5.178   3.847
 5274SOL    HW216722   6.440   5.142   3.941
 5275SOL     OW16723   2.013   6.913   6.988
 5275SOL    HW116724   2.004   6.958   0.056
 5275SOL    HW216725   1.998   6.815   6.998
 5276SOL     OW16726   0.340   6.565   1.462
 5276SOL    HW116727   0.276   6.525   1.528
 5276SOL    HW216728   0.289   6.612   1.390
 5277SOL     OW16729   1.164   1.802   3.371
 5277SOL    HW116730   1.068   1.829   3.372
 5277SOL    HW216731   1.220   1.881   3.346
 5278SOL     OW16732   0.893   5.192   5.211
 5278SOL    HW116733   0.849   5.249   5.141
 5278SOL    HW216734   0.896   5.097   5.180
 5279SOL     OW16735   1.617   5.586   6.706
 5279SOL    HW116736   1.569   5.608   6.621
 5279SOL    HW216737   1.596   5.654   6.775
 5280SOL     OW16738   4.421   5.984   5.424
 5280SOL    HW116739   4.494   5.949   5.365
 5280SOL    HW216740   4.362   6.044   5.372
 5281SOL     OW16741   2.157   1.049   5.036
 5281SOL    HW116742   2.179   1.146   5.041
 5281SOL    HW216743   2.095   1.032   4.960
 5282SOL     OW16744   1.441   0.352   1.760
 5282SOL    HW116745   1.408   0.393   1.675
 5282SOL    HW216746   1.539   0.335   1.754
 5283SOL     OW16747   0.679   0.854   4.288
 5283SOL    HW116748   0.644   0.882   4.377
 5283SOL    HW216749   0.641   0.764   4.264
 5284SOL     OW16750   4.762   2.237   2.069
 5284SOL    HW116751   4.756   2.265   1.974
 5284SOL    HW216752   4.786   2.140   2.074
 5285SOL     OW16753   1.078   2.379   4.368
 5285SOL    HW116754   1.051   2.401   4.462
 5285SOL    HW216755   1.058   2.456   4.308
 5286SOL     OW16756   6.006   3.047   0.893
 5286SOL    HW116757   5.926   3.064   0.949
 5286SOL    HW216758   6.018   3.121   0.827
 5287SOL     OW16759   2.858   5.147   1.030
 5287SOL    HW116760   2.951   5.127   1.061
 5287SOL    HW216761   2.793   5.090   1.081
 5288SOL     OW16762   4.474   0.936   2.266
 5288SOL    HW116763   4.563   0.939   2.221
 5288SOL    HW216764   4.487   0.921   2.364
 5289SOL     OW16765   1.859   4.296   6.259
 5289SOL    HW116766   1.808   4.381   6.247
 5289SOL    HW216767   1.838   4.256   6.348
 5290SOL     OW16768   1.209   2.958   5.558
 5290SOL    HW116769   1.309   2.958   5.563
 5290SOL    HW216770   1.171   2.920   5.643
 5291SOL     OW16771   2.804   4.753   4.811
 5291SOL    HW116772   2.746   4.698   4.750
 5291SOL    HW216773   2.840   4.695   4.884
 5292SOL     OW16774   6.888   4.104   6.547
 5292SOL    HW116775   6.980   4.107   6.507
 5292SOL    HW216776   6.871   4.187   6.599
 5293SOL     OW16777   2.100   5.883   4.458
 5293SOL    HW116778   2.072   5.920   4.547
 5293SOL    HW216779   2.033   5.907   4.389
 5294SOL     OW16780   3.883   0.534   5.131
 5294SOL    HW116781   3.867   0.616   5.077
 5294SOL    HW216782   3.939   0.470   5.078
 5295SOL     OW16783   2.691   1.160   2.155
 5295SOL    HW116784   2.685   1.146   2.254
 5295SOL    HW216785   2.606   1.129   2.112
 5296SOL     OW16786   4.349   4.871   0.995
 5296SOL    HW116787   4.405   4.945   1.030
 5296SOL    HW216788   4.401   4.786   0.995
 5297SOL     OW16789   2.326   4.254   0.727
 5297SOL    HW116790   2.354   4.349   0.741
 5297SOL    HW216791   2.301   4.240   0.631
 5298SOL     OW16792   2.179   0.081   0.721
 5298SOL    HW116793   2.206   0.177   0.721
 5298SOL    HW216794   2.259   0.024   0.739
 5299SOL     OW16795   2.962   1.900   0.426
 5299SOL    HW116796   2.948   1.847   0.342
 5299SOL    HW216797   2.978   1.838   0.502
 5300SOL     OW16798   1.991   4.238   0.244
 5300SOL    HW116799   1.895   4.268   0.244
 5300SOL    HW216800   2.050   4.318   0.249
 5301SOL     OW16801   4.707   0.573   5.842
 5301SOL    HW116802   4.654   0.658   5.840
 5301SOL    HW216803   4.803   0.594   5.820
 5302SOL     OW16804   5.411   5.790   3.005
 5302SOL    HW116805   5.317   5.773   3.035
 5302SOL    HW216806   5.475   5.749   3.070
 5303SOL     OW16807   6.813   4.721   5.861
 5303SOL    HW116808   6.847   4.628   5.847
 5303SOL    HW216809   6.789   4.762   5.773
 5304SOL     OW16810   6.547   1.400   1.349
 5304SOL    HW116811   6.570   1.497   1.345
 5304SOL    HW216812   6.602   1.356   1.421
 5305SOL     OW16813   1.590   5.527   2.881
 5305SOL    HW116814   1.638   5.471   2.949
 5305SOL    HW216815   1.511   5.476   2.846
 5306SOL     OW16816   6.647   3.999   5.732
 5306SOL    HW116817   6.590   3.917   5.736
 5306SOL    HW216818   6.612   4.068   5.795
 5307SOL     OW16819   5.358   2.528   0.894
 5307SOL    HW116820   5.374   2.613   0.944
 5307SOL    HW216821   5.299   2.546   0.815
 5308SOL     OW16822   1.414   4.799   2.882
 5308SOL    HW116823   1.415   4.827   2.978
 5308SOL    HW216824   1.339   4.735   2.867
 5309SOL     OW16825   4.605   6.423   3.144
 5309SOL    HW116826   4.512   6.460   3.130
 5309SOL    HW216827   4.662   6.493   3.186
 5310SOL     OW16828   5.937   2.939   3.089
 5310SOL    HW116829   5.992   2.955   3.007
 5310SOL    HW216830   5.992   2.892   3.157
 5311SOL     OW16831   5.741   0.307   0.647
 5311SOL    HW116832   5.701   0.374   0.584
 5311SOL    HW216833   5.817   0.350   0.697
 5312SOL     OW16834   0.032   6.576   1.455
 5312SOL    HW116835   0.084   6.649   1.412
 5312SOL    HW216836   7.011   6.611   1.539
 5313SOL     OW16837   6.679   5.012   5.114
 5313SOL    HW116838   6.724   5.088   5.067
 5313SOL    HW216839   6.603   5.047   5.169
 5314SOL     OW16840   6.103   6.883   1.493
 5314SOL    HW116841   6.058   6.887   1.582
 5314SOL    HW216842   6.186   6.827   1.500
 5315SOL     OW16843   4.215   1.204   3.982
 5315SOL    HW116844   4.291   1.144   4.008
 5315SOL    HW216845   4.193   1.265   4.058
 5316SOL     OW16846   1.054   2.810   4.752
 5316SOL    HW116847   1.149   2.781   4.751
 5316SOL    HW216848   1.047   2.902   4.791
 5317SOL     OW16849   6.752   1.980   5.887
 5317SOL    HW116850   6.712   1.888   5.884
 5317SOL    HW216851   6.770   2.006   5.982
 5318SOL     OW16852   6.574   2.865   0.093
 5318SOL    HW116853   6.597   2.941   0.154
 5318SOL    HW216854   6.475   2.852   0.092
 5319SOL     OW16855   4.356   6.931   1.327
 5319SOL    HW116856   4.299   6.848   1.320
 5319SOL    HW216857   4.414   6.938   1.246
 5320SOL     OW16858   3.292   5.930   1.298
 5320SOL    HW116859   3.365   5.995   1.275
 5320SOL    HW216860   3.211   5.980   1.327
 5321SOL     OW16861   2.131   4.773   4.536
 5321SOL    HW116862   2.210   4.776   4.474
 5321SOL    HW216863   2.148   4.707   4.608
 5322SOL     OW16864   5.669   6.765   1.709
 5322SOL    HW116865   5.655   6.752   1.611
 5322SOL    HW216866   5.714   6.684   1.747
 5323SOL     OW16867   4.597   1.535   5.719
 5323SOL    HW116868   4.554   1.595   5.786
 5323SOL    HW216869   4.527   1.490   5.665
 5324SOL     OW16870   2.213   2.381   0.470
 5324SOL    HW116871   2.284   2.381   0.540
 5324SOL    HW216872   2.242   2.326   0.392
 5325SOL     OW16873   2.603   2.250   4.745
 5325SOL    HW116874   2.559   2.318   4.804
 5325SOL    HW216875   2.550   2.238   4.662
 5326SOL     OW16876   5.811   6.473   2.856
 5326SOL    HW116877   5.903   6.437   2.844
 5326SOL    HW216878   5.803   6.515   2.947
 5327SOL     OW16879   5.362   2.790   4.856
 5327SOL    HW116880   5.315   2.858   4.911
 5327SOL    HW216881   5.349   2.699   4.896
 5328SOL     OW16882   4.119   4.351   0.109
 5328SOL    HW116883   4.166   4.283   0.164
 5328SOL    HW216884   4.022   4.353   0.134
 5329SOL     OW16885   1.416   6.001   6.555
 5329SOL    HW116886   1.497   6.058   6.570
 5329SOL    HW216887   1.335   6.059   6.544
 5330SOL     OW16888   2.784   3.142   0.795
 5330SOL    HW116889   2.834   3.123   0.880
 5330SOL    HW216890   2.699   3.089   0.794
 5331SOL     OW16891   6.647   0.881   6.839
 5331SOL    HW116892   6.649   0.786   6.807
 5331SOL    HW216893   6.560   0.899   6.883
 5332SOL     OW16894   1.234   4.657   2.198
 5332SOL    HW116895   1.314   4.634   2.255
 5332SOL    HW216896   1.170   4.581   2.199
 5333SOL     OW16897   0.844   6.676   4.145
 5333SOL    HW116898   0.882   6.607   4.084
 5333SOL    HW216899   0.918   6.735   4.179
 5334SOL     OW16900   2.921   6.790   4.114
 5334SOL    HW116901   2.865   6.866   4.080
 5334SOL    HW216902   2.917   6.788   4.214
 5335SOL     OW16903   6.941   5.215   0.969
 5335SOL    HW116904   0.012   5.178   0.951
 5335SOL    HW216905   6.877   5.139   0.981
 5336SOL     OW16906   1.612   3.535   2.174
 5336SOL    HW116907   1.550   3.477   2.226
 5336SOL    HW216908   1.655   3.482   2.100
 5337SOL     OW16909   5.106   4.299   1.297
 5337SOL    HW116910   5.047   4.232   1.344
 5337SOL    HW216911   5.191   4.311   1.348
 5338SOL     OW16912   6.575   2.169   6.770
 5338SOL    HW116913   6.657   2.190   6.717
 5338SOL    HW216914   6.583   2.209   6.861
 5339SOL     OW16915   6.687   1.791   3.516
 5339SOL    HW116916   6.668   1.832   3.427
 5339SOL    HW216917   6.604   1.792   3.572
 5340SOL     OW16918   5.499   2.678   6.811
 5340SOL    HW116919   5.531   2.771   6.794
 5340SOL    HW216920   5.452   2.644   6.730
 5341SOL     OW16921   4.891   0.838   6.525
 5341SOL    HW116922   4.822   0.766   6.528
 5341SOL    HW216923   4.972   0.806   6.475
 5342SOL     OW16924   4.182   0.709   5.869
 5342SOL    HW116925   4.114   0.671   5.806
 5342SOL    HW216926   4.189   0.807   5.855
 5343SOL     OW16927   3.861   3.311   2.347
 5343SOL    HW116928   3.917   3.347   2.422
 5343SOL    HW216929   3.844   3.214   2.362
 5344SOL     OW16930   2.113   2.710   3.404
 5344SOL    HW116931   2.056   2.780   3.361
 5344SOL    HW216932   2.209   2.730   3.389
 5345SOL     OW16933   4.240   6.688   1.305
 5345SOL    HW116934   4.302   6.651   1.235
 5345SOL    HW216935   4.250   6.635   1.389
 5346SOL     OW16936   2.937   6.293   3.369
 5346SOL    HW116937   2.890   6.376   3.341
 5346SOL    HW216938   2.923   6.279   3.467
 5347SOL     OW16939   0.069   1.718   1.185
 5347SOL    HW116940   0.005   1.644   1.166
 5347SOL    HW216941   0.030   1.779   1.254
 5348SOL     OW16942   1.430   1.596   0.089
 5348SOL    HW116943   1.349   1.578   0.144
 5348SOL    HW216944   1.511   1.561   0.137
 5349SOL     OW16945   0.079   1.437   0.767
 5349SOL    HW116946   0.155   1.440   0.832
 5349SOL    HW216947   7.013   1.449   0.815
 5350SOL     OW16948   2.427   1.038   6.327
 5350SOL    HW116949   2.391   1.092   6.403
 5350SOL    HW216950   2.495   1.090   6.277
 5351SOL     OW16951   4.688   6.556   0.800
 5351SOL    HW116952   4.752   6.633   0.807
 5351SOL    HW216953   4.730   6.483   0.746
 5352SOL     OW16954   2.770   5.702   3.467
 5352SOL    HW116955   2.766   5.726   3.564
 5352SOL    HW216956   2.857   5.735   3.429
 5353SOL     OW16957   5.173   5.950   5.078
 5353SOL    HW116958   5.202   5.868   5.126
 5353SOL    HW216959   5.133   5.925   4.990
 5354SOL     OW16960   1.575   4.839   1.602
 5354SOL    HW116961   1.664   4.875   1.630
 5354SOL    HW216962   1.585   4.789   1.516
 5355SOL     OW16963   4.558   1.400   4.032
 5355SOL    HW116964   4.615   1.321   4.052
 5355SOL    HW216965   4.610   1.466   3.978
 5356SOL     OW16966   6.272   4.026   1.188
 5356SOL    HW116967   6.173   4.032   1.202
 5356SOL    HW216968   6.306   3.941   1.227
 5357SOL     OW16969   3.507   0.260   0.054
 5357SOL    HW116970   3.542   0.265   6.981
 5357SOL    HW216971   3.445   0.336   0.071
 5358SOL     OW16972   4.473   2.842   0.754
 5358SOL    HW116973   4.422   2.834   0.668
 5358SOL    HW216974   4.473   2.753   0.800
 5359SOL     OW16975   2.262   1.708   0.523
 5359SOL    HW116976   2.222   1.617   0.512
 5359SOL    HW216977   2.254   1.758   0.437
 5360SOL     OW16978   3.813   6.541   5.956
 5360SOL    HW116979   3.855   6.595   5.884
 5360SOL    HW216980   3.753   6.472   5.916
 5361SOL     OW16981   1.964   1.020   4.843
 5361SOL    HW116982   1.969   1.052   4.748
 5361SOL    HW216983   1.868   1.009   4.869
 5362SOL     OW16984   4.683   5.084   2.607
 5362SOL    HW116985   4.721   5.061   2.518
 5362SOL    HW216986   4.628   5.008   2.641
 5363SOL     OW16987   0.849   5.158   6.529
 5363SOL    HW116988   0.844   5.208   6.442
 5363SOL    HW216989   0.828   5.221   6.604
 5364SOL     OW16990   6.820   6.596   0.939
 5364SOL    HW116991   6.858   6.679   0.980
 5364SOL    HW216992   6.821   6.522   1.007
 5365SOL     OW16993   4.611   1.886   5.943
 5365SOL    HW116994   4.623   1.868   6.041
 5365SOL    HW216995   4.529   1.838   5.911
 5366SOL     OW16996   4.522   4.406   0.213
 5366SOL    HW116997   4.484   4.479   0.270
 5366SOL    HW216998   4.522   4.436   0.118
 5367SOL     OW16999   0.319   4.220   1.668
 5367SOL    HW117000   0.327   4.313   1.704
 5367SOL    HW217001   0.233   4.179   1.698
 5368SOL     OW17002   5.596   2.107   3.011
 5368SOL    HW117003   5.581   2.029   3.071
 5368SOL    HW217004   5.680   2.092   2.958
 5369SOL     OW17005   2.460   4.418   3.016
 5369SOL    HW117006   2.398   4.482   2.971
 5369SOL    HW217007   2.421   4.326   3.011
 5370SOL     OW17008   3.920   2.707   1.324
 5370SOL    HW117009   3.831   2.732   1.362
 5370SOL    HW217010   3.958   2.631   1.377
 5371SOL     OW17011   1.558   4.066   4.245
 5371SOL    HW117012   1.517   4.147   4.286
 5371SOL    HW217013   1.486   4.008   4.207
 5372SOL     OW17014   2.967   4.982   2.930
 5372SOL    HW117015   2.956   5.065   2.984
 5372SOL    HW217016   2.946   5.001   2.834
 5373SOL     OW17017   3.283   4.953   4.150
 5373SOL    HW117018   3.228   5.033   4.175
 5373SOL    HW217019   3.359   4.943   4.214
 5374SOL     OW17020   1.807   2.506   6.557
 5374SOL    HW117021   1.828   2.541   6.466
 5374SOL    HW217022   1.708   2.492   6.565
 5375SOL     OW17023   1.440   4.330   4.355
 5375SOL    HW117024   1.357   4.357   4.403
 5375SOL    HW217025   1.520   4.361   4.406
 5376SOL     OW17026   1.376   3.834   1.693
 5376SOL    HW117027   1.416   3.824   1.602
 5376SOL    HW217028   1.448   3.821   1.762
 5377SOL     OW17029   0.233   0.297   1.544
 5377SOL    HW117030   0.226   0.381   1.490
 5377SOL    HW217031   0.272   0.224   1.487
 5378SOL     OW17032   5.912   0.661   7.010
 5378SOL    HW117033   5.862   0.615   0.063
 5378SOL    HW217034   5.883   0.757   7.005
 5379SOL     OW17035   0.285   5.450   2.846
 5379SOL    HW117036   0.301   5.357   2.880
 5379SOL    HW217037   0.215   5.494   2.903
 5380SOL     OW17038   2.533   0.149   3.349
 5380SOL    HW117039   2.467   0.078   3.326
 5380SOL    HW217040   2.620   0.108   3.374
 5381SOL     OW17041   5.479   4.410   1.286
 5381SOL    HW117042   5.439   4.407   1.378
 5381SOL    HW217043   5.471   4.320   1.243
 5382SOL     OW17044   3.193   1.206   1.247
 5382SOL    HW117045   3.257   1.184   1.174
 5382SOL    HW217046   3.199   1.303   1.269
 5383SOL     OW17047   2.411   2.080   5.373
 5383SOL    HW117048   2.439   2.170   5.340
 5383SOL    HW217049   2.312   2.079   5.388
 5384SOL     OW17050   6.172   6.812   4.037
 5384SOL    HW117051   6.124   6.728   4.010
 5384SOL    HW217052   6.255   6.789   4.087
 5385SOL     OW17053   3.496   4.057   2.381
 5385SOL    HW117054   3.428   4.047   2.308
 5385SOL    HW217055   3.569   4.117   2.350
 5386SOL     OW17056   5.205   6.169   4.166
 5386SOL    HW117057   5.206   6.079   4.124
 5386SOL    HW217058   5.259   6.233   4.111
 5387SOL     OW17059   2.662   5.109   2.115
 5387SOL    HW117060   2.742   5.057   2.084
 5387SOL    HW217061   2.625   5.066   2.198
 5388SOL     OW17062   5.580   6.832   2.442
 5388SOL    HW117063   5.487   6.807   2.469
 5388SOL    HW217064   5.618   6.896   2.509
 5389SOL     OW17065   4.697   1.022   1.621
 5389SOL    HW117066   4.703   1.098   1.556
 5389SOL    HW217067   4.649   1.053   1.704
 5390SOL     OW17068   6.190   5.048   5.275
 5390SOL    HW117069   6.141   5.133   5.257
 5390SOL    HW217070   6.164   4.979   5.208
 5391SOL     OW17071   2.932   3.164   0.403
 5391SOL    HW117072   2.874   3.245   0.401
 5391SOL    HW217073   2.881   3.086   0.440
 5392SOL     OW17074   5.930   3.131   1.442
 5392SOL    HW117075   6.001   3.065   1.417
 5392SOL    HW217076   5.883   3.100   1.524
 5393SOL     OW17077   6.433   0.134   0.264
 5393SOL    HW117078   6.452   0.053   0.320
 5393SOL    HW217079   6.518   0.165   0.221
 5394SOL     OW17080   0.629   4.016   5.908
 5394SOL    HW117081   0.728   4.003   5.910
 5394SOL    HW217082   0.590   3.967   5.831
 5395SOL     OW17083   3.819   0.418   0.602
 5395SOL    HW117084   3.915   0.437   0.584
 5395SOL    HW217085   3.791   0.463   0.687
 5396SOL     OW17086   5.628   3.857   1.817
 5396SOL    HW117087   5.671   3.918   1.884
 5396SOL    HW217088   5.547   3.901   1.779
 5397SOL     OW17089   6.837   3.425   1.262
 5397SOL    HW117090   6.891   3.357   1.312
 5397SOL    HW217091   6.824   3.395   1.168
 5398SOL     OW17092   3.085   2.377   1.713
 5398SOL    HW117093   3.133   2.292   1.734
 5398SOL    HW217094   2.998   2.380   1.762
 5399SOL     OW17095   2.008   6.121   1.040
 5399SOL    HW117096   2.020   6.153   1.134
 5399SOL    HW217097   1.911   6.124   1.016
 5400SOL     OW17098   2.860   4.546   0.174
 5400SOL    HW117099   2.918   4.625   0.153
 5400SOL    HW217100   2.851   4.489   0.092
 5401SOL     OW17101   5.908   3.104   1.919
 5401SOL    HW117102   5.906   3.006   1.938
 5401SOL    HW217103   5.823   3.146   1.949
 5402SOL     OW17104   2.186   6.026   2.101
 5402SOL    HW117105   2.140   5.940   2.124
 5402SOL    HW217106   2.192   6.083   2.184
 5403SOL     OW17107   0.431   3.557   6.465
 5403SOL    HW117108   0.518   3.591   6.501
 5403SOL    HW217109   0.386   3.629   6.413
 5404SOL     OW17110   1.658   2.820   3.916
 5404SOL    HW117111   1.756   2.815   3.935
 5404SOL    HW217112   1.639   2.785   3.824
 5405SOL     OW17113   6.683   5.158   6.048
 5405SOL    HW117114   6.747   5.234   6.035
 5405SOL    HW217115   6.733   5.072   6.046
 5406SOL     OW17116   1.425   1.068   6.901
 5406SOL    HW117117   1.501   1.049   6.839
 5406SOL    HW217118   1.419   1.166   6.917
 5407SOL     OW17119   4.043   3.218   1.052
 5407SOL    HW117120   4.076   3.266   0.971
 5407SOL    HW217121   4.028   3.283   1.126
 5408SOL     OW17122   2.457   0.976   6.834
 5408SOL    HW117123   2.493   1.051   6.778
 5408SOL    HW217124   2.383   1.009   6.892
 5409SOL     OW17125   4.782   0.419   2.842
 5409SOL    HW117126   4.844   0.429   2.920
 5409SOL    HW217127   4.689   0.443   2.870
 5410SOL     OW17128   3.045   2.046   1.930
 5410SOL    HW117129   2.993   2.122   1.969
 5410SOL    HW217130   3.122   2.083   1.877
 5411SOL     OW17131   0.344   5.118   5.288
 5411SOL    HW117132   0.440   5.144   5.306
 5411SOL    HW217133   0.286   5.161   5.357
 5412SOL     OW17134   5.823   2.782   0.723
 5412SOL    HW117135   5.748   2.776   0.788
 5412SOL    HW217136   5.910   2.765   0.770
 5413SOL     OW17137   3.068   1.772   1.889
 5413SOL    HW117138   2.998   1.722   1.939
 5413SOL    HW217139   3.052   1.870   1.897
 5414SOL     OW17140   4.565   1.024   4.753
 5414SOL    HW117141   4.651   1.015   4.703
 5414SOL    HW217142   4.512   1.099   4.714
 5415SOL     OW17143   0.130   5.751   1.465
 5415SOL    HW117144   0.071   5.767   1.544
 5415SOL    HW217145   0.223   5.781   1.486
 5416SOL     OW17146   4.395   5.163   4.927
 5416SOL    HW117147   4.408   5.245   4.983
 5416SOL    HW217148   4.483   5.135   4.888
 5417SOL     OW17149   3.330   6.668   4.753
 5417SOL    HW117150   3.321   6.768   4.751
 5417SOL    HW217151   3.372   6.640   4.839
 5418SOL     OW17152   3.670   0.184   2.586
 5418SOL    HW117153   3.651   0.226   2.674
 5418SOL    HW217154   3.618   0.232   2.514
 5419SOL     OW17155   3.430   4.679   6.360
 5419SOL    HW117156   3.446   4.716   6.452
 5419SOL    HW217157   3.518   4.663   6.316
 5420SOL     OW17158   2.155   2.329   2.842
 5420SOL    HW117159   2.082   2.277   2.885
 5420SOL    HW217160   2.128   2.355   2.749
 5421SOL     OW17161   1.794   3.873   1.625
 5421SOL    HW117162   1.759   3.853   1.716
 5421SOL    HW217163   1.774   3.968   1.601
 5422SOL     OW17164   1.489   4.133   1.351
 5422SOL    HW117165   1.563   4.079   1.391
 5422SOL    HW217166   1.402   4.088   1.369
 5423SOL     OW17167   5.736   2.798   6.526
 5423SOL    HW117168   5.686   2.884   6.527
 5423SOL    HW217169   5.829   2.812   6.561
 5424SOL     OW17170   4.863   3.173   4.778
 5424SOL    HW117171   4.911   3.087   4.796
 5424SOL    HW217172   4.766   3.162   4.800
 5425SOL     OW17173   4.320   0.964   5.539
 5425SOL    HW117174   4.412   0.944   5.572
 5425SOL    HW217175   4.317   1.060   5.509
 5426SOL     OW17176   5.822   6.555   4.840
 5426SOL    HW117177   5.890   6.624   4.864
 5426SOL    HW217178   5.855   6.498   4.765
 5427SOL     OW17179   4.248   5.978   6.542
 5427SOL    HW117180   4.322   6.005   6.482
 5427SOL    HW217181   4.223   6.055   6.601
 5428SOL     OW17182   0.690   0.251   1.070
 5428SOL    HW117183   0.597   0.282   1.090
 5428SOL    HW217184   0.686   0.163   1.023
 5429SOL     OW17185   1.149   2.135   6.760
 5429SOL    HW117186   1.066   2.164   6.711
 5429SOL    HW217187   1.139   2.153   6.857
 5430SOL     OW17188   0.866   2.677   6.693
 5430SOL    HW117189   0.866   2.706   6.788
 5430SOL    HW217190   0.934   2.606   6.679
 5431SOL     OW17191   3.484   6.371   6.161
 5431SOL    HW117192   3.445   6.446   6.107
 5431SOL    HW217193   3.522   6.408   6.246
 5432SOL     OW17194   4.927   0.082   0.105
 5432SOL    HW117195   4.954   7.007   0.114
 5432SOL    HW217196   4.990   0.140   0.157
 5433SOL     OW17197   0.161   1.849   5.020
 5433SOL    HW117198   0.158   1.778   4.950
 5433SOL    HW217199   0.130   1.811   5.107
 5434SOL     OW17200   2.968   0.664   6.194
 5434SOL    HW117201   2.940   0.669   6.290
 5434SOL    HW217202   3.013   0.576   6.177
 5435SOL     OW17203   4.226   0.259   1.673
 5435SOL    HW117204   4.315   0.292   1.705
 5435SOL    HW217205   4.203   0.174   1.721
 5436SOL     OW17206   4.876   4.581   3.355
 5436SOL    HW117207   4.909   4.649   3.420
 5436SOL    HW217208   4.913   4.600   3.265
 5437SOL     OW17209   2.812   4.137   6.888
 5437SOL    HW117210   2.832   4.042   6.913
 5437SOL    HW217211   2.861   4.159   6.803
 5438SOL     OW17212   5.777   1.863   1.711
 5438SOL    HW117213   5.869   1.825   1.710
 5438SOL    HW217214   5.773   1.937   1.779
 5439SOL     OW17215   1.028   2.439   1.120
 5439SOL    HW117216   0.940   2.464   1.161
 5439SOL    HW217217   1.026   2.461   1.022
 5440SOL     OW17218   1.418   2.336   1.121
 5440SOL    HW117219   1.333   2.332   1.068
 5440SOL    HW217220   1.406   2.288   1.208
 5441SOL     OW17221   3.171   1.873   3.787
 5441SOL    HW117222   3.211   1.879   3.879
 5441SOL    HW217223   3.153   1.965   3.753
 5442SOL     OW17224   3.976   0.378   2.010
 5442SOL    HW117225   3.899   0.396   2.073
 5442SOL    HW217226   4.020   0.465   1.986
 5443SOL     OW17227   2.798   6.828   5.332
 5443SOL    HW117228   2.788   6.731   5.310
 5443SOL    HW217229   2.721   6.879   5.294
 5444SOL     OW17230   0.342   6.436   4.076
 5444SOL    HW117231   0.283   6.358   4.095
 5444SOL    HW217232   0.286   6.516   4.054
 5445SOL     OW17233   6.373   3.338   2.755
 5445SOL    HW117234   6.276   3.345   2.777
 5445SOL    HW217235   6.399   3.411   2.692
 5446SOL     OW17236   5.862   5.644   4.763
 5446SOL    HW117237   5.788   5.644   4.830
 5446SOL    HW217238   5.828   5.609   4.676
 5447SOL     OW17239   3.822   2.097   0.093
 5447SOL    HW117240   3.879   2.019   0.119
 5447SOL    HW217241   3.840   2.173   0.155
 5448SOL     OW17242   5.025   2.449   5.472
 5448SOL    HW117243   5.101   2.513   5.485
 5448SOL    HW217244   4.938   2.497   5.484
 5449SOL     OW17245   0.907   3.423   0.176
 5449SOL    HW117246   0.822   3.395   0.220
 5449SOL    HW217247   0.978   3.354   0.193
 5450SOL     OW17248   1.788   0.051   1.278
 5450SOL    HW117249   1.850   0.087   1.347
 5450SOL    HW217250   1.800   0.102   1.192
 5451SOL     OW17251   0.628   6.056   3.020
 5451SOL    HW117252   0.721   6.081   3.045
 5451SOL    HW217253   0.630   5.983   2.951
 5452SOL     OW17254   2.024   4.444   6.855
 5452SOL    HW117255   2.021   4.521   6.919
 5452SOL    HW217256   1.986   4.363   6.899
 5453SOL     OW17257   6.105   4.170   0.248
 5453SOL    HW117258   6.202   4.190   0.243
 5453SOL    HW217259   6.053   4.253   0.228
 5454SOL     OW17260   6.848   5.110   6.948
 5454SOL    HW117261   6.924   5.065   6.901
 5454SOL    HW217262   6.872   5.125   0.023
 5455SOL     OW17263   6.545   3.294   1.226
 5455SOL    HW117264   6.546   3.382   1.180
 5455SOL    HW217265   6.459   3.283   1.276
 5456SOL     OW17266   2.818   0.197   6.941
 5456SOL    HW117267   2.763   0.130   6.990
 5456SOL    HW217268   2.763   0.244   6.872
 5457SOL     OW17269   5.720   2.880   1.380
 5457SOL    HW117270   5.765   2.944   1.443
 5457SOL    HW217271   5.636   2.921   1.345
 5458SOL     OW17272   1.789   4.204   6.509
 5458SOL    HW117273   1.698   4.204   6.468
 5458SOL    HW217274   1.799   4.284   6.568
 5459SOL     OW17275   1.938   4.633   0.010
 5459SOL    HW117276   1.865   4.609   0.073
 5459SOL    HW217277   2.003   4.694   0.055
 5460SOL     OW17278   2.871   0.291   1.257
 5460SOL    HW117279   2.879   0.233   1.176
 5460SOL    HW217280   2.837   0.237   1.334
 5461SOL     OW17281   4.765   0.003   5.046
 5461SOL    HW117282   4.773   6.924   5.041
 5461SOL    HW217283   4.741   0.030   5.140
 5462SOL     OW17284   1.412   6.938   0.404
 5462SOL    HW117285   1.504   6.975   0.418
 5462SOL    HW217286   1.419   6.846   0.365
 5463SOL     OW17287   6.311   2.902   0.380
 5463SOL    HW117288   6.277   2.845   0.455
 5463SOL    HW217289   6.252   2.892   0.300
 5464SOL     OW17290   2.411   0.733   4.464
 5464SOL    HW117291   2.380   0.696   4.376
 5464SOL    HW217292   2.452   0.660   4.518
 5465SOL     OW17293   3.416   0.119   4.975
 5465SOL    HW117294   3.396   0.216   4.990
 5465SOL    HW217295   3.480   0.109   4.899
 5466SOL     OW17296   4.906   4.027   4.799
 5466SOL    HW117297   4.898   4.072   4.710
 5466SOL    HW217298   4.934   3.932   4.786
 5467SOL     OW17299   5.264   1.276   2.340
 5467SOL    HW117300   5.173   1.317   2.348
 5467SOL    HW217301   5.286   1.227   2.424
 5468SOL     OW17302   4.745   1.942   5.014
 5468SOL    HW117303   4.763   2.018   5.075
 5468SOL    HW217304   4.703   1.976   4.930
 5469SOL     OW17305   3.682   4.532   5.759
 5469SOL    HW117306   3.638   4.544   5.670
 5469SOL    HW217307   3.615   4.501   5.825
 5470SOL     OW17308   1.650   5.004   4.051
 5470SOL    HW117309   1.710   5.026   4.128
 5470SOL    HW217310   1.563   5.052   4.061
 5471SOL     OW17311   0.031   5.782   1.738
 5471SOL    HW117312   0.037   5.881   1.726
 5471SOL    HW217313   0.121   5.745   1.759
 5472SOL     OW17314   4.226   3.851   5.711
 5472SOL    HW117315   4.245   3.787   5.785
 5472SOL    HW217316   4.264   3.815   5.626
 5473SOL     OW17317   1.154   3.103   3.328
 5473SOL    HW117318   1.186   3.126   3.237
 5473SOL    HW217319   1.175   3.007   3.348
 5474SOL     OW17320   1.613   5.700   4.093
 5474SOL    HW117321   1.707   5.687   4.125
 5474SOL    HW217322   1.550   5.648   4.151
 5475SOL     OW17323   3.261   2.074   0.834
 5475SOL    HW117324   3.276   2.062   0.932
 5475SOL    HW217325   3.190   2.011   0.803
 5476SOL     OW17326   1.365   3.043   6.624
 5476SOL    HW117327   1.340   2.989   6.543
 5476SOL    HW217328   1.285   3.089   6.660
 5477SOL     OW17329   2.370   2.797   3.351
 5477SOL    HW117330   2.384   2.737   3.430
 5477SOL    HW217331   2.449   2.791   3.290
 5478SOL     OW17332   5.415   5.724   5.880
 5478SOL    HW117333   5.382   5.718   5.786
 5478SOL    HW217334   5.487   5.656   5.895
 5479SOL     OW17335   4.955   0.269   4.558
 5479SOL    HW117336   4.870   0.240   4.601
 5479SOL    HW217337   5.033   0.244   4.616
 5480SOL     OW17338   1.048   3.614   4.215
 5480SOL    HW117339   0.952   3.590   4.205
 5480SOL    HW217340   1.073   3.614   4.312
 5481SOL     OW17341   3.449   6.824   4.418
 5481SOL    HW117342   3.371   6.762   4.408
 5481SOL    HW217343   3.423   6.916   4.390
 5482SOL     OW17344   2.670   4.867   1.542
 5482SOL    HW117345   2.610   4.835   1.468
 5482SOL    HW217346   2.761   4.886   1.504
 5483SOL     OW17347   0.351   2.722   5.729
 5483SOL    HW117348   0.437   2.763   5.761
 5483SOL    HW217349   0.279   2.791   5.732
 5484SOL     OW17350   4.667   0.611   4.474
 5484SOL    HW117351   4.723   0.642   4.396
 5484SOL    HW217352   4.648   0.690   4.533
 5485SOL     OW17353   2.960   6.537   5.788
 5485SOL    HW117354   2.891   6.590   5.740
 5485SOL    HW217355   3.050   6.577   5.771
 5486SOL     OW17356   2.605   5.891   4.748
 5486SOL    HW117357   2.675   5.962   4.752
 5486SOL    HW217358   2.588   5.867   4.652
 5487SOL     OW17359   2.781   5.009   5.593
 5487SOL    HW117360   2.721   4.938   5.631
 5487SOL    HW217361   2.875   4.976   5.591
 5488SOL     OW17362   5.944   1.201   1.356
 5488SOL    HW117363   5.856   1.180   1.397
 5488SOL    HW217364   5.954   1.300   1.348
 5489SOL     OW17365   6.689   3.781   2.419
 5489SOL    HW117366   6.755   3.715   2.455
 5489SOL    HW217367   6.619   3.733   2.367
 5490SOL     OW17368   1.306   6.767   2.770
 5490SOL    HW117369   1.378   6.792   2.705
 5490SOL    HW217370   1.220   6.754   2.721
 5491SOL     OW17371   6.603   4.254   0.467
 5491SOL    HW117372   6.606   4.242   0.566
 5491SOL    HW217373   6.672   4.196   0.424
 5492SOL     OW17374   0.515   1.249   5.393
 5492SOL    HW117375   0.438   1.193   5.425
 5492SOL    HW217376   0.508   1.340   5.432
 5493SOL     OW17377   4.005   3.737   1.517
 5493SOL    HW117378   3.929   3.710   1.457
 5493SOL    HW217379   4.050   3.655   1.552
 5494SOL     OW17380   6.592   4.046   5.329
 5494SOL    HW117381   6.513   3.985   5.326
 5494SOL    HW217382   6.622   4.066   5.236
 5495SOL     OW17383   5.794   0.734   1.246
 5495SOL    HW117384   5.851   0.735   1.163
 5495SOL    HW217385   5.747   0.821   1.256
 5496SOL     OW17386   3.912   0.468   4.432
 5496SOL    HW117387   3.837   0.533   4.442
 5496SOL    HW217388   3.971   0.471   4.513
 5497SOL     OW17389   0.853   0.844   6.355
 5497SOL    HW117390   0.864   0.745   6.353
 5497SOL    HW217391   0.940   0.888   6.377
 5498SOL     OW17392   0.463   5.165   1.700
 5498SOL    HW117393   0.372   5.205   1.707
 5498SOL    HW217394   0.519   5.197   1.776
 5499SOL     OW17395   1.652   0.241   4.862
 5499SOL    HW117396   1.747   0.235   4.830
 5499SOL    HW217397   1.640   0.184   4.943
 5500SOL     OW17398   2.280   0.727   0.571
 5500SOL    HW117399   2.338   0.699   0.494
 5500SOL    HW217400   2.184   0.710   0.548
 5501SOL     OW17401   3.724   3.057   6.674
 5501SOL    HW117402   3.686   3.049   6.582
 5501SOL    HW217403   3.660   3.108   6.732
 5502SOL     OW17404   4.176   2.212   0.074
 5502SOL    HW117405   4.171   2.119   0.110
 5502SOL    HW217406   4.223   2.271   0.139
 5503SOL     OW17407   6.810   4.084   0.374
 5503SOL    HW117408   6.785   3.987   0.386
 5503SOL    HW217409   6.890   4.104   0.430
 5504SOL     OW17410   3.465   1.421   6.314
 5504SOL    HW117411   3.461   1.460   6.222
 5504SOL    HW217412   3.511   1.332   6.309
 5505SOL     OW17413   2.522   4.772   4.126
 5505SOL    HW117414   2.586   4.696   4.119
 5505SOL    HW217415   2.458   4.756   4.202
 5506SOL     OW17416   0.754   3.368   6.324
 5506SOL    HW117417   0.752   3.345   6.226
 5506SOL    HW217418   0.726   3.288   6.377
 5507SOL     OW17419   2.895   6.876   6.993
 5507SOL    HW117420   2.918   6.936   6.917
 5507SOL    HW217421   2.821   6.916   0.026
 5508SOL     OW17422   0.117   0.586   6.662
 5508SOL    HW117423   0.122   0.596   6.762
 5508SOL    HW217424   0.035   0.632   6.628
 5509SOL     OW17425   0.070   5.480   0.608
 5509SOL    HW117426   0.078   5.410   0.537
 5509SOL    HW217427   7.015   5.456   0.669
 5510SOL     OW17428   3.792   5.377   6.966
 5510SOL    HW117429   3.871   5.432   6.937
 5510SOL    HW217430   3.818   5.322   0.025
 5511SOL     OW17431   0.808   1.335   5.586
 5511SOL    HW117432   0.719   1.375   5.567
 5511SOL    HW217433   0.803   1.236   5.572
 5512SOL     OW17434   3.370   1.005   2.564
 5512SOL    HW117435   3.461   1.009   2.521
 5512SOL    HW217436   3.377   1.036   2.659
 5513SOL     OW17437   3.866   4.357   0.209
 5513SOL    HW117438   3.859   4.258   0.212
 5513SOL    HW217439   3.784   4.396   0.167
 5514SOL     OW17440   2.922   0.528   6.720
 5514SOL    HW117441   2.844   0.466   6.718
 5514SOL    HW217442   2.898   0.609   6.773
 5515SOL     OW17443   2.639   6.070   2.090
 5515SOL    HW117444   2.583   6.007   2.144
 5515SOL    HW217445   2.595   6.160   2.087
 5516SOL     OW17446   2.543   2.549   5.139
 5516SOL    HW117447   2.480   2.627   5.137
 5516SOL    HW217448   2.635   2.581   5.163
 5517SOL     OW17449   1.583   3.254   3.328
 5517SOL    HW117450   1.628   3.323   3.384
 5517SOL    HW217451   1.485   3.271   3.327
 5518SOL     OW17452   4.536   4.186   5.862
 5518SOL    HW117453   4.479   4.176   5.781
 5518SOL    HW217454   4.558   4.096   5.899
 5519SOL     OW17455   4.430   2.413   3.804
 5519SOL    HW117456   4.497   2.341   3.788
 5519SOL    HW217457   4.380   2.394   3.889
 5520SOL     OW17458   4.987   6.727   1.463
 5520SOL    HW117459   5.058   6.659   1.443
 5520SOL    HW217460   5.020   6.790   1.532
 5521SOL     OW17461   5.528   5.595   2.050
 5521SOL    HW117462   5.504   5.670   2.111
 5521SOL    HW217463   5.598   5.538   2.093
 5522SOL     OW17464   6.129   5.783   0.543
 5522SOL    HW117465   6.049   5.745   0.496
 5522SOL    HW217466   6.212   5.756   0.493
 5523SOL     OW17467   5.665   1.098   2.234
 5523SOL    HW117468   5.746   1.136   2.189
 5523SOL    HW217469   5.583   1.145   2.202
 5524SOL     OW17470   3.231   0.967   4.524
 5524SOL    HW117471   3.220   1.061   4.491
 5524SOL    HW217472   3.199   0.962   4.619
 5525SOL     OW17473   6.019   1.459   1.240
 5525SOL    HW117474   5.996   1.553   1.264
 5525SOL    HW217475   6.118   1.446   1.246
 5526SOL     OW17476   4.595   4.774   3.243
 5526SOL    HW117477   4.561   4.680   3.235
 5526SOL    HW217478   4.650   4.782   3.326
 5527SOL     OW17479   5.927   1.550   3.670
 5527SOL    HW117480   5.884   1.467   3.708
 5527SOL    HW217481   6.026   1.541   3.675
 5528SOL     OW17482   1.228   1.433   1.066
 5528SOL    HW117483   1.173   1.414   0.985
 5528SOL    HW217484   1.311   1.378   1.064
 5529SOL     OW17485   3.888   1.083   2.059
 5529SOL    HW117486   3.900   1.057   2.155
 5529SOL    HW217487   3.914   1.178   2.046
 5530SOL     OW17488   6.381   2.194   1.209
 5530SOL    HW117489   6.357   2.233   1.121
 5530SOL    HW217490   6.477   2.214   1.229
 5531SOL     OW17491   2.105   3.935   1.631
 5531SOL    HW117492   2.019   3.887   1.649
 5531SOL    HW217493   2.096   3.988   1.546
 5532SOL     OW17494   1.294   3.273   0.813
 5532SOL    HW117495   1.345   3.243   0.732
 5532SOL    HW217496   1.207   3.313   0.784
 5533SOL     OW17497   3.768   2.092   3.924
 5533SOL    HW117498   3.676   2.123   3.949
 5533SOL    HW217499   3.836   2.146   3.973
 5534SOL     OW17500   1.318   0.626   4.748
 5534SOL    HW117501   1.321   0.641   4.847
 5534SOL    HW217502   1.237   0.670   4.710
 5535SOL     OW17503   0.402   1.971   3.636
 5535SOL    HW117504   0.374   1.938   3.726
 5535SOL    HW217505   0.346   1.929   3.566
 5536SOL     OW17506   3.772   6.459   4.235
 5536SOL    HW117507   3.736   6.545   4.271
 5536SOL    HW217508   3.853   6.476   4.180
 5537SOL     OW17509   3.321   1.058   3.468
 5537SOL    HW117510   3.328   1.001   3.385
 5537SOL    HW217511   3.270   1.008   3.538
 5538SOL     OW17512   4.257   5.341   4.596
 5538SOL    HW117513   4.161   5.357   4.619
 5538SOL    HW217514   4.263   5.301   4.505
 5539SOL     OW17515   2.170   3.961   0.215
 5539SOL    HW117516   2.072   3.962   0.196
 5539SOL    HW217517   2.221   3.956   0.129
 5540SOL     OW17518   5.229   5.001   1.972
 5540SOL    HW117519   5.206   5.002   2.069
 5540SOL    HW217520   5.161   5.054   1.921
 5541SOL     OW17521   4.378   1.306   5.803
 5541SOL    HW117522   4.424   1.223   5.773
 5541SOL    HW217523   4.377   1.373   5.728
 5542SOL     OW17524   5.128   4.766   6.188
 5542SOL    HW117525   5.197   4.802   6.125
 5542SOL    HW217526   5.057   4.836   6.204
 5543SOL     OW17527   7.018   1.973   5.778
 5543SOL    HW117528   6.931   2.014   5.806
 5543SOL    HW217529   0.021   2.003   5.685
 5544SOL     OW17530   5.829   1.462   6.284
 5544SOL    HW117531   5.737   1.488   6.257
 5544SOL    HW217532   5.878   1.543   6.318
 5545SOL     OW17533   2.823   2.227   1.744
 5545SOL    HW117534   2.872   2.292   1.802
 5545SOL    HW217535   2.800   2.145   1.797
 5546SOL     OW17536   1.959   4.925   5.663
 5546SOL    HW117537   1.891   4.889   5.599
 5546SOL    HW217538   2.049   4.926   5.620
 5547SOL     OW17539   3.927   6.158   5.045
 5547SOL    HW117540   3.978   6.076   5.018
 5547SOL    HW217541   3.988   6.238   5.040
 5548SOL     OW17542   6.982   3.420   5.044
 5548SOL    HW117543   0.055   3.415   5.077
 5548SOL    HW217544   6.981   3.415   4.944
 5549SOL     OW17545   3.380   4.306   6.508
 5549SOL    HW117546   3.411   4.370   6.579
 5549SOL    HW217547   3.308   4.349   6.454
 5550SOL     OW17548   3.562   6.489   2.045
 5550SOL    HW117549   3.562   6.424   1.969
 5550SOL    HW217550   3.551   6.582   2.010
 5551SOL     OW17551   0.660   0.851   3.088
 5551SOL    HW117552   0.679   0.942   3.124
 5551SOL    HW217553   0.717   0.784   3.135
 5552SOL     OW17554   0.503   2.882   1.131
 5552SOL    HW117555   0.512   2.822   1.210
 5552SOL    HW217556   0.469   2.830   1.052
 5553SOL     OW17557   5.225   6.747   0.159
 5553SOL    HW117558   5.299   6.686   0.133
 5553SOL    HW217559   5.252   6.801   0.239
 5554SOL     OW17560   2.648   1.600   4.640
 5554SOL    HW117561   2.679   1.598   4.545
 5554SOL    HW217562   2.673   1.515   4.686
 5555SOL     OW17563   6.802   5.987   2.701
 5555SOL    HW117564   6.883   5.995   2.644
 5555SOL    HW217565   6.816   5.915   2.769
 5556SOL     OW17566   0.406   1.276   4.260
 5556SOL    HW117567   0.448   1.231   4.181
 5556SOL    HW217568   0.306   1.267   4.255
 5557SOL     OW17569   2.866   0.640   3.564
 5557SOL    HW117570   2.961   0.670   3.558
 5557SOL    HW217571   2.859   0.545   3.532
 5558SOL     OW17572   4.679   2.210   4.554
 5558SOL    HW117573   4.773   2.244   4.556
 5558SOL    HW217574   4.673   2.124   4.605
 5559SOL     OW17575   1.940   0.161   0.995
 5559SOL    HW117576   1.908   0.197   0.907
 5559SOL    HW217577   2.001   0.083   0.978
 5560SOL     OW17578   0.248   0.331   4.474
 5560SOL    HW117579   0.230   0.304   4.379
 5560SOL    HW217580   0.344   0.316   4.495
 5561SOL     OW17581   1.555   3.785   2.878
 5561SOL    HW117582   1.557   3.857   2.947
 5561SOL    HW217583   1.645   3.776   2.836
 5562SOL     OW17584   2.504   2.711   5.988
 5562SOL    HW117585   2.438   2.772   5.944
 5562SOL    HW217586   2.517   2.630   5.931
 5563SOL     OW17587   4.345   4.517   1.503
 5563SOL    HW117588   4.316   4.490   1.594
 5563SOL    HW217589   4.358   4.435   1.446
 5564SOL     OW17590   6.509   4.330   1.509
 5564SOL    HW117591   6.571   4.252   1.504
 5564SOL    HW217592   6.422   4.306   1.465
 5565SOL     OW17593   2.836   3.160   5.528
 5565SOL    HW117594   2.857   3.072   5.570
 5565SOL    HW217595   2.911   3.224   5.544
 5566SOL     OW17596   2.211   4.357   1.001
 5566SOL    HW117597   2.149   4.402   0.937
 5566SOL    HW217598   2.288   4.317   0.951
 5567SOL     OW17599   1.924   5.701   2.714
 5567SOL    HW117600   2.014   5.703   2.757
 5567SOL    HW217601   1.858   5.661   2.778
 5568SOL     OW17602   3.568   1.994   1.152
 5568SOL    HW117603   3.642   2.031   1.096
 5568SOL    HW217604   3.530   2.066   1.209
 5569SOL     OW17605   5.942   2.446   6.865
 5569SOL    HW117606   5.949   2.347   6.849
 5569SOL    HW217607   5.855   2.466   6.910
 5570SOL     OW17608   0.035   3.968   5.574
 5570SOL    HW117609   6.962   3.940   5.554
 5570SOL    HW217610   0.090   3.961   5.491
 5571SOL     OW17611   7.003   4.772   6.339
 5571SOL    HW117612   0.050   4.701   6.362
 5571SOL    HW217613   6.920   4.728   6.306
 5572SOL     OW17614   5.376   2.723   5.736
 5572SOL    HW117615   5.437   2.716   5.815
 5572SOL    HW217616   5.290   2.764   5.764
 5573SOL     OW17617   0.923   3.902   0.467
 5573SOL    HW117618   0.964   3.967   0.531
 5573SOL    HW217619   0.968   3.813   0.477
 5574SOL     OW17620   0.639   6.211   4.519
 5574SOL    HW117621   0.683   6.262   4.445
 5574SOL    HW217622   0.707   6.156   4.568
 5575SOL     OW17623   1.863   0.968   1.688
 5575SOL    HW117624   1.869   0.991   1.591
 5575SOL    HW217625   1.938   1.011   1.738
 5576SOL     OW17626   6.630   5.912   0.061
 5576SOL    HW117627   6.719   5.956   0.066
 5576SOL    HW217628   6.639   5.815   0.083
 5577SOL     OW17629   2.275   3.769   5.288
 5577SOL    HW117630   2.334   3.841   5.252
 5577SOL    HW217631   2.202   3.749   5.223
 5578SOL     OW17632   3.674   1.201   6.295
 5578SOL    HW117633   3.688   1.142   6.216
 5578SOL    HW217634   3.721   1.163   6.375
 5579SOL     OW17635   5.371   4.610   1.118
 5579SOL    HW117636   5.315   4.683   1.156
 5579SOL    HW217637   5.397   4.546   1.191
 5580SOL     OW17638   5.274   0.654   1.337
 5580SOL    HW117639   5.179   0.680   1.355
 5580SOL    HW217640   5.276   0.562   1.296
 5581SOL     OW17641   2.514   2.490   0.377
 5581SOL    HW117642   2.609   2.467   0.354
 5581SOL    HW217643   2.492   2.455   0.467
 5582SOL     OW17644   3.840   3.493   3.071
 5582SOL    HW117645   3.777   3.496   3.149
 5582SOL    HW217646   3.930   3.461   3.102
 5583SOL     OW17647   3.392   0.455   0.493
 5583SOL    HW117648   3.430   0.409   0.573
 5583SOL    HW217649   3.466   0.493   0.438
 5584SOL     OW17650   5.618   2.932   2.703
 5584SOL    HW117651   5.591   2.994   2.777
 5584SOL    HW217652   5.616   2.980   2.616
 5585SOL     OW17653   6.728   6.503   4.307
 5585SOL    HW117654   6.789   6.497   4.228
 5585SOL    HW217655   6.687   6.413   4.324
 5586SOL     OW17656   2.187   1.741   6.386
 5586SOL    HW117657   2.276   1.754   6.431
 5586SOL    HW217658   2.115   1.743   6.455
 5587SOL     OW17659   3.556   0.300   3.933
 5587SOL    HW117660   3.626   0.296   4.005
 5587SOL    HW217661   3.512   0.211   3.926
 5588SOL     OW17662   4.139   0.034   5.764
 5588SOL    HW117663   4.182   0.074   5.845
 5588SOL    HW217664   4.075   0.101   5.724
 5589SOL     OW17665   3.564   3.392   6.713
 5589SOL    HW117666   3.606   3.424   6.798
 5589SOL    HW217667   3.465   3.381   6.727
 5590SOL     OW17668   0.074   6.811   3.010
 5590SOL    HW117669   0.048   6.736   2.948
 5590SOL    HW217670   0.058   6.783   3.104
 5591SOL     OW17671   4.880   1.124   6.972
 5591SOL    HW117672   4.824   1.050   7.010
 5591SOL    HW217673   4.829   1.169   6.898
 5592SOL     OW17674   2.803   2.268   2.568
 5592SOL    HW117675   2.819   2.272   2.469
 5592SOL    HW217676   2.884   2.230   2.613
 5593SOL     OW17677   2.122   3.381   4.877
 5593SOL    HW117678   2.130   3.480   4.886
 5593SOL    HW217679   2.137   3.338   4.966
 5594SOL     OW17680   2.359   1.566   6.715
 5594SOL    HW117681   2.284   1.502   6.732
 5594SOL    HW217682   2.445   1.523   6.742
 5595SOL     OW17683   0.145   1.510   5.932
 5595SOL    HW117684   0.056   1.527   5.975
 5595SOL    HW217685   0.133   1.498   5.834
 5596SOL     OW17686   5.072   1.554   3.140
 5596SOL    HW117687   5.120   1.639   3.162
 5596SOL    HW217688   5.096   1.484   3.207
 5597SOL     OW17689   0.155   0.967   6.119
 5597SOL    HW117690   0.234   0.989   6.062
 5597SOL    HW217691   0.132   0.870   6.108
 5598SOL     OW17692   6.966   2.429   4.297
 5598SOL    HW117693   0.041   2.442   4.325
 5598SOL    HW217694   6.908   2.421   4.378
 5599SOL     OW17695   5.146   2.873   3.564
 5599SOL    HW117696   5.218   2.937   3.535
 5599SOL    HW217697   5.064   2.889   3.510
 5600SOL     OW17698   2.326   1.825   1.953
 5600SOL    HW117699   2.392   1.773   2.008
 5600SOL    HW217700   2.372   1.866   1.875
 5601SOL     OW17701   6.211   2.860   5.899
 5601SOL    HW117702   6.295   2.916   5.902
 5601SOL    HW217703   6.167   2.872   5.810
 5602SOL     OW17704   6.247   2.229   2.400
 5602SOL    HW117705   6.175   2.177   2.446
 5602SOL    HW217706   6.213   2.320   2.377
 5603SOL     OW17707   4.613   1.344   6.028
 5603SOL    HW117708   4.690   1.354   5.964
 5603SOL    HW217709   4.549   1.277   5.993
 5604SOL     OW17710   1.212   6.528   3.490
 5604SOL    HW117711   1.255   6.507   3.578
 5604SOL    HW217712   1.116   6.500   3.493
 5605SOL     OW17713   4.294   6.896   4.126
 5605SOL    HW117714   4.216   6.834   4.124
 5605SOL    HW217715   4.272   6.980   4.076
 5606SOL     OW17716   5.048   3.551   0.443
 5606SOL    HW117717   4.964   3.548   0.497
 5606SOL    HW217718   5.071   3.458   0.413
 5607SOL     OW17719   0.045   2.336   3.263
 5607SOL    HW117720   0.102   2.418   3.268
 5607SOL    HW217721   7.009   2.330   3.345
 5608SOL     OW17722   5.167   0.751   3.245
 5608SOL    HW117723   5.184   0.666   3.196
 5608SOL    HW217724   5.239   0.818   3.223
 5609SOL     OW17725   6.702   0.303   0.633
 5609SOL    HW117726   6.728   0.285   0.538
 5609SOL    HW217727   6.621   0.248   0.655
 5610SOL     OW17728   5.098   5.557   0.433
 5610SOL    HW117729   5.147   5.549   0.520
 5610SOL    HW217730   5.037   5.478   0.422
 5611SOL     OW17731   5.829   4.702   1.954
 5611SOL    HW117732   5.877   4.729   1.870
 5611SOL    HW217733   5.840   4.773   2.023
 5612SOL     OW17734   3.494   1.848   6.925
 5612SOL    HW117735   3.403   1.859   6.883
 5612SOL    HW217736   3.512   1.927   6.983
 5613SOL     OW17737   6.019   5.150   6.253
 5613SOL    HW117738   6.104   5.103   6.231
 5613SOL    HW217739   6.004   5.146   6.352
 5614SOL     OW17740   4.734   2.907   4.015
 5614SOL    HW117741   4.726   2.947   3.923
 5614SOL    HW217742   4.697   2.814   4.014
 5615SOL     OW17743   0.456   2.706   2.683
 5615SOL    HW117744   0.548   2.678   2.710
 5615SOL    HW217745   0.402   2.725   2.765
 5616SOL     OW17746   1.532   3.282   2.584
 5616SOL    HW117747   1.541   3.230   2.669
 5616SOL    HW217748   1.559   3.377   2.600
 5617SOL     OW17749   1.555   4.782   6.600
 5617SOL    HW117750   1.569   4.743   6.691
 5617SOL    HW217751   1.461   4.765   6.570
 5618SOL     OW17752   5.183   6.601   2.175
 5618SOL    HW117753   5.265   6.544   2.174
 5618SOL    HW217754   5.102   6.544   2.162
 5619SOL     OW17755   3.536   3.320   3.749
 5619SOL    HW117756   3.441   3.348   3.760
 5619SOL    HW217757   3.593   3.402   3.736
 5620SOL     OW17758   4.974   4.638   4.222
 5620SOL    HW117759   4.906   4.687   4.167
 5620SOL    HW217760   5.007   4.558   4.172
 5621SOL     OW17761   0.193   2.510   6.481
 5621SOL    HW117762   0.277   2.471   6.445
 5621SOL    HW217763   0.130   2.437   6.508
 5622SOL     OW17764   4.767   5.866   3.929
 5622SOL    HW117765   4.733   5.856   4.023
 5622SOL    HW217766   4.702   5.822   3.866
 5623SOL     OW17767   5.029   4.752   4.658
 5623SOL    HW117768   5.066   4.823   4.599
 5623SOL    HW217769   5.103   4.714   4.714
 5624SOL     OW17770   5.013   4.673   3.112
 5624SOL    HW117771   5.026   4.771   3.129
 5624SOL    HW217772   4.965   4.661   3.025
 5625SOL     OW17773   2.075   5.900   6.024
 5625SOL    HW117774   1.994   5.911   6.081
 5625SOL    HW217775   2.078   5.972   5.955
 5626SOL     OW17776   0.936   4.504   6.731
 5626SOL    HW117777   1.029   4.525   6.703
 5626SOL    HW217778   0.883   4.589   6.738
 5627SOL     OW17779   1.035   5.276   6.819
 5627SOL    HW117780   0.960   5.324   6.773
 5627SOL    HW217781   1.006   5.252   6.912
 5628SOL     OW17782   1.954   3.582   0.551
 5628SOL    HW117783   1.974   3.560   0.455
 5628SOL    HW217784   1.987   3.509   0.610
 5629SOL     OW17785   6.342   3.344   2.362
 5629SOL    HW117786   6.254   3.313   2.396
 5629SOL    HW217787   6.403   3.266   2.351
 5630SOL     OW17788   0.640   4.074   6.909
 5630SOL    HW117789   0.544   4.097   6.890
 5630SOL    HW217790   0.687   4.156   6.942
 5631SOL     OW17791   3.873   1.622   2.216
 5631SOL    HW117792   3.792   1.667   2.176
 5631SOL    HW217793   3.948   1.688   2.221
 5632SOL     OW17794   5.031   6.586   5.498
 5632SOL    HW117795   4.978   6.568   5.415
 5632SOL    HW217796   4.970   6.622   5.569
 5633SOL     OW17797   0.934   5.450   5.365
 5633SOL    HW117798   0.973   5.513   5.298
 5633SOL    HW217799   0.886   5.376   5.317
 5634SOL     OW17800   2.779   0.647   1.189
 5634SOL    HW117801   2.763   0.737   1.228
 5634SOL    HW217802   2.740   0.577   1.249
 5635SOL     OW17803   3.050   0.584   1.183
 5635SOL    HW117804   2.959   0.625   1.183
 5635SOL    HW217805   3.042   0.485   1.192
 5636SOL     OW17806   4.961   1.226   6.107
 5636SOL    HW117807   5.010   1.242   6.192
 5636SOL    HW217808   4.988   1.295   6.040
 5637SOL     OW17809   4.959   6.771   4.503
 5637SOL    HW117810   5.009   6.705   4.558
 5637SOL    HW217811   4.886   6.812   4.558
 5638SOL     OW17812   6.080   5.327   1.213
 5638SOL    HW117813   6.120   5.253   1.159
 5638SOL    HW217814   6.111   5.415   1.176
 5639SOL     OW17815   2.076   0.572   1.527
 5639SOL    HW117816   1.993   0.620   1.556
 5639SOL    HW217817   2.109   0.514   1.601
 5640SOL     OW17818   3.281   0.142   2.782
 5640SOL    HW117819   3.322   0.055   2.806
 5640SOL    HW217820   3.198   0.127   2.728
 5641SOL     OW17821   6.606   4.365   3.586
 5641SOL    HW117822   6.633   4.277   3.546
 5641SOL    HW217823   6.633   4.367   3.682
 5642SOL     OW17824   2.227   3.239   6.527
 5642SOL    HW117825   2.215   3.147   6.564
 5642SOL    HW217826   2.175   3.247   6.442
 5643SOL     OW17827   5.627   2.581   4.843
 5643SOL    HW117828   5.640   2.619   4.752
 5643SOL    HW217829   5.647   2.483   4.841
 5644SOL     OW17830   4.439   0.517   4.864
 5644SOL    HW117831   4.358   0.550   4.913
 5644SOL    HW217832   4.492   0.457   4.924
 5645SOL     OW17833   6.729   5.727   4.007
 5645SOL    HW117834   6.812   5.686   3.968
 5645SOL    HW217835   6.753   5.811   4.055
 5646SOL     OW17836   0.208   6.391   3.553
 5646SOL    HW117837   0.286   6.411   3.612
 5646SOL    HW217838   0.123   6.403   3.606
 5647SOL     OW17839   6.315   5.334   6.288
 5647SOL    HW117840   6.261   5.416   6.310
 5647SOL    HW217841   6.274   5.288   6.209
 5648SOL     OW17842   2.059   1.082   5.321
 5648SOL    HW117843   2.021   0.991   5.340
 5648SOL    HW217844   2.125   1.076   5.247
 5649SOL     OW17845   1.548   0.437   5.058
 5649SOL    HW117846   1.639   0.474   5.071
 5649SOL    HW217847   1.551   0.365   4.989
 5650SOL     OW17848   6.479   5.074   0.382
 5650SOL    HW117849   6.565   5.038   0.345
 5650SOL    HW217850   6.436   5.133   0.315
 5651SOL     OW17851   6.423   1.484   2.867
 5651SOL    HW117852   6.431   1.577   2.902
 5651SOL    HW217853   6.416   1.486   2.768
 5652SOL     OW17854   5.609   4.289   0.226
 5652SOL    HW117855   5.597   4.244   0.138
 5652SOL    HW217856   5.666   4.370   0.215
 5653SOL     OW17857   1.636   6.206   6.605
 5653SOL    HW117858   1.674   6.185   6.695
 5653SOL    HW217859   1.607   6.302   6.602
 5654SOL     OW17860   0.890   5.563   6.032
 5654SOL    HW117861   0.987   5.579   6.012
 5654SOL    HW217862   0.870   5.465   6.022
 5655SOL     OW17863   6.880   4.162   3.215
 5655SOL    HW117864   6.896   4.080   3.270
 5655SOL    HW217865   6.820   4.138   3.138
 5656SOL     OW17866   3.233   4.793   6.212
 5656SOL    HW117867   3.200   4.872   6.263
 5656SOL    HW217868   3.318   4.759   6.254
 5657SOL     OW17869   4.075   5.847   1.629
 5657SOL    HW117870   4.010   5.903   1.680
 5657SOL    HW217871   4.028   5.765   1.596
 5658SOL     OW17872   5.248   6.661   5.210
 5658SOL    HW117873   5.156   6.669   5.173
 5658SOL    HW217874   5.315   6.689   5.142
 5659SOL     OW17875   3.261   3.836   2.989
 5659SOL    HW117876   3.323   3.802   2.919
 5659SOL    HW217877   3.219   3.921   2.958
 5660SOL     OW17878   5.919   6.902   0.797
 5660SOL    HW117879   5.873   6.823   0.756
 5660SOL    HW217880   5.864   6.984   0.783
 5661SOL     OW17881   6.477   5.940   4.783
 5661SOL    HW117882   6.532   5.881   4.843
 5661SOL    HW217883   6.400   5.888   4.746
 5662SOL     OW17884   2.181   3.665   4.304
 5662SOL    HW117885   2.240   3.598   4.348
 5662SOL    HW217886   2.184   3.653   4.204
 5663SOL     OW17887   1.782   3.694   0.184
 5663SOL    HW117888   1.683   3.696   0.174
 5663SOL    HW217889   1.820   3.784   0.163
 5664SOL     OW17890   6.986   4.625   2.772
 5664SOL    HW117891   6.905   4.567   2.780
 5664SOL    HW217892   0.019   4.597   2.692
 5665SOL     OW17893   1.874   1.386   6.097
 5665SOL    HW117894   1.775   1.376   6.096
 5665SOL    HW217895   1.902   1.428   6.183
 5666SOL     OW17896   5.793   5.225   0.567
 5666SOL    HW117897   5.765   5.155   0.632
 5666SOL    HW217898   5.836   5.301   0.615
 5667SOL     OW17899   0.123   5.741   3.703
 5667SOL    HW117900   0.154   5.680   3.776
 5667SOL    HW217901   0.174   5.721   3.620
 5668SOL     OW17902   5.882   2.732   5.653
 5668SOL    HW117903   5.884   2.708   5.556
 5668SOL    HW217904   5.797   2.779   5.674
 5669SOL     OW17905   6.857   3.375   5.330
 5669SOL    HW117906   6.874   3.466   5.367
 5669SOL    HW217907   6.879   3.375   5.232
 5670SOL     OW17908   1.965   4.240   3.361
 5670SOL    HW117909   1.979   4.209   3.455
 5670SOL    HW217910   2.033   4.309   3.337
 5671SOL     OW17911   1.652   1.088   5.414
 5671SOL    HW117912   1.582   1.042   5.469
 5671SOL    HW217913   1.711   1.019   5.371
 5672SOL     OW17914   5.596   4.559   5.701
 5672SOL    HW117915   5.586   4.500   5.620
 5672SOL    HW217916   5.654   4.513   5.768
 5673SOL     OW17917   1.729   0.386   1.657
 5673SOL    HW117918   1.730   0.456   1.586
 5673SOL    HW217919   1.790   0.311   1.630
 5674SOL     OW17920   6.797   3.638   1.076
 5674SOL    HW117921   6.803   3.647   1.176
 5674SOL    HW217922   6.706   3.604   1.051
 5675SOL     OW17923   4.265   1.844   5.685
 5675SOL    HW117924   4.181   1.850   5.630
 5675SOL    HW217925   4.262   1.915   5.756
 5676SOL     OW17926   3.371   6.778   1.505
 5676SOL    HW117927   3.326   6.795   1.417
 5676SOL    HW217928   3.470   6.788   1.495
 5677SOL     OW17929   0.200   0.243   4.198
 5677SOL    HW117930   0.248   0.157   4.178
 5677SOL    HW217931   0.214   0.307   4.122
 5678SOL     OW17932   1.995   5.039   3.121
 5678SOL    HW117933   2.009   4.959   3.179
 5678SOL    HW217934   2.083   5.076   3.092
 5679SOL     OW17935   2.405   6.102   5.156
 5679SOL    HW117936   2.448   6.093   5.246
 5679SOL    HW217937   2.373   6.013   5.124
 5680SOL     OW17938   2.439   6.983   6.410
 5680SOL    HW117939   2.512   0.030   6.409
 5680SOL    HW217940   2.460   6.910   6.346
 5681SOL     OW17941   1.759   3.571   0.818
 5681SOL    HW117942   1.721   3.636   0.752
 5681SOL    HW217943   1.684   3.523   0.864
 5682SOL     OW17944   0.636   3.370   3.941
 5682SOL    HW117945   0.568   3.347   3.872
 5682SOL    HW217946   0.719   3.317   3.925
 5683SOL     OW17947   3.717   2.611   5.306
 5683SOL    HW117948   3.654   2.689   5.310
 5683SOL    HW217949   3.790   2.630   5.240
 5684SOL     OW17950   3.003   3.640   3.096
 5684SOL    HW117951   2.975   3.624   3.191
 5684SOL    HW217952   3.097   3.675   3.094
 5685SOL     OW17953   0.811   5.562   2.286
 5685SOL    HW117954   0.828   5.623   2.209
 5685SOL    HW217955   0.715   5.569   2.314
 5686SOL     OW17956   3.401   5.570   0.199
 5686SOL    HW117957   3.452   5.623   0.268
 5686SOL    HW217958   3.465   5.534   0.132
 5687SOL     OW17959   4.687   5.335   5.488
 5687SOL    HW117960   4.650   5.426   5.503
 5687SOL    HW217961   4.777   5.328   5.531
 5688SOL     OW17962   5.898   2.195   2.216
 5688SOL    HW117963   5.849   2.156   2.294
 5688SOL    HW217964   5.996   2.180   2.228
 5689SOL     OW17965   4.140   2.731   6.937
 5689SOL    HW117966   4.067   2.760   6.998
 5689SOL    HW217967   4.225   2.717   6.989
 5690SOL     OW17968   4.612   6.783   1.475
 5690SOL    HW117969   4.655   6.702   1.516
 5690SOL    HW217970   4.591   6.764   1.379
 5691SOL     OW17971   2.045   0.177   2.316
 5691SOL    HW117972   2.021   0.174   2.413
 5691SOL    HW217973   1.969   0.142   2.262
 5692SOL     OW17974   5.901   3.154   0.326
 5692SOL    HW117975   5.802   3.157   0.340
 5692SOL    HW217976   5.941   3.084   0.384
 5693SOL     OW17977   4.955   2.428   3.259
 5693SOL    HW117978   5.028   2.495   3.271
 5693SOL    HW217979   4.879   2.470   3.209
 5694SOL     OW17980   0.460   1.940   4.185
 5694SOL    HW117981   0.422   1.901   4.268
 5694SOL    HW217982   0.559   1.928   4.184
 5695SOL     OW17983   2.137   3.501   3.629
 5695SOL    HW117984   2.121   3.595   3.657
 5695SOL    HW217985   2.188   3.500   3.543
 5696SOL     OW17986   3.141   6.925   5.636
 5696SOL    HW117987   3.207   6.920   5.561
 5696SOL    HW217988   3.147   6.842   5.691
 5697SOL     OW17989   6.901   3.406   6.606
 5697SOL    HW117990   6.949   3.318   6.598
 5697SOL    HW217991   6.813   3.399   6.558
 5698SOL     OW17992   0.424   3.884   2.180
 5698SOL    HW117993   0.495   3.820   2.209
 5698SOL    HW217994   0.427   3.895   2.080
 5699SOL     OW17995   6.007   1.022   4.929
 5699SOL    HW117996   5.995   0.951   4.999
 5699SOL    HW217997   6.055   0.983   4.850
 5700SOL     OW17998   1.169   5.580   3.493
 5700SOL    HW117999   1.190   5.485   3.519
 5700SOL    HW218000   1.232   5.642   3.539
 5701SOL     OW18001   5.767   5.185   1.907
 5701SOL    HW118002   5.751   5.266   1.851
 5701SOL    HW218003   5.719   5.194   1.995
 5702SOL     OW18004   1.839   0.151   6.619
 5702SOL    HW118005   1.833   0.065   6.567
 5702SOL    HW218006   1.930   0.157   6.661
 5703SOL     OW18007   3.893   4.561   0.928
 5703SOL    HW118008   3.871   4.564   0.831
 5703SOL    HW218009   3.966   4.626   0.948
 5704SOL     OW18010   4.179   5.318   3.646
 5704SOL    HW118011   4.169   5.314   3.547
 5704SOL    HW218012   4.090   5.338   3.688
 5705SOL     OW18013   6.653   1.610   2.068
 5705SOL    HW118014   6.728   1.544   2.065
 5705SOL    HW218015   6.580   1.574   2.126
 5706SOL     OW18016   1.739   1.467   6.765
 5706SOL    HW118017   1.808   1.535   6.789
 5706SOL    HW218018   1.700   1.428   6.849
 5707SOL     OW18019   3.228   2.315   6.468
 5707SOL    HW118020   3.328   2.319   6.465
 5707SOL    HW218021   3.193   2.290   6.378
 5708SOL     OW18022   5.344   6.958   1.855
 5708SOL    HW118023   5.327   6.926   1.948
 5708SOL    HW218024   5.284   0.015   1.835
 5709SOL     OW18025   1.143   1.128   3.049
 5709SOL    HW118026   1.228   1.151   3.000
 5709SOL    HW218027   1.132   1.029   3.051
 5710SOL     OW18028   2.931   4.107   6.190
 5710SOL    HW118029   2.961   4.019   6.153
 5710SOL    HW218030   2.984   4.180   6.147
 5711SOL     OW18031   3.982   0.969   4.212
 5711SOL    HW118032   3.980   1.069   4.218
 5711SOL    HW218033   4.021   0.942   4.124
 5712SOL     OW18034   6.853   5.788   6.800
 5712SOL    HW118035   6.762   5.776   6.840
 5712SOL    HW218036   6.904   5.702   6.807
 5713SOL     OW18037   6.945   1.914   3.447
 5713SOL    HW118038   6.890   1.889   3.527
 5713SOL    HW218039   6.893   1.894   3.364
 5714SOL     OW18040   1.757   0.941   6.992
 5714SOL    HW118041   1.760   1.014   6.924
 5714SOL    HW218042   1.664   0.907   7.001
 5715SOL     OW18043   1.856   0.298   3.346
 5715SOL    HW118044   1.922   0.222   3.348
 5715SOL    HW218045   1.763   0.262   3.346
 5716SOL     OW18046   2.400   2.907   5.770
 5716SOL    HW118047   2.383   2.832   5.707
 5716SOL    HW218048   2.488   2.949   5.748
 5717SOL     OW18049   0.703   4.087   0.670
 5717SOL    HW118050   0.740   4.058   0.758
 5717SOL    HW218051   0.765   4.152   0.628
 5718SOL     OW18052   2.544   4.680   5.314
 5718SOL    HW118053   2.605   4.714   5.242
 5718SOL    HW218054   2.462   4.640   5.273
 5719SOL     OW18055   2.975   0.905   6.451
 5719SOL    HW118056   3.070   0.928   6.472
 5719SOL    HW218057   2.927   0.987   6.421
 5720SOL     OW18058   1.858   5.100   4.221
 5720SOL    HW118059   1.784   5.153   4.265
 5720SOL    HW218060   1.925   5.074   4.290
 5721SOL     OW18061   0.824   4.672   1.764
 5721SOL    HW118062   0.778   4.682   1.852
 5721SOL    HW218063   0.891   4.598   1.770
 5722SOL     OW18064   5.576   0.421   4.136
 5722SOL    HW118065   5.492   0.431   4.083
 5722SOL    HW218066   5.577   0.332   4.181
 5723SOL     OW18067   1.584   4.539   0.922
 5723SOL    HW118068   1.492   4.512   0.949
 5723SOL    HW218069   1.650   4.473   0.956
 5724SOL     OW18070   5.234   1.651   6.960
 5724SOL    HW118071   5.254   1.555   6.980
 5724SOL    HW218072   5.198   1.659   6.867
 5725SOL     OW18073   5.047   5.738   6.336
 5725SOL    HW118074   5.035   5.824   6.386
 5725SOL    HW218075   5.024   5.753   6.240
 5726SOL     OW18076   4.952   3.296   6.299
 5726SOL    HW118077   4.973   3.387   6.260
 5726SOL    HW218078   5.022   3.231   6.269
 5727SOL     OW18079   6.252   2.043   3.842
 5727SOL    HW118080   6.276   1.956   3.885
 5727SOL    HW218081   6.279   2.118   3.901
 5728SOL     OW18082   6.219   0.606   6.386
 5728SOL    HW118083   6.203   0.639   6.479
 5728SOL    HW218084   6.133   0.601   6.337
 5729SOL     OW18085   0.883   2.696   5.388
 5729SOL    HW118086   0.794   2.734   5.414
 5729SOL    HW218087   0.871   2.630   5.314
 5730SOL     OW18088   4.629   4.894   6.491
 5730SOL    HW118089   4.674   4.980   6.466
 5730SOL    HW218090   4.658   4.822   6.429
 5731SOL     OW18091   3.609   0.914   4.309
 5731SOL    HW118092   3.643   0.967   4.386
 5731SOL    HW218093   3.683   0.860   4.270
 5732SOL     OW18094   5.452   4.119   4.465
 5732SOL    HW118095   5.367   4.123   4.412
 5732SOL    HW218096   5.435   4.154   4.557
 5733SOL     OW18097   2.669   0.586   0.594
 5733SOL    HW118098   2.756   0.539   0.612
 5733SOL    HW218099   2.618   0.595   0.679
 5734SOL     OW18100   2.254   6.000   6.303
 5734SOL    HW118101   2.156   5.986   6.289
 5734SOL    HW218102   2.275   5.992   6.401
 5735SOL     OW18103   4.521   0.461   1.761
 5735SOL    HW118104   4.476   0.504   1.682
 5735SOL    HW218105   4.483   0.499   1.846
 5736SOL     OW18106   5.279   4.097   7.012
 5736SOL    HW118107   5.367   4.139   6.989
 5736SOL    HW218108   5.249   4.129   0.081
 5737SOL     OW18109   4.019   5.040   0.963
 5737SOL    HW118110   4.049   5.068   0.871
 5737SOL    HW218111   4.081   5.079   1.031
 5738SOL     OW18112   2.926   0.741   0.280
 5738SOL    HW118113   2.847   0.762   0.336
 5738SOL    HW218114   2.899   0.677   0.207
 5739SOL     OW18115   1.903   0.773   6.083
 5739SOL    HW118116   1.968   0.827   6.136
 5739SOL    HW218117   1.820   0.826   6.067
 5740SOL     OW18118   5.403   3.494   2.286
 5740SOL    HW118119   5.402   3.398   2.257
 5740SOL    HW218120   5.484   3.539   2.248
 5741SOL     OW18121   0.061   3.458   4.075
 5741SOL    HW118122   0.159   3.465   4.088
 5741SOL    HW218123   0.020   3.412   4.154
 5742SOL     OW18124   5.337   0.273   3.733
 5742SOL    HW118125   5.331   0.191   3.676
 5742SOL    HW218126   5.397   0.339   3.689
 5743SOL     OW18127   4.189   4.503   6.801
 5743SOL    HW118128   4.091   4.510   6.816
 5743SOL    HW218129   4.238   4.548   6.875
 5744SOL     OW18130   5.367   6.922   2.833
 5744SOL    HW118131   5.349   6.924   2.735
 5744SOL    HW218132   5.326   6.840   2.872
 5745SOL     OW18133   1.741   2.313   2.127
 5745SOL    HW118134   1.671   2.364   2.078
 5745SOL    HW218135   1.735   2.335   2.225
 5746SOL     OW18136   4.362   6.890   3.431
 5746SOL    HW118137   4.307   6.908   3.350
 5746SOL    HW218138   4.404   6.976   3.462
 5747SOL     OW18139   0.538   6.142   1.121
 5747SOL    HW118140   0.518   6.230   1.165
 5747SOL    HW218141   0.499   6.068   1.177
 5748SOL     OW18142   0.361   6.168   0.713
 5748SOL    HW118143   0.303   6.223   0.652
 5748SOL    HW218144   0.335   6.072   0.707
 5749SOL     OW18145   1.601   5.977   5.966
 5749SOL    HW118146   1.685   6.006   6.011
 5749SOL    HW218147   1.525   5.980   6.031
 5750SOL     OW18148   6.310   4.306   3.722
 5750SOL    HW118149   6.405   4.339   3.720
 5750SOL    HW218150   6.288   4.264   3.634
 5751SOL     OW18151   1.697   3.417   4.357
 5751SOL    HW118152   1.731   3.383   4.445
 5751SOL    HW218153   1.711   3.515   4.352
 5752SOL     OW18154   4.750   0.573   0.553
 5752SOL    HW118155   4.690   0.647   0.584
 5752SOL    HW218156   4.819   0.555   0.623
 5753SOL     OW18157   3.975   3.900   5.154
 5753SOL    HW118158   3.948   3.990   5.188
 5753SOL    HW218159   3.909   3.869   5.086
 5754SOL     OW18160   1.100   6.036   1.425
 5754SOL    HW118161   1.134   5.942   1.437
 5754SOL    HW218162   1.071   6.049   1.331
 5755SOL     OW18163   0.970   2.366   6.681
 5755SOL    HW118164   1.014   2.440   6.732
 5755SOL    HW218165   0.900   2.323   6.738
 5756SOL     OW18166   5.808   6.240   1.326
 5756SOL    HW118167   5.814   6.243   1.426
 5756SOL    HW218168   5.900   6.232   1.288
 5757SOL     OW18169   6.488   0.080   4.435
 5757SOL    HW118170   6.416   0.072   4.504
 5757SOL    HW218171   6.460   0.035   4.351
 5758SOL     OW18172   6.207   0.086   2.884
 5758SOL    HW118173   6.137   0.084   2.813
 5758SOL    HW218174   6.169   0.051   2.970
 5759SOL     OW18175   3.848   0.300   1.065
 5759SOL    HW118176   3.769   0.336   1.115
 5759SOL    HW218177   3.901   0.376   1.028
 5760SOL     OW18178   0.497   3.177   1.099
 5760SOL    HW118179   0.501   3.165   1.000
 5760SOL    HW218180   0.507   3.089   1.144
 5761SOL     OW18181   5.904   6.870   4.699
 5761SOL    HW118182   5.912   6.969   4.716
 5761SOL    HW218183   5.947   6.820   4.775
 5762SOL     OW18184   6.324   5.409   6.990
 5762SOL    HW118185   6.279   5.397   6.901
 5762SOL    HW218186   6.420   5.430   6.975
 5763SOL     OW18187   6.010   6.959   6.928
 5763SOL    HW118188   5.930   6.910   6.961
 5763SOL    HW218189   6.092   6.905   6.945
 5764SOL     OW18190   4.602   6.529   4.253
 5764SOL    HW118191   4.655   6.601   4.208
 5764SOL    HW218192   4.506   6.556   4.259
 5765SOL     OW18193   6.480   5.119   1.896
 5765SOL    HW118194   6.556   5.131   1.960
 5765SOL    HW218195   6.418   5.197   1.904
 5766SOL     OW18196   0.202   1.640   4.285
 5766SOL    HW118197   0.225   1.574   4.214
 5766SOL    HW218198   0.144   1.596   4.353
 5767SOL     OW18199   3.219   0.031   0.331
 5767SOL    HW118200   3.313   0.042   0.365
 5767SOL    HW218201   3.213   0.063   0.237
 5768SOL     OW18202   0.268   0.014   4.697
 5768SOL    HW118203   0.308   6.960   4.750
 5768SOL    HW218204   0.258   0.095   4.755
 5769SOL     OW18205   1.325   4.237   6.600
 5769SOL    HW118206   1.277   4.277   6.522
 5769SOL    HW218207   1.394   4.302   6.633
 5770SOL     OW18208   2.025   4.685   1.674
 5770SOL    HW118209   2.059   4.772   1.708
 5770SOL    HW218210   1.933   4.697   1.637
 5771SOL     OW18211   2.911   5.230   3.483
 5771SOL    HW118212   3.004   5.257   3.456
 5771SOL    HW218213   2.852   5.311   3.481
 5772SOL     OW18214   3.710   0.588   1.950
 5772SOL    HW118215   3.769   0.668   1.940
 5772SOL    HW218216   3.632   0.611   2.008
 5773SOL     OW18217   4.414   1.798   3.186
 5773SOL    HW118218   4.316   1.817   3.178
 5773SOL    HW218219   4.451   1.780   3.095
 5774SOL     OW18220   0.268   6.836   2.013
 5774SOL    HW118221   0.281   6.923   2.060
 5774SOL    HW218222   0.297   6.761   2.073
 5775SOL     OW18223   6.850   5.850   2.120
 5775SOL    HW118224   6.818   5.805   2.036
 5775SOL    HW218225   6.810   5.804   2.199
 5776SOL     OW18226   2.482   0.688   3.739
 5776SOL    HW118227   2.545   0.635   3.795
 5776SOL    HW218228   2.515   0.690   3.644
 5777SOL     OW18229   1.638   6.272   3.003
 5777SOL    HW118230   1.691   6.280   2.919
 5777SOL    HW218231   1.666   6.191   3.053
 5778SOL     OW18232   0.525   1.503   0.346
 5778SOL    HW118233   0.597   1.456   0.397
 5778SOL    HW218234   0.456   1.537   0.410
 5779SOL     OW18235   5.872   1.874   6.216
 5779SOL    HW118236   5.900   1.941   6.284
 5779SOL    HW218237   5.881   1.782   6.253
 5780SOL     OW18238   5.015   5.723   3.819
 5780SOL    HW118239   4.957   5.803   3.835
 5780SOL    HW218240   5.034   5.714   3.722
 5781SOL     OW18241   0.617   4.013   5.320
 5781SOL    HW118242   0.547   3.942   5.332
 5781SOL    HW218243   0.706   3.975   5.343
 5782SOL     OW18244   0.115   1.253   0.325
 5782SOL    HW118245   0.050   1.261   0.400
 5782SOL    HW218246   0.146   1.345   0.299
 5783SOL     OW18247   1.864   1.712   1.394
 5783SOL    HW118248   1.867   1.635   1.457
 5783SOL    HW218249   1.853   1.797   1.446
 5784SOL     OW18250   6.833   6.849   6.317
 5784SOL    HW118251   6.880   6.928   6.278
 5784SOL    HW218252   6.897   6.772   6.322
 5785SOL     OW18253   1.466   1.815   1.002
 5785SOL    HW118254   1.546   1.858   1.044
 5785SOL    HW218255   1.487   1.719   0.982
 5786SOL     OW18256   6.200   4.486   1.029
 5786SOL    HW118257   6.216   4.521   1.122
 5786SOL    HW218258   6.221   4.558   0.963
 5787SOL     OW18259   3.061   1.931   5.738
 5787SOL    HW118260   3.031   1.928   5.833
 5787SOL    HW218261   2.992   1.978   5.683
 5788SOL     OW18262   2.817   1.249   3.573
 5788SOL    HW118263   2.777   1.157   3.571
 5788SOL    HW218264   2.777   1.304   3.500
 5789SOL     OW18265   4.322   4.980   6.177
 5789SOL    HW118266   4.234   5.026   6.187
 5789SOL    HW218267   4.382   5.007   6.252
 5790SOL     OW18268   0.416   2.751   3.619
 5790SOL    HW118269   0.515   2.738   3.611
 5790SOL    HW218270   0.395   2.783   3.712
 5791SOL     OW18271   2.281   0.513   2.664
 5791SOL    HW118272   2.249   0.482   2.753
 5791SOL    HW218273   2.372   0.475   2.646
 5792SOL     OW18274   0.337   2.201   3.326
 5792SOL    HW118275   0.271   2.232   3.395
 5792SOL    HW218276   0.305   2.226   3.235
 5793SOL     OW18277   6.819   0.834   3.360
 5793SOL    HW118278   6.750   0.868   3.424
 5793SOL    HW218279   6.786   0.750   3.316
 5794SOL     OW18280   3.822   3.834   0.059
 5794SOL    HW118281   3.808   3.763   0.127
 5794SOL    HW218282   3.918   3.835   0.031
 5795SOL     OW18283   6.075   4.277   6.088
 5795SOL    HW118284   6.156   4.311   6.136
 5795SOL    HW218285   6.099   4.195   6.035
 5796SOL     OW18286   3.611   1.325   0.332
 5796SOL    HW118287   3.593   1.411   0.284
 5796SOL    HW218288   3.709   1.317   0.351
 5797SOL     OW18289   3.310   1.647   4.708
 5797SOL    HW118290   3.255   1.730   4.716
 5797SOL    HW218291   3.293   1.588   4.787
 5798SOL     OW18292   6.997   4.773   4.902
 5798SOL    HW118293   6.904   4.742   4.922
 5798SOL    HW218294   0.042   4.717   4.954
 5799SOL     OW18295   5.630   0.317   3.797
 5799SOL    HW118296   5.581   0.234   3.821
 5799SOL    HW218297   5.587   0.395   3.843
 5800SOL     OW18298   5.887   4.758   0.318
 5800SOL    HW118299   5.904   4.856   0.319
 5800SOL    HW218300   5.974   4.709   0.327
 5801SOL     OW18301   1.760   1.062   3.787
 5801SOL    HW118302   1.796   0.995   3.852
 5801SOL    HW218303   1.699   1.125   3.835
 5802SOL     OW18304   0.504   3.902   5.713
 5802SOL    HW118305   0.439   3.839   5.756
 5802SOL    HW218306   0.511   3.881   5.615
 5803SOL     OW18307   0.812   4.908   0.846
 5803SOL    HW118308   0.907   4.904   0.876
 5803SOL    HW218309   0.758   4.959   0.913
 5804SOL     OW18310   6.254   4.152   4.741
 5804SOL    HW118311   6.241   4.166   4.839
 5804SOL    HW218312   6.170   4.178   4.693
 5805SOL     OW18313   4.802   3.322   6.528
 5805SOL    HW118314   4.852   3.370   6.599
 5805SOL    HW218315   4.863   3.303   6.451
 5806SOL     OW18316   0.734   6.170   0.115
 5806SOL    HW118317   0.778   6.215   0.192
 5806SOL    HW218318   0.731   6.233   0.037
 5807SOL     OW18319   1.725   3.240   1.578
 5807SOL    HW118320   1.788   3.176   1.534
 5807SOL    HW218321   1.688   3.302   1.509
 5808SOL     OW18322   5.963   3.925   2.197
 5808SOL    HW118323   5.986   3.828   2.192
 5808SOL    HW218324   5.997   3.964   2.283
 5809SOL     OW18325   6.832   3.453   4.334
 5809SOL    HW118326   6.914   3.396   4.344
 5809SOL    HW218327   6.794   3.473   4.424
 5810SOL     OW18328   2.695   1.817   2.546
 5810SOL    HW118329   2.723   1.722   2.555
 5810SOL    HW218330   2.654   1.848   2.632
 5811SOL     OW18331   2.899   0.502   4.170
 5811SOL    HW118332   2.957   0.578   4.200
 5811SOL    HW218333   2.941   0.415   4.199
 5812SOL     OW18334   4.845   0.476   3.829
 5812SOL    HW118335   4.761   0.450   3.782
 5812SOL    HW218336   4.913   0.403   3.820
 5813SOL     OW18337   1.516   0.729   5.353
 5813SOL    HW118338   1.582   0.726   5.277
 5813SOL    HW218339   1.542   0.660   5.421
 5814SOL     OW18340   0.131   5.005   1.756
 5814SOL    HW118341   0.178   4.985   1.670
 5814SOL    HW218342   0.049   5.059   1.738
 5815SOL     OW18343   4.032   1.130   3.135
 5815SOL    HW118344   3.952   1.158   3.188
 5815SOL    HW218345   4.014   1.145   3.037
 5816SOL     OW18346   4.310   0.710   0.483
 5816SOL    HW118347   4.210   0.705   0.489
 5816SOL    HW218348   4.350   0.681   0.570
 5817SOL     OW18349   4.862   3.052   5.586
 5817SOL    HW118350   4.863   3.117   5.511
 5817SOL    HW218351   4.775   3.004   5.588
 5818SOL     OW18352   6.136   6.991   6.247
 5818SOL    HW118353   6.200   0.045   6.227
 5818SOL    HW218354   6.180   6.903   6.228
 5819SOL     OW18355   5.578   0.410   1.614
 5819SOL    HW118356   5.611   0.351   1.540
 5819SOL    HW218357   5.652   0.469   1.646
 5820SOL     OW18358   5.430   6.380   3.183
 5820SOL    HW118359   5.412   6.438   3.262
 5820SOL    HW218360   5.382   6.293   3.194
 5821SOL     OW18361   2.850   0.962   2.004
 5821SOL    HW118362   2.784   0.910   1.949
 5821SOL    HW218363   2.802   1.030   2.059
 5822SOL     OW18364   6.833   1.851   2.175
 5822SOL    HW118365   6.914   1.901   2.144
 5822SOL    HW218366   6.821   1.768   2.120
 5823SOL     OW18367   2.277   1.886   4.038
 5823SOL    HW118368   2.239   1.978   4.027
 5823SOL    HW218369   2.278   1.862   4.135
 5824SOL     OW18370   5.658   0.075   3.602
 5824SOL    HW118371   5.753   0.084   3.573
 5824SOL    HW218372   5.654   0.061   3.701
 5825SOL     OW18373   2.228   0.395   6.926
 5825SOL    HW118374   2.135   0.371   6.956
 5825SOL    HW218375   2.223   0.472   6.863
 5826SOL     OW18376   6.632   6.798   4.605
 5826SOL    HW118377   6.629   6.866   4.531
 5826SOL    HW218378   6.574   6.830   4.680
 5827SOL     OW18379   0.727   5.813   4.823
 5827SOL    HW118380   0.778   5.851   4.900
 5827SOL    HW218381   0.700   5.719   4.844
 5828SOL     OW18382   0.488   3.312   1.947
 5828SOL    HW118383   0.563   3.285   1.887
 5828SOL    HW218384   0.409   3.340   1.891
 5829SOL     OW18385   2.195   1.598   1.548
 5829SOL    HW118386   2.245   1.620   1.464
 5829SOL    HW218387   2.196   1.499   1.563
 5830SOL     OW18388   3.390   1.275   6.089
 5830SOL    HW118389   3.305   1.221   6.093
 5830SOL    HW218390   3.368   1.368   6.058
 5831SOL     OW18391   5.329   7.016   3.245
 5831SOL    HW118392   5.307   6.922   3.222
 5831SOL    HW218393   5.426   0.002   3.272
 5832SOL     OW18394   4.059   3.672   5.318
 5832SOL    HW118395   4.027   3.766   5.307
 5832SOL    HW218396   3.983   3.609   5.308
 5833SOL     OW18397   3.174   3.502   4.314
 5833SOL    HW118398   3.181   3.528   4.410
 5833SOL    HW218399   3.116   3.421   4.305
 5834SOL     OW18400   5.717   1.792   1.028
 5834SOL    HW118401   5.647   1.861   1.009
 5834SOL    HW218402   5.699   1.710   0.973
 5835SOL     OW18403   4.939   2.225   3.707
 5835SOL    HW118404   4.925   2.306   3.650
 5835SOL    HW218405   4.977   2.253   3.796
 5836SOL     OW18406   3.559   6.022   2.200
 5836SOL    HW118407   3.639   5.988   2.250
 5836SOL    HW218408   3.582   6.032   2.103
 5837SOL     OW18409   4.615   4.162   0.260
 5837SOL    HW118410   4.636   4.170   0.162
 5837SOL    HW218411   4.595   4.252   0.298
 5838SOL     OW18412   1.366   1.167   5.662
 5838SOL    HW118413   1.268   1.180   5.677
 5838SOL    HW218414   1.379   1.090   5.599
 5839SOL     OW18415   6.608   3.202   2.797
 5839SOL    HW118416   6.520   3.241   2.768
 5839SOL    HW218417   6.641   3.140   2.726
 5840SOL     OW18418   1.432   5.406   0.036
 5840SOL    HW118419   1.375   5.484   0.012
 5840SOL    HW218420   1.471   5.366   6.973
 5841SOL     OW18421   6.659   2.620   3.647
 5841SOL    HW118422   6.593   2.551   3.678
 5841SOL    HW218423   6.613   2.708   3.640
 5842SOL     OW18424   4.057   2.620   1.111
 5842SOL    HW118425   4.150   2.654   1.127
 5842SOL    HW218426   4.005   2.625   1.196
 5843SOL     OW18427   1.833   3.423   2.389
 5843SOL    HW118428   1.777   3.431   2.307
 5843SOL    HW218429   1.899   3.349   2.377
 5844SOL     OW18430   0.611   6.113   6.324
 5844SOL    HW118431   0.622   6.212   6.330
 5844SOL    HW218432   0.671   6.069   6.391
 5845SOL     OW18433   0.558   2.322   4.168
 5845SOL    HW118434   0.632   2.380   4.203
 5845SOL    HW218435   0.499   2.294   4.244
 5846SOL     OW18436   0.113   2.666   5.527
 5846SOL    HW118437   0.170   2.744   5.552
 5846SOL    HW218438   0.098   2.665   5.428
 5847SOL     OW18439   2.381   2.695   2.255
 5847SOL    HW118440   2.307   2.757   2.281
 5847SOL    HW218441   2.355   2.645   2.172
 5848SOL     OW18442   1.207   4.698   3.338
 5848SOL    HW118443   1.177   4.665   3.249
 5848SOL    HW218444   1.307   4.696   3.342
 5849SOL     OW18445   2.464   0.182   5.836
 5849SOL    HW118446   2.523   0.255   5.803
 5849SOL    HW218447   2.484   0.098   5.786
 5850SOL     OW18448   0.705   4.850   2.136
 5850SOL    HW118449   0.697   4.754   2.109
 5850SOL    HW218450   0.663   4.908   2.066
 5851SOL     OW18451   6.486   4.139   1.917
 5851SOL    HW118452   6.418   4.068   1.894
 5851SOL    HW218453   6.441   4.228   1.919
 5852SOL     OW18454   4.009   5.780   2.425
 5852SOL    HW118455   4.102   5.815   2.425
 5852SOL    HW218456   4.010   5.682   2.408
 5853SOL     OW18457   3.043   4.689   6.051
 5853SOL    HW118458   3.096   4.751   6.109
 5853SOL    HW218459   2.985   4.631   6.109
 5854SOL     OW18460   6.783   1.072   5.968
 5854SOL    HW118461   6.802   1.096   5.873
 5854SOL    HW218462   6.690   1.099   5.991
 5855SOL     OW18463   1.349   1.107   4.479
 5855SOL    HW118464   1.273   1.121   4.543
 5855SOL    HW218465   1.403   1.191   4.472
 5856SOL     OW18466   1.381   4.913   3.586
 5856SOL    HW118467   1.380   4.822   3.627
 5856SOL    HW218468   1.321   4.974   3.638
 5857SOL     OW18469   6.624   3.168   5.496
 5857SOL    HW118470   6.714   3.177   5.538
 5857SOL    HW218471   6.600   3.254   5.451
 5858SOL     OW18472   3.988   1.208   2.895
 5858SOL    HW118473   3.933   1.146   2.839
 5858SOL    HW218474   3.976   1.302   2.863
 5859SOL     OW18475   6.308   6.968   1.106
 5859SOL    HW118476   6.318   6.941   1.010
 5859SOL    HW218477   6.391   6.943   1.156
 5860SOL     OW18478   1.334   4.283   1.546
 5860SOL    HW118479   1.285   4.355   1.496
 5860SOL    HW218480   1.303   4.194   1.515
 5861SOL     OW18481   6.018   2.200   4.048
 5861SOL    HW118482   6.100   2.254   4.032
 5861SOL    HW218483   5.987   2.159   3.962
 5862SOL     OW18484   4.161   4.739   2.777
 5862SOL    HW118485   4.080   4.743   2.836
 5862SOL    HW218486   4.133   4.748   2.681
 5863SOL     OW18487   1.994   0.974   6.245
 5863SOL    HW118488   1.946   1.016   6.322
 5863SOL    HW218489   2.069   1.034   6.216
 5864SOL     OW18490   4.372   4.044   1.690
 5864SOL    HW118491   4.390   3.948   1.710
 5864SOL    HW218492   4.420   4.102   1.757
 5865SOL     OW18493   4.807   0.924   3.647
 5865SOL    HW118494   4.788   1.022   3.635
 5865SOL    HW218495   4.897   0.903   3.608
 5866SOL     OW18496   3.856   6.872   5.645
 5866SOL    HW118497   3.890   6.791   5.691
 5866SOL    HW218498   3.855   6.950   5.708
 5867SOL     OW18499   0.634   3.065   1.642
 5867SOL    HW118500   0.649   3.145   1.701
 5867SOL    HW218501   0.715   3.006   1.644
 5868SOL     OW18502   1.654   6.853   5.321
 5868SOL    HW118503   1.585   6.800   5.272
 5868SOL    HW218504   1.730   6.875   5.260
 5869SOL     OW18505   3.015   4.893   4.477
 5869SOL    HW118506   3.108   4.868   4.504
 5869SOL    HW218507   2.954   4.815   4.492
 5870SOL     OW18508   4.557   5.316   4.416
 5870SOL    HW118509   4.652   5.310   4.447
 5870SOL    HW218510   4.496   5.289   4.490
 5871SOL     OW18511   3.634   3.360   0.544
 5871SOL    HW118512   3.608   3.360   0.640
 5871SOL    HW218513   3.689   3.279   0.524
 5872SOL     OW18514   3.365   5.896   5.650
 5872SOL    HW118515   3.390   5.948   5.731
 5872SOL    HW218516   3.380   5.951   5.568
 5873SOL     OW18517   3.491   3.447   0.151
 5873SOL    HW118518   3.508   3.545   0.161
 5873SOL    HW218519   3.494   3.402   0.240
 5874SOL     OW18520   2.113   3.526   1.725
 5874SOL    HW118521   2.098   3.607   1.781
 5874SOL    HW218522   2.190   3.473   1.763
 5875SOL     OW18523   3.227   1.332   0.222
 5875SOL    HW118524   3.199   1.307   0.315
 5875SOL    HW218525   3.228   1.431   0.213
 5876SOL     OW18526   3.190   3.497   6.328
 5876SOL    HW118527   3.230   3.425   6.270
 5876SOL    HW218528   3.262   3.561   6.355
 5877SOL     OW18529   6.860   0.383   2.553
 5877SOL    HW118530   6.912   0.401   2.470
 5877SOL    HW218531   6.909   0.316   2.610
 5878SOL     OW18532   4.319   5.026   2.231
 5878SOL    HW118533   4.362   5.003   2.318
 5878SOL    HW218534   4.231   5.071   2.248
 5879SOL     OW18535   3.710   3.560   6.208
 5879SOL    HW118536   3.710   3.503   6.125
 5879SOL    HW218537   3.653   3.640   6.194
 5880SOL     OW18538   4.637   2.981   5.893
 5880SOL    HW118539   4.604   2.900   5.845
 5880SOL    HW218540   4.733   2.968   5.918
 5881SOL     OW18541   1.252   6.454   1.826
 5881SOL    HW118542   1.316   6.521   1.787
 5881SOL    HW218543   1.302   6.385   1.877
 5882SOL     OW18544   1.851   5.520   6.228
 5882SOL    HW118545   1.906   5.555   6.305
 5882SOL    HW218546   1.766   5.482   6.263
 5883SOL     OW18547   0.130   4.597   1.437
 5883SOL    HW118548   0.226   4.597   1.409
 5883SOL    HW218549   0.124   4.589   1.536
 5884SOL     OW18550   6.182   1.815   3.546
 5884SOL    HW118551   6.120   1.775   3.479
 5884SOL    HW218552   6.195   1.913   3.527
 5885SOL     OW18553   0.265   5.269   6.567
 5885SOL    HW118554   0.252   5.264   6.666
 5885SOL    HW218555   0.327   5.196   6.538
 5886SOL     OW18556   1.806   4.104   3.564
 5886SOL    HW118557   1.792   4.201   3.581
 5886SOL    HW218558   1.726   4.066   3.516
 5887SOL     OW18559   1.949   2.683   1.062
 5887SOL    HW118560   2.000   2.721   1.139
 5887SOL    HW218561   1.941   2.584   1.072
 5888SOL     OW18562   3.528   7.004   1.179
 5888SOL    HW118563   3.559   6.957   1.096
 5888SOL    HW218564   3.460   0.052   1.155
 5889SOL     OW18565   6.474   1.032   1.666
 5889SOL    HW118566   6.377   1.011   1.676
 5889SOL    HW218567   6.528   0.952   1.691
 5890SOL     OW18568   2.796   6.563   2.583
 5890SOL    HW118569   2.764   6.649   2.544
 5890SOL    HW218570   2.847   6.512   2.513
 5891SOL     OW18571   2.810   3.420   0.739
 5891SOL    HW118572   2.854   3.436   0.651
 5891SOL    HW218573   2.788   3.323   0.748
 5892SOL     OW18574   0.962   4.062   1.128
 5892SOL    HW118575   1.039   3.998   1.122
 5892SOL    HW218576   0.992   4.145   1.176
 5893SOL     OW18577   0.520   5.832   2.229
 5893SOL    HW118578   0.491   5.869   2.318
 5893SOL    HW218579   0.612   5.867   2.208
 5894SOL     OW18580   2.184   5.448   5.734
 5894SOL    HW118581   2.116   5.518   5.754
 5894SOL    HW218582   2.138   5.362   5.712
 5895SOL     OW18583   5.279   2.771   4.583
 5895SOL    HW118584   5.251   2.863   4.555
 5895SOL    HW218585   5.336   2.777   4.665
 5896SOL     OW18586   5.459   2.273   2.029
 5896SOL    HW118587   5.500   2.187   2.058
 5896SOL    HW218588   5.371   2.285   2.075
 5897SOL     OW18589   4.121   2.246   0.740
 5897SOL    HW118590   4.050   2.258   0.670
 5897SOL    HW218591   4.095   2.295   0.823
 5898SOL     OW18592   2.213   1.566   5.484
 5898SOL    HW118593   2.268   1.632   5.534
 5898SOL    HW218594   2.216   1.478   5.532
 5899SOL     OW18595   6.641   5.103   5.754
 5899SOL    HW118596   6.654   5.118   5.851
 5899SOL    HW218597   6.648   5.189   5.704
 5900SOL     OW18598   5.733   6.172   3.404
 5900SOL    HW118599   5.806   6.228   3.443
 5900SOL    HW218600   5.759   6.075   3.411
 5901SOL     OW18601   1.960   0.480   5.698
 5901SOL    HW118602   1.894   0.410   5.727
 5901SOL    HW218603   2.049   0.462   5.740
 5902SOL     OW18604   4.817   4.323   5.334
 5902SOL    HW118605   4.876   4.390   5.288
 5902SOL    HW218606   4.869   4.276   5.405
 5903SOL     OW18607   6.674   2.153   5.670
 5903SOL    HW118608   6.711   2.134   5.761
 5903SOL    HW218609   6.598   2.217   5.677
 5904SOL     OW18610   1.731   4.611   2.198
 5904SOL    HW118611   1.654   4.578   2.253
 5904SOL    HW218612   1.817   4.584   2.241
 5905SOL     OW18613   6.132   1.930   4.429
 5905SOL    HW118614   6.130   1.877   4.514
 5905SOL    HW218615   6.220   1.914   4.382
 5906SOL     OW18616   4.496   0.604   5.581
 5906SOL    HW118617   4.558   0.671   5.622
 5906SOL    HW218618   4.489   0.524   5.639
 5907SOL     OW18619   1.776   3.063   6.425
 5907SOL    HW118620   1.774   3.086   6.522
 5907SOL    HW218621   1.719   3.127   6.374
 5908SOL     OW18622   4.629   2.531   5.936
 5908SOL    HW118623   4.661   2.440   5.907
 5908SOL    HW218624   4.529   2.531   5.938
 5909SOL     OW18625   7.012   5.418   4.431
 5909SOL    HW118626   6.949   5.363   4.375
 5909SOL    HW218627   0.040   5.358   4.494
 5910SOL     OW18628   2.124   3.669   1.483
 5910SOL    HW118629   2.156   3.757   1.519
 5910SOL    HW218630   2.141   3.597   1.550
 5911SOL     OW18631   6.025   6.490   6.676
 5911SOL    HW118632   5.956   6.424   6.648
 5911SOL    HW218633   6.062   6.536   6.595
 5912SOL     OW18634   6.726   3.572   6.743
 5912SOL    HW118635   6.808   3.525   6.711
 5912SOL    HW218636   6.647   3.512   6.733
 5913SOL     OW18637   1.613   1.370   6.098
 5913SOL    HW118638   1.540   1.348   6.034
 5913SOL    HW218639   1.574   1.404   6.184
 5914SOL     OW18640   2.067   6.269   0.573
 5914SOL    HW118641   1.999   6.216   0.623
 5914SOL    HW218642   2.144   6.210   0.548
 5915SOL     OW18643   4.885   3.043   2.978
 5915SOL    HW118644   4.841   3.130   2.957
 5915SOL    HW218645   4.936   3.011   2.899
 5916SOL     OW18646   3.569   0.776   5.769
 5916SOL    HW118647   3.625   0.857   5.789
 5916SOL    HW218648   3.508   0.758   5.846
 5917SOL     OW18649   3.024   3.281   3.248
 5917SOL    HW118650   3.116   3.301   3.281
 5917SOL    HW218651   3.020   3.185   3.219
 5918SOL     OW18652   2.214   3.071   4.366
 5918SOL    HW118653   2.121   3.079   4.400
 5918SOL    HW218654   2.213   3.057   4.267
 5919SOL     OW18655   1.511   2.954   6.849
 5919SOL    HW118656   1.472   3.035   6.893
 5919SOL    HW218657   1.463   2.937   6.763
 5920SOL     OW18658   3.732   6.395   6.817
 5920SOL    HW118659   3.785   6.347   6.747
 5920SOL    HW218660   3.635   6.374   6.806
 5921SOL     OW18661   3.984   4.984   5.284
 5921SOL    HW118662   4.054   4.934   5.233
 5921SOL    HW218663   4.007   5.081   5.287
 5922SOL     OW18664   5.719   4.074   2.165
 5922SOL    HW118665   5.808   4.033   2.186
 5922SOL    HW218666   5.726   4.173   2.166
 5923SOL     OW18667   0.140   6.741   4.205
 5923SOL    HW118668   0.200   6.819   4.187
 5923SOL    HW218669   0.145   6.717   4.302
 5924SOL     OW18670   5.216   2.156   4.311
 5924SOL    HW118671   5.273   2.198   4.382
 5924SOL    HW218672   5.274   2.130   4.234
 5925SOL     OW18673   5.595   6.334   1.159
 5925SOL    HW118674   5.587   6.432   1.176
 5925SOL    HW218675   5.657   6.293   1.226
 5926SOL     OW18676   3.577   5.148   1.596
 5926SOL    HW118677   3.628   5.135   1.510
 5926SOL    HW218678   3.502   5.212   1.580
 5927SOL     OW18679   3.033   6.115   2.852
 5927SOL    HW118680   2.995   6.188   2.794
 5927SOL    HW218681   3.131   6.128   2.863
 5928SOL     OW18682   1.299   6.884   1.729
 5928SOL    HW118683   1.399   6.892   1.720
 5928SOL    HW218684   1.264   6.960   1.782
 5929SOL     OW18685   1.404   0.078   6.208
 5929SOL    HW118686   1.414   0.037   6.298
 5929SOL    HW218687   1.363   0.012   6.145
 5930SOL     OW18688   6.664   1.685   4.692
 5930SOL    HW118689   6.569   1.708   4.713
 5930SOL    HW218690   6.720   1.700   4.774
 5931SOL     OW18691   6.602   5.508   1.727
 5931SOL    HW118692   6.553   5.473   1.807
 5931SOL    HW218693   6.579   5.453   1.647
 5932SOL     OW18694   2.735   6.795   0.487
 5932SOL    HW118695   2.756   6.882   0.531
 5932SOL    HW218696   2.710   6.811   0.392
 5933SOL     OW18697   6.624   3.577   2.685
 5933SOL    HW118698   6.620   3.567   2.785
 5933SOL    HW218699   6.532   3.582   2.648
 5934SOL     OW18700   3.006   3.939   3.090
 5934SOL    HW118701   2.935   3.993   3.134
 5934SOL    HW218702   2.990   3.842   3.109
 5935SOL     OW18703   3.980   3.409   4.152
 5935SOL    HW118704   4.052   3.342   4.138
 5935SOL    HW218705   3.891   3.368   4.130
 5936SOL     OW18706   5.010   5.976   6.491
 5936SOL    HW118707   5.004   5.958   6.589
 5936SOL    HW218708   5.003   6.074   6.475
 5937SOL     OW18709   1.985   3.424   0.807
 5937SOL    HW118710   1.896   3.471   0.804
 5937SOL    HW218711   1.980   3.350   0.874
 5938SOL     OW18712   2.028   4.464   1.876
 5938SOL    HW118713   2.095   4.394   1.900
 5938SOL    HW218714   2.075   4.541   1.832
 5939SOL     OW18715   3.617   0.212   3.144
 5939SOL    HW118716   3.531   0.201   3.194
 5939SOL    HW218717   3.641   0.125   3.101
 5940SOL     OW18718   3.836   5.942   3.076
 5940SOL    HW118719   3.840   5.896   2.988
 5940SOL    HW218720   3.859   6.039   3.064
 5941SOL     OW18721   5.938   5.101   2.263
 5941SOL    HW118722   5.955   5.188   2.217
 5941SOL    HW218723   5.951   5.026   2.198
 5942SOL     OW18724   4.732   2.278   5.883
 5942SOL    HW118725   4.646   2.237   5.852
 5942SOL    HW218726   4.742   2.261   5.982
 5943SOL     OW18727   1.343   6.051   0.500
 5943SOL    HW118728   1.362   6.058   0.598
 5943SOL    HW218729   1.341   6.143   0.460
 5944SOL     OW18730   5.174   1.910   2.742
 5944SOL    HW118731   5.170   1.930   2.644
 5944SOL    HW218732   5.269   1.911   2.773
 5945SOL     OW18733   0.116   4.788   5.963
 5945SOL    HW118734   0.047   4.761   5.897
 5945SOL    HW218735   0.156   4.875   5.935
 5946SOL     OW18736   4.083   3.063   5.409
 5946SOL    HW118737   4.017   3.093   5.478
 5946SOL    HW218738   4.058   2.972   5.376
 5947SOL     OW18739   4.347   3.369   1.759
 5947SOL    HW118740   4.437   3.406   1.738
 5947SOL    HW218741   4.288   3.443   1.793
 5948SOL     OW18742   3.397   4.858   2.209
 5948SOL    HW118743   3.459   4.797   2.159
 5948SOL    HW218744   3.313   4.871   2.155
 5949SOL     OW18745   4.542   4.714   1.622
 5949SOL    HW118746   4.566   4.623   1.586
 5949SOL    HW218747   4.576   4.723   1.716
 5950SOL     OW18748   6.343   2.581   3.948
 5950SOL    HW118749   6.258   2.623   3.914
 5950SOL    HW218750   6.404   2.563   3.871
 5951SOL     OW18751   2.135   5.692   3.435
 5951SOL    HW118752   2.090   5.616   3.481
 5951SOL    HW218753   2.071   5.770   3.429
 5952SOL     OW18754   0.119   6.683   4.470
 5952SOL    HW118755   0.141   6.598   4.518
 5952SOL    HW218756   0.020   6.692   4.460
 5953SOL     OW18757   0.318   3.068   6.308
 5953SOL    HW118758   0.227   3.044   6.342
 5953SOL    HW218759   0.319   3.163   6.278
 5954SOL     OW18760   0.262   5.121   6.886
 5954SOL    HW118761   0.183   5.060   6.886
 5954SOL    HW218762   0.346   5.067   6.884
 5955SOL     OW18763   5.355   5.229   1.850
 5955SOL    HW118764   5.328   5.141   1.811
 5955SOL    HW218765   5.358   5.222   1.950
 5956SOL     OW18766   5.657   2.374   7.009
 5956SOL    HW118767   5.648   2.351   0.085
 5956SOL    HW218768   5.569   2.404   6.973
 5957SOL     OW18769   6.015   6.437   5.925
 5957SOL    HW118770   5.940   6.485   5.970
 5957SOL    HW218771   6.055   6.494   5.854
 5958SOL     OW18772   6.919   5.129   1.888
 5958SOL    HW118773   6.938   5.090   1.979
 5958SOL    HW218774   6.976   5.210   1.875
 5959SOL     OW18775   1.960   1.695   5.933
 5959SOL    HW118776   2.026   1.688   6.008
 5959SOL    HW218777   2.001   1.744   5.857
 5960SOL     OW18778   3.142   0.722   3.551
 5960SOL    HW118779   3.179   0.796   3.607
 5960SOL    HW218780   3.137   0.752   3.455
 5961SOL     OW18781   2.987   0.856   5.426
 5961SOL    HW118782   3.001   0.782   5.491
 5961SOL    HW218783   2.984   0.944   5.475
 5962SOL     OW18784   4.873   5.136   2.168
 5962SOL    HW118785   4.842   5.084   2.248
 5962SOL    HW218786   4.799   5.197   2.138
 5963SOL     OW18787   4.100   3.540   2.274
 5963SOL    HW118788   4.119   3.476   2.349
 5963SOL    HW218789   4.034   3.609   2.306
 5964SOL     OW18790   0.580   5.247   5.335
 5964SOL    HW118791   0.556   5.336   5.374
 5964SOL    HW218792   0.662   5.212   5.381
 5965SOL     OW18793   2.884   2.390   5.570
 5965SOL    HW118794   2.938   2.403   5.653
 5965SOL    HW218795   2.943   2.405   5.490
 5966SOL     OW18796   2.776   5.985   3.939
 5966SOL    HW118797   2.677   5.998   3.931
 5966SOL    HW218798   2.818   6.070   3.971
 5967SOL     OW18799   4.827   6.839   2.413
 5967SOL    HW118800   4.832   6.754   2.465
 5967SOL    HW218801   4.739   6.844   2.365
 5968SOL     OW18802   0.097   3.089   4.208
 5968SOL    HW118803   0.042   3.137   4.277
 5968SOL    HW218804   0.147   3.015   4.252
 5969SOL     OW18805   6.074   3.508   3.756
 5969SOL    HW118806   6.049   3.511   3.853
 5969SOL    HW218807   6.173   3.515   3.747
 5970SOL     OW18808   1.193   2.871   3.110
 5970SOL    HW118809   1.274   2.815   3.126
 5970SOL    HW218810   1.141   2.833   3.033
 5971SOL     OW18811   2.197   6.918   2.418
 5971SOL    HW118812   2.247   6.986   2.363
 5971SOL    HW218813   2.158   6.963   2.499
 5972SOL     OW18814   4.887   6.404   0.193
 5972SOL    HW118815   4.940   6.459   0.258
 5972SOL    HW218816   4.810   6.361   0.241
 5973SOL     OW18817   1.208   4.446   3.468
 5973SOL    HW118818   1.171   4.529   3.427
 5973SOL    HW218819   1.197   4.369   3.405
 5974SOL     OW18820   0.852   4.150   6.664
 5974SOL    HW118821   0.922   4.201   6.614
 5974SOL    HW218822   0.773   4.209   6.681
 5975SOL     OW18823   2.392   2.925   0.655
 5975SOL    HW118824   2.463   2.873   0.702
 5975SOL    HW218825   2.384   3.015   0.697
 5976SOL     OW18826   3.136   3.062   4.999
 5976SOL    HW118827   3.071   3.026   4.931
 5976SOL    HW218828   3.167   3.152   4.970
 5977SOL     OW18829   0.760   3.709   2.459
 5977SOL    HW118830   0.829   3.767   2.500
 5977SOL    HW218831   0.804   3.637   2.405
 5978SOL     OW18832   5.172   5.258   1.631
 5978SOL    HW118833   5.223   5.287   1.712
 5978SOL    HW218834   5.187   5.161   1.616
 5979SOL     OW18835   0.011   0.656   3.487
 5979SOL    HW118836   6.996   0.564   3.475
 5979SOL    HW218837   6.958   0.722   3.473
 5980SOL     OW18838   6.144   3.975   6.887
 5980SOL    HW118839   6.168   4.033   6.809
 5980SOL    HW218840   6.201   3.999   6.965
 5981SOL     OW18841   4.790   1.060   2.478
 5981SOL    HW118842   4.888   1.066   2.497
 5981SOL    HW218843   4.744   1.011   2.553
 5982SOL     OW18844   6.556   1.891   6.169
 5982SOL    HW118845   6.505   1.871   6.085
 5982SOL    HW218846   6.494   1.935   6.235
 5983SOL     OW18847   1.561   1.077   4.717
 5983SOL    HW118848   1.532   1.138   4.643
 5983SOL    HW218849   1.485   1.062   4.780
 5984SOL     OW18850   0.059   6.470   4.915
 5984SOL    HW118851   6.984   6.470   4.886
 5984SOL    HW218852   0.083   6.561   4.951
 5985SOL     OW18853   4.396   1.897   4.150
 5985SOL    HW118854   4.325   1.870   4.085
 5985SOL    HW218855   4.359   1.965   4.214
 5986SOL     OW18856   3.447   3.152   2.336
 5986SOL    HW118857   3.418   3.070   2.386
 5986SOL    HW218858   3.547   3.151   2.325
 5987SOL     OW18859   3.435   6.865   4.981
 5987SOL    HW118860   3.449   6.964   4.973
 5987SOL    HW218861   3.506   6.826   5.040
 5988SOL     OW18862   3.887   6.951   3.976
 5988SOL    HW118863   3.907   6.856   3.952
 5988SOL    HW218864   3.845   6.955   4.066
 5989SOL     OW18865   3.139   0.847   5.832
 5989SOL    HW118866   3.095   0.759   5.810
 5989SOL    HW218867   3.222   0.856   5.778
 5990SOL     OW18868   3.247   4.641   1.157
 5990SOL    HW118869   3.297   4.609   1.237
 5990SOL    HW218870   3.198   4.564   1.116
 5991SOL     OW18871   2.819   5.026   4.796
 5991SOL    HW118872   2.814   4.926   4.790
 5991SOL    HW218873   2.835   5.052   4.891
 5992SOL     OW18874   4.707   0.203   3.717
 5992SOL    HW118875   4.775   0.242   3.655
 5992SOL    HW218876   4.752   0.141   3.782
 5993SOL     OW18877   2.362   5.746   5.375
 5993SOL    HW118878   2.447   5.693   5.383
 5993SOL    HW218879   2.350   5.801   5.458
 5994SOL     OW18880   6.619   2.245   2.780
 5994SOL    HW118881   6.695   2.197   2.738
 5994SOL    HW218882   6.536   2.231   2.726
 5995SOL     OW18883   0.086   4.535   1.691
 5995SOL    HW118884   0.110   4.450   1.737
 5995SOL    HW218885   7.007   4.544   1.687
 5996SOL     OW18886   0.190   5.255   5.593
 5996SOL    HW118887   0.152   5.297   5.511
 5996SOL    HW218888   0.146   5.167   5.610
 5997SOL     OW18889   0.341   6.665   2.228
 5997SOL    HW118890   0.355   6.570   2.256
 5997SOL    HW218891   0.428   6.713   2.230
 5998SOL     OW18892   5.434   2.254   2.742
 5998SOL    HW118893   5.426   2.313   2.822
 5998SOL    HW218894   5.358   2.273   2.680
 5999SOL     OW18895   1.471   1.803   2.928
 5999SOL    HW118896   1.503   1.810   2.834
 5999SOL    HW218897   1.390   1.861   2.940
 6000SOL     OW18898   4.841   5.568   2.044
 6000SOL    HW118899   4.938   5.571   2.070
 6000SOL    HW218900   4.833   5.564   1.945
 6001SOL     OW18901   6.837   2.394   0.017
 6001SOL    HW118902   6.788   2.308   0.026
 6001SOL    HW218903   6.813   2.454   0.093
 6002SOL     OW18904   1.934   0.270   1.542
 6002SOL    HW118905   1.992   0.193   1.515
 6002SOL    HW218906   1.988   0.354   1.547
 6003SOL     OW18907   4.826   4.048   4.535
 6003SOL    HW118908   4.870   4.091   4.457
 6003SOL    HW218909   4.809   3.951   4.516
 6004SOL     OW18910   0.165   3.246   2.438
 6004SOL    HW118911   0.199   3.166   2.487
 6004SOL    HW218912   0.238   3.314   2.429
 6005SOL     OW18913   3.225   5.843   2.773
 6005SOL    HW118914   3.166   5.826   2.852
 6005SOL    HW218915   3.259   5.937   2.777
 6006SOL     OW18916   2.640   6.715   6.741
 6006SOL    HW118917   2.554   6.747   6.701
 6006SOL    HW218918   2.699   6.793   6.760
 6007SOL     OW18919   5.678   2.812   4.234
 6007SOL    HW118920   5.596   2.818   4.291
 6007SOL    HW218921   5.730   2.730   4.258
 6008SOL     OW18922   2.885   4.409   6.547
 6008SOL    HW118923   2.890   4.313   6.520
 6008SOL    HW218924   2.978   4.444   6.564
 6009SOL     OW18925   2.740   1.930   4.440
 6009SOL    HW118926   2.826   1.944   4.390
 6009SOL    HW218927   2.686   1.859   4.395
 6010SOL     OW18928   1.481   3.954   3.119
 6010SOL    HW118929   1.520   4.024   3.179
 6010SOL    HW218930   1.426   3.890   3.174
 6011SOL     OW18931   5.737   3.761   3.111
 6011SOL    HW118932   5.679   3.756   3.029
 6011SOL    HW218933   5.739   3.671   3.155
 6012SOL     OW18934   6.752   3.071   0.874
 6012SOL    HW118935   6.821   3.047   0.806
 6012SOL    HW218936   6.688   3.137   0.835
 6013SOL     OW18937   5.330   1.122   2.630
 6013SOL    HW118938   5.425   1.140   2.657
 6013SOL    HW218939   5.329   1.054   2.557
 6014SOL     OW18940   5.624   0.121   1.024
 6014SOL    HW118941   5.673   0.093   1.107
 6014SOL    HW218942   5.688   0.131   0.948
 6015SOL     OW18943   5.923   2.117   4.433
 6015SOL    HW118944   6.003   2.059   4.418
 6015SOL    HW218945   5.853   2.096   4.365
 6016SOL     OW18946   1.658   0.182   5.346
 6016SOL    HW118947   1.579   0.126   5.371
 6016SOL    HW218948   1.676   0.247   5.420
 6017SOL     OW18949   6.429   4.913   2.659
 6017SOL    HW118950   6.513   4.878   2.702
 6017SOL    HW218951   6.436   4.900   2.560
 6018SOL     OW18952   2.562   3.989   0.922
 6018SOL    HW118953   2.537   3.894   0.938
 6018SOL    HW218954   2.489   4.036   0.873
 6019SOL     OW18955   3.340   0.036   4.394
 6019SOL    HW118956   3.411   0.079   4.450
 6019SOL    HW218957   3.319   0.095   4.316
 6020SOL     OW18958   3.942   0.780   3.014
 6020SOL    HW118959   3.899   0.793   3.103
 6020SOL    HW218960   3.892   0.833   2.945
 6021SOL     OW18961   4.341   1.453   2.924
 6021SOL    HW118962   4.328   1.439   2.826
 6021SOL    HW218963   4.362   1.366   2.968
 6022SOL     OW18964   4.319   1.666   4.320
 6022SOL    HW118965   4.407   1.619   4.323
 6022SOL    HW218966   4.319   1.731   4.244
 6023SOL     OW18967   6.894   1.463   2.451
 6023SOL    HW118968   6.885   1.422   2.542
 6023SOL    HW218969   6.961   1.537   2.455
 6024SOL     OW18970   0.877   4.597   2.101
 6024SOL    HW118971   0.831   4.554   2.179
 6024SOL    HW218972   0.944   4.533   2.063
 6025SOL     OW18973   4.837   1.779   1.508
 6025SOL    HW118974   4.782   1.847   1.459
 6025SOL    HW218975   4.826   1.690   1.463
 6026SOL     OW18976   6.955   4.999   5.232
 6026SOL    HW118977   6.870   4.969   5.190
 6026SOL    HW218978   6.975   4.942   5.312
 6027SOL     OW18979   3.241   3.611   0.243
 6027SOL    HW118980   3.227   3.666   0.161
 6027SOL    HW218981   3.336   3.581   0.249
 6028SOL     OW18982   1.511   3.710   0.124
 6028SOL    HW118983   1.496   3.744   0.032
 6028SOL    HW218984   1.432   3.731   0.181
 6029SOL     OW18985   2.083   5.795   1.239
 6029SOL    HW118986   2.141   5.874   1.224
 6029SOL    HW218987   2.098   5.728   1.167
 6030SOL     OW18988   1.736   0.621   1.474
 6030SOL    HW118989   1.777   0.672   1.550
 6030SOL    HW218990   1.783   0.644   1.389
 6031SOL     OW18991   5.136   0.172   4.748
 6031SOL    HW118992   5.235   0.185   4.757
 6031SOL    HW218993   5.089   0.250   4.790
 6032SOL     OW18994   0.598   3.473   2.542
 6032SOL    HW118995   0.657   3.406   2.587
 6032SOL    HW218996   0.649   3.557   2.527
 6033SOL     OW18997   1.088   0.795   3.917
 6033SOL    HW118998   1.089   0.715   3.977
 6033SOL    HW218999   1.080   0.878   3.972
 6034SOL     OW19000   1.908   3.927   5.272
 6034SOL    HW119001   1.949   4.009   5.313
 6034SOL    HW219002   1.841   3.889   5.335
 6035SOL     OW19003   6.233   1.124   4.084
 6035SOL    HW119004   6.208   1.109   3.988
 6035SOL    HW219005   6.174   1.067   4.142
 6036SOL     OW19006   0.323   6.849   5.002
 6036SOL    HW119007   0.395   6.818   4.939
 6036SOL    HW219008   0.234   6.823   4.965
 6037SOL     OW19009   5.947   5.885   4.696
 6037SOL    HW119010   5.864   5.940   4.691
 6037SOL    HW219011   5.925   5.794   4.729
 6038SOL     OW19012   5.013   3.749   6.412
 6038SOL    HW119013   5.071   3.831   6.405
 6038SOL    HW219014   5.066   3.669   6.384
 6039SOL     OW19015   3.445   3.747   2.773
 6039SOL    HW119016   3.436   3.822   2.708
 6039SOL    HW219017   3.533   3.701   2.759
 6040SOL     OW19018   0.300   1.714   0.058
 6040SOL    HW119019   0.339   1.693   6.989
 6040SOL    HW219020   0.309   1.812   0.076
 6041SOL     OW19021   1.038   2.664   0.213
 6041SOL    HW119022   0.940   2.679   0.225
 6041SOL    HW219023   1.063   2.574   0.248
 6042SOL     OW19024   4.626   5.479   3.569
 6042SOL    HW119025   4.571   5.434   3.639
 6042SOL    HW219026   4.651   5.412   3.498
 6043SOL     OW19027   0.814   4.296   4.280
 6043SOL    HW119028   0.834   4.285   4.183
 6043SOL    HW219029   0.825   4.392   4.306
 6044SOL     OW19030   0.994   0.699   1.262
 6044SOL    HW119031   0.976   0.610   1.303
 6044SOL    HW219032   0.916   0.760   1.277
 6045SOL     OW19033   6.859   3.700   2.047
 6045SOL    HW119034   6.771   3.743   2.068
 6045SOL    HW219035   6.932   3.748   2.096
 6046SOL     OW19036   2.795   2.445   0.381
 6046SOL    HW119037   2.846   2.412   0.461
 6046SOL    HW219038   2.837   2.411   0.297
 6047SOL     OW19039   6.991   0.018   4.064
 6047SOL    HW119040   6.989   0.019   4.164
 6047SOL    HW219041   6.967   0.109   4.029
 6048SOL     OW19042   4.734   6.673   5.177
 6048SOL    HW119043   4.770   6.594   5.227
 6048SOL    HW219044   4.704   6.743   5.242
 6049SOL     OW19045   6.158   4.664   0.264
 6049SOL    HW119046   6.212   4.742   0.232
 6049SOL    HW219047   6.157   4.664   0.364
 6050SOL     OW19048   5.059   4.497   5.646
 6050SOL    HW119049   5.112   4.521   5.728
 6050SOL    HW219050   4.964   4.480   5.672
 6051SOL     OW19051   2.123   1.760   2.854
 6051SOL    HW119052   2.155   1.745   2.947
 6051SOL    HW219053   2.189   1.721   2.789
 6052SOL     OW19054   6.911   1.086   0.795
 6052SOL    HW119055   6.874   1.150   0.863
 6052SOL    HW219056   7.011   1.095   0.792
 6053SOL     OW19057   1.860   6.883   6.632
 6053SOL    HW119058   1.807   6.913   6.711
 6053SOL    HW219059   1.952   6.857   6.662
 6054SOL     OW19060   2.194   4.097   0.438
 6054SOL    HW119061   2.203   4.050   0.351
 6054SOL    HW219062   2.097   4.104   0.462
 6055SOL     OW19063   4.665   0.697   5.020
 6055SOL    HW119064   4.608   0.640   4.961
 6055SOL    HW219065   4.637   0.793   5.010
 6056SOL     OW19066   5.000   2.101   6.514
 6056SOL    HW119067   5.024   2.190   6.551
 6056SOL    HW219068   5.003   2.104   6.414
 6057SOL     OW19069   3.321   1.334   5.373
 6057SOL    HW119070   3.356   1.273   5.443
 6057SOL    HW219071   3.357   1.307   5.284
 6058SOL     OW19072   5.799   2.584   4.285
 6058SOL    HW119073   5.837   2.540   4.203
 6058SOL    HW219074   5.752   2.515   4.340
 6059SOL     OW19075   6.427   4.995   6.576
 6059SOL    HW119076   6.517   4.995   6.621
 6059SOL    HW219077   6.360   4.952   6.635
 6060SOL     OW19078   4.382   6.103   5.988
 6060SOL    HW119079   4.396   6.015   6.033
 6060SOL    HW219080   4.313   6.093   5.915
 6061SOL     OW19081   2.460   1.922   6.409
 6061SOL    HW119082   2.392   1.987   6.444
 6061SOL    HW219083   2.492   1.863   6.483
 6062SOL     OW19084   2.308   0.155   4.531
 6062SOL    HW119085   2.345   0.074   4.487
 6062SOL    HW219086   2.370   0.233   4.516
 6063SOL     OW19087   4.502   0.626   6.108
 6063SOL    HW119088   4.538   0.711   6.145
 6063SOL    HW219089   4.550   0.549   6.151
 6064SOL     OW19090   1.657   5.281   3.493
 6064SOL    HW119091   1.589   5.255   3.424
 6064SOL    HW219092   1.747   5.284   3.450
 6065SOL     OW19093   0.142   0.800   0.785
 6065SOL    HW119094   0.123   0.871   0.854
 6065SOL    HW219095   0.066   0.736   0.782
 6066SOL     OW19096   4.260   3.042   0.433
 6066SOL    HW119097   4.204   3.030   0.515
 6066SOL    HW219098   4.202   3.063   0.355
 6067SOL     OW19099   6.480   1.751   6.621
 6067SOL    HW119100   6.555   1.743   6.687
 6067SOL    HW219101   6.395   1.725   6.666
 6068SOL     OW19102   4.558   2.627   4.721
 6068SOL    HW119103   4.509   2.565   4.782
 6068SOL    HW219104   4.570   2.715   4.766
 6069SOL     OW19105   6.336   4.600   4.636
 6069SOL    HW119106   6.405   4.566   4.700
 6069SOL    HW219107   6.252   4.548   4.647
 6070SOL     OW19108   4.209   2.159   6.218
 6070SOL    HW119109   4.185   2.064   6.198
 6070SOL    HW219110   4.206   2.174   6.317
 6071SOL     OW19111   4.242   6.140   5.253
 6071SOL    HW119112   4.234   6.221   5.196
 6071SOL    HW219113   4.153   6.094   5.258
 6072SOL     OW19114   0.304   2.009   1.293
 6072SOL    HW119115   0.277   1.924   1.339
 6072SOL    HW219116   0.232   2.035   1.228
 6073SOL     OW19117   6.539   2.705   0.746
 6073SOL    HW119118   6.467   2.637   0.762
 6073SOL    HW219119   6.533   2.738   0.652
 6074SOL     OW19120   0.688   0.193   4.849
 6074SOL    HW119121   0.605   0.169   4.900
 6074SOL    HW219122   0.682   0.155   4.756
 6075SOL     OW19123   5.786   3.923   6.832
 6075SOL    HW119124   5.856   3.854   6.819
 6075SOL    HW219125   5.766   3.932   6.930
 6076SOL     OW19126   1.903   5.906   4.279
 6076SOL    HW119127   1.906   5.977   4.208
 6076SOL    HW219128   1.885   5.818   4.236
 6077SOL     OW19129   6.229   6.203   2.154
 6077SOL    HW119130   6.221   6.147   2.072
 6077SOL    HW219131   6.139   6.238   2.180
 6078SOL     OW19132   2.403   4.534   3.811
 6078SOL    HW119133   2.493   4.577   3.812
 6078SOL    HW219134   2.395   4.474   3.731
 6079SOL     OW19135   2.116   2.092   6.659
 6079SOL    HW119136   2.067   2.177   6.677
 6079SOL    HW219137   2.175   2.069   6.736
 6080SOL     OW19138   5.764   2.598   1.722
 6080SOL    HW119139   5.707   2.674   1.754
 6080SOL    HW219140   5.780   2.535   1.798
 6081SOL     OW19141   6.992   3.720   3.725
 6081SOL    HW119142   0.061   3.741   3.686
 6081SOL    HW219143   6.967   3.790   3.791
 6082SOL     OW19144   3.984   1.154   3.849
 6082SOL    HW119145   4.074   1.148   3.891
 6082SOL    HW219146   3.960   1.251   3.835
 6083SOL     OW19147   1.497   5.997   0.192
 6083SOL    HW119148   1.525   5.975   0.286
 6083SOL    HW219149   1.399   6.018   0.191
 6084SOL     OW19150   6.976   5.158   5.814
 6084SOL    HW119151   6.934   5.069   5.800
 6084SOL    HW219152   0.015   5.155   5.894
 6085SOL     OW19153   5.509   4.035   0.694
 6085SOL    HW119154   5.430   4.096   0.702
 6085SOL    HW219155   5.538   4.030   0.598
 6086SOL     OW19156   3.039   2.097   3.649
 6086SOL    HW119157   3.065   2.155   3.726
 6086SOL    HW219158   3.090   2.124   3.568
 6087SOL     OW19159   5.442   6.946   6.732
 6087SOL    HW119160   5.413   0.007   6.782
 6087SOL    HW219161   5.517   6.970   6.670
 6088SOL     OW19162   0.953   0.206   4.933
 6088SOL    HW119163   0.968   0.107   4.927
 6088SOL    HW219164   0.860   0.227   4.904
 6089SOL     OW19165   7.003   3.464   0.431
 6089SOL    HW119166   0.065   3.495   0.383
 6089SOL    HW219167   6.974   3.534   0.496
 6090SOL     OW19168   0.728   5.549   4.690
 6090SOL    HW119169   0.648   5.509   4.735
 6090SOL    HW219170   0.700   5.590   4.603
 6091SOL     OW19171   5.939   1.922   2.057
 6091SOL    HW119172   6.012   1.987   2.075
 6091SOL    HW219173   5.874   1.962   1.992
 6092SOL     OW19174   1.867   1.827   2.018
 6092SOL    HW119175   1.962   1.826   2.050
 6092SOL    HW219176   1.858   1.765   1.941
 6093SOL     OW19177   0.957   3.019   0.980
 6093SOL    HW119178   0.973   3.089   0.910
 6093SOL    HW219179   1.018   3.035   1.057
 6094SOL     OW19180   1.419   0.918   1.558
 6094SOL    HW119181   1.348   0.875   1.502
 6094SOL    HW219182   1.486   0.962   1.498
 6095SOL     OW19183   6.122   3.699   5.967
 6095SOL    HW119184   6.185   3.756   6.022
 6095SOL    HW219185   6.151   3.701   5.871
 6096SOL     OW19186   3.768   2.018   3.673
 6096SOL    HW119187   3.766   2.052   3.767
 6096SOL    HW219188   3.850   2.053   3.627
 6097SOL     OW19189   2.836   1.791   2.083
 6097SOL    HW119190   2.767   1.775   2.153
 6097SOL    HW219191   2.861   1.888   2.082
 6098SOL     OW19192   1.916   2.318   5.878
 6098SOL    HW119193   1.930   2.224   5.911
 6098SOL    HW219194   2.002   2.368   5.885
 6099SOL     OW19195   6.201   5.826   5.085
 6099SOL    HW119196   6.182   5.749   5.147
 6099SOL    HW219197   6.219   5.792   4.993
 6100SOL     OW19198   6.698   2.801   6.863
 6100SOL    HW119199   6.619   2.856   6.891
 6100SOL    HW219200   6.708   2.724   6.926
 6101SOL     OW19201   6.259   1.219   4.952
 6101SOL    HW119202   6.324   1.149   4.921
 6101SOL    HW219203   6.170   1.176   4.967
 6102SOL     OW19204   2.812   0.408   4.697
 6102SOL    HW119205   2.796   0.367   4.607
 6102SOL    HW219206   2.750   0.485   4.710
 6103SOL     OW19207   6.296   6.398   5.696
 6103SOL    HW119208   6.253   6.349   5.619
 6103SOL    HW219209   6.250   6.486   5.709
 6104SOL     OW19210   6.751   2.473   6.549
 6104SOL    HW119211   6.848   2.493   6.564
 6104SOL    HW219212   6.737   2.374   6.548
 6105SOL     OW19213   3.232   5.956   4.386
 6105SOL    HW119214   3.281   5.870   4.373
 6105SOL    HW219215   3.146   5.938   4.435
 6106SOL     OW19216   3.043   5.375   5.659
 6106SOL    HW119217   2.944   5.362   5.666
 6106SOL    HW219218   3.090   5.297   5.699
 6107SOL     OW19219   2.101   4.704   5.516
 6107SOL    HW119220   2.098   4.788   5.461
 6107SOL    HW219221   2.155   4.635   5.468
 6108SOL     OW19222   0.353   2.426   5.249
 6108SOL    HW119223   0.420   2.437   5.176
 6108SOL    HW219224   0.333   2.329   5.263
 6109SOL     OW19225   6.061   4.331   1.186
 6109SOL    HW119226   6.108   4.402   1.133
 6109SOL    HW219227   5.989   4.290   1.129
 6110SOL     OW19228   3.642   1.017   4.750
 6110SOL    HW119229   3.567   0.956   4.776
 6110SOL    HW219230   3.645   1.095   4.812
 6111SOL     OW19231   1.411   4.896   3.138
 6111SOL    HW119232   1.482   4.827   3.156
 6111SOL    HW219233   1.415   4.967   3.208
 6112SOL     OW19234   0.903   1.527   2.592
 6112SOL    HW119235   0.819   1.500   2.639
 6112SOL    HW219236   0.935   1.615   2.627
 6113SOL     OW19237   1.153   6.396   5.826
 6113SOL    HW119238   1.193   6.470   5.773
 6113SOL    HW219239   1.064   6.424   5.861
 6114SOL     OW19240   4.950   5.788   0.351
 6114SOL    HW119241   5.048   5.785   0.334
 6114SOL    HW219242   4.932   5.776   0.448
 6115SOL     OW19243   5.543   5.065   2.596
 6115SOL    HW119244   5.525   5.008   2.676
 6115SOL    HW219245   5.634   5.045   2.560
 6116SOL     OW19246   4.238   1.218   1.820
 6116SOL    HW119247   4.225   1.131   1.867
 6116SOL    HW219248   4.335   1.228   1.795
 6117SOL     OW19249   5.344   6.900   4.370
 6117SOL    HW119250   5.368   6.829   4.436
 6117SOL    HW219251   5.257   6.876   4.326
 6118SOL     OW19252   6.008   0.726   3.404
 6118SOL    HW119253   6.063   0.662   3.458
 6118SOL    HW219254   6.054   0.815   3.401
 6119SOL     OW19255   6.851   5.448   4.645
 6119SOL    HW119256   6.876   5.524   4.706
 6119SOL    HW219257   6.918   5.440   4.572
 6120SOL     OW19258   2.473   1.011   3.025
 6120SOL    HW119259   2.501   0.915   3.022
 6120SOL    HW219260   2.428   1.029   3.113
 6121SOL     OW19261   6.806   2.668   4.414
 6121SOL    HW119262   6.885   2.634   4.465
 6121SOL    HW219263   6.834   2.746   4.358
 6122SOL     OW19264   4.552   5.878   2.899
 6122SOL    HW119265   4.485   5.931   2.847
 6122SOL    HW219266   4.513   5.852   2.987
 6123SOL     OW19267   5.877   1.643   2.585
 6123SOL    HW119268   5.885   1.607   2.677
 6123SOL    HW219269   5.817   1.583   2.531
 6124SOL     OW19270   3.376   0.273   5.855
 6124SOL    HW119271   3.327   0.358   5.838
 6124SOL    HW219272   3.445   0.288   5.927
 6125SOL     OW19273   2.508   5.800   1.810
 6125SOL    HW119274   2.424   5.790   1.757
 6125SOL    HW219275   2.547   5.891   1.794
 6126SOL     OW19276   5.333   5.291   2.578
 6126SOL    HW119277   5.261   5.237   2.534
 6126SOL    HW219278   5.416   5.237   2.585
 6127SOL     OW19279   2.087   5.244   1.641
 6127SOL    HW119280   2.059   5.333   1.678
 6127SOL    HW219281   2.185   5.231   1.656
 6128SOL     OW19282   5.402   1.778   0.639
 6128SOL    HW119283   5.320   1.728   0.613
 6128SOL    HW219284   5.407   1.864   0.588
 6129SOL     OW19285   5.853   4.525   3.566
 6129SOL    HW119286   5.766   4.569   3.546
 6129SOL    HW219287   5.928   4.583   3.532
 6130SOL     OW19288   5.687   3.701   2.406
 6130SOL    HW119289   5.656   3.639   2.334
 6130SOL    HW219290   5.669   3.795   2.379
 6131SOL     OW19291   5.996   1.427   5.222
 6131SOL    HW119292   5.944   1.365   5.162
 6131SOL    HW219293   6.031   1.375   5.300
 6132SOL     OW19294   5.066   2.403   0.934
 6132SOL    HW119295   5.131   2.445   0.871
 6132SOL    HW219296   5.076   2.443   1.024
 6133SOL     OW19297   0.872   4.625   0.915
 6133SOL    HW119298   0.892   4.703   0.974
 6133SOL    HW219299   0.773   4.609   0.913
 6134SOL     OW19300   4.619   3.788   6.705
 6134SOL    HW119301   4.662   3.736   6.632
 6134SOL    HW219302   4.530   3.821   6.674
 6135SOL     OW19303   5.418   0.082   1.325
 6135SOL    HW119304   5.351   0.130   1.382
 6135SOL    HW219305   5.370   0.030   1.254
 6136SOL     OW19306   0.565   2.294   1.563
 6136SOL    HW119307   0.630   2.270   1.491
 6136SOL    HW219308   0.582   2.236   1.643
 6137SOL     OW19309   2.949   6.805   6.269
 6137SOL    HW119310   3.042   6.811   6.305
 6137SOL    HW219311   2.950   6.758   6.181
 6138SOL     OW19312   4.020   6.501   2.755
 6138SOL    HW119313   4.034   6.593   2.719
 6138SOL    HW219314   3.942   6.502   2.818
 6139SOL     OW19315   1.910   4.801   4.122
 6139SOL    HW119316   1.977   4.836   4.057
 6139SOL    HW219317   1.861   4.877   4.164
 6140SOL     OW19318   2.214   6.272   0.914
 6140SOL    HW119319   2.168   6.335   0.850
 6140SOL    HW219320   2.146   6.229   0.973
 6141SOL     OW19321   6.482   5.680   6.280
 6141SOL    HW119322   6.481   5.704   6.183
 6141SOL    HW219323   6.388   5.681   6.315
 6142SOL     OW19324   0.127   4.333   1.873
 6142SOL    HW119325   0.057   4.270   1.908
 6142SOL    HW219326   0.217   4.303   1.904
 6143SOL     OW19327   5.884   5.743   6.762
 6143SOL    HW119328   5.928   5.718   6.848
 6143SOL    HW219329   5.784   5.738   6.772
 6144SOL     OW19330   0.655   4.515   4.087
 6144SOL    HW119331   0.696   4.436   4.042
 6144SOL    HW219332   0.665   4.505   4.186
 6145SOL     OW19333   5.291   6.110   3.169
 6145SOL    HW119334   5.220   6.068   3.224
 6145SOL    HW219335   5.372   6.050   3.167
 6146SOL     OW19336   5.660   1.555   3.128
 6146SOL    HW119337   5.633   1.506   3.212
 6146SOL    HW219338   5.733   1.504   3.082
 6147SOL     OW19339   1.655   3.412   3.069
 6147SOL    HW119340   1.666   3.506   3.100
 6147SOL    HW219341   1.636   3.353   3.148
 6148SOL     OW19342   6.360   6.531   4.378
 6148SOL    HW119343   6.425   6.477   4.324
 6148SOL    HW219344   6.267   6.506   4.354
 6149SOL     OW19345   2.466   6.365   3.477
 6149SOL    HW119346   2.554   6.342   3.436
 6149SOL    HW219347   2.442   6.294   3.544
 6150SOL     OW19348   4.713   5.505   5.820
 6150SOL    HW119349   4.782   5.465   5.760
 6150SOL    HW219350   4.631   5.448   5.820
 6151SOL     OW19351   4.860   2.587   5.742
 6151SOL    HW119352   4.793   2.606   5.814
 6151SOL    HW219353   4.901   2.497   5.756
 6152SOL     OW19354   6.639   4.437   6.856
 6152SOL    HW119355   6.561   4.390   6.816
 6152SOL    HW219356   6.717   4.429   6.794
 6153SOL     OW19357   4.388   3.058   1.237
 6153SOL    HW119358   4.404   3.012   1.325
 6153SOL    HW219359   4.333   3.000   1.178
 6154SOL     OW19360   5.517   3.032   2.945
 6154SOL    HW119361   5.513   3.113   3.004
 6154SOL    HW219362   5.427   2.990   2.939
 6155SOL     OW19363   0.554   3.739   4.986
 6155SOL    HW119364   0.517   3.828   4.958
 6155SOL    HW219365   0.645   3.752   5.025
 6156SOL     OW19366   6.763   0.140   3.829
 6156SOL    HW119367   6.717   0.080   3.894
 6156SOL    HW219368   6.851   0.169   3.867
 6157SOL     OW19369   2.539   1.385   4.042
 6157SOL    HW119370   2.540   1.475   4.001
 6157SOL    HW219371   2.579   1.318   3.979
 6158SOL     OW19372   5.227   1.400   5.719
 6158SOL    HW119373   5.206   1.494   5.691
 6158SOL    HW219374   5.195   1.337   5.648
 6159SOL     OW19375   5.181   3.079   6.662
 6159SOL    HW119376   5.200   3.176   6.670
 6159SOL    HW219377   5.263   3.032   6.627
 6160SOL     OW19378   5.968   5.898   1.711
 6160SOL    HW119379   5.959   5.894   1.810
 6160SOL    HW219380   6.034   5.968   1.685
 6161SOL     OW19381   5.730   0.562   6.021
 6161SOL    HW119382   5.711   0.659   6.002
 6161SOL    HW219383   5.675   0.505   5.960
 6162SOL     OW19384   6.113   5.000   4.592
 6162SOL    HW119385   6.161   5.070   4.645
 6162SOL    HW219386   6.016   5.000   4.616
 6163SOL     OW19387   6.543   4.014   2.430
 6163SOL    HW119388   6.589   3.926   2.444
 6163SOL    HW219389   6.607   4.088   2.449
 6164SOL     OW19390   4.029   2.564   0.318
 6164SOL    HW119391   4.088   2.588   0.395
 6164SOL    HW219392   4.006   2.646   0.266
 6165SOL     OW19393   4.076   6.103   0.084
 6165SOL    HW119394   4.135   6.168   0.034
 6165SOL    HW219395   4.011   6.062   0.020
 6166SOL     OW19396   2.771   1.893   6.180
 6166SOL    HW119397   2.700   1.957   6.209
 6166SOL    HW219398   2.767   1.882   6.081
 6167SOL     OW19399   6.934   4.403   3.336
 6167SOL    HW119400   6.976   4.372   3.422
 6167SOL    HW219401   6.886   4.327   3.293
 6168SOL     OW19402   0.269   3.141   2.719
 6168SOL    HW119403   0.173   3.118   2.699
 6168SOL    HW219404   0.276   3.238   2.738
 6169SOL     OW19405   1.875   4.297   2.127
 6169SOL    HW119406   1.776   4.283   2.132
 6169SOL    HW219407   1.921   4.219   2.170
 6170SOL     OW19408   0.571   3.191   4.786
 6170SOL    HW119409   0.550   3.201   4.689
 6170SOL    HW219410   0.559   3.280   4.831
 6171SOL     OW19411   0.367   0.103   6.641
 6171SOL    HW119412   0.463   0.084   6.618
 6171SOL    HW219413   0.347   0.199   6.622
 6172SOL     OW19414   0.470   3.350   3.150
 6172SOL    HW119415   0.377   3.373   3.121
 6172SOL    HW219416   0.509   3.426   3.201
 6173SOL     OW19417   6.914   6.396   3.392
 6173SOL    HW119418   6.969   6.455   3.333
 6173SOL    HW219419   6.823   6.437   3.404
 6174SOL     OW19420   5.985   4.031   2.458
 6174SOL    HW119421   6.010   4.110   2.515
 6174SOL    HW219422   5.928   3.969   2.511
 6175SOL     OW19423   2.956   2.368   5.847
 6175SOL    HW119424   2.875   2.315   5.869
 6175SOL    HW219425   3.027   2.351   5.916
 6176SOL     OW19426   4.504   3.628   5.863
 6176SOL    HW119427   4.449   3.584   5.793
 6176SOL    HW219428   4.593   3.654   5.825
 6177SOL     OW19429   6.148   1.150   1.899
 6177SOL    HW119430   6.106   1.060   1.908
 6177SOL    HW219431   6.227   1.145   1.839
 6178SOL     OW19432   3.980   4.630   1.429
 6178SOL    HW119433   4.031   4.627   1.343
 6178SOL    HW219434   3.905   4.695   1.420
 6179SOL     OW19435   5.737   4.760   3.327
 6179SOL    HW119436   5.722   4.696   3.252
 6179SOL    HW219437   5.697   4.724   3.411
 6180SOL     OW19438   2.976   4.201   0.203
 6180SOL    HW119439   2.913   4.174   0.130
 6180SOL    HW219440   3.056   4.142   0.200
 6181SOL     OW19441   5.619   5.735   6.744
 6181SOL    HW119442   5.598   5.651   6.794
 6181SOL    HW219443   5.590   5.725   6.649
 6182SOL     OW19444   3.707   2.242   0.370
 6182SOL    HW119445   3.609   2.232   0.390
 6182SOL    HW219446   3.754   2.276   0.451
 6183SOL     OW19447   0.715   0.894   0.875
 6183SOL    HW119448   0.770   0.817   0.843
 6183SOL    HW219449   0.754   0.930   0.960
 6184SOL     OW19450   2.317   0.728   5.650
 6184SOL    HW119451   2.329   0.684   5.740
 6184SOL    HW219452   2.379   0.806   5.643
 6185SOL     OW19453   3.445   2.989   5.617
 6185SOL    HW119454   3.360   2.987   5.668
 6185SOL    HW219455   3.521   2.967   5.678
 6186SOL     OW19456   6.806   2.157   2.330
 6186SOL    HW119457   6.709   2.139   2.346
 6186SOL    HW219458   6.817   2.194   2.237
 6187SOL     OW19459   5.407   1.628   5.762
 6187SOL    HW119460   5.429   1.676   5.847
 6187SOL    HW219461   5.308   1.616   5.755
 6188SOL     OW19462   1.307   1.510   4.989
 6188SOL    HW119463   1.374   1.438   5.010
 6188SOL    HW219464   1.278   1.553   5.074
 6189SOL     OW19465   6.588   6.639   1.362
 6189SOL    HW119466   6.659   6.665   1.296
 6189SOL    HW219467   6.560   6.719   1.414
 6190SOL     OW19468   0.393   2.678   5.377
 6190SOL    HW119469   0.384   2.598   5.318
 6190SOL    HW219470   0.330   2.670   5.455
 6191SOL     OW19471   4.024   3.577   6.882
 6191SOL    HW119472   3.982   3.559   6.971
 6191SOL    HW219473   4.117   3.612   6.895
 6192SOL     OW19474   2.937   1.563   0.427
 6192SOL    HW119475   2.909   1.470   0.403
 6192SOL    HW219476   2.919   1.625   0.351
 6193SOL     OW19477   4.678   6.028   6.584
 6193SOL    HW119478   4.655   6.119   6.618
 6193SOL    HW219479   4.725   6.035   6.496
 6194SOL     OW19480   6.401   0.336   6.020
 6194SOL    HW119481   6.483   0.393   6.017
 6194SOL    HW219482   6.392   0.285   5.935
 6195SOL     OW19483   6.642   6.418   6.121
 6195SOL    HW119484   6.649   6.481   6.198
 6195SOL    HW219485   6.558   6.364   6.129
 6196SOL     OW19486   5.705   3.939   3.345
 6196SOL    HW119487   5.711   3.889   3.258
 6196SOL    HW219488   5.636   3.895   3.403
 6197SOL     OW19489   3.109   5.771   1.944
 6197SOL    HW119490   3.096   5.726   2.032
 6197SOL    HW219491   3.207   5.780   1.925
 6198SOL     OW19492   6.441   0.293   6.877
 6198SOL    HW119493   6.373   0.366   6.881
 6198SOL    HW219494   6.452   0.252   6.967
 6199SOL     OW19495   0.906   0.147   0.175
 6199SOL    HW119496   0.975   0.207   0.215
 6199SOL    HW219497   0.815   0.181   0.199
 6200SOL     OW19498   2.131   1.829   2.135
 6200SOL    HW119499   2.188   1.849   2.055
 6200SOL    HW219500   2.182   1.851   2.219
 6201SOL     OW19501   0.001   4.295   3.575
 6201SOL    HW119502   0.100   4.308   3.582
 6201SOL    HW219503   6.975   4.353   3.641
 6202SOL     OW19504   6.158   1.453   2.549
 6202SOL    HW119505   6.118   1.502   2.472
 6202SOL    HW219506   6.218   1.515   2.600
 6203SOL     OW19507   6.630   6.936   1.774
 6203SOL    HW119508   6.617   6.863   1.841
 6203SOL    HW219509   6.645   0.002   1.822
 6204SOL     OW19510   2.508   0.540   5.051
 6204SOL    HW119511   2.499   0.586   4.963
 6204SOL    HW219512   2.419   0.533   5.095
 6205SOL     OW19513   4.592   4.765   2.948
 6205SOL    HW119514   4.537   4.682   2.937
 6205SOL    HW219515   4.560   4.816   3.028
 6206SOL     OW19516   5.969   1.781   4.255
 6206SOL    HW119517   6.038   1.752   4.189
 6206SOL    HW219518   6.006   1.853   4.313
 6207SOL     OW19519   2.375   4.715   4.403
 6207SOL    HW119520   2.368   4.616   4.403
 6207SOL    HW219521   2.409   4.746   4.492
 6208SOL     OW19522   3.976   3.557   5.705
 6208SOL    HW119523   3.911   3.485   5.680
 6208SOL    HW219524   4.056   3.553   5.645
 6209SOL     OW19525   3.643   2.432   1.501
 6209SOL    HW119526   3.707   2.359   1.524
 6209SOL    HW219527   3.662   2.466   1.409
 6210SOL     OW19528   4.850   1.992   4.052
 6210SOL    HW119529   4.803   1.919   4.102
 6210SOL    HW219530   4.866   2.069   4.114
 6211SOL     OW19531   5.743   4.882   5.520
 6211SOL    HW119532   5.815   4.813   5.533
 6211SOL    HW219533   5.654   4.841   5.535
 6212SOL     OW19534   4.682   5.159   4.812
 6212SOL    HW119535   4.717   5.089   4.749
 6212SOL    HW219536   4.651   5.238   4.759
 6213SOL     OW19537   4.144   6.077   0.348
 6213SOL    HW119538   4.159   6.175   0.358
 6213SOL    HW219539   4.111   6.057   0.256
 6214SOL     OW19540   6.581   5.499   6.487
 6214SOL    HW119541   6.583   5.406   6.451
 6214SOL    HW219542   6.534   5.559   6.422
 6215SOL     OW19543   5.559   2.712   5.938
 6215SOL    HW119544   5.595   2.800   5.906
 6215SOL    HW219545   5.635   2.653   5.965
 6216SOL     OW19546   4.661   2.176   3.556
 6216SOL    HW119547   4.690   2.098   3.612
 6216SOL    HW219548   4.741   2.231   3.531
 6217SOL     OW19549   0.395   4.206   2.566
 6217SOL    HW119550   0.469   4.159   2.614
 6217SOL    HW219551   0.339   4.139   2.518
 6218SOL     OW19552   4.331   6.497   0.246
 6218SOL    HW119553   4.275   6.580   0.234
 6218SOL    HW219554   4.427   6.523   0.257
 6219SOL     OW19555   1.641   0.957   5.975
 6219SOL    HW119556   1.633   1.009   6.060
 6219SOL    HW219557   1.670   1.018   5.901
 6220SOL     OW19558   4.014   0.296   0.785
 6220SOL    HW119559   4.089   0.231   0.779
 6220SOL    HW219560   3.934   0.260   0.736
 6221SOL     OW19561   5.699   5.473   6.930
 6221SOL    HW119562   5.649   5.400   6.978
 6221SOL    HW219563   5.755   5.432   6.858
 6222SOL     OW19564   6.176   2.058   2.092
 6222SOL    HW119565   6.228   2.029   2.172
 6222SOL    HW219566   6.225   2.032   2.009
 6223SOL     OW19567   0.476   5.004   3.641
 6223SOL    HW119568   0.483   5.051   3.553
 6223SOL    HW219569   0.567   4.990   3.679
 6224SOL     OW19570   3.983   0.701   6.961
 6224SOL    HW119571   4.015   0.607   6.969
 6224SOL    HW219572   3.883   0.702   6.958
 6225SOL     OW19573   4.645   6.300   6.621
 6225SOL    HW119574   4.714   6.323   6.690
 6225SOL    HW219575   4.566   6.361   6.630
 6226SOL     OW19576   1.546   1.294   4.521
 6226SOL    HW119577   1.625   1.296   4.460
 6226SOL    HW219578   1.552   1.370   4.586
 6227SOL     OW19579   2.814   4.662   5.378
 6227SOL    HW119580   2.719   4.666   5.408
 6227SOL    HW219581   2.823   4.592   5.307
 6228SOL     OW19582   1.284   3.103   3.577
 6228SOL    HW119583   1.346   3.182   3.575
 6228SOL    HW219584   1.244   3.090   3.486
 6229SOL     OW19585   0.283   3.294   4.509
 6229SOL    HW119586   0.364   3.251   4.470
 6229SOL    HW219587   0.305   3.386   4.541
 6230SOL     OW19588   0.079   0.833   1.918
 6230SOL    HW119589   0.117   0.757   1.972
 6230SOL    HW219590   0.144   0.858   1.846
 6231SOL     OW19591   1.336   5.057   6.873
 6231SOL    HW119592   1.281   4.973   6.873
 6231SOL    HW219593   1.433   5.032   6.880
 6232SOL     OW19594   4.388   1.070   6.381
 6232SOL    HW119595   4.356   1.062   6.476
 6232SOL    HW219596   4.479   1.110   6.380
 6233SOL     OW19597   7.005   3.330   1.477
 6233SOL    HW119598   6.977   3.338   1.572
 6233SOL    HW219599   0.018   3.419   1.445
 6234SOL     OW19600   4.432   5.764   4.876
 6234SOL    HW119601   4.382   5.707   4.811
 6234SOL    HW219602   4.417   5.730   4.969
 6235SOL     OW19603   6.631   0.404   2.737
 6235SOL    HW119604   6.548   0.368   2.696
 6235SOL    HW219605   6.708   0.390   2.675
 6236SOL     OW19606   0.543   5.462   1.359
 6236SOL    HW119607   0.609   5.477   1.285
 6236SOL    HW219608   0.523   5.549   1.404
 6237SOL     OW19609   3.149   1.319   0.489
 6237SOL    HW119610   3.180   1.398   0.542
 6237SOL    HW219611   3.084   1.266   0.544
 6238SOL     OW19612   2.189   0.295   4.046
 6238SOL    HW119613   2.194   0.337   3.955
 6238SOL    HW219614   2.095   0.302   4.080
 6239SOL     OW19615   4.594   1.101   3.930
 6239SOL    HW119616   4.550   1.021   3.889
 6239SOL    HW219617   4.637   1.156   3.859
 6240SOL     OW19618   3.814   2.995   3.701
 6240SOL    HW119619   3.727   3.013   3.747
 6240SOL    HW219620   3.882   2.967   3.769
 6241SOL     OW19621   3.607   0.245   2.853
 6241SOL    HW119622   3.547   0.307   2.802
 6241SOL    HW219623   3.639   0.290   2.936
 6242SOL     OW19624   3.161   1.931   3.211
 6242SOL    HW119625   3.106   1.867   3.264
 6242SOL    HW219626   3.113   2.018   3.202
 6243SOL     OW19627   4.567   1.835   6.623
 6243SOL    HW119628   4.601   1.780   6.699
 6243SOL    HW219629   4.626   1.915   6.611
 6244SOL     OW19630   5.462   4.051   2.580
 6244SOL    HW119631   5.488   4.012   2.491
 6244SOL    HW219632   5.376   4.101   2.570
 6245SOL     OW19633   6.992   4.286   2.580
 6245SOL    HW119634   6.990   4.196   2.538
 6245SOL    HW219635   6.989   4.356   2.509
 6246SOL     OW19636   6.641   6.759   4.207
 6246SOL    HW119637   6.664   6.821   4.281
 6246SOL    HW219638   6.697   6.676   4.213
 6247SOL     OW19639   6.663   6.592   3.366
 6247SOL    HW119640   6.718   6.604   3.448
 6247SOL    HW219641   6.594   6.522   3.382
 6248SOL     OW19642   3.730   2.958   5.978
 6248SOL    HW119643   3.641   2.960   6.024
 6248SOL    HW219644   3.719   2.984   5.882
 6249SOL     OW19645   5.988   2.822   1.681
 6249SOL    HW119646   5.977   2.748   1.615
 6249SOL    HW219647   5.898   2.859   1.705
 6250SOL     OW19648   6.215   0.507   0.205
 6250SOL    HW119649   6.143   0.574   0.186
 6250SOL    HW219650   6.287   0.550   0.260
 6251SOL     OW19651   2.484   0.042   3.701
 6251SOL    HW119652   2.455   0.129   3.741
 6251SOL    HW219653   2.583   0.037   3.699
 6252SOL     OW19654   3.169   5.550   6.734
 6252SOL    HW119655   3.181   5.649   6.740
 6252SOL    HW219656   3.111   5.519   6.809
 6253SOL     OW19657   3.495   5.317   4.891
 6253SOL    HW119658   3.578   5.326   4.836
 6253SOL    HW219659   3.519   5.275   4.979
 6254SOL     OW19660   0.510   0.149   1.443
 6254SOL    HW119661   0.587   0.163   1.380
 6254SOL    HW219662   0.540   0.090   1.519
 6255SOL     OW19663   0.661   1.628   2.054
 6255SOL    HW119664   0.621   1.537   2.064
 6255SOL    HW219665   0.642   1.662   1.962
 6256SOL     OW19666   5.150   6.050   2.529
 6256SOL    HW119667   5.231   6.093   2.568
 6256SOL    HW219668   5.099   6.002   2.601
 6257SOL     OW19669   3.166   4.084   1.287
 6257SOL    HW119670   3.105   4.156   1.319
 6257SOL    HW219671   3.233   4.123   1.224
 6258SOL     OW19672   3.828   5.193   4.927
 6258SOL    HW119673   3.916   5.234   4.951
 6258SOL    HW219674   3.806   5.215   4.832
 6259SOL     OW19675   3.278   0.393   4.391
 6259SOL    HW119676   3.309   0.322   4.327
 6259SOL    HW219677   3.249   0.474   4.339
 6260SOL     OW19678   1.364   1.340   6.879
 6260SOL    HW119679   1.296   1.376   6.943
 6260SOL    HW219680   1.358   1.392   6.793
 6261SOL     OW19681   3.703   0.144   0.894
 6261SOL    HW119682   3.633   0.212   0.874
 6261SOL    HW219683   3.773   0.184   0.952
 6262SOL     OW19684   5.567   0.120   2.242
 6262SOL    HW119685   5.544   0.058   2.167
 6262SOL    HW219686   5.530   0.211   2.221
 6263SOL     OW19687   6.087   6.017   5.895
 6263SOL    HW119688   6.052   5.946   5.834
 6263SOL    HW219689   6.042   6.010   5.984
 6264SOL     OW19690   2.634   6.805   0.230
 6264SOL    HW119691   2.568   6.753   0.283
 6264SOL    HW219692   2.668   6.749   0.155
 6265SOL     OW19693   4.922   0.492   6.391
 6265SOL    HW119694   4.981   0.526   6.317
 6265SOL    HW219695   4.974   0.490   6.476
 6266SOL     OW19696   2.507   5.000   3.234
 6266SOL    HW119697   2.600   4.992   3.269
 6266SOL    HW219698   2.498   4.949   3.148
 6267SOL     OW19699   2.647   6.230   5.066
 6267SOL    HW119700   2.575   6.172   5.103
 6267SOL    HW219701   2.720   6.241   5.134
 6268SOL     OW19702   3.448   1.479   1.142
 6268SOL    HW119703   3.522   1.456   1.205
 6268SOL    HW219704   3.435   1.405   1.077
 6269SOL     OW19705   6.257   4.926   0.319
 6269SOL    HW119706   6.345   4.958   0.353
 6269SOL    HW219707   6.258   4.925   0.219
 6270SOL     OW19708   1.884   5.203   0.632
 6270SOL    HW119709   1.964   5.263   0.638
 6270SOL    HW219710   1.849   5.185   0.724
 6271SOL     OW19711   6.199   3.289   5.589
 6271SOL    HW119712   6.145   3.231   5.527
 6271SOL    HW219713   6.141   3.362   5.624
 6272SOL     OW19714   6.978   0.092   0.226
 6272SOL    HW119715   6.987   0.175   0.280
 6272SOL    HW219716   6.891   0.047   0.246
 6273SOL     OW19717   0.522   6.719   1.269
 6273SOL    HW119718   0.513   6.655   1.345
 6273SOL    HW219719   0.597   6.782   1.286
 6274SOL     OW19720   3.177   5.213   3.529
 6274SOL    HW119721   3.129   5.178   3.609
 6274SOL    HW219722   3.267   5.168   3.522
 6275SOL     OW19723   2.247   5.473   6.835
 6275SOL    HW119724   2.259   5.406   6.909
 6275SOL    HW219725   2.276   5.433   6.749
 6276SOL     OW19726   1.781   5.136   2.990
 6276SOL    HW119727   1.764   5.063   2.924
 6276SOL    HW219728   1.855   5.109   3.051
 6277SOL     OW19729   5.043   3.130   1.045
 6277SOL    HW119730   5.124   3.188   1.044
 6277SOL    HW219731   4.988   3.149   1.126
 6278SOL     OW19732   2.576   1.475   6.859
 6278SOL    HW119733   2.529   1.410   6.919
 6278SOL    HW219734   2.621   1.545   6.914
 6279SOL     OW19735   2.975   6.681   2.206
 6279SOL    HW119736   3.000   6.731   2.123
 6279SOL    HW219737   3.056   6.638   2.245
 6280SOL     OW19738   6.145   2.558   6.707
 6280SOL    HW119739   6.070   2.526   6.764
 6280SOL    HW219740   6.222   2.494   6.714
 6281SOL     OW19741   5.379   3.690   5.915
 6281SOL    HW119742   5.415   3.606   5.875
 6281SOL    HW219743   5.383   3.683   6.015
 6282SOL     OW19744   0.345   3.339   6.332
 6282SOL    HW119745   0.245   3.344   6.323
 6282SOL    HW219746   0.378   3.421   6.379
 6283SOL     OW19747   1.555   6.321   5.015
 6283SOL    HW119748   1.552   6.400   4.954
 6283SOL    HW219749   1.547   6.237   4.962
 6284SOL     OW19750   1.807   4.448   5.280
 6284SOL    HW119751   1.818   4.542   5.312
 6284SOL    HW219752   1.865   4.433   5.200
 6285SOL     OW19753   1.041   3.890   3.143
 6285SOL    HW119754   1.025   3.850   3.052
 6285SOL    HW219755   0.983   3.971   3.154
 6286SOL     OW19756   0.667   2.329   0.409
 6286SOL    HW119757   0.631   2.237   0.394
 6286SOL    HW219758   0.646   2.359   0.502
 6287SOL     OW19759   4.833   4.965   4.720
 6287SOL    HW119760   4.862   4.876   4.685
 6287SOL    HW219761   4.914   5.023   4.735
 6288SOL     OW19762   3.396   3.643   6.426
 6288SOL    HW119763   3.412   3.702   6.506
 6288SOL    HW219764   3.460   3.669   6.353
 6289SOL     OW19765   2.819   4.640   5.883
 6289SOL    HW119766   2.883   4.690   5.941
 6289SOL    HW219767   2.866   4.604   5.803
 6290SOL     OW19768   5.749   5.957   4.337
 6290SOL    HW119769   5.733   5.908   4.251
 6290SOL    HW219770   5.845   5.945   4.364
 6291SOL     OW19771   3.961   3.098   3.048
 6291SOL    HW119772   4.002   3.174   3.098
 6291SOL    HW219773   3.997   3.096   2.955
 6292SOL     OW19774   1.837   3.706   4.697
 6292SOL    HW119775   1.910   3.774   4.691
 6292SOL    HW219776   1.819   3.668   4.607
 6293SOL     OW19777   3.173   1.050   6.754
 6293SOL    HW119778   3.197   1.011   6.665
 6293SOL    HW219779   3.231   1.130   6.772
 6294SOL     OW19780   1.506   1.573   3.090
 6294SOL    HW119781   1.581   1.526   3.043
 6294SOL    HW219782   1.466   1.641   3.029
 6295SOL     OW19783   5.198   3.578   6.317
 6295SOL    HW119784   5.276   3.618   6.270
 6295SOL    HW219785   5.153   3.512   6.258
 6296SOL     OW19786   0.971   3.263   0.473
 6296SOL    HW119787   0.920   3.180   0.450
 6296SOL    HW219788   1.052   3.270   0.414
 6297SOL     OW19789   5.928   1.557   4.524
 6297SOL    HW119790   5.974   1.515   4.601
 6297SOL    HW219791   5.892   1.646   4.550
 6298SOL     OW19792   6.762   6.330   1.060
 6298SOL    HW119793   6.695   6.332   0.986
 6298SOL    HW219794   6.714   6.328   1.148
 6299SOL     OW19795   4.189   0.901   3.217
 6299SOL    HW119796   4.148   0.991   3.201
 6299SOL    HW219797   4.198   0.852   3.130
 6300SOL     OW19798   2.546   1.151   6.675
 6300SOL    HW119799   2.613   1.221   6.697
 6300SOL    HW219800   2.492   1.180   6.595
 6301SOL     OW19801   3.965   6.369   0.096
 6301SOL    HW119802   3.957   6.447   0.034
 6301SOL    HW219803   4.051   6.321   0.079
 6302SOL     OW19804   3.227   2.725   6.422
 6302SOL    HW119805   3.244   2.673   6.338
 6302SOL    HW219806   3.274   2.681   6.499
 6303SOL     OW19807   0.543   6.019   5.059
 6303SOL    HW119808   0.455   5.987   5.024
 6303SOL    HW219809   0.615   5.954   5.033
 6304SOL     OW19810   3.712   0.638   4.421
 6304SOL    HW119811   3.620   0.671   4.441
 6304SOL    HW219812   3.742   0.676   4.333
 6305SOL     OW19813   0.525   5.800   6.327
 6305SOL    HW119814   0.494   5.731   6.262
 6305SOL    HW219815   0.554   5.882   6.278
 6306SOL     OW19816   0.333   5.302   4.310
 6306SOL    HW119817   0.357   5.352   4.394
 6306SOL    HW219818   0.289   5.216   4.334
 6307SOL     OW19819   3.928   2.962   1.986
 6307SOL    HW119820   3.973   2.887   2.034
 6307SOL    HW219821   3.935   3.046   2.040
 6308SOL     OW19822   0.212   2.188   0.622
 6308SOL    HW119823   0.241   2.230   0.536
 6308SOL    HW219824   0.232   2.252   0.697
 6309SOL     OW19825   2.391   6.297   4.616
 6309SOL    HW119826   2.324   6.353   4.568
 6309SOL    HW219827   2.349   6.211   4.643
 6310SOL     OW19828   1.614   0.167   3.315
 6310SOL    HW119829   1.555   0.206   3.244
 6310SOL    HW219830   1.655   0.082   3.283
 6311SOL     OW19831   5.747   0.764   6.346
 6311SOL    HW119832   5.739   0.700   6.423
 6311SOL    HW219833   5.833   0.747   6.297
 6312SOL     OW19834   3.641   6.063   6.696
 6312SOL    HW119835   3.632   6.085   6.793
 6312SOL    HW219836   3.729   6.020   6.679
 6313SOL     OW19837   5.575   5.021   5.017
 6313SOL    HW119838   5.661   5.065   4.993
 6313SOL    HW219839   5.508   5.035   4.944
 6314SOL     OW19840   1.916   6.767   2.455
 6314SOL    HW119841   1.851   6.758   2.530
 6314SOL    HW219842   1.879   6.830   2.386
 6315SOL     OW19843   2.329   2.405   3.988
 6315SOL    HW119844   2.229   2.411   3.989
 6315SOL    HW219845   2.365   2.417   4.080
 6316SOL     OW19846   4.772   0.914   4.635
 6316SOL    HW119847   4.774   0.922   4.535
 6316SOL    HW219848   4.818   0.830   4.662
 6317SOL     OW19849   5.499   4.912   1.990
 6317SOL    HW119850   5.404   4.933   2.014
 6317SOL    HW219851   5.552   4.897   2.074
 6318SOL     OW19852   6.307   6.786   0.236
 6318SOL    HW119853   6.278   6.693   0.214
 6318SOL    HW219854   6.315   6.839   0.151
 6319SOL     OW19855   5.261   1.528   4.143
 6319SOL    HW119856   5.193   1.493   4.078
 6319SOL    HW219857   5.308   1.451   4.187
 6320SOL     OW19858   6.339   1.348   5.614
 6320SOL    HW119859   6.437   1.370   5.616
 6320SOL    HW219860   6.309   1.321   5.705
 6321SOL     OW19861   6.559   2.659   6.580
 6321SOL    HW119862   6.541   2.719   6.503
 6321SOL    HW219863   6.620   2.585   6.552
 6322SOL     OW19864   1.111   1.124   2.118
 6322SOL    HW119865   1.053   1.089   2.191
 6322SOL    HW219866   1.072   1.099   2.029
 6323SOL     OW19867   2.193   4.899   1.660
 6323SOL    HW119868   2.201   4.940   1.751
 6323SOL    HW219869   2.252   4.819   1.655
 6324SOL     OW19870   4.451   2.428   1.058
 6324SOL    HW119871   4.394   2.364   1.007
 6324SOL    HW219872   4.397   2.509   1.082
 6325SOL     OW19873   1.679   2.986   4.133
 6325SOL    HW119874   1.693   2.945   4.043
 6325SOL    HW219875   1.762   3.034   4.161
 6326SOL     OW19876   5.457   5.200   5.850
 6326SOL    HW119877   5.550   5.228   5.872
 6326SOL    HW219878   5.393   5.270   5.883
 6327SOL     OW19879   0.172   0.733   3.688
 6327SOL    HW119880   0.091   0.692   3.644
 6327SOL    HW219881   0.254   0.687   3.654
 6328SOL     OW19882   4.458   3.568   5.310
 6328SOL    HW119883   4.547   3.574   5.265
 6328SOL    HW219884   4.386   3.594   5.245
 6329SOL     OW19885   0.754   2.305   5.692
 6329SOL    HW119886   0.686   2.300   5.618
 6329SOL    HW219887   0.843   2.326   5.654
 6330SOL     OW19888   5.434   1.233   3.582
 6330SOL    HW119889   5.435   1.321   3.629
 6330SOL    HW219890   5.438   1.248   3.483
 6331SOL     OW19891   0.685   2.771   3.610
 6331SOL    HW119892   0.721   2.748   3.701
 6331SOL    HW219893   0.752   2.825   3.560
 6332SOL     OW19894   2.943   1.479   6.385
 6332SOL    HW119895   3.014   1.549   6.373
 6332SOL    HW219896   2.860   1.521   6.420
 6333SOL     OW19897   5.485   1.637   0.861
 6333SOL    HW119898   5.459   1.703   0.791
 6333SOL    HW219899   5.580   1.609   0.847
 6334SOL     OW19900   1.306   1.550   1.879
 6334SOL    HW119901   1.326   1.472   1.938
 6334SOL    HW219902   1.324   1.635   1.929
 6335SOL     OW19903   6.461   2.529   0.005
 6335SOL    HW119904   6.439   2.439   0.043
 6335SOL    HW219905   6.528   2.574   0.064
 6336SOL     OW19906   1.233   3.932   5.228
 6336SOL    HW119907   1.260   3.955   5.321
 6336SOL    HW219908   1.139   3.962   5.211
 6337SOL     OW19909   5.408   6.320   5.065
 6337SOL    HW119910   5.435   6.410   5.100
 6337SOL    HW219911   5.312   6.322   5.039
 6338SOL     OW19912   1.569   1.030   3.371
 6338SOL    HW119913   1.522   0.945   3.396
 6338SOL    HW219914   1.655   1.007   3.324
 6339SOL     OW19915   0.217   4.620   3.696
 6339SOL    HW119916   0.227   4.689   3.624
 6339SOL    HW219917   0.252   4.532   3.664
 6340SOL     OW19918   2.833   3.971   0.708
 6340SOL    HW119919   2.787   4.056   0.681
 6340SOL    HW219920   2.916   3.960   0.653
 6341SOL     OW19921   0.403   5.510   2.610
 6341SOL    HW119922   0.408   5.423   2.560
 6341SOL    HW219923   0.390   5.491   2.708
 6342SOL     OW19924   2.185   1.039   1.312
 6342SOL    HW119925   2.221   1.066   1.222
 6342SOL    HW219926   2.162   0.942   1.309
 6343SOL     OW19927   0.957   5.226   1.037
 6343SOL    HW119928   0.861   5.243   1.058
 6343SOL    HW219929   0.972   5.233   0.939
 6344SOL     OW19930   0.192   1.186   3.733
 6344SOL    HW119931   0.159   1.106   3.683
 6344SOL    HW219932   0.118   1.222   3.790
 6345SOL     OW19933   6.235   3.068   1.616
 6345SOL    HW119934   6.248   3.062   1.517
 6345SOL    HW219935   6.248   2.978   1.657
 6346SOL     OW19936   0.078   4.600   5.691
 6346SOL    HW119937   0.010   4.534   5.659
 6346SOL    HW219938   0.150   4.552   5.741
 6347SOL     OW19939   2.251   2.003   2.769
 6347SOL    HW119940   2.254   2.054   2.855
 6347SOL    HW219941   2.234   1.906   2.788
 6348SOL     OW19942   0.419   2.105   6.255
 6348SOL    HW119943   0.470   2.165   6.193
 6348SOL    HW219944   0.326   2.092   6.220
 6349SOL     OW19945   6.664   1.109   0.087
 6349SOL    HW119946   6.663   1.055   0.171
 6349SOL    HW219947   6.572   1.141   0.067
 6350SOL     OW19948   1.089   5.885   1.974
 6350SOL    HW119949   1.120   5.937   1.894
 6350SOL    HW219950   1.095   5.943   2.055
 6351SOL     OW19951   5.296   3.368   1.564
 6351SOL    HW119952   5.218   3.410   1.611
 6351SOL    HW219953   5.354   3.321   1.631
 6352SOL     OW19954   3.197   0.601   4.219
 6352SOL    HW119955   3.192   0.625   4.122
 6352SOL    HW219956   3.178   0.682   4.275
 6353SOL     OW19957   3.664   6.780   5.470
 6353SOL    HW119958   3.644   6.682   5.469
 6353SOL    HW219959   3.744   6.797   5.528
 6354SOL     OW19960   4.496   5.509   1.289
 6354SOL    HW119961   4.480   5.592   1.343
 6354SOL    HW219962   4.430   5.504   1.215
 6355SOL     OW19963   2.766   4.838   0.510
 6355SOL    HW119964   2.677   4.791   0.510
 6355SOL    HW219965   2.833   4.782   0.460
 6356SOL     OW19966   6.599   5.247   6.299
 6356SOL    HW119967   6.503   5.269   6.286
 6356SOL    HW219968   6.638   5.215   6.213
 6357SOL     OW19969   5.338   1.605   1.795
 6357SOL    HW119970   5.362   1.614   1.892
 6357SOL    HW219971   5.342   1.694   1.751
 6358SOL     OW19972   1.130   1.954   5.451
 6358SOL    HW119973   1.194   1.902   5.508
 6358SOL    HW219974   1.167   2.046   5.434
 6359SOL     OW19975   5.378   6.732   0.617
 6359SOL    HW119976   5.451   6.778   0.668
 6359SOL    HW219977   5.361   6.780   0.531
 6360SOL     OW19978   0.515   2.001   2.128
 6360SOL    HW119979   0.614   1.999   2.117
 6360SOL    HW219980   0.489   2.083   2.180
 6361SOL     OW19981   0.068   1.011   6.737
 6361SOL    HW119982   0.153   0.964   6.710
 6361SOL    HW219983   0.020   0.954   6.804
 6362SOL     OW19984   0.732   5.427   0.553
 6362SOL    HW119985   0.668   5.408   0.627
 6362SOL    HW219986   0.803   5.489   0.584
 6363SOL     OW19987   2.351   4.261   2.784
 6363SOL    HW119988   2.350   4.169   2.825
 6363SOL    HW219989   2.438   4.275   2.737
 6364SOL     OW19990   2.494   2.534   4.214
 6364SOL    HW119991   2.574   2.479   4.240
 6364SOL    HW219992   2.455   2.576   4.296
 6365SOL     OW19993   5.287   6.724   2.992
 6365SOL    HW119994   5.341   6.697   3.071
 6365SOL    HW219995   5.192   6.741   3.020
 6366SOL     OW19996   5.811   0.292   5.113
 6366SOL    HW119997   5.747   0.310   5.188
 6366SOL    HW219998   5.779   0.213   5.060
 6367SOL     OW19999   1.439   2.355   2.268
 6367SOL    HW120000   1.409   2.436   2.218
 6367SOL    HW220001   1.372   2.334   2.340
 6368SOL     OW20002   5.159   3.172   5.188
 6368SOL    HW120003   5.173   3.134   5.280
 6368SOL    HW220004   5.067   3.212   5.182
 6369SOL     OW20005   4.389   5.407   0.004
 6369SOL    HW120006   4.351   5.433   6.936
 6369SOL    HW220007   4.346   5.462   0.076
 6370SOL     OW20008   5.207   4.010   4.358
 6370SOL    HW120009   5.112   4.039   4.366
 6370SOL    HW220010   5.213   3.911   4.372
 6371SOL     OW20011   5.217   4.548   1.532
 6371SOL    HW120012   5.264   4.468   1.569
 6371SOL    HW220013   5.278   4.627   1.535
 6372SOL     OW20014   6.272   1.881   2.320
 6372SOL    HW120015   6.326   1.870   2.403
 6372SOL    HW220016   6.267   1.794   2.271
 6373SOL     OW20017   4.943   4.198   1.675
 6373SOL    HW120018   4.931   4.257   1.594
 6373SOL    HW220019   4.963   4.255   1.755
 6374SOL     OW20020   4.233   3.956   6.790
 6374SOL    HW120021   4.232   3.975   6.692
 6374SOL    HW220022   4.288   4.026   6.837
 6375SOL     OW20023   5.160   1.920   2.152
 6375SOL    HW120024   5.213   1.987   2.099
 6375SOL    HW220025   5.062   1.937   2.138
 6376SOL     OW20026   3.268   0.711   6.826
 6376SOL    HW120027   3.277   0.690   6.729
 6376SOL    HW220028   3.224   0.635   6.873
 6377SOL     OW20029   0.296   0.596   0.909
 6377SOL    HW120030   0.284   0.497   0.912
 6377SOL    HW220031   0.213   0.639   0.872
 6378SOL     OW20032   5.085   4.519   1.849
 6378SOL    HW120033   5.003   4.462   1.853
 6378SOL    HW220034   5.157   4.471   1.799
 6379SOL     OW20035   1.965   5.261   6.606
 6379SOL    HW120036   1.958   5.235   6.510
 6379SOL    HW220037   2.047   5.221   6.646
 6380SOL     OW20038   1.593   3.918   4.459
 6380SOL    HW120039   1.634   3.974   4.530
 6380SOL    HW220040   1.588   3.970   4.374
 6381SOL     OW20041   4.182   2.586   0.546
 6381SOL    HW120042   4.149   2.598   0.640
 6381SOL    HW220043   4.260   2.647   0.531
 6382SOL     OW20044   1.177   1.381   0.793
 6382SOL    HW120045   1.248   1.451   0.794
 6382SOL    HW220046   1.110   1.402   0.722
 6383SOL     OW20047   2.545   1.976   1.818
 6383SOL    HW120048   2.540   2.037   1.739
 6383SOL    HW220049   2.609   2.013   1.884
 6384SOL     OW20050   6.801   2.946   2.333
 6384SOL    HW120051   6.808   2.862   2.279
 6384SOL    HW220052   6.873   3.009   2.306
 6385SOL     OW20053   0.469   3.222   0.591
 6385SOL    HW120054   0.562   3.254   0.574
 6385SOL    HW220055   0.409   3.250   0.517
 6386SOL     OW20056   2.466   3.338   0.346
 6386SOL    HW120057   2.511   3.343   0.435
 6386SOL    HW220058   2.375   3.298   0.357
 6387SOL     OW20059   6.992   6.958   0.007
 6387SOL    HW120060   6.939   7.002   0.079
 6387SOL    HW220061   0.068   6.984   0.017
 6388SOL     OW20062   6.378   5.596   2.508
 6388SOL    HW120063   6.380   5.558   2.415
 6388SOL    HW220064   6.356   5.524   2.573
 6389SOL     OW20065   0.425   0.403   0.609
 6389SOL    HW120066   0.467   0.374   0.523
 6389SOL    HW220067   0.442   0.335   0.680
 6390SOL     OW20068   5.067   0.515   6.648
 6390SOL    HW120069   5.163   0.497   6.672
 6390SOL    HW220070   5.012   0.520   6.732
 6391SOL     OW20071   1.452   1.722   4.833
 6391SOL    HW120072   1.383   1.752   4.767
 6391SOL    HW220073   1.409   1.660   4.899
 6392SOL     OW20074   3.614   6.722   3.963
 6392SOL    HW120075   3.590   6.818   3.948
 6392SOL    HW220076   3.705   6.704   3.925
 6393SOL     OW20077   0.573   5.194   7.011
 6393SOL    HW120078   0.539   5.101   6.995
 6393SOL    HW220079   0.657   5.190   0.044
 6394SOL     OW20080   1.618   5.547   1.857
 6394SOL    HW120081   1.605   5.602   1.774
 6394SOL    HW220082   1.614   5.450   1.834
 6395SOL     OW20083   2.161   3.850   2.958
 6395SOL    HW120084   2.109   3.799   2.889
 6395SOL    HW220085   2.184   3.790   3.034
 6396SOL     OW20086   1.156   3.309   5.967
 6396SOL    HW120087   1.117   3.219   5.985
 6396SOL    HW220088   1.115   3.376   6.029
 6397SOL     OW20089   5.577   3.861   4.435
 6397SOL    HW120090   5.557   3.776   4.483
 6397SOL    HW220091   5.527   3.936   4.478
 6398SOL     OW20092   2.095   0.070   1.449
 6398SOL    HW120093   2.164   0.052   1.379
 6398SOL    HW220094   2.100   0.001   1.520
 6399SOL     OW20095   3.429   1.080   6.286
 6399SOL    HW120096   3.399   1.141   6.213
 6399SOL    HW220097   3.517   1.110   6.321
 6400SOL     OW20098   1.077   6.299   3.003
 6400SOL    HW120099   1.034   6.332   2.919
 6400SOL    HW220100   1.175   6.323   3.002
 6401SOL     OW20101   3.792   5.227   3.475
 6401SOL    HW120102   3.823   5.228   3.570
 6401SOL    HW220103   3.871   5.226   3.414
 6402SOL     OW20104   2.289   4.640   5.145
 6402SOL    HW120105   2.239   4.698   5.081
 6402SOL    HW220106   2.362   4.593   5.097
 6403SOL     OW20107   4.864   5.032   5.108
 6403SOL    HW120108   4.828   4.955   5.055
 6403SOL    HW220109   4.838   5.118   5.064
 6404SOL     OW20110   4.373   6.613   1.753
 6404SOL    HW120111   4.443   6.593   1.821
 6404SOL    HW220112   4.381   6.709   1.725
 6405SOL     OW20113   5.612   1.822   3.109
 6405SOL    HW120114   5.574   1.839   3.018
 6405SOL    HW220115   5.626   1.723   3.121
 6406SOL     OW20116   6.859   3.590   3.516
 6406SOL    HW120117   6.874   3.492   3.525
 6406SOL    HW220118   6.901   3.638   3.593
 6407SOL     OW20119   0.730   6.069   2.403
 6407SOL    HW120120   0.794   6.143   2.424
 6407SOL    HW220121   0.740   6.042   2.307
 6408SOL     OW20122   6.576   0.384   2.253
 6408SOL    HW120123   6.510   0.367   2.179
 6408SOL    HW220124   6.530   0.374   2.341
 6409SOL     OW20125   4.918   5.233   3.459
 6409SOL    HW120126   4.826   5.201   3.439
 6409SOL    HW220127   4.957   5.277   3.378
 6410SOL     OW20128   1.467   1.460   6.466
 6410SOL    HW120129   1.402   1.519   6.418
 6410SOL    HW220130   1.542   1.516   6.503
 6411SOL     OW20131   0.524   2.753   1.919
 6411SOL    HW120132   0.598   2.810   1.956
 6411SOL    HW220133   0.546   2.657   1.933
 6412SOL     OW20134   3.415   0.841   0.060
 6412SOL    HW120135   3.440   0.747   0.083
 6412SOL    HW220136   3.451   0.903   0.130
 6413SOL     OW20137   4.812   6.344   2.886
 6413SOL    HW120138   4.870   6.284   2.831
 6413SOL    HW220139   4.857   6.364   2.973
 6414SOL     OW20140   1.599   0.316   0.461
 6414SOL    HW120141   1.692   0.279   0.462
 6414SOL    HW220142   1.602   0.415   0.473
 6415SOL     OW20143   0.249   2.550   3.713
 6415SOL    HW120144   0.263   2.615   3.638
 6415SOL    HW220145   0.289   2.462   3.689
 6416SOL     OW20146   2.201   6.049   0.091
 6416SOL    HW120147   2.239   6.068   0.182
 6416SOL    HW220148   2.103   6.029   0.100
 6417SOL     OW20149   4.255   2.356   6.679
 6417SOL    HW120150   4.168   2.403   6.697
 6417SOL    HW220151   4.313   2.413   6.622
 6418SOL     OW20152   5.156   4.575   0.028
 6418SOL    HW120153   5.205   4.523   6.978
 6418SOL    HW220154   5.094   4.640   7.004
 6419SOL     OW20155   0.755   6.353   5.834
 6419SOL    HW120156   0.826   6.422   5.851
 6419SOL    HW220157   0.745   6.340   5.736
 6420SOL     OW20158   2.027   4.186   4.528
 6420SOL    HW120159   1.990   4.209   4.438
 6420SOL    HW220160   2.041   4.087   4.534
 6421SOL     OW20161   4.101   0.633   1.955
 6421SOL    HW120162   4.072   0.632   2.051
 6421SOL    HW220163   4.188   0.681   1.947
 6422SOL     OW20164   5.803   1.766   4.633
 6422SOL    HW120165   5.883   1.821   4.654
 6422SOL    HW220166   5.735   1.822   4.586
 6423SOL     OW20167   1.699   4.513   4.359
 6423SOL    HW120168   1.661   4.506   4.451
 6423SOL    HW220169   1.798   4.527   4.364
 6424SOL     OW20170   6.656   4.720   5.337
 6424SOL    HW120171   6.589   4.732   5.264
 6424SOL    HW220172   6.702   4.632   5.326
 6425SOL     OW20173   6.761   5.357   4.207
 6425SOL    HW120174   6.826   5.297   4.160
 6425SOL    HW220175   6.710   5.304   4.274
 6426SOL     OW20176   4.732   4.220   4.906
 6426SOL    HW120177   4.816   4.165   4.902
 6426SOL    HW220178   4.682   4.198   4.989
 6427SOL     OW20179   3.927   3.214   2.722
 6427SOL    HW120180   3.831   3.232   2.743
 6427SOL    HW220181   3.936   3.127   2.675
 6428SOL     OW20182   5.616   2.817   0.388
 6428SOL    HW120183   5.645   2.867   0.469
 6428SOL    HW220184   5.516   2.811   0.385
 6429SOL     OW20185   2.208   1.262   5.496
 6429SOL    HW120186   2.183   1.204   5.419
 6429SOL    HW220187   2.209   1.207   5.580
 6430SOL     OW20188   6.564   0.472   5.660
 6430SOL    HW120189   6.561   0.411   5.739
 6430SOL    HW220190   6.603   0.424   5.582
 6431SOL     OW20191   3.657   4.895   1.711
 6431SOL    HW120192   3.603   4.826   1.760
 6431SOL    HW220193   3.600   4.976   1.695
 6432SOL     OW20194   5.175   4.419   6.136
 6432SOL    HW120195   5.138   4.482   6.205
 6432SOL    HW220196   5.205   4.472   6.056
 6433SOL     OW20197   3.062   4.348   6.221
 6433SOL    HW120198   2.983   4.388   6.174
 6433SOL    HW220199   3.085   4.403   6.301
 6434SOL     OW20200   4.791   5.526   6.454
 6434SOL    HW120201   4.717   5.563   6.397
 6434SOL    HW220202   4.857   5.599   6.473
 6435SOL     OW20203   4.903   2.196   1.601
 6435SOL    HW120204   4.933   2.254   1.677
 6435SOL    HW220205   4.948   2.226   1.517
 6436SOL     OW20206   6.580   3.583   3.821
 6436SOL    HW120207   6.668   3.563   3.864
 6436SOL    HW220208   6.540   3.665   3.862
 6437SOL     OW20209   1.254   2.276   5.521
 6437SOL    HW120210   1.255   2.292   5.422
 6437SOL    HW220211   1.162   2.291   5.556
 6438SOL     OW20212   0.848   4.618   0.071
 6438SOL    HW120213   0.791   4.620   7.009
 6438SOL    HW220214   0.807   4.558   0.139
 6439SOL     OW20215   4.831   6.954   3.314
 6439SOL    HW120216   4.915   6.953   3.259
 6439SOL    HW220217   4.853   6.936   3.409
 6440SOL     OW20218   2.770   1.917   6.465
 6440SOL    HW120219   2.770   2.017   6.467
 6440SOL    HW220220   2.754   1.886   6.372
 6441SOL     OW20221   0.132   1.850   2.271
 6441SOL    HW120222   0.098   1.876   2.181
 6441SOL    HW220223   0.056   1.851   2.337
 6442SOL     OW20224   2.847   2.297   4.660
 6442SOL    HW120225   2.876   2.203   4.675
 6442SOL    HW220226   2.761   2.314   4.710
 6443SOL     OW20227   4.579   3.214   6.945
 6443SOL    HW120228   4.506   3.230   6.879
 6443SOL    HW220229   4.538   3.188   0.012
 6444SOL     OW20230   6.504   3.605   4.873
 6444SOL    HW120231   6.427   3.620   4.811
 6444SOL    HW220232   6.476   3.624   4.967
 6445SOL     OW20233   3.163   3.079   3.604
 6445SOL    HW120234   3.181   3.121   3.694
 6445SOL    HW220235   3.213   2.993   3.596
 6446SOL     OW20236   1.422   1.180   6.445
 6446SOL    HW120237   1.368   1.169   6.529
 6446SOL    HW220238   1.433   1.277   6.425
 6447SOL     OW20239   5.959   3.557   1.783
 6447SOL    HW120240   5.999   3.501   1.710
 6447SOL    HW220241   6.027   3.572   1.855
 6448SOL     OW20242   3.148   5.038   1.516
 6448SOL    HW120243   3.150   5.133   1.549
 6448SOL    HW220244   3.220   5.025   1.449
 6449SOL     OW20245   2.593   5.270   1.018
 6449SOL    HW120246   2.688   5.241   1.006
 6449SOL    HW220247   2.546   5.205   1.078
 6450SOL     OW20248   0.392   4.595   0.305
 6450SOL    HW120249   0.363   4.689   0.321
 6450SOL    HW220250   0.346   4.534   0.369
 6451SOL     OW20251   4.812   2.611   1.293
 6451SOL    HW120252   4.745   2.539   1.273
 6451SOL    HW220253   4.819   2.624   1.392
 6452SOL     OW20254   4.622   1.656   3.942
 6452SOL    HW120255   4.552   1.721   3.912
 6452SOL    HW220256   4.655   1.682   4.033
 6453SOL     OW20257   2.226   0.613   2.269
 6453SOL    HW120258   2.169   0.612   2.352
 6453SOL    HW220259   2.287   0.692   2.271
 6454SOL     OW20260   5.103   2.211   3.340
 6454SOL    HW120261   5.051   2.125   3.342
 6454SOL    HW220262   5.053   2.280   3.289
 6455SOL     OW20263   6.331   3.225   3.610
 6455SOL    HW120264   6.391   3.149   3.585
 6455SOL    HW220265   6.301   3.214   3.704
 6456SOL     OW20266   6.136   0.941   2.631
 6456SOL    HW120267   6.163   0.897   2.716
 6456SOL    HW220268   6.185   1.028   2.620
 6457SOL     OW20269   3.573   6.897   2.156
 6457SOL    HW120270   3.584   6.980   2.210
 6457SOL    HW220271   3.476   6.884   2.134
 6458SOL     OW20272   6.971   5.213   4.073
 6458SOL    HW120273   6.963   5.237   3.976
 6458SOL    HW220274   0.046   5.211   4.100
 6459SOL     OW20275   0.178   2.854   3.139
 6459SOL    HW120276   0.209   2.936   3.090
 6459SOL    HW220277   0.078   2.850   3.138
 6460SOL     OW20278   0.253   5.571   6.634
 6460SOL    HW120279   0.278   5.477   6.613
 6460SOL    HW220280   0.322   5.612   6.693
 6461SOL     OW20281   1.323   5.768   1.160
 6461SOL    HW120282   1.307   5.867   1.167
 6461SOL    HW220283   1.418   5.751   1.134
 6462SOL     OW20284   1.910   4.419   5.042
 6462SOL    HW120285   1.994   4.418   4.988
 6462SOL    HW220286   1.847   4.486   5.003
 6463SOL     OW20287   4.807   2.126   0.928
 6463SOL    HW120288   4.889   2.070   0.920
 6463SOL    HW220289   4.780   2.134   1.024
 6464SOL     OW20290   1.195   4.186   3.339
 6464SOL    HW120291   1.122   4.157   3.278
 6464SOL    HW220292   1.186   4.139   3.427
 6465SOL     OW20293   3.662   1.431   3.455
 6465SOL    HW120294   3.635   1.438   3.359
 6465SOL    HW220295   3.618   1.352   3.497
 6466SOL     OW20296   6.455   3.806   7.019
 6466SOL    HW120297   6.383   3.860   0.042
 6466SOL    HW220298   6.466   3.720   0.047
 6467SOL     OW20299   2.544   2.763   0.456
 6467SOL    HW120300   2.470   2.830   0.460
 6467SOL    HW220301   2.505   2.671   0.450
 6468SOL     OW20302   2.616   1.102   0.907
 6468SOL    HW120303   2.552   1.114   0.832
 6468SOL    HW220304   2.601   1.174   0.976
 6469SOL     OW20305   2.944   1.456   2.392
 6469SOL    HW120306   2.974   1.397   2.317
 6469SOL    HW220307   3.023   1.503   2.431
 6470SOL     OW20308   0.256   1.511   6.845
 6470SOL    HW120309   0.221   1.453   6.772
 6470SOL    HW220310   0.316   1.457   6.905
 6471SOL     OW20311   0.868   6.610   5.464
 6471SOL    HW120312   0.778   6.654   5.469
 6471SOL    HW220313   0.939   6.679   5.452
 6472SOL     OW20314   6.711   6.400   3.069
 6472SOL    HW120315   6.700   6.453   2.985
 6472SOL    HW220316   6.808   6.389   3.090
 6473SOL     OW20317   2.675   1.393   3.396
 6473SOL    HW120318   2.657   1.468   3.459
 6473SOL    HW220319   2.675   1.428   3.302
 6474SOL     OW20320   4.012   5.372   4.715
 6474SOL    HW120321   4.053   5.371   4.805
 6474SOL    HW220322   3.949   5.449   4.707
 6475SOL     OW20323   5.886   5.758   2.295
 6475SOL    HW120324   5.915   5.827   2.228
 6475SOL    HW220325   5.896   5.667   2.255
 6476SOL     OW20326   3.822   2.314   6.558
 6476SOL    HW120327   3.797   2.301   6.654
 6476SOL    HW220328   3.840   2.224   6.516
 6477SOL     OW20329   6.401   5.895   1.382
 6477SOL    HW120330   6.462   5.957   1.431
 6477SOL    HW220331   6.410   5.910   1.283
 6478SOL     OW20332   2.950   5.732   0.929
 6478SOL    HW120333   2.877   5.674   0.893
 6478SOL    HW220334   3.039   5.689   0.909
 6479SOL     OW20335   3.571   6.352   3.344
 6479SOL    HW120336   3.642   6.409   3.385
 6479SOL    HW220337   3.483   6.372   3.388
 6480SOL     OW20338   3.973   1.906   6.868
 6480SOL    HW120339   3.973   1.974   6.794
 6480SOL    HW220340   4.040   1.932   6.937
 6481SOL     OW20341   3.709   2.808   1.441
 6481SOL    HW120342   3.714   2.746   1.519
 6481SOL    HW220343   3.762   2.891   1.460
 6482SOL     OW20344   5.834   3.664   5.754
 6482SOL    HW120345   5.758   3.650   5.817
 6482SOL    HW220346   5.822   3.751   5.706
 6483SOL     OW20347   1.654   6.688   4.993
 6483SOL    HW120348   1.573   6.736   5.026
 6483SOL    HW220349   1.627   6.618   4.927
 6484SOL     OW20350   2.673   1.020   3.626
 6484SOL    HW120351   2.652   0.925   3.606
 6484SOL    HW220352   2.599   1.059   3.681
 6485SOL     OW20353   2.493   6.102   5.431
 6485SOL    HW120354   2.514   6.200   5.432
 6485SOL    HW220355   2.413   6.085   5.488
 6486SOL     OW20356   1.075   4.967   2.842
 6486SOL    HW120357   1.019   4.906   2.898
 6486SOL    HW220358   1.072   4.936   2.747
 6487SOL     OW20359   5.492   4.482   4.360
 6487SOL    HW120360   5.483   4.561   4.300
 6487SOL    HW220361   5.543   4.508   4.443
 6488SOL     OW20362   3.944   5.230   4.486
 6488SOL    HW120363   3.896   5.145   4.506
 6488SOL    HW220364   3.930   5.295   4.560
 6489SOL     OW20365   4.820   2.500   5.248
 6489SOL    HW120366   4.753   2.524   5.178
 6489SOL    HW220367   4.773   2.482   5.334
 6490SOL     OW20368   2.437   2.531   6.959
 6490SOL    HW120369   2.507   2.565   0.002
 6490SOL    HW220370   2.393   2.609   6.915
 6491SOL     OW20371   2.549   6.780   1.628
 6491SOL    HW120372   2.594   6.815   1.546
 6491SOL    HW220373   2.617   6.741   1.689
 6492SOL     OW20374   4.019   3.355   5.130
 6492SOL    HW120375   3.942   3.411   5.158
 6492SOL    HW220376   4.054   3.387   5.042
 6493SOL     OW20377   0.861   4.624   4.650
 6493SOL    HW120378   0.953   4.627   4.611
 6493SOL    HW220379   0.859   4.673   4.737
 6494SOL     OW20380   6.148   0.317   1.172
 6494SOL    HW120381   6.109   0.228   1.195
 6494SOL    HW220382   6.247   0.315   1.188
 6495SOL     OW20383   6.493   0.831   3.151
 6495SOL    HW120384   6.575   0.775   3.166
 6495SOL    HW220385   6.492   0.906   3.217
 6496SOL     OW20386   3.287   1.724   1.746
 6496SOL    HW120387   3.316   1.792   1.679
 6496SOL    HW220388   3.199   1.751   1.784
 6497SOL     OW20389   0.370   1.317   0.644
 6497SOL    HW120390   0.354   1.258   0.565
 6497SOL    HW220391   0.373   1.412   0.615
 6498SOL     OW20392   0.930   4.477   3.863
 6498SOL    HW120393   1.020   4.464   3.822
 6498SOL    HW220394   0.894   4.567   3.838
 6499SOL     OW20395   4.900   2.898   3.447
 6499SOL    HW120396   4.868   2.971   3.506
 6499SOL    HW220397   4.832   2.878   3.377
 6500SOL     OW20398   1.305   4.344   2.881
 6500SOL    HW120399   1.382   4.357   2.818
 6500SOL    HW220400   1.284   4.247   2.890
 6501SOL     OW20401   5.847   1.735   2.230
 6501SOL    HW120402   5.856   1.647   2.182
 6501SOL    HW220403   5.893   1.806   2.177
 6502SOL     OW20404   6.902   3.416   2.246
 6502SOL    HW120405   6.871   3.476   2.320
 6502SOL    HW220406   6.823   3.368   2.208
 6503SOL     OW20407   6.768   3.700   5.665
 6503SOL    HW120408   6.816   3.765   5.723
 6503SOL    HW220409   6.788   3.607   5.696
 6504SOL     OW20410   4.411   6.088   6.363
 6504SOL    HW120411   4.499   6.132   6.380
 6504SOL    HW220412   4.421   6.022   6.288
 6505SOL     OW20413   0.419   5.759   0.666
 6505SOL    HW120414   0.393   5.669   0.701
 6505SOL    HW220415   0.513   5.755   0.631
 6506SOL     OW20416   0.219   3.679   2.037
 6506SOL    HW120417   0.307   3.692   2.083
 6506SOL    HW220418   0.193   3.582   2.042
 6507SOL     OW20419   3.380   5.225   0.173
 6507SOL    HW120420   3.315   5.219   0.249
 6507SOL    HW220421   3.349   5.294   0.108
 6508SOL     OW20422   0.802   7.019   2.982
 6508SOL    HW120423   0.881   0.058   2.980
 6508SOL    HW220424   0.728   0.039   2.928
 6509SOL     OW20425   2.215   1.797   6.799
 6509SOL    HW120426   2.279   1.726   6.770
 6509SOL    HW220427   2.265   1.882   6.816
 6510SOL     OW20428   3.090   6.083   5.746
 6510SOL    HW120429   3.101   5.985   5.763
 6510SOL    HW220430   3.158   6.134   5.800
 6511SOL     OW20431   3.317   1.742   0.825
 6511SOL    HW120432   3.238   1.755   0.886
 6511SOL    HW220433   3.401   1.743   0.880
 6512SOL     OW20434   3.518   1.516   0.178
 6512SOL    HW120435   3.423   1.486   0.162
 6512SOL    HW220436   3.520   1.616   0.185
 6513SOL     OW20437   2.890   4.777   3.157
 6513SOL    HW120438   2.955   4.729   3.216
 6513SOL    HW220439   2.939   4.835   3.092
 6514SOL     OW20440   5.152   6.359   5.574
 6514SOL    HW120441   5.221   6.358   5.502
 6514SOL    HW220442   5.105   6.448   5.574
 6515SOL     OW20443   0.923   4.839   2.277
 6515SOL    HW120444   0.992   4.779   2.236
 6515SOL    HW220445   0.846   4.849   2.215
 6516SOL     OW20446   6.117   3.456   1.574
 6516SOL    HW120447   6.194   3.430   1.515
 6516SOL    HW220448   6.097   3.381   1.637
 6517SOL     OW20449   0.013   3.683   0.601
 6517SOL    HW120450   6.992   3.674   0.691
 6517SOL    HW220451   0.072   3.764   0.599
 6518SOL     OW20452   0.503   1.597   2.800
 6518SOL    HW120453   0.544   1.612   2.890
 6518SOL    HW220454   0.529   1.671   2.738
 6519SOL     OW20455   1.131   1.552   3.267
 6519SOL    HW120456   1.166   1.464   3.299
 6519SOL    HW220457   1.188   1.626   3.305
 6520SOL     OW20458   0.033   5.249   0.405
 6520SOL    HW120459   7.001   5.291   0.332
 6520SOL    HW220460   0.043   5.151   0.387
 6521SOL     OW20461   1.454   3.673   3.460
 6521SOL    HW120462   1.471   3.769   3.478
 6521SOL    HW220463   1.534   3.632   3.416
 6522SOL     OW20464   2.740   2.921   5.372
 6522SOL    HW120465   2.664   2.943   5.310
 6522SOL    HW220466   2.802   2.999   5.379
 6523SOL     OW20467   6.123   0.355   0.562
 6523SOL    HW120468   6.067   0.367   0.480
 6523SOL    HW220469   6.147   0.259   0.573
 6524SOL     OW20470   2.534   2.766   0.836
 6524SOL    HW120471   2.602   2.820   0.885
 6524SOL    HW220472   2.543   2.670   0.860
 6525SOL     OW20473   1.061   5.087   3.448
 6525SOL    HW120474   1.049   4.992   3.416
 6525SOL    HW220475   1.094   5.143   3.372
 6526SOL     OW20476   0.957   5.675   0.398
 6526SOL    HW120477   0.934   5.767   0.368
 6526SOL    HW220478   1.032   5.639   0.341
 6527SOL     OW20479   6.579   1.931   0.085
 6527SOL    HW120480   6.505   1.961   0.145
 6527SOL    HW220481   6.542   1.904   7.017
 6528SOL     OW20482   4.000   6.787   6.500
 6528SOL    HW120483   4.047   6.736   6.428
 6528SOL    HW220484   4.064   6.853   6.541
 6529SOL     OW20485   5.709   0.997   2.474
 6529SOL    HW120486   5.691   1.040   2.386
 6529SOL    HW220487   5.673   0.904   2.475
 6530SOL     OW20488   0.382   3.387   2.754
 6530SOL    HW120489   0.434   3.436   2.684
 6530SOL    HW220490   0.334   3.452   2.812
 6531SOL     OW20491   3.441   4.141   4.946
 6531SOL    HW120492   3.414   4.186   5.032
 6531SOL    HW220493   3.364   4.089   4.910
 6532SOL     OW20494   1.408   0.233   0.311
 6532SOL    HW120495   1.479   0.281   0.363
 6532SOL    HW220496   1.429   0.136   0.308
 6533SOL     OW20497   4.970   3.809   1.195
 6533SOL    HW120498   4.966   3.866   1.276
 6533SOL    HW220499   4.902   3.840   1.128
 6534SOL     OW20500   0.104   4.382   3.104
 6534SOL    HW120501   0.027   4.437   3.136
 6534SOL    HW220502   0.110   4.299   3.160
 6535SOL     OW20503   4.850   2.921   5.281
 6535SOL    HW120504   4.767   2.866   5.287
 6535SOL    HW220505   4.928   2.866   5.313
 6536SOL     OW20506   0.777   4.604   5.078
 6536SOL    HW120507   0.847   4.534   5.093
 6536SOL    HW220508   0.791   4.646   4.988
 6537SOL     OW20509   6.166   5.505   4.015
 6537SOL    HW120510   6.210   5.496   3.926
 6537SOL    HW220511   6.129   5.597   4.025
 6538SOL     OW20512   1.949   3.064   5.636
 6538SOL    HW120513   1.983   2.994   5.574
 6538SOL    HW220514   2.016   3.137   5.644
 6539SOL     OW20515   5.093   0.612   6.067
 6539SOL    HW120516   5.093   0.682   5.996
 6539SOL    HW220517   5.010   0.557   6.059
 6540SOL     OW20518   6.558   2.804   5.724
 6540SOL    HW120519   6.601   2.854   5.799
 6540SOL    HW220520   6.484   2.860   5.685
 6541SOL     OW20521   6.031   1.665   5.308
 6541SOL    HW120522   6.099   1.662   5.381
 6541SOL    HW220523   6.040   1.583   5.251
 6542SOL     OW20524   1.660   4.431   3.071
 6542SOL    HW120525   1.698   4.413   3.161
 6542SOL    HW220526   1.652   4.529   3.057
 6543SOL     OW20527   3.704   1.480   4.545
 6543SOL    HW120528   3.677   1.413   4.476
 6543SOL    HW220529   3.631   1.490   4.613
 6544SOL     OW20530   1.147   6.501   1.571
 6544SOL    HW120531   1.139   6.600   1.585
 6544SOL    HW220532   1.176   6.457   1.656
 6545SOL     OW20533   4.495   6.569   0.592
 6545SOL    HW120534   4.461   6.658   0.560
 6545SOL    HW220535   4.567   6.584   0.659
 6546SOL     OW20536   4.806   3.951   6.351
 6546SOL    HW120537   4.781   4.009   6.428
 6546SOL    HW220538   4.897   3.912   6.367
 6547SOL     OW20539   0.457   5.636   6.105
 6547SOL    HW120540   0.508   5.637   6.018
 6547SOL    HW220541   0.412   5.547   6.115
 6548SOL     OW20542   0.057   1.195   5.538
 6548SOL    HW120543   0.034   1.282   5.495
 6548SOL    HW220544   0.135   1.154   5.491
 6549SOL     OW20545   4.627   1.508   2.388
 6549SOL    HW120546   4.597   1.415   2.365
 6549SOL    HW220547   4.681   1.545   2.313
 6550SOL     OW20548   5.820   6.265   3.140
 6550SOL    HW120549   5.902   6.319   3.159
 6550SOL    HW220550   5.768   6.252   3.224
 6551SOL     OW20551   3.454   4.235   0.877
 6551SOL    HW120552   3.411   4.180   0.948
 6551SOL    HW220553   3.388   4.251   0.803
 6552SOL     OW20554   1.857   5.658   0.292
 6552SOL    HW120555   1.834   5.610   0.378
 6552SOL    HW220556   1.794   5.628   0.220
 6553SOL     OW20557   0.831   1.296   4.042
 6553SOL    HW120558   0.749   1.239   4.043
 6553SOL    HW220559   0.813   1.380   3.990
 6554SOL     OW20560   1.902   1.479   4.041
 6554SOL    HW120561   1.804   1.466   4.023
 6554SOL    HW220562   1.930   1.570   4.012
 6555SOL     OW20563   6.351   3.499   3.696
 6555SOL    HW120564   6.442   3.526   3.727
 6555SOL    HW220565   6.356   3.411   3.651
 6556SOL     OW20566   4.848   3.182   2.586
 6556SOL    HW120567   4.918   3.240   2.626
 6556SOL    HW220568   4.762   3.233   2.580
 6557SOL     OW20569   2.166   0.511   1.798
 6557SOL    HW120570   2.246   0.567   1.820
 6557SOL    HW220571   2.128   0.474   1.883
 6558SOL     OW20572   5.675   5.880   6.196
 6558SOL    HW120573   5.598   5.914   6.142
 6558SOL    HW220574   5.655   5.891   6.293
 6559SOL     OW20575   6.783   2.471   6.258
 6559SOL    HW120576   6.834   2.531   6.195
 6559SOL    HW220577   6.821   2.481   6.350
 6560SOL     OW20578   5.444   4.638   0.120
 6560SOL    HW120579   5.394   4.713   0.077
 6560SOL    HW220580   5.380   4.578   0.168
 6561SOL     OW20581   3.457   4.505   6.720
 6561SOL    HW120582   3.556   4.490   6.718
 6561SOL    HW220583   3.437   4.594   6.760
 6562SOL     OW20584   5.372   2.603   1.394
 6562SOL    HW120585   5.350   2.522   1.340
 6562SOL    HW220586   5.459   2.589   1.441
 6563SOL     OW20587   5.399   5.372   4.877
 6563SOL    HW120588   5.372   5.343   4.969
 6563SOL    HW220589   5.323   5.357   4.813
 6564SOL     OW20590   6.431   3.380   3.035
 6564SOL    HW120591   6.495   3.310   3.065
 6564SOL    HW220592   6.399   3.358   2.942
 6565SOL     OW20593   5.450   0.463   2.940
 6565SOL    HW120594   5.427   0.366   2.934
 6565SOL    HW220595   5.539   0.474   2.985
 6566SOL     OW20596   4.737   6.096   2.801
 6566SOL    HW120597   4.675   6.024   2.833
 6566SOL    HW220598   4.705   6.184   2.834
 6567SOL     OW20599   3.907   0.654   1.046
 6567SOL    HW120600   3.944   0.625   1.134
 6567SOL    HW220601   3.814   0.688   1.059
 6568SOL     OW20602   4.568   2.014   0.800
 6568SOL    HW120603   4.633   2.066   0.855
 6568SOL    HW220604   4.590   1.917   0.805
 6569SOL     OW20605   0.691   4.347   4.827
 6569SOL    HW120606   0.779   4.299   4.820
 6569SOL    HW220607   0.693   4.428   4.769
 6570SOL     OW20608   4.358   0.474   2.005
 6570SOL    HW120609   4.439   0.453   2.059
 6570SOL    HW220610   4.306   0.390   1.988
 6571SOL     OW20611   3.439   4.998   2.901
 6571SOL    HW120612   3.522   5.043   2.934
 6571SOL    HW220613   3.371   4.994   2.975
 6572SOL     OW20614   1.215   5.635   4.302
 6572SOL    HW120615   1.312   5.624   4.279
 6572SOL    HW220616   1.159   5.588   4.234
 6573SOL     OW20617   1.583   1.425   3.629
 6573SOL    HW120618   1.520   1.365   3.580
 6573SOL    HW220619   1.677   1.403   3.603
 6574SOL     OW20620   1.857   5.758   2.413
 6574SOL    HW120621   1.856   5.760   2.513
 6574SOL    HW220622   1.852   5.663   2.381
 6575SOL     OW20623   0.038   1.526   2.947
 6575SOL    HW120624   0.087   1.570   3.022
 6575SOL    HW220625   6.962   1.515   2.973
 6576SOL     OW20626   4.704   5.630   0.863
 6576SOL    HW120627   4.774   5.634   0.934
 6576SOL    HW220628   4.743   5.663   0.777
 6577SOL     OW20629   3.248   0.928   3.690
 6577SOL    HW120630   3.206   1.001   3.743
 6577SOL    HW220631   3.344   0.918   3.716
 6578SOL     OW20632   1.639   4.710   1.368
 6578SOL    HW120633   1.680   4.627   1.329
 6578SOL    HW220634   1.695   4.789   1.345
 6579SOL     OW20635   6.684   0.940   4.080
 6579SOL    HW120636   6.752   0.989   4.134
 6579SOL    HW220637   6.731   0.884   4.012
 6580SOL     OW20638   2.404   1.738   0.091
 6580SOL    HW120639   2.382   1.834   0.105
 6580SOL    HW220640   2.343   1.682   0.147
 6581SOL     OW20641   0.647   1.687   1.007
 6581SOL    HW120642   0.690   1.658   1.093
 6581SOL    HW220643   0.551   1.659   1.007
 6582SOL     OW20644   6.737   1.458   2.970
 6582SOL    HW120645   6.638   1.471   2.975
 6582SOL    HW220646   6.761   1.370   3.010
 6583SOL     OW20647   3.829   5.619   6.732
 6583SOL    HW120648   3.746   5.575   6.765
 6583SOL    HW220649   3.877   5.557   6.669
 6584SOL     OW20650   3.880   2.862   0.404
 6584SOL    HW120651   3.935   2.835   0.482
 6584SOL    HW220652   3.811   2.929   0.433
 6585SOL     OW20653   5.671   6.594   1.240
 6585SOL    HW120654   5.763   6.560   1.262
 6585SOL    HW220655   5.639   6.653   1.315
 6586SOL     OW20656   0.107   1.770   6.817
 6586SOL    HW120657   0.187   1.829   6.805
 6586SOL    HW220658   0.133   1.692   6.874
 6587SOL     OW20659   1.839   4.628   5.536
 6587SOL    HW120660   1.812   4.564   5.607
 6587SOL    HW220661   1.938   4.641   5.538
 6588SOL     OW20662   6.805   2.858   0.443
 6588SOL    HW120663   6.819   2.870   0.542
 6588SOL    HW220664   6.876   2.798   0.407
 6589SOL     OW20665   6.819   0.397   2.129
 6589SOL    HW120666   6.736   0.388   2.185
 6589SOL    HW220667   6.898   0.411   2.189
 6590SOL     OW20668   1.377   6.419   3.720
 6590SOL    HW120669   1.411   6.419   3.814
 6590SOL    HW220670   1.452   6.393   3.658
 6591SOL     OW20671   5.869   4.030   4.119
 6591SOL    HW120672   5.899   3.936   4.104
 6591SOL    HW220673   5.867   4.049   4.218
 6592SOL     OW20674   6.092   6.801   3.297
 6592SOL    HW120675   6.169   6.738   3.307
 6592SOL    HW220676   6.014   6.752   3.257
 6593SOL     OW20677   2.511   1.680   2.086
 6593SOL    HW120678   2.519   1.583   2.065
 6593SOL    HW220679   2.569   1.703   2.164
 6594SOL     OW20680   5.300   0.484   6.170
 6594SOL    HW120681   5.227   0.535   6.125
 6594SOL    HW220682   5.306   0.512   6.266
 6595SOL     OW20683   0.661   2.035   5.430
 6595SOL    HW120684   0.686   2.124   5.467
 6595SOL    HW220685   0.606   2.047   5.347
 6596SOL     OW20686   5.658   0.016   2.630
 6596SOL    HW120687   5.585   0.069   2.586
 6596SOL    HW220688   5.639   0.008   2.727
 6597SOL     OW20689   1.132   4.355   2.156
 6597SOL    HW120690   1.137   4.259   2.130
 6597SOL    HW220691   1.134   4.363   2.256
 6598SOL     OW20692   1.503   4.323   4.073
 6598SOL    HW120693   1.515   4.323   4.172
 6598SOL    HW220694   1.478   4.414   4.042
 6599SOL     OW20695   6.083   5.481   6.364
 6599SOL    HW120696   6.045   5.499   6.455
 6599SOL    HW220697   6.010   5.449   6.303
 6600SOL     OW20698   4.300   0.371   5.332
 6600SOL    HW120699   4.338   0.463   5.321
 6600SOL    HW220700   4.307   0.343   5.428
 6601SOL     OW20701   1.624   2.343   1.490
 6601SOL    HW120702   1.572   2.292   1.559
 6601SOL    HW220703   1.711   2.298   1.473
 6602SOL     OW20704   1.153   6.093   1.785
 6602SOL    HW120705   1.232   6.154   1.782
 6602SOL    HW220706   1.094   6.111   1.706
 6603SOL     OW20707   0.215   3.359   3.044
 6603SOL    HW120708   0.209   3.453   3.010
 6603SOL    HW220709   0.146   3.345   3.116
 6604SOL     OW20710   2.519   6.411   2.764
 6604SOL    HW120711   2.490   6.447   2.853
 6604SOL    HW220712   2.449   6.350   2.728
 6605SOL     OW20713   6.937   5.382   1.186
 6605SOL    HW120714   6.970   5.308   1.244
 6605SOL    HW220715   6.889   5.344   1.107
 6606SOL     OW20716   1.707   3.012   3.254
 6606SOL    HW120717   1.668   3.102   3.274
 6606SOL    HW220718   1.778   2.990   3.322
 6607SOL     OW20719   6.026   3.938   3.485
 6607SOL    HW120720   6.076   3.854   3.462
 6607SOL    HW220721   6.006   3.939   3.583
 6608SOL     OW20722   1.216   5.691   6.236
 6608SOL    HW120723   1.270   5.749   6.298
 6608SOL    HW220724   1.174   5.748   6.166
 6609SOL     OW20725   4.858   1.584   6.359
 6609SOL    HW120726   4.855   1.534   6.446
 6609SOL    HW220727   4.786   1.549   6.298
 6610SOL     OW20728   2.873   5.268   0.761
 6610SOL    HW120729   2.922   5.191   0.719
 6610SOL    HW220730   2.861   5.250   0.859
 6611SOL     OW20731   3.901   1.668   4.599
 6611SOL    HW120732   3.986   1.616   4.585
 6611SOL    HW220733   3.823   1.607   4.585
 6612SOL     OW20734   0.424   0.711   6.221
 6612SOL    HW120735   0.381   0.708   6.312
 6612SOL    HW220736   0.494   0.782   6.220
 6613SOL     OW20737   4.601   6.583   0.285
 6613SOL    HW120738   4.644   6.644   0.217
 6613SOL    HW220739   4.542   6.637   0.345
 6614SOL     OW20740   4.242   5.592   1.114
 6614SOL    HW120741   4.168   5.627   1.057
 6614SOL    HW220742   4.257   5.654   1.191
 6615SOL     OW20743   3.695   4.646   6.299
 6615SOL    HW120744   3.684   4.718   6.230
 6615SOL    HW220745   3.693   4.557   6.254
 6616SOL     OW20746   3.885   1.279   6.017
 6616SOL    HW120747   3.920   1.271   5.923
 6616SOL    HW220748   3.807   1.341   6.017
 6617SOL     OW20749   4.056   0.396   4.054
 6617SOL    HW120750   4.010   0.335   4.119
 6617SOL    HW220751   4.147   0.360   4.032
 6618SOL     OW20752   6.697   2.874   4.057
 6618SOL    HW120753   6.639   2.793   4.056
 6618SOL    HW220754   6.649   2.950   4.013
 6619SOL     OW20755   4.593   6.268   4.338
 6619SOL    HW120756   4.664   6.200   4.317
 6619SOL    HW220757   4.606   6.348   4.279
 6620SOL     OW20758   0.785   3.109   3.264
 6620SOL    HW120759   0.802   3.160   3.180
 6620SOL    HW220760   0.821   3.161   3.342
 6621SOL     OW20761   3.957   3.184   4.785
 6621SOL    HW120762   3.998   3.117   4.848
 6621SOL    HW220763   3.872   3.146   4.748
 6622SOL     OW20764   0.685   5.519   1.138
 6622SOL    HW120765   0.652   5.606   1.103
 6622SOL    HW220766   0.651   5.444   1.080
 6623SOL     OW20767   3.170   3.461   5.433
 6623SOL    HW120768   3.245   3.526   5.447
 6623SOL    HW220769   3.172   3.392   5.505
 6624SOL     OW20770   2.067   1.830   3.346
 6624SOL    HW120771   2.107   1.745   3.378
 6624SOL    HW220772   1.967   1.826   3.355
 6625SOL     OW20773   5.955   3.915   5.909
 6625SOL    HW120774   5.886   3.879   5.846
 6625SOL    HW220775   6.009   3.839   5.946
 6626SOL     OW20776   2.758   6.031   5.468
 6626SOL    HW120777   2.783   5.989   5.555
 6626SOL    HW220778   2.664   6.065   5.472
 6627SOL     OW20779   1.705   6.020   4.435
 6627SOL    HW120780   1.645   5.972   4.498
 6627SOL    HW220781   1.750   5.954   4.375
 6628SOL     OW20782   3.890   6.039   4.671
 6628SOL    HW120783   3.979   5.995   4.679
 6628SOL    HW220784   3.828   6.001   4.740
 6629SOL     OW20785   4.748   6.332   6.352
 6629SOL    HW120786   4.709   6.330   6.445
 6629SOL    HW220787   4.752   6.427   6.320
 6630SOL     OW20788   1.732   0.940   0.649
 6630SOL    HW120789   1.655   0.982   0.698
 6630SOL    HW220790   1.738   0.843   0.675
 6631SOL     OW20791   1.729   3.714   6.065
 6631SOL    HW120792   1.653   3.654   6.042
 6631SOL    HW220793   1.761   3.760   5.982
 6632SOL     OW20794   0.847   0.688   0.771
 6632SOL    HW120795   0.913   0.669   0.698
 6632SOL    HW220796   0.765   0.632   0.757
 6633SOL     OW20797   3.724   5.513   5.545
 6633SOL    HW120798   3.646   5.509   5.482
 6633SOL    HW220799   3.765   5.422   5.553
 6634SOL     OW20800   4.052   1.547   4.003
 6634SOL    HW120801   3.961   1.578   4.031
 6634SOL    HW220802   4.116   1.624   4.007
 6635SOL     OW20803   4.986   5.024   4.062
 6635SOL    HW120804   4.936   4.938   4.048
 6635SOL    HW220805   5.014   5.060   3.973
 6636SOL     OW20806   4.024   0.711   6.572
 6636SOL    HW120807   3.979   0.746   6.490
 6636SOL    HW220808   4.038   0.786   6.637
 6637SOL     OW20809   1.147   1.676   1.513
 6637SOL    HW120810   1.056   1.656   1.549
 6637SOL    HW220811   1.196   1.735   1.578
 6638SOL     OW20812   3.279   3.649   3.782
 6638SOL    HW120813   3.194   3.637   3.730
 6638SOL    HW220814   3.357   3.638   3.721
 6639SOL     OW20815   5.051   2.580   1.216
 6639SOL    HW120816   4.957   2.605   1.242
 6639SOL    HW220817   5.114   2.607   1.289
 6640SOL     OW20818   1.862   3.615   5.098
 6640SOL    HW120819   1.871   3.555   5.019
 6640SOL    HW220820   1.827   3.704   5.069
 6641SOL     OW20821   4.985   2.004   1.784
 6641SOL    HW120822   4.976   2.090   1.734
 6641SOL    HW220823   5.023   1.934   1.724
 6642SOL     OW20824   1.360   5.776   0.076
 6642SOL    HW120825   1.426   5.825   0.132
 6642SOL    HW220826   1.279   5.756   0.130
 6643SOL     OW20827   4.110   5.253   6.465
 6643SOL    HW120828   4.018   5.216   6.453
 6643SOL    HW220829   4.171   5.181   6.496
 6644SOL     OW20830   1.863   6.729   3.612
 6644SOL    HW120831   1.837   6.824   3.595
 6644SOL    HW220832   1.946   6.727   3.668
 6645SOL     OW20833   5.915   2.542   0.539
 6645SOL    HW120834   5.827   2.538   0.587
 6645SOL    HW220835   5.948   2.637   0.538
 6646SOL     OW20836   4.237   6.813   5.733
 6646SOL    HW120837   4.268   6.804   5.639
 6646SOL    HW220838   4.200   6.905   5.748
 6647SOL     OW20839   4.196   5.406   0.818
 6647SOL    HW120840   4.283   5.426   0.865
 6647SOL    HW220841   4.184   5.307   0.813
 6648SOL     OW20842   3.038   6.333   6.031
 6648SOL    HW120843   2.939   6.347   6.037
 6648SOL    HW220844   3.070   6.284   6.112
 6649SOL     OW20845   5.145   3.360   6.902
 6649SOL    HW120846   5.185   3.384   6.991
 6649SOL    HW220847   5.218   3.337   6.838
 6650SOL     OW20848   2.184   1.719   4.871
 6650SOL    HW120849   2.168   1.813   4.838
 6650SOL    HW220850   2.236   1.668   4.803
 6651SOL     OW20851   6.388   1.948   6.419
 6651SOL    HW120852   6.386   2.030   6.476
 6651SOL    HW220853   6.433   1.874   6.469
 6652SOL     OW20854   0.212   4.567   0.589
 6652SOL    HW120855   0.216   4.478   0.545
 6652SOL    HW220856   0.132   4.618   0.556
 6653SOL     OW20857   5.673   4.665   0.438
 6653SOL    HW120858   5.628   4.724   0.504
 6653SOL    HW220859   5.766   4.698   0.422
 6654SOL     OW20860   6.389   4.118   3.304
 6654SOL    HW120861   6.341   4.133   3.390
 6654SOL    HW220862   6.323   4.114   3.229
 6655SOL     OW20863   6.933   5.021   2.169
 6655SOL    HW120864   6.940   5.090   2.241
 6655SOL    HW220865   6.986   4.940   2.194
 6656SOL     OW20866   4.737   1.316   3.049
 6656SOL    HW120867   4.750   1.414   3.060
 6656SOL    HW220868   4.816   1.267   3.086
 6657SOL     OW20869   5.253   2.087   3.727
 6657SOL    HW120870   5.313   2.157   3.689
 6657SOL    HW220871   5.164   2.127   3.748
 6658SOL     OW20872   6.655   5.909   5.560
 6658SOL    HW120873   6.559   5.902   5.587
 6658SOL    HW220874   6.666   5.876   5.467
 6659SOL     OW20875   1.031   5.289   1.958
 6659SOL    HW120876   1.018   5.380   1.919
 6659SOL    HW220877   1.129   5.273   1.971
 6660SOL     OW20878   6.671   6.493   3.860
 6660SOL    HW120879   6.606   6.568   3.876
 6660SOL    HW220880   6.763   6.522   3.887
 6661SOL     OW20881   3.719   5.654   4.277
 6661SOL    HW120882   3.736   5.664   4.179
 6661SOL    HW220883   3.736   5.560   4.304
 6662SOL     OW20884   4.051   6.601   2.103
 6662SOL    HW120885   3.960   6.588   2.143
 6662SOL    HW220886   4.100   6.514   2.104
 6663SOL     OW20887   1.423   3.815   5.964
 6663SOL    HW120888   1.391   3.870   6.041
 6663SOL    HW220889   1.435   3.720   5.994
 6664SOL     OW20890   3.027   0.087   1.066
 6664SOL    HW120891   3.061   0.106   0.974
 6664SOL    HW220892   3.005   7.010   1.074
 6665SOL     OW20893   2.319   0.768   6.385
 6665SOL    HW120894   2.377   0.693   6.353
 6665SOL    HW220895   2.343   0.852   6.338
 6666SOL     OW20896   3.978   6.299   5.405
 6666SOL    HW120897   3.975   6.323   5.309
 6666SOL    HW220898   3.973   6.381   5.461
 6667SOL     OW20899   0.125   6.495   6.854
 6667SOL    HW120900   0.145   6.426   6.784
 6667SOL    HW220901   0.204   6.554   6.865
 6668SOL     OW20902   0.213   5.159   0.593
 6668SOL    HW120903   0.223   5.233   0.526
 6668SOL    HW220904   0.184   5.076   0.546
 6669SOL     OW20905   1.430   1.225   3.509
 6669SOL    HW120906   1.499   1.178   3.454
 6669SOL    HW220907   1.395   1.163   3.579
 6670SOL     OW20908   4.090   2.373   0.984
 6670SOL    HW120909   4.126   2.312   1.054
 6670SOL    HW220910   4.076   2.464   1.023
 6671SOL     OW20911   4.732   5.743   0.584
 6671SOL    HW120912   4.782   5.829   0.598
 6671SOL    HW220913   4.635   5.757   0.602
 6672SOL     OW20914   1.903   2.377   1.093
 6672SOL    HW120915   1.951   2.293   1.070
 6672SOL    HW220916   1.805   2.364   1.081
 6673SOL     OW20917   5.964   3.213   3.988
 6673SOL    HW120918   5.926   3.208   4.081
 6673SOL    HW220919   5.889   3.216   3.922
 6674SOL     OW20920   0.265   1.473   0.189
 6674SOL    HW120921   0.317   1.526   0.123
 6674SOL    HW220922   0.319   1.463   0.273
 6675SOL     OW20923   5.534   1.474   6.829
 6675SOL    HW120924   5.554   1.517   6.742
 6675SOL    HW220925   5.496   1.382   6.813
 6676SOL     OW20926   1.202   3.508   3.469
 6676SOL    HW120927   1.133   3.551   3.411
 6676SOL    HW220928   1.281   3.569   3.479
 6677SOL     OW20929   0.732   1.584   0.206
 6677SOL    HW120930   0.729   1.543   0.115
 6677SOL    HW220931   0.646   1.563   0.254
 6678SOL     OW20932   1.905   3.939   6.883
 6678SOL    HW120933   1.817   3.902   6.856
 6678SOL    HW220934   1.978   3.890   6.835
 6679SOL     OW20935   2.028   0.886   4.247
 6679SOL    HW120936   1.960   0.886   4.173
 6679SOL    HW220937   2.048   0.792   4.274
 6680SOL     OW20938   5.864   6.797   1.325
 6680SOL    HW120939   5.889   6.755   1.238
 6680SOL    HW220940   5.938   6.785   1.391
 6681SOL     OW20941   3.295   5.882   1.574
 6681SOL    HW120942   3.319   5.811   1.639
 6681SOL    HW220943   3.301   5.846   1.481
 6682SOL     OW20944   3.220   5.010   5.992
 6682SOL    HW120945   3.172   4.923   6.004
 6682SOL    HW220946   3.293   5.018   6.059
 6683SOL     OW20947   6.688   3.952   6.395
 6683SOL    HW120948   6.744   4.033   6.413
 6683SOL    HW220949   6.709   3.881   6.463
 6684SOL     OW20950   2.937   5.972   0.210
 6684SOL    HW120951   2.885   6.019   0.282
 6684SOL    HW220952   3.034   5.996   0.219
 6685SOL     OW20953   5.074   3.588   0.041
 6685SOL    HW120954   5.102   3.559   6.970
 6685SOL    HW220955   5.121   3.673   0.065
 6686SOL     OW20956   4.784   5.126   4.250
 6686SOL    HW120957   4.870   5.101   4.206
 6686SOL    HW220958   4.723   5.047   4.253
 6687SOL     OW20959   6.324   2.135   1.877
 6687SOL    HW120960   6.280   2.224   1.864
 6687SOL    HW220961   6.395   2.142   1.947
 6688SOL     OW20962   4.527   5.393   0.461
 6688SOL    HW120963   4.595   5.450   0.416
 6688SOL    HW220964   4.510   5.427   0.554
 6689SOL     OW20965   1.979   4.433   5.872
 6689SOL    HW120966   2.054   4.418   5.808
 6689SOL    HW220967   1.940   4.525   5.858
 6690SOL     OW20968   0.701   6.959   5.730
 6690SOL    HW120969   0.649   0.023   5.741
 6690SOL    HW220970   0.644   6.881   5.753
 6691SOL     OW20971   2.544   2.352   2.506
 6691SOL    HW120972   2.615   2.283   2.519
 6691SOL    HW220973   2.459   2.321   2.550
 6692SOL     OW20974   4.707   4.776   1.824
 6692SOL    HW120975   4.795   4.748   1.863
 6692SOL    HW220976   4.723   4.833   1.744
 6693SOL     OW20977   4.158   1.549   4.517
 6693SOL    HW120978   4.224   1.594   4.457
 6693SOL    HW220979   4.149   1.453   4.489
 6694SOL     OW20980   3.239   4.342   1.643
 6694SOL    HW120981   3.294   4.262   1.620
 6694SOL    HW220982   3.191   4.375   1.562
 6695SOL     OW20983   1.935   2.016   6.349
 6695SOL    HW120984   2.027   2.017   6.309
 6695SOL    HW220985   1.870   2.052   6.283
 6696SOL     OW20986   4.143   3.540   4.566
 6696SOL    HW120987   4.137   3.441   4.550
 6696SOL    HW220988   4.102   3.588   4.488
 6697SOL     OW20989   4.160   2.310   2.823
 6697SOL    HW120990   4.080   2.295   2.765
 6697SOL    HW220991   4.175   2.408   2.835
 6698SOL     OW20992   3.566   4.006   1.329
 6698SOL    HW120993   3.592   3.989   1.424
 6698SOL    HW220994   3.627   3.956   1.268
 6699SOL     OW20995   1.007   4.291   5.896
 6699SOL    HW120996   1.054   4.222   5.840
 6699SOL    HW220997   0.909   4.270   5.898
 6700SOL     OW20998   5.794   6.804   0.020
 6700SOL    HW120999   5.700   6.789   7.010
 6700SOL    HW221000   5.854   6.738   6.996
 6701SOL     OW21001   5.953   0.571   1.399
 6701SOL    HW121002   6.048   0.601   1.406
 6701SOL    HW221003   5.905   0.627   1.331
 6702SOL     OW21004   3.157   2.880   1.111
 6702SOL    HW121005   3.133   2.881   1.208
 6702SOL    HW221006   3.115   2.800   1.067
 6703SOL     OW21007   0.338   1.244   0.024
 6703SOL    HW121008   0.408   1.293   6.992
 6703SOL    HW221009   0.326   1.288   0.113
 6704SOL     OW21010   3.155   0.114   5.844
 6704SOL    HW121011   3.166   0.063   5.759
 6704SOL    HW221012   3.225   0.185   5.849
 6705SOL     OW21013   6.459   3.682   2.295
 6705SOL    HW121014   6.452   3.592   2.252
 6705SOL    HW221015   6.371   3.707   2.335
 6706SOL     OW21016   0.400   6.968   1.787
 6706SOL    HW121017   0.308   6.995   1.760
 6706SOL    HW221018   0.395   6.912   1.870
 6707SOL     OW21019   5.307   0.113   2.093
 6707SOL    HW121020   5.280   0.020   2.117
 6707SOL    HW221021   5.226   0.172   2.089
 6708SOL     OW21022   0.786   4.081   0.923
 6708SOL    HW121023   0.818   4.023   0.998
 6708SOL    HW221024   0.827   4.172   0.931
 6709SOL     OW21025   1.792   4.936   2.806
 6709SOL    HW121026   1.729   4.858   2.812
 6709SOL    HW221027   1.823   4.946   2.711
 6710SOL     OW21028   4.346   1.036   0.766
 6710SOL    HW121029   4.364   1.026   0.668
 6710SOL    HW221030   4.433   1.049   0.814
 6711SOL     OW21031   3.578   5.721   6.339
 6711SOL    HW121032   3.623   5.639   6.373
 6711SOL    HW221033   3.524   5.699   6.258
 6712SOL     OW21034   6.004   3.640   1.408
 6712SOL    HW121035   6.051   3.593   1.483
 6712SOL    HW221036   5.907   3.652   1.433
 6713SOL     OW21037   1.491   6.078   4.804
 6713SOL    HW121038   1.443   6.156   4.764
 6713SOL    HW221039   1.567   6.051   4.746
 6714SOL     OW21040   4.761   1.641   1.142
 6714SOL    HW121041   4.821   1.585   1.200
 6714SOL    HW221042   4.669   1.642   1.179
 6715SOL     OW21043   1.405   1.030   0.275
 6715SOL    HW121044   1.313   1.064   0.255
 6715SOL    HW221045   1.404   0.979   0.361
 6716SOL     OW21046   0.042   5.521   2.996
 6716SOL    HW121047   0.014   5.477   3.082
 6716SOL    HW221048   6.982   5.549   2.945
 6717SOL     OW21049   4.919   2.031   5.532
 6717SOL    HW121050   4.996   2.088   5.560
 6717SOL    HW221051   4.883   1.981   5.611
 6718SOL     OW21052   3.918   1.008   1.725
 6718SOL    HW121053   3.821   0.990   1.709
 6718SOL    HW221054   3.938   1.103   1.704
 6719SOL     OW21055   1.953   0.794   0.071
 6719SOL    HW121056   1.878   0.847   0.030
 6719SOL    HW221057   1.944   0.797   0.171
 6720SOL     OW21058   1.531   0.349   6.290
 6720SOL    HW121059   1.582   0.377   6.371
 6720SOL    HW221060   1.475   0.269   6.311
 6721SOL     OW21061   6.597   1.571   0.283
 6721SOL    HW121062   6.518   1.516   0.311
 6721SOL    HW221063   6.682   1.522   0.305
 6722SOL     OW21064   6.460   3.136   0.448
 6722SOL    HW121065   6.390   3.083   0.401
 6722SOL    HW221066   6.442   3.135   0.546
 6723SOL     OW21067   1.174   2.377   6.290
 6723SOL    HW121068   1.220   2.317   6.355
 6723SOL    HW221069   1.154   2.326   6.206
 6724SOL     OW21070   2.057   3.542   5.585
 6724SOL    HW121071   2.106   3.629   5.577
 6724SOL    HW221072   2.020   3.516   5.496
 6725SOL     OW21073   4.908   2.569   3.883
 6725SOL    HW121074   4.839   2.510   3.924
 6725SOL    HW221075   4.864   2.631   3.818
 6726SOL     OW21076   0.144   0.717   5.704
 6726SOL    HW121077   0.185   0.714   5.612
 6726SOL    HW221078   0.103   0.807   5.719
 6727SOL     OW21079   1.177   4.923   5.499
 6727SOL    HW121080   1.151   5.013   5.464
 6727SOL    HW221081   1.268   4.930   5.541
 6728SOL     OW21082   3.507   2.043   3.862
 6728SOL    HW121083   3.532   1.963   3.916
 6728SOL    HW221084   3.524   2.024   3.765
 6729SOL     OW21085   4.864   1.414   2.155
 6729SOL    HW121086   4.867   1.513   2.168
 6729SOL    HW221087   4.951   1.382   2.117
 6730SOL     OW21088   0.510   1.391   1.970
 6730SOL    HW121089   0.411   1.387   1.955
 6730SOL    HW221090   0.557   1.379   1.883
 6731SOL     OW21091   3.877   6.642   6.687
 6731SOL    HW121092   3.909   6.688   6.604
 6731SOL    HW221093   3.785   6.606   6.671
 6732SOL     OW21094   0.070   5.664   4.478
 6732SOL    HW121095   0.050   5.571   4.448
 6732SOL    HW221096   0.013   5.729   4.428
 6733SOL     OW21097   4.876   5.306   6.289
 6733SOL    HW121098   4.837   5.398   6.296
 6733SOL    HW221099   4.957   5.309   6.230
 6734SOL     OW21100   6.330   1.371   4.318
 6734SOL    HW121101   6.423   1.338   4.333
 6734SOL    HW221102   6.273   1.296   4.283
 6735SOL     OW21103   6.223   2.753   3.577
 6735SOL    HW121104   6.203   2.656   3.571
 6735SOL    HW221105   6.205   2.797   3.489
 6736SOL     OW21106   3.665   3.838   0.813
 6736SOL    HW121107   3.621   3.754   0.782
 6736SOL    HW221108   3.617   3.917   0.776
 6737SOL     OW21109   0.237   3.858   0.646
 6737SOL    HW121110   0.293   3.775   0.634
 6737SOL    HW221111   0.283   3.935   0.602
 6738SOL     OW21112   1.682   5.684   3.843
 6738SOL    HW121113   1.684   5.597   3.794
 6738SOL    HW221114   1.632   5.672   3.929
 6739SOL     OW21115   6.278   6.896   4.799
 6739SOL    HW121116   6.257   6.800   4.784
 6739SOL    HW221117   6.234   6.926   4.884
 6740SOL     OW21118   0.454   6.796   3.737
 6740SOL    HW121119   0.454   6.792   3.637
 6740SOL    HW221120   0.477   6.706   3.774
 6741SOL     OW21121   4.418   1.849   6.358
 6741SOL    HW121122   4.461   1.865   6.448
 6741SOL    HW221123   4.335   1.796   6.370
 6742SOL     OW21124   5.628   4.667   3.582
 6742SOL    HW121125   5.648   4.718   3.665
 6742SOL    HW221126   5.560   4.597   3.601
 6743SOL     OW21127   4.380   4.174   0.766
 6743SOL    HW121128   4.478   4.162   0.783
 6743SOL    HW221129   4.348   4.105   0.702
 6744SOL     OW21130   0.235   5.915   6.092
 6744SOL    HW121131   0.173   5.890   6.167
 6744SOL    HW221132   0.267   5.832   6.047
 6745SOL     OW21133   6.854   5.491   4.943
 6745SOL    HW121134   6.868   5.552   5.022
 6745SOL    HW221135   6.896   5.531   4.862
 6746SOL     OW21136   1.619   1.964   2.285
 6746SOL    HW121137   1.528   1.976   2.325
 6746SOL    HW221138   1.684   2.025   2.330
 6747SOL     OW21139   1.654   6.415   5.887
 6747SOL    HW121140   1.669   6.507   5.850
 6747SOL    HW221141   1.661   6.417   5.987
 6748SOL     OW21142   2.014   1.113   4.552
 6748SOL    HW121143   1.979   1.062   4.473
 6748SOL    HW221144   1.993   1.211   4.539
 6749SOL     OW21145   3.359   5.117   1.282
 6749SOL    HW121146   3.403   5.199   1.320
 6749SOL    HW221147   3.400   5.036   1.323
 6750SOL     OW21148   3.218   0.824   4.991
 6750SOL    HW121149   3.306   0.869   5.002
 6750SOL    HW221150   3.162   0.839   5.072
 6751SOL     OW21151   4.290   0.296   4.023
 6751SOL    HW121152   4.262   0.201   4.008
 6751SOL    HW221153   4.360   0.299   4.094
 6752SOL     OW21154   2.478   5.941   2.278
 6752SOL    HW121155   2.389   5.933   2.324
 6752SOL    HW221156   2.546   5.887   2.328
 6753SOL     OW21157   4.000   3.132   5.663
 6753SOL    HW121158   3.983   3.046   5.712
 6753SOL    HW221159   4.080   3.177   5.703
 6754SOL     OW21160   5.995   2.088   1.317
 6754SOL    HW121161   5.917   2.095   1.379
 6754SOL    HW221162   6.076   2.060   1.369
 6755SOL     OW21163   2.645   5.669   6.169
 6755SOL    HW121164   2.587   5.748   6.191
 6755SOL    HW221165   2.692   5.638   6.252
 6756SOL     OW21166   2.493   2.316   5.273
 6756SOL    HW121167   2.494   2.397   5.214
 6756SOL    HW221168   2.578   2.265   5.261
 6757SOL     OW21169   3.277   6.589   0.362
 6757SOL    HW121170   3.349   6.645   0.403
 6757SOL    HW221171   3.195   6.645   0.349
 6758SOL     OW21172   6.083   2.269   2.751
 6758SOL    HW121173   6.014   2.339   2.729
 6758SOL    HW221174   6.100   2.270   2.850
 6759SOL     OW21175   1.007   3.081   2.607
 6759SOL    HW121176   1.002   3.021   2.527
 6759SOL    HW221177   0.936   3.054   2.673
 6760SOL     OW21178   5.492   2.431   2.950
 6760SOL    HW121179   5.577   2.458   2.996
 6760SOL    HW221180   5.418   2.424   3.018
 6761SOL     OW21181   4.399   2.141   4.887
 6761SOL    HW121182   4.365   2.180   4.801
 6761SOL    HW221183   4.480   2.192   4.917
 6762SOL     OW21184   6.948   5.625   3.910
 6762SOL    HW121185   7.011   5.564   3.863
 6762SOL    HW221186   6.999   5.691   3.965
 6763SOL     OW21187   4.987   5.613   5.311
 6763SOL    HW121188   4.965   5.710   5.321
 6763SOL    HW221189   4.908   5.566   5.272
 6764SOL     OW21190   1.814   5.149   0.898
 6764SOL    HW121191   1.749   5.091   0.849
 6764SOL    HW221192   1.772   5.184   0.981
 6765SOL     OW21193   6.510   5.113   3.155
 6765SOL    HW121194   6.482   5.137   3.248
 6765SOL    HW221195   6.476   5.022   3.132
 6766SOL     OW21196   5.312   0.573   0.260
 6766SOL    HW121197   5.265   0.583   0.348
 6766SOL    HW221198   5.245   0.581   0.186
 6767SOL     OW21199   2.911   0.492   0.674
 6767SOL    HW121200   2.984   0.482   0.606
 6767SOL    HW221201   2.949   0.522   0.761
 6768SOL     OW21202   1.435   0.702   1.122
 6768SOL    HW121203   1.436   0.698   1.022
 6768SOL    HW221204   1.486   0.782   1.153
 6769SOL     OW21205   4.160   2.845   1.549
 6769SOL    HW121206   4.124   2.914   1.612
 6769SOL    HW221207   4.133   2.868   1.456
 6770SOL     OW21208   6.768   0.517   1.880
 6770SOL    HW121209   6.782   0.615   1.888
 6770SOL    HW221210   6.800   0.472   1.964
 6771SOL     OW21211   4.006   2.117   3.534
 6771SOL    HW121212   4.055   2.035   3.565
 6771SOL    HW221213   4.019   2.127   3.435
 6772SOL     OW21214   2.925   1.923   2.793
 6772SOL    HW121215   2.856   1.876   2.847
 6772SOL    HW221216   2.930   1.882   2.702
 6773SOL     OW21217   6.998   4.507   2.425
 6773SOL    HW121218   0.039   4.456   2.365
 6773SOL    HW221219   0.027   4.582   2.469
 6774SOL     OW21220   0.663   1.866   6.967
 6774SOL    HW121221   0.618   1.793   6.915
 6774SOL    HW221222   0.663   1.843   0.044
 6775SOL     OW21223   2.532   4.692   1.102
 6775SOL    HW121224   2.553   4.595   1.105
 6775SOL    HW221225   2.483   4.714   1.018
 6776SOL     OW21226   5.944   5.127   0.021
 6776SOL    HW121227   5.979   5.203   0.076
 6776SOL    HW221228   5.871   5.080   0.071
 6777SOL     OW21229   4.485   4.536   6.558
 6777SOL    HW121230   4.403   4.581   6.521
 6777SOL    HW221231   4.540   4.603   6.606
 6778SOL     OW21232   0.962   5.182   2.958
 6778SOL    HW121233   0.995   5.266   2.916
 6778SOL    HW221234   0.969   5.107   2.892
 6779SOL     OW21235   0.199   5.109   0.207
 6779SOL    HW121236   0.274   5.082   0.268
 6779SOL    HW221237   0.188   5.208   0.209
 6780SOL     OW21238   0.360   2.493   2.450
 6780SOL    HW121239   0.388   2.457   2.539
 6780SOL    HW221240   0.304   2.575   2.462
 6781SOL     OW21241   5.261   6.063   6.031
 6781SOL    HW121242   5.247   6.114   6.116
 6781SOL    HW221243   5.252   6.125   5.953
 6782SOL     OW21244   0.062   1.637   2.649
 6782SOL    HW121245   7.018   1.590   2.709
 6782SOL    HW221246   0.139   1.671   2.702
 6783SOL     OW21247   0.180   6.300   6.626
 6783SOL    HW121248   0.146   6.253   6.544
 6783SOL    HW221249   0.168   6.240   6.705
 6784SOL     OW21250   3.668   3.656   0.487
 6784SOL    HW121251   3.589   3.706   0.522
 6784SOL    HW221252   3.655   3.558   0.503
 6785SOL     OW21253   5.706   5.823   1.970
 6785SOL    HW121254   5.643   5.894   1.937
 6785SOL    HW221255   5.660   5.769   2.041
 6786SOL     OW21256   1.484   2.880   6.311
 6786SOL    HW121257   1.546   2.881   6.390
 6786SOL    HW221258   1.538   2.885   6.227
 6787SOL     OW21259   1.348   3.728   2.250
 6787SOL    HW121260   1.410   3.663   2.294
 6787SOL    HW221261   1.301   3.682   2.174
 6788SOL     OW21262   3.198   3.805   1.382
 6788SOL    HW121263   3.158   3.878   1.327
 6788SOL    HW221264   3.209   3.837   1.477
 6789SOL     OW21265   0.759   6.626   2.333
 6789SOL    HW121266   0.806   6.544   2.366
 6789SOL    HW221267   0.818   6.675   2.270
 6790SOL     OW21268   1.725   3.002   7.002
 6790SOL    HW121269   1.641   2.980   6.952
 6790SOL    HW221270   1.775   2.918   0.002
 6791SOL     OW21271   4.427   3.017   6.730
 6791SOL    HW121272   4.360   3.091   6.736
 6791SOL    HW221273   4.382   2.933   6.700
 6792SOL     OW21274   6.086   6.310   0.160
 6792SOL    HW121275   6.145   6.241   0.202
 6792SOL    HW221276   6.075   6.290   0.063
 6793SOL     OW21277   1.196   2.676   1.222
 6793SOL    HW121278   1.162   2.741   1.154
 6793SOL    HW221279   1.163   2.584   1.199
 6794SOL     OW21280   4.836   1.194   5.035
 6794SOL    HW121281   4.840   1.256   4.957
 6794SOL    HW221282   4.918   1.137   5.037
 6795SOL     OW21283   3.102   5.708   0.388
 6795SOL    HW121284   3.157   5.624   0.382
 6795SOL    HW221285   3.023   5.691   0.447
 6796SOL     OW21286   5.087   1.483   2.829
 6796SOL    HW121287   5.044   1.563   2.789
 6796SOL    HW221288   5.079   1.487   2.929
 6797SOL     OW21289   5.765   3.641   1.957
 6797SOL    HW121290   5.849   3.624   1.906
 6797SOL    HW221291   5.730   3.733   1.934
 6798SOL     OW21292   5.139   5.799   2.386
 6798SOL    HW121293   5.042   5.796   2.361
 6798SOL    HW221294   5.167   5.894   2.398
 6799SOL     OW21295   5.219   5.797   0.300
 6799SOL    HW121296   5.285   5.803   0.375
 6799SOL    HW221297   5.200   5.888   0.265
 6800SOL     OW21298   1.917   4.472   0.511
 6800SOL    HW121299   1.887   4.380   0.537
 6800SOL    HW221300   1.860   4.540   0.558
 6801SOL     OW21301   1.596   2.649   2.058
 6801SOL    HW121302   1.512   2.699   2.076
 6801SOL    HW221303   1.578   2.575   1.993
 6802SOL     OW21304   2.463   6.207   1.814
 6802SOL    HW121305   2.415   6.267   1.878
 6802SOL    HW221306   2.498   6.262   1.738
 6803SOL     OW21307   5.327   1.893   6.632
 6803SOL    HW121308   5.349   1.912   6.728
 6803SOL    HW221309   5.231   1.863   6.625
 6804SOL     OW21310   1.957   5.888   3.416
 6804SOL    HW121311   1.875   5.871   3.361
 6804SOL    HW221312   1.950   5.978   3.459
 6805SOL     OW21313   6.134   0.506   4.921
 6805SOL    HW121314   6.046   0.531   4.962
 6805SOL    HW221315   6.133   0.408   4.898
 6806SOL     OW21316   4.089   0.881   5.071
 6806SOL    HW121317   3.997   0.862   5.037
 6806SOL    HW221318   4.117   0.973   5.044
 6807SOL     OW21319   3.271   2.507   0.302
 6807SOL    HW121320   3.203   2.434   0.309
 6807SOL    HW221321   3.224   2.592   0.278
 6808SOL     OW21322   0.441   3.026   5.422
 6808SOL    HW121323   0.514   2.965   5.454
 6808SOL    HW221324   0.429   3.101   5.486
 6809SOL     OW21325   2.551   3.845   6.592
 6809SOL    HW121326   2.567   3.804   6.682
 6809SOL    HW221327   2.591   3.936   6.589
 6810SOL     OW21328   7.009   0.953   2.139
 6810SOL    HW121329   0.035   0.934   2.053
 6810SOL    HW221330   6.965   0.869   2.173
 6811SOL     OW21331   5.938   5.045   1.415
 6811SOL    HW121332   5.934   5.140   1.447
 6811SOL    HW221333   6.021   5.002   1.449
 6812SOL     OW21334   4.130   3.433   3.416
 6812SOL    HW121335   4.198   3.497   3.451
 6812SOL    HW221336   4.109   3.364   3.485
 6813SOL     OW21337   4.514   2.492   0.754
 6813SOL    HW121338   4.531   2.487   0.852
 6813SOL    HW221339   4.468   2.408   0.723
 6814SOL     OW21340   2.762   3.736   1.220
 6814SOL    HW121341   2.690   3.734   1.290
 6814SOL    HW221342   2.733   3.680   1.142
 6815SOL     OW21343   2.411   0.672   1.527
 6815SOL    HW121344   2.340   0.717   1.582
 6815SOL    HW221345   2.401   0.573   1.535
 6816SOL     OW21346   6.437   4.599   7.014
 6816SOL    HW121347   6.445   4.565   0.087
 6816SOL    HW221348   6.492   4.541   6.953
 6817SOL     OW21349   0.127   1.418   5.685
 6817SOL    HW121350   0.102   1.322   5.688
 6817SOL    HW221351   0.115   1.454   5.592
 6818SOL     OW21352   3.836   6.445   2.491
 6818SOL    HW121353   3.801   6.394   2.569
 6818SOL    HW221354   3.822   6.543   2.505
 6819SOL     OW21355   3.242   0.586   3.928
 6819SOL    HW121356   3.183   0.665   3.912
 6819SOL    HW221357   3.336   0.609   3.901
 6820SOL     OW21358   1.470   4.579   3.316
 6820SOL    HW121359   1.416   4.529   3.249
 6820SOL    HW221360   1.553   4.528   3.337
 6821SOL     OW21361   2.483   2.424   4.917
 6821SOL    HW121362   2.384   2.407   4.914
 6821SOL    HW221363   2.505   2.475   4.999
 6822SOL     OW21364   5.659   2.066   5.722
 6822SOL    HW121365   5.675   2.028   5.631
 6822SOL    HW221366   5.739   2.119   5.751
 6823SOL     OW21367   2.978   3.162   2.915
 6823SOL    HW121368   2.960   3.259   2.935
 6823SOL    HW221369   3.015   3.154   2.822
 6824SOL     OW21370   0.703   4.363   6.643
 6824SOL    HW121371   0.628   4.400   6.698
 6824SOL    HW221372   0.786   4.416   6.660
 6825SOL     OW21373   4.919   0.025   2.214
 6825SOL    HW121374   4.908   6.967   2.275
 6825SOL    HW221375   4.848   0.092   2.233
 6826SOL     OW21376   2.110   3.383   2.749
 6826SOL    HW121377   2.092   3.385   2.847
 6826SOL    HW221378   2.184   3.318   2.731
 6827SOL     OW21379   5.591   5.965   6.452
 6827SOL    HW121380   5.626   6.025   6.524
 6827SOL    HW221381   5.491   5.969   6.452
 6828SOL     OW21382   1.038   2.160   1.163
 6828SOL    HW121383   0.944   2.167   1.197
 6828SOL    HW221384   1.078   2.252   1.158
 6829SOL     OW21385   5.123   6.261   3.697
 6829SOL    HW121386   5.217   6.234   3.717
 6829SOL    HW221387   5.060   6.207   3.752
 6830SOL     OW21388   5.394   1.729   3.615
 6830SOL    HW121389   5.388   1.783   3.698
 6830SOL    HW221390   5.407   1.632   3.639
 6831SOL     OW21391   0.771   0.724   5.457
 6831SOL    HW121392   0.763   0.640   5.511
 6831SOL    HW221393   0.683   0.772   5.457
 6832SOL     OW21394   2.987   5.120   2.304
 6832SOL    HW121395   2.941   5.120   2.215
 6832SOL    HW221396   3.032   5.032   2.319
 6833SOL     OW21397   3.465   4.745   6.888
 6833SOL    HW121398   3.518   4.819   6.846
 6833SOL    HW221399   3.419   4.779   6.970
 6834SOL     OW21400   4.085   6.234   2.120
 6834SOL    HW121401   4.027   6.176   2.063
 6834SOL    HW221402   4.079   6.203   2.215
 6835SOL     OW21403   3.762   6.627   4.971
 6835SOL    HW121404   3.771   6.688   4.892
 6835SOL    HW221405   3.705   6.671   5.041
 6836SOL     OW21406   3.638   6.635   6.891
 6836SOL    HW121407   3.674   6.544   6.873
 6836SOL    HW221408   3.568   6.630   6.963
 6837SOL     OW21409   1.826   3.380   2.004
 6837SOL    HW121410   1.823   3.432   1.918
 6837SOL    HW221411   1.919   3.346   2.018
 6838SOL     OW21412   2.085   1.548   0.015
 6838SOL    HW121413   1.985   1.551   0.009
 6838SOL    HW221414   2.121   1.500   6.956
 6839SOL     OW21415   4.099   0.976   0.367
 6839SOL    HW121416   4.093   0.935   0.276
 6839SOL    HW221417   4.193   0.968   0.401
 6840SOL     OW21418   1.901   1.487   6.366
 6840SOL    HW121419   1.902   1.583   6.395
 6840SOL    HW221420   1.850   1.432   6.432
 6841SOL     OW21421   6.413   2.851   6.210
 6841SOL    HW121422   6.476   2.869   6.286
 6841SOL    HW221423   6.332   2.803   6.245
 6842SOL     OW21424   2.465   5.337   2.365
 6842SOL    HW121425   2.502   5.340   2.458
 6842SOL    HW221426   2.514   5.402   2.308
 6843SOL     OW21427   4.708   0.027   6.793
 6843SOL    HW121428   4.703   0.081   6.878
 6843SOL    HW221429   4.773   6.973   6.806
 6844SOL     OW21430   5.300   0.779   5.014
 6844SOL    HW121431   5.311   0.720   5.094
 6844SOL    HW221432   5.361   0.858   5.023
 6845SOL     OW21433   4.915   2.508   2.803
 6845SOL    HW121434   4.844   2.567   2.765
 6845SOL    HW221435   4.880   2.415   2.813
 6846SOL     OW21436   2.944   3.791   0.448
 6846SOL    HW121437   2.951   3.701   0.404
 6846SOL    HW221438   3.000   3.792   0.531
 6847SOL     OW21439   5.980   3.794   4.058
 6847SOL    HW121440   6.056   3.740   4.093
 6847SOL    HW221441   5.909   3.732   4.023
 6848SOL     OW21442   5.382   5.002   3.363
 6848SOL    HW121443   5.336   4.914   3.363
 6848SOL    HW221444   5.359   5.051   3.279
 6849SOL     OW21445   3.759   3.842   6.509
 6849SOL    HW121446   3.827   3.904   6.548
 6849SOL    HW221447   3.723   3.881   6.424
 6850SOL     OW21448   4.124   1.308   3.573
 6850SOL    HW121449   4.060   1.237   3.600
 6850SOL    HW221450   4.073   1.388   3.541
 6851SOL     OW21451   1.907   2.992   3.414
 6851SOL    HW121452   1.887   2.944   3.499
 6851SOL    HW221453   1.981   3.057   3.429
 6852SOL     OW21454   2.887   5.370   0.401
 6852SOL    HW121455   2.925   5.403   0.487
 6852SOL    HW221456   2.855   5.276   0.413
 6853SOL     OW21457   4.844   3.074   6.918
 6853SOL    HW121458   4.896   3.140   6.864
 6853SOL    HW221459   4.748   3.104   6.924
 6854SOL     OW21460   5.316   6.366   6.134
 6854SOL    HW121461   5.294   6.285   6.189
 6854SOL    HW221462   5.380   6.341   6.062
 6855SOL     OW21463   4.190   5.058   3.783
 6855SOL    HW121464   4.240   5.122   3.726
 6855SOL    HW221465   4.181   4.970   3.735
 6856SOL     OW21466   1.197   1.822   6.936
 6856SOL    HW121467   1.287   1.842   6.976
 6856SOL    HW221468   1.206   1.816   6.836
 6857SOL     OW21469   1.236   3.959   5.537
 6857SOL    HW121470   1.320   4.012   5.552
 6857SOL    HW221471   1.228   3.888   5.607
 6858SOL     OW21472   2.867   4.159   1.561
 6858SOL    HW121473   2.871   4.238   1.500
 6858SOL    HW221474   2.918   4.180   1.645
 6859SOL     OW21475   0.930   1.213   2.591
 6859SOL    HW121476   0.895   1.264   2.511
 6859SOL    HW221477   0.960   1.278   2.661
 6860SOL     OW21478   0.792   6.818   1.672
 6860SOL    HW121479   0.738   6.735   1.686
 6860SOL    HW221480   0.889   6.793   1.665
 6861SOL     OW21481   4.834   2.125   5.192
 6861SOL    HW121482   4.770   2.151   5.265
 6861SOL    HW221483   4.901   2.198   5.178
 6862SOL     OW21484   0.688   4.658   5.309
 6862SOL    HW121485   0.751   4.714   5.362
 6862SOL    HW221486   0.729   4.635   5.221
 6863SOL     OW21487   6.745   6.951   5.079
 6863SOL    HW121488   6.648   6.949   5.055
 6863SOL    HW221489   6.770   0.023   5.107
 6864SOL     OW21490   1.582   4.014   5.733
 6864SOL    HW121491   1.574   3.917   5.709
 6864SOL    HW221492   1.527   4.069   5.671
 6865SOL     OW21493   2.099   6.832   4.078
 6865SOL    HW121494   2.149   6.906   4.123
 6865SOL    HW221495   2.108   6.842   3.979
 6866SOL     OW21496   0.556   4.151   1.812
 6866SOL    HW121497   0.630   4.131   1.747
 6866SOL    HW221498   0.474   4.177   1.762
 6867SOL     OW21499   2.586   3.568   0.057
 6867SOL    HW121500   2.545   3.636   0.118
 6867SOL    HW221501   2.527   3.487   0.053
 6868SOL     OW21502   2.477   4.876   4.617
 6868SOL    HW121503   2.449   4.895   4.711
 6868SOL    HW221504   2.483   4.961   4.566
 6869SOL     OW21505   3.969   0.483   6.003
 6869SOL    HW121506   4.063   0.449   6.003
 6869SOL    HW221507   3.969   0.581   6.025
 6870SOL     OW21508   0.062   2.870   0.365
 6870SOL    HW121509   0.115   2.936   0.420
 6870SOL    HW221510   0.054   2.784   0.415
 6871SOL     OW21511   0.537   3.803   2.608
 6871SOL    HW121512   0.586   3.795   2.695
 6871SOL    HW221513   0.602   3.826   2.535
 6872SOL     OW21514   2.367   3.141   0.815
 6872SOL    HW121515   2.387   3.166   0.910
 6872SOL    HW221516   2.333   3.221   0.766
 6873SOL     OW21517   1.064   4.024   4.552
 6873SOL    HW121518   0.998   3.978   4.491
 6873SOL    HW221519   1.153   3.978   4.545
 6874SOL     OW21520   5.468   6.371   2.906
 6874SOL    HW121521   5.393   6.353   2.842
 6874SOL    HW221522   5.431   6.385   2.997
 6875SOL     OW21523   1.546   2.790   0.924
 6875SOL    HW121524   1.489   2.871   0.936
 6875SOL    HW221525   1.531   2.727   1.000
 6876SOL     OW21526   4.429   5.843   3.163
 6876SOL    HW121527   4.381   5.921   3.122
 6876SOL    HW221528   4.450   5.864   3.258
 6877SOL     OW21529   1.371   3.440   2.297
 6877SOL    HW121530   1.390   3.420   2.393
 6877SOL    HW221531   1.299   3.380   2.264
 6878SOL     OW21532   1.944   0.388   4.174
 6878SOL    HW121533   1.870   0.349   4.120
 6878SOL    HW221534   1.913   0.400   4.269
 6879SOL     OW21535   1.832   2.099   0.458
 6879SOL    HW121536   1.904   2.147   0.509
 6879SOL    HW221537   1.823   2.006   0.493
 6880SOL     OW21538   1.460   5.207   6.587
 6880SOL    HW121539   1.526   5.144   6.545
 6880SOL    HW221540   1.417   5.262   6.516
 6881SOL     OW21541   1.283   3.183   0.548
 6881SOL    HW121542   1.320   3.272   0.520
 6881SOL    HW221543   1.276   3.124   0.468
 6882SOL     OW21544   2.716   6.157   6.688
 6882SOL    HW121545   2.653   6.208   6.630
 6882SOL    HW221546   2.798   6.134   6.636
 6883SOL     OW21547   4.802   0.317   0.268
 6883SOL    HW121548   4.882   0.327   0.209
 6883SOL    HW221549   4.730   0.380   0.239
 6884SOL     OW21550   1.834   3.903   2.894
 6884SOL    HW121551   1.871   3.978   2.839
 6884SOL    HW221552   1.787   3.941   2.973
 6885SOL     OW21553   5.493   5.942   4.153
 6885SOL    HW121554   5.516   5.978   4.243
 6885SOL    HW221555   5.516   6.009   4.083
 6886SOL     OW21556   4.707   2.074   6.610
 6886SOL    HW121557   4.746   2.093   6.520
 6886SOL    HW221558   4.766   2.113   6.681
 6887SOL     OW21559   5.328   6.007   6.521
 6887SOL    HW121560   5.305   6.036   6.614
 6887SOL    HW221561   5.285   5.919   6.502
 6888SOL     OW21562   5.757   5.068   6.727
 6888SOL    HW121563   5.681   5.109   6.677
 6888SOL    HW221564   5.722   5.006   6.796
 6889SOL     OW21565   0.494   2.137   6.886
 6889SOL    HW121566   0.594   2.142   6.888
 6889SOL    HW221567   0.458   2.202   6.820
 6890SOL     OW21568   4.528   5.328   2.710
 6890SOL    HW121569   4.622   5.308   2.682
 6890SOL    HW221570   4.465   5.266   2.662
 6891SOL     OW21571   1.865   1.304   1.074
 6891SOL    HW121572   1.806   1.374   1.115
 6891SOL    HW221573   1.923   1.346   1.004
 6892SOL     OW21574   3.110   0.822   4.351
 6892SOL    HW121575   3.031   0.862   4.305
 6892SOL    HW221576   3.148   0.888   4.416
 6893SOL     OW21577   6.885   3.008   6.976
 6893SOL    HW121578   6.899   2.930   0.016
 6893SOL    HW221579   6.841   2.977   6.892
 6894SOL     OW21580   5.274   5.477   0.624
 6894SOL    HW121581   5.326   5.458   0.708
 6894SOL    HW221582   5.337   5.481   0.547
 6895SOL     OW21583   0.789   6.286   1.781
 6895SOL    HW121584   0.727   6.207   1.787
 6895SOL    HW221585   0.751   6.355   1.720
 6896SOL     OW21586   4.238   2.283   4.663
 6896SOL    HW121587   4.250   2.351   4.736
 6896SOL    HW221588   4.164   2.221   4.687
 6897SOL     OW21589   5.006   3.668   5.127
 6897SOL    HW121590   4.921   3.630   5.090
 6897SOL    HW221591   5.012   3.647   5.224
 6898SOL     OW21592   2.553   1.273   1.128
 6898SOL    HW121593   2.631   1.336   1.122
 6898SOL    HW221594   2.471   1.323   1.156
 6899SOL     OW21595   5.857   6.131   2.566
 6899SOL    HW121596   5.801   6.184   2.630
 6899SOL    HW221597   5.833   6.034   2.574
 6900SOL     OW21598   6.561   4.345   5.393
 6900SOL    HW121599   6.656   4.375   5.400
 6900SOL    HW221600   6.558   4.259   5.342
 6901SOL     OW21601   4.657   4.714   0.115
 6901SOL    HW121602   4.694   4.805   0.097
 6901SOL    HW221603   4.682   4.652   0.040
 6902SOL     OW21604   0.752   5.955   6.755
 6902SOL    HW121605   0.705   5.954   6.844
 6902SOL    HW221606   0.807   5.872   6.746
 6903SOL     OW21607   2.003   5.420   4.264
 6903SOL    HW121608   2.090   5.401   4.220
 6903SOL    HW221609   2.012   5.409   4.363
 6904SOL     OW21610   6.835   6.468   4.836
 6904SOL    HW121611   6.808   6.564   4.824
 6904SOL    HW221612   6.797   6.413   4.762
 6905SOL     OW21613   4.871   5.829   6.141
 6905SOL    HW121614   4.904   5.894   6.073
 6905SOL    HW221615   4.870   5.737   6.100
 6906SOL     OW21616   3.860   1.544   3.587
 6906SOL    HW121617   3.780   1.523   3.531
 6906SOL    HW221618   3.909   1.621   3.546
 6907SOL     OW21619   6.283   1.556   0.857
 6907SOL    HW121620   6.186   1.549   0.880
 6907SOL    HW221621   6.329   1.614   0.924
 6908SOL     OW21622   2.698   4.382   7.007
 6908SOL    HW121623   2.639   4.346   0.058
 6908SOL    HW221624   2.747   4.307   6.963
 6909SOL     OW21625   5.986   6.039   2.342
 6909SOL    HW121626   5.936   6.097   2.407
 6909SOL    HW221627   6.001   5.949   2.384
 6910SOL     OW21628   1.547   2.915   3.635
 6910SOL    HW121629   1.529   2.990   3.572
 6910SOL    HW221630   1.640   2.881   3.621
 6911SOL     OW21631   2.623   6.783   5.896
 6911SOL    HW121632   2.628   6.700   5.952
 6911SOL    HW221633   2.590   6.859   5.953
 6912SOL     OW21634   2.599   3.513   6.202
 6912SOL    HW121635   2.652   3.598   6.200
 6912SOL    HW221636   2.505   3.532   6.228
 6913SOL     OW21637   4.706   6.350   5.881
 6913SOL    HW121638   4.803   6.345   5.902
 6913SOL    HW221639   4.655   6.376   5.964
 6914SOL     OW21640   6.483   3.376   1.523
 6914SOL    HW121641   6.427   3.297   1.497
 6914SOL    HW221642   6.529   3.412   1.442
 6915SOL     OW21643   0.801   3.279   2.625
 6915SOL    HW121644   0.727   3.265   2.691
 6915SOL    HW221645   0.871   3.208   2.638
 6916SOL     OW21646   4.503   6.314   7.002
 6916SOL    HW121647   4.495   6.413   6.990
 6916SOL    HW221648   4.595   6.285   6.974
 6917SOL     OW21649   5.577   5.199   1.277
 6917SOL    HW121650   5.566   5.178   1.374
 6917SOL    HW221651   5.555   5.118   1.223
 6918SOL     OW21652   2.258   3.085   1.608
 6918SOL    HW121653   2.178   3.078   1.667
 6918SOL    HW221654   2.278   3.181   1.591
 6919SOL     OW21655   6.527   6.360   3.494
 6919SOL    HW121656   6.509   6.291   3.424
 6919SOL    HW221657   6.543   6.314   3.582
 6920SOL     OW21658   5.609   0.800   5.392
 6920SOL    HW121659   5.697   0.781   5.349
 6920SOL    HW221660   5.599   0.743   5.474
 6921SOL     OW21661   3.969   0.268   4.273
 6921SOL    HW121662   3.947   0.345   4.332
 6921SOL    HW221663   4.061   0.235   4.294
 6922SOL     OW21664   1.242   5.495   5.855
 6922SOL    HW121665   1.246   5.576   5.795
 6922SOL    HW221666   1.285   5.517   5.943
 6923SOL     OW21667   6.146   0.055   2.343
 6923SOL    HW121668   6.153   6.976   2.347
 6923SOL    HW221669   6.230   0.093   2.304
 6924SOL     OW21670   3.423   6.297   0.946
 6924SOL    HW121671   3.473   6.379   0.917
 6924SOL    HW221672   3.463   6.217   0.901
 6925SOL     OW21673   5.972   6.369   6.193
 6925SOL    HW121674   6.014   6.387   6.104
 6925SOL    HW221675   5.996   6.277   6.223
 6926SOL     OW21676   2.791   2.046   0.227
 6926SOL    HW121677   2.763   2.087   0.141
 6926SOL    HW221678   2.887   2.018   0.221
 6927SOL     OW21679   4.627   0.809   0.611
 6927SOL    HW121680   4.701   0.876   0.620
 6927SOL    HW221681   4.548   0.852   0.567
 6928SOL     OW21682   4.224   5.151   1.108
 6928SOL    HW121683   4.229   5.054   1.133
 6928SOL    HW221684   4.316   5.187   1.096
 6929SOL     OW21685   6.161   5.578   1.161
 6929SOL    HW121686   6.222   5.610   1.088
 6929SOL    HW221687   6.190   5.617   1.248
 6930SOL     OW21688   1.152   6.934   0.521
 6930SOL    HW121689   1.244   6.946   0.485
 6930SOL    HW221690   1.156   6.902   0.616
 6931SOL     OW21691   2.917   3.090   1.011
 6931SOL    HW121692   2.860   3.080   1.093
 6931SOL    HW221693   3.012   3.101   1.038
 6932SOL     OW21694   4.698   5.506   0.049
 6932SOL    HW121695   4.599   5.499   0.039
 6932SOL    HW221696   4.721   5.503   0.147
 6933SOL     OW21697   3.114   4.978   6.378
 6933SOL    HW121698   3.200   5.029   6.379
 6933SOL    HW221699   3.041   5.035   6.414
 6934SOL     OW21700   5.100   4.137   6.777
 6934SOL    HW121701   5.014   4.087   6.790
 6934SOL    HW221702   5.154   4.130   6.861
 6935SOL     OW21703   5.226   5.473   1.466
 6935SOL    HW121704   5.216   5.387   1.516
 6935SOL    HW221705   5.263   5.454   1.375
 6936SOL     OW21706   0.841   2.024   4.743
 6936SOL    HW121707   0.892   2.001   4.660
 6936SOL    HW221708   0.875   2.110   4.781
 6937SOL     OW21709   5.264   5.536   0.214
 6937SOL    HW121710   5.284   5.633   0.227
 6937SOL    HW221711   5.187   5.509   0.272
 6938SOL     OW21712   1.343   0.611   5.042
 6938SOL    HW121713   1.421   0.553   5.063
 6938SOL    HW221714   1.259   0.558   5.048
 6939SOL     OW21715   5.898   4.164   3.898
 6939SOL    HW121716   5.897   4.118   3.987
 6939SOL    HW221717   5.876   4.260   3.910
 6940SOL     OW21718   3.178   6.468   0.839
 6940SOL    HW121719   3.266   6.450   0.796
 6940SOL    HW221720   3.122   6.526   0.778
 6941SOL     OW21721   3.383   3.503   2.553
 6941SOL    HW121722   3.316   3.487   2.625
 6941SOL    HW221723   3.470   3.532   2.593
 6942SOL     OW21724   6.236   6.725   1.846
 6942SOL    HW121725   6.264   6.647   1.902
 6942SOL    HW221726   6.139   6.716   1.821
 6943SOL     OW21727   4.673   5.131   6.333
 6943SOL    HW121728   4.586   5.180   6.331
 6943SOL    HW221729   4.748   5.197   6.337
 6944SOL     OW21730   1.398   4.193   4.976
 6944SOL    HW121731   1.488   4.233   4.996
 6944SOL    HW221732   1.327   4.262   4.989
 6945SOL     OW21733   5.585   2.581   1.126
 6945SOL    HW121734   5.525   2.654   1.159
 6945SOL    HW221735   5.671   2.583   1.177
 6946SOL     OW21736   4.446   5.907   2.513
 6946SOL    HW121737   4.436   5.937   2.607
 6946SOL    HW221738   4.363   5.926   2.462
 6947SOL     OW21739   4.936   5.099   5.350
 6947SOL    HW121740   4.891   5.035   5.412
 6947SOL    HW221741   4.915   5.074   5.256
 6948SOL     OW21742   0.478   4.944   6.938
 6948SOL    HW121743   0.537   4.906   7.009
 6948SOL    HW221744   0.477   4.883   6.859
 6949SOL     OW21745   2.723   1.249   3.828
 6949SOL    HW121746   2.751   1.239   3.732
 6949SOL    HW221747   2.802   1.279   3.882
 6950SOL     OW21748   0.718   0.512   4.828
 6950SOL    HW121749   0.807   0.508   4.783
 6950SOL    HW221750   0.664   0.432   4.802
 6951SOL     OW21751   0.147   5.098   6.035
 6951SOL    HW121752   0.175   5.191   6.061
 6951SOL    HW221753   0.195   5.032   6.092
 6952SOL     OW21754   3.787   5.706   3.272
 6952SOL    HW121755   3.775   5.782   3.208
 6952SOL    HW221756   3.873   5.717   3.322
 6953SOL     OW21757   5.149   1.235   1.001
 6953SOL    HW121758   5.075   1.226   0.934
 6953SOL    HW221759   5.146   1.326   1.042
 6954SOL     OW21760   6.111   3.788   0.246
 6954SOL    HW121761   6.018   3.766   0.217
 6954SOL    HW221762   6.167   3.705   0.246
 6955SOL     OW21763   4.890   6.714   2.112
 6955SOL    HW121764   4.980   6.677   2.137
 6955SOL    HW221765   4.892   6.814   2.118
 6956SOL     OW21766   5.543   5.572   2.404
 6956SOL    HW121767   5.537   5.632   2.484
 6956SOL    HW221768   5.451   5.543   2.377
 6957SOL     OW21769   5.342   5.735   6.364
 6957SOL    HW121770   5.284   5.668   6.411
 6957SOL    HW221771   5.300   5.759   6.277
 6958SOL     OW21772   2.891   3.463   3.758
 6958SOL    HW121773   2.880   3.393   3.687
 6958SOL    HW221774   2.937   3.543   3.718
 6959SOL     OW21775   0.933   4.320   2.837
 6959SOL    HW121776   0.977   4.294   2.923
 6959SOL    HW221777   0.861   4.387   2.856
 6960SOL     OW21778   3.042   4.449   0.391
 6960SOL    HW121779   2.951   4.467   0.355
 6960SOL    HW221780   3.070   4.355   0.367
 6961SOL     OW21781   4.689   1.733   5.557
 6961SOL    HW121782   4.618   1.786   5.511
 6961SOL    HW221783   4.646   1.657   5.607
 6962SOL     OW21784   2.652   0.008   6.688
 6962SOL    HW121785   2.744   7.000   6.659
 6962SOL    HW221786   2.621   0.082   6.629
 6963SOL     OW21787   4.794   6.339   0.702
 6963SOL    HW121788   4.889   6.368   0.692
 6963SOL    HW221789   4.787   6.273   0.777
 6964SOL     OW21790   1.830   0.011   5.568
 6964SOL    HW121791   1.839   0.010   5.469
 6964SOL    HW221792   1.809   6.939   5.600
 6965SOL     OW21793   0.761   1.870   0.228
 6965SOL    HW121794   0.757   1.771   0.219
 6965SOL    HW221795   0.843   1.905   0.182
 6966SOL     OW21796   1.355   6.801   1.441
 6966SOL    HW121797   1.275   6.853   1.470
 6966SOL    HW221798   1.424   6.864   1.404
 6967SOL     OW21799   4.642   1.475   6.246
 6967SOL    HW121800   4.659   1.435   6.156
 6967SOL    HW221801   4.544   1.476   6.265
 6968SOL     OW21802   4.035   6.173   2.397
 6968SOL    HW121803   4.101   6.098   2.410
 6968SOL    HW221804   4.016   6.216   2.485
 6969SOL     OW21805   1.881   1.623   1.817
 6969SOL    HW121806   1.785   1.624   1.845
 6969SOL    HW221807   1.889   1.582   1.726
 6970SOL     OW21808   3.581   4.853   5.601
 6970SOL    HW121809   3.622   4.778   5.550
 6970SOL    HW221810   3.643   4.932   5.600
 6971SOL     OW21811   6.862   4.625   0.279
 6971SOL    HW121812   6.783   4.682   0.258
 6971SOL    HW221813   6.856   4.540   0.227
 6972SOL     OW21814   5.270   3.566   1.916
 6972SOL    HW121815   5.199   3.539   1.851
 6972SOL    HW221816   5.234   3.635   1.978
 6973SOL     OW21817   1.193   3.157   3.004
 6973SOL    HW121818   1.285   3.181   3.032
 6973SOL    HW221819   1.186   3.057   2.993
 6974SOL     OW21820   3.616   4.039   2.830
 6974SOL    HW121821   3.611   4.069   2.925
 6974SOL    HW221822   3.528   4.055   2.785
 6975SOL     OW21823   3.012   5.513   4.690
 6975SOL    HW121824   2.933   5.530   4.748
 6975SOL    HW221825   3.016   5.583   4.618
 6976SOL     OW21826   4.606   3.994   6.126
 6976SOL    HW121827   4.661   3.978   6.209
 6976SOL    HW221828   4.511   3.970   6.144
 6977SOL     OW21829   4.085   4.777   0.963
 6977SOL    HW121830   4.034   4.863   0.962
 6977SOL    HW221831   4.173   4.790   0.918
 6978SOL     OW21832   5.708   3.543   1.691
 6978SOL    HW121833   5.791   3.589   1.721
 6978SOL    HW221834   5.728   3.448   1.667
 6979SOL     OW21835   1.189   4.063   1.743
 6979SOL    HW121836   1.234   4.136   1.796
 6979SOL    HW221837   1.255   3.991   1.722
 6980SOL     OW21838   1.769   6.040   3.135
 6980SOL    HW121839   1.820   6.096   3.200
 6980SOL    HW221840   1.818   5.953   3.121
 6981SOL     OW21841   3.884   2.849   6.767
 6981SOL    HW121842   3.914   2.790   6.692
 6981SOL    HW221843   3.830   2.924   6.730
 6982SOL     OW21844   1.978   1.134   3.571
 6982SOL    HW121845   2.025   1.183   3.644
 6982SOL    HW221846   1.897   1.088   3.608
 6983SOL     OW21847   5.052   0.533   4.541
 6983SOL    HW121848   5.012   0.442   4.551
 6983SOL    HW221849   5.150   0.524   4.522
 6984SOL     OW21850   0.733   2.652   3.347
 6984SOL    HW121851   0.803   2.696   3.292
 6984SOL    HW221852   0.739   2.683   3.441
 6985SOL     OW21853   6.241   3.550   0.211
 6985SOL    HW121854   6.186   3.490   0.152
 6985SOL    HW221855   6.319   3.499   0.246
 6986SOL     OW21856   4.509   5.096   5.533
 6986SOL    HW121857   4.467   5.085   5.623
 6986SOL    HW221858   4.540   5.190   5.522
 6987SOL     OW21859   0.683   1.781   6.213
 6987SOL    HW121860   0.675   1.710   6.143
 6987SOL    HW221861   0.599   1.785   6.266
 6988SOL     OW21862   3.730   1.667   6.273
 6988SOL    HW121863   3.674   1.612   6.211
 6988SOL    HW221864   3.714   1.638   6.367
 6989SOL     OW21865   0.400   5.302   2.464
 6989SOL    HW121866   0.451   5.289   2.379
 6989SOL    HW221867   0.356   5.216   2.490
 6990SOL     OW21868   3.849   2.225   0.910
 6990SOL    HW121869   3.899   2.301   0.952
 6990SOL    HW221870   3.848   2.147   0.972
 6991SOL     OW21871   6.112   3.578   2.022
 6991SOL    HW121872   6.060   3.585   2.107
 6991SOL    HW221873   6.209   3.562   2.044
 6992SOL     OW21874   0.838   5.913   0.321
 6992SOL    HW121875   0.739   5.916   0.304
 6992SOL    HW221876   0.866   5.996   0.368
 6993SOL     OW21877   4.527   1.309   1.726
 6993SOL    HW121878   4.563   1.251   1.799
 6993SOL    HW221879   4.590   1.386   1.710
 6994SOL     OW21880   2.798   0.348   3.468
 6994SOL    HW121881   2.810   0.249   3.478
 6994SOL    HW221882   2.711   0.375   3.511
 6995SOL     OW21883   0.210   4.090   1.327
 6995SOL    HW121884   0.114   4.109   1.348
 6995SOL    HW221885   0.224   3.991   1.323
 6996SOL     OW21886   1.124   1.117   0.278
 6996SOL    HW121887   1.128   1.190   0.346
 6996SOL    HW221888   1.034   1.074   0.279
 6997SOL     OW21889   5.829   5.358   5.589
 6997SOL    HW121890   5.763   5.287   5.569
 6997SOL    HW221891   5.782   5.444   5.609
 6998SOL     OW21892   6.423   1.228   0.033
 6998SOL    HW121893   6.422   1.322   7.018
 6998SOL    HW221894   6.348   1.217   0.098
 6999SOL     OW21895   0.274   3.540   0.549
 6999SOL    HW121896   0.190   3.592   0.562
 6999SOL    HW221897   0.345   3.576   0.610
 7000SOL     OW21898   0.063   6.726   3.475
 7000SOL    HW121899   0.020   6.786   3.408
 7000SOL    HW221900   0.078   6.636   3.435
 7001SOL     OW21901   0.386   1.814   4.425
 7001SOL    HW121902   0.461   1.751   4.445
 7001SOL    HW221903   0.311   1.764   4.381
 7002SOL     OW21904   0.298   5.037   2.671
 7002SOL    HW121905   0.293   5.117   2.730
 7002SOL    HW221906   0.242   4.963   2.710
 7003SOL     OW21907   6.497   4.794   1.394
 7003SOL    HW121908   6.576   4.854   1.408
 7003SOL    HW221909   6.507   4.713   1.453
 7004SOL     OW21910   2.106   6.457   0.377
 7004SOL    HW121911   2.097   6.389   0.450
 7004SOL    HW221912   2.035   6.443   0.309
 7005SOL     OW21913   0.815   6.333   0.340
 7005SOL    HW121914   0.881   6.335   0.414
 7005SOL    HW221915   0.743   6.401   0.357
 7006SOL     OW21916   1.276   0.093   4.762
 7006SOL    HW121917   1.187   0.110   4.721
 7006SOL    HW221918   1.340   0.165   4.734
 7007SOL     OW21919   2.813   6.969   5.659
 7007SOL    HW121920   2.886   6.944   5.723
 7007SOL    HW221921   2.845   0.021   5.599
 7008SOL     OW21922   5.813   4.057   3.660
 7008SOL    HW121923   5.849   4.062   3.753
 7008SOL    HW221924   5.788   3.962   3.640
 7009SOL     OW21925   4.612   5.290   1.788
 7009SOL    HW121926   4.642   5.287   1.692
 7009SOL    HW221927   4.662   5.221   1.840
 7010SOL     OW21928   5.292   4.095   1.728
 7010SOL    HW121929   5.358   4.031   1.687
 7010SOL    HW221930   5.212   4.045   1.760
 7011SOL     OW21931   3.175   5.840   6.798
 7011SOL    HW121932   3.175   5.795   6.887
 7011SOL    HW221933   3.086   5.829   6.755
 7012SOL     OW21934   6.571   2.504   0.350
 7012SOL    HW121935   6.576   2.404   0.350
 7012SOL    HW221936   6.486   2.533   0.306
 7013SOL     OW21937   2.713   1.404   0.243
 7013SOL    HW121938   2.639   1.392   0.309
 7013SOL    HW221939   2.787   1.339   0.263
 7014SOL     OW21940   6.478   2.840   1.439
 7014SOL    HW121941   6.549   2.906   1.414
 7014SOL    HW221942   6.388   2.876   1.414
 7015SOL     OW21943   5.181   6.217   0.907
 7015SOL    HW121944   5.262   6.177   0.951
 7015SOL    HW221945   5.182   6.316   0.923
 7016SOL     OW21946   3.238   4.582   0.825
 7016SOL    HW121947   3.235   4.546   0.731
 7016SOL    HW221948   3.184   4.523   0.885
 7017SOL     OW21949   4.835   5.267   4.492
 7017SOL    HW121950   4.822   5.204   4.416
 7017SOL    HW221951   4.872   5.353   4.458
 7018SOL     OW21952   4.781   2.917   4.472
 7018SOL    HW121953   4.827   2.973   4.404
 7018SOL    HW221954   4.694   2.885   4.436
 7019SOL     OW21955   4.413   4.979   1.983
 7019SOL    HW121956   4.371   4.911   1.923
 7019SOL    HW221957   4.384   4.964   2.077
 7020SOL     OW21958   0.529   2.425   6.686
 7020SOL    HW121959   0.486   2.349   6.637
 7020SOL    HW221960   0.572   2.487   6.620
 7021SOL     OW21961   0.910   1.686   5.270
 7021SOL    HW121962   0.899   1.721   5.363
 7021SOL    HW221963   0.999   1.714   5.234
 7022SOL     OW21964   3.668   1.643   0.820
 7022SOL    HW121965   3.634   1.701   0.746
 7022SOL    HW221966   3.646   1.686   0.908
 7023SOL     OW21967   0.733   1.921   0.897
 7023SOL    HW121968   0.821   1.957   0.928
 7023SOL    HW221969   0.716   1.832   0.940
 7024SOL     OW21970   3.695   3.286   4.090
 7024SOL    HW121971   3.734   3.220   4.025
 7024SOL    HW221972   3.605   3.253   4.120
 7025SOL     OW21973   4.021   6.394   0.556
 7025SOL    HW121974   4.002   6.484   0.594
 7025SOL    HW221975   3.978   6.323   0.613
 7026SOL     OW21976   3.848   2.207   1.521
 7026SOL    HW121977   3.880   2.112   1.517
 7026SOL    HW221978   3.896   2.255   1.594
 7027SOL     OW21979   2.195   5.379   2.356
 7027SOL    HW121980   2.288   5.364   2.324
 7027SOL    HW221981   2.198   5.414   2.450
 7028SOL     OW21982   2.908   0.364   3.224
 7028SOL    HW121983   2.899   0.448   3.170
 7028SOL    HW221984   2.855   0.373   3.308
 7029SOL     OW21985   3.177   3.537   4.880
 7029SOL    HW121986   3.218   3.626   4.902
 7029SOL    HW221987   3.078   3.547   4.873
 7030SOL     OW21988   6.352   1.467   5.034
 7030SOL    HW121989   6.295   1.549   5.023
 7030SOL    HW221990   6.308   1.389   4.992
 7031SOL     OW21991   4.139   6.846   0.468
 7031SOL    HW121992   4.116   6.784   0.392
 7031SOL    HW221993   4.149   6.792   0.552
 7032SOL     OW21994   3.877   6.201   4.454
 7032SOL    HW121995   3.913   6.137   4.521
 7032SOL    HW221996   3.778   6.212   4.468
 7033SOL     OW21997   1.795   2.171   5.195
 7033SOL    HW121998   1.817   2.243   5.262
 7033SOL    HW221999   1.865   2.099   5.201
 7034SOL     OW22000   6.630   1.217   3.496
 7034SOL    HW122001   6.711   1.163   3.519
 7034SOL    HW222002   6.582   1.243   3.579
 7035SOL     OW22003   1.825   0.665   0.692
 7035SOL    HW122004   1.749   0.624   0.641
 7035SOL    HW222005   1.818   0.639   0.788
 7036SOL     OW22006   0.051   1.251   1.731
 7036SOL    HW122007   0.096   1.319   1.789
 7036SOL    HW222008   6.977   1.239   1.760
 7037SOL     OW22009   1.045   0.617   6.198
 7037SOL    HW122010   1.016   0.526   6.168
 7037SOL    HW222011   1.135   0.610   6.241
 7038SOL     OW22012   1.569   3.565   6.661
 7038SOL    HW122013   1.666   3.553   6.680
 7038SOL    HW222014   1.515   3.520   6.731
 7039SOL     OW22015   0.464   6.252   2.942
 7039SOL    HW122016   0.525   6.185   2.986
 7039SOL    HW222017   0.372   6.242   2.978
 7040SOL     OW22018   4.632   2.624   5.096
 7040SOL    HW122019   4.668   2.682   5.023
 7040SOL    HW222020   4.639   2.672   5.184
 7041SOL     OW22021   1.492   0.259   3.752
 7041SOL    HW122022   1.564   0.295   3.812
 7041SOL    HW222023   1.518   0.276   3.657
 7042SOL     OW22024   4.661   5.832   5.571
 7042SOL    HW122025   4.584   5.885   5.605
 7042SOL    HW222026   4.673   5.850   5.473
 7043SOL     OW22027   1.757   4.970   1.785
 7043SOL    HW122028   1.744   5.064   1.816
 7043SOL    HW222029   1.776   4.912   1.863
 7044SOL     OW22030   4.951   6.251   4.140
 7044SOL    HW122031   5.047   6.235   4.160
 7044SOL    HW222032   4.918   6.330   4.192
 7045SOL     OW22033   6.201   5.837   2.481
 7045SOL    HW122034   6.243   5.746   2.471
 7045SOL    HW222035   6.164   5.846   2.574
 7046SOL     OW22036   2.906   2.275   4.253
 7046SOL    HW122037   2.813   2.239   4.255
 7046SOL    HW222038   2.937   2.293   4.346
 7047SOL     OW22039   1.097   6.511   0.584
 7047SOL    HW122040   1.067   6.589   0.528
 7047SOL    HW222041   1.017   6.466   0.624
 7048SOL     OW22042   6.729   5.986   4.688
 7048SOL    HW122043   6.632   5.970   4.669
 7048SOL    HW222044   6.758   5.926   4.763
 7049SOL     OW22045   3.750   0.935   2.827
 7049SOL    HW122046   3.724   1.007   2.764
 7049SOL    HW222047   3.693   0.854   2.813
 7050SOL     OW22048   3.891   4.107   1.358
 7050SOL    HW122049   3.979   4.138   1.392
 7050SOL    HW222050   3.840   4.185   1.321
 7051SOL     OW22051   0.775   0.868   1.332
 7051SOL    HW122052   0.769   0.922   1.248
 7051SOL    HW222053   0.683   0.847   1.366
 7052SOL     OW22054   4.839   0.039   2.555
 7052SOL    HW122055   4.857   6.977   2.501
 7052SOL    HW222056   4.801   0.014   2.644
 7053SOL     OW22057   2.088   3.170   3.053
 7053SOL    HW122058   2.030   3.091   3.032
 7053SOL    HW222059   2.182   3.149   3.026
 7054SOL     OW22060   6.403   0.365   0.441
 7054SOL    HW122061   6.325   0.364   0.502
 7054SOL    HW222062   6.409   0.277   0.393
 7055SOL     OW22063   2.090   0.975   6.831
 7055SOL    HW122064   2.149   0.909   6.877
 7055SOL    HW222065   1.999   0.935   6.819
 7056SOL     OW22066   6.979   5.657   1.215
 7056SOL    HW122067   7.001   5.679   1.310
 7056SOL    HW222068   6.946   5.563   1.210
 7057SOL     OW22069   3.204   4.935   4.858
 7057SOL    HW122070   3.130   4.933   4.925
 7057SOL    HW222071   3.203   5.023   4.810
 7058SOL     OW22072   5.096   2.715   5.788
 7058SOL    HW122073   5.141   2.631   5.815
 7058SOL    HW222074   4.999   2.697   5.771
 7059SOL     OW22075   1.885   0.521   5.415
 7059SOL    HW122076   1.930   0.562   5.495
 7059SOL    HW222077   1.897   0.422   5.417
 7060SOL     OW22078   3.373   0.747   1.953
 7060SOL    HW122079   3.318   0.812   2.005
 7060SOL    HW222080   3.362   0.764   1.855
 7061SOL     OW22081   0.712   2.341   2.509
 7061SOL    HW122082   0.779   2.395   2.560
 7061SOL    HW222083   0.674   2.397   2.435
 7062SOL     OW22084   3.706   1.209   2.948
 7062SOL    HW122085   3.757   1.295   2.950
 7062SOL    HW222086   3.609   1.227   2.968
 7063SOL     OW22087   1.053   1.004   1.847
 7063SOL    HW122088   1.123   1.015   1.777
 7063SOL    HW222089   0.997   0.924   1.826
 7064SOL     OW22090   4.613   1.537   5.200
 7064SOL    HW122091   4.531   1.546   5.255
 7064SOL    HW222092   4.692   1.571   5.252
 7065SOL     OW22093   3.835   4.629   5.991
 7065SOL    HW122094   3.768   4.596   5.924
 7065SOL    HW222095   3.906   4.560   6.004
 7066SOL     OW22096   3.794   0.465   6.546
 7066SOL    HW122097   3.819   0.454   6.450
 7066SOL    HW222098   3.865   0.424   6.604
 7067SOL     OW22099   2.067   3.491   6.563
 7067SOL    HW122100   2.127   3.553   6.512
 7067SOL    HW222101   2.020   3.430   6.499
 7068SOL     OW22102   5.194   3.451   4.392
 7068SOL    HW122103   5.262   3.432   4.463
 7068SOL    HW222104   5.111   3.399   4.411
 7069SOL     OW22105   5.704   0.241   6.415
 7069SOL    HW122106   5.776   0.184   6.377
 7069SOL    HW222107   5.673   0.306   6.345
 7070SOL     OW22108   0.219   6.733   4.738
 7070SOL    HW122109   0.147   6.751   4.671
 7070SOL    HW222110   0.282   6.663   4.702
 7071SOL     OW22111   5.205   6.129   6.728
 7071SOL    HW122112   5.141   6.073   6.781
 7071SOL    HW222113   5.195   6.225   6.754
 7072SOL     OW22114   0.211   3.767   6.344
 7072SOL    HW122115   0.194   3.811   6.432
 7072SOL    HW222116   0.124   3.755   6.296
 7073SOL     OW22117   5.175   1.136   3.149
 7073SOL    HW122118   5.248   1.199   3.176
 7073SOL    HW222119   5.213   1.043   3.142
 7074SOL     OW22120   5.510   3.993   2.851
 7074SOL    HW122121   5.503   4.076   2.906
 7074SOL    HW222122   5.471   4.010   2.761
 7075SOL     OW22123   3.402   5.346   4.102
 7075SOL    HW122124   3.447   5.310   4.184
 7075SOL    HW222125   3.308   5.374   4.125
 7076SOL     OW22126   5.638   2.347   2.369
 7076SOL    HW122127   5.677   2.274   2.425
 7076SOL    HW222128   5.543   2.363   2.396
 7077SOL     OW22129   3.459   5.646   1.201
 7077SOL    HW122130   3.368   5.608   1.187
 7077SOL    HW222131   3.528   5.579   1.171
 7078SOL     OW22132   5.408   0.564   6.993
 7078SOL    HW122133   5.459   0.645   0.002
 7078SOL    HW222134   5.469   0.484   6.993
 7079SOL     OW22135   1.524   6.513   4.827
 7079SOL    HW122136   1.557   6.476   4.740
 7079SOL    HW222137   1.431   6.546   4.816
 7080SOL     OW22138   4.047   1.937   5.540
 7080SOL    HW122139   4.094   2.021   5.511
 7080SOL    HW222140   4.011   1.890   5.459
 7081SOL     OW22141   1.582   0.592   0.541
 7081SOL    HW122142   1.623   0.672   0.495
 7081SOL    HW222143   1.483   0.601   0.541
 7082SOL     OW22144   6.367   4.634   2.893
 7082SOL    HW122145   6.369   4.670   2.799
 7082SOL    HW222146   6.300   4.685   2.947
 7083SOL     OW22147   6.751   2.954   2.689
 7083SOL    HW122148   6.724   2.945   2.785
 7083SOL    HW222149   6.676   2.924   2.630
 7084SOL     OW22150   0.577   5.938   0.355
 7084SOL    HW122151   0.558   6.033   0.332
 7084SOL    HW222152   0.492   5.884   0.350
 7085SOL     OW22153   0.690   3.281   1.770
 7085SOL    HW122154   0.788   3.278   1.791
 7085SOL    HW222155   0.661   3.375   1.756
 7086SOL     OW22156   5.799   1.062   3.882
 7086SOL    HW122157   5.819   1.037   3.977
 7086SOL    HW222158   5.837   0.992   3.821
 7087SOL     OW22159   5.460   3.283   3.271
 7087SOL    HW122160   5.377   3.300   3.324
 7087SOL    HW222161   5.534   3.340   3.306
 7088SOL     OW22162   6.470   1.993   4.528
 7088SOL    HW122163   6.514   2.003   4.617
 7088SOL    HW222164   6.387   2.048   4.526
 7089SOL     OW22165   2.977   6.109   1.956
 7089SOL    HW122166   2.935   6.022   1.978
 7089SOL    HW222167   2.911   6.168   1.909
 7090SOL     OW22168   4.578   2.389   1.304
 7090SOL    HW122169   4.509   2.396   1.232
 7090SOL    HW222170   4.534   2.369   1.391
 7091SOL     OW22171   6.664   6.382   6.523
 7091SOL    HW122172   6.589   6.409   6.583
 7091SOL    HW222173   6.693   6.289   6.545
 7092SOL     OW22174   4.364   1.459   6.262
 7092SOL    HW122175   4.359   1.361   6.244
 7092SOL    HW222176   4.341   1.510   6.180
 7093SOL     OW22177   3.246   2.967   1.418
 7093SOL    HW122178   3.147   2.957   1.409
 7093SOL    HW222179   3.268   3.007   1.508
 7094SOL     OW22180   2.922   0.220   5.548
 7094SOL    HW122181   3.003   0.166   5.575
 7094SOL    HW222182   2.951   0.312   5.523
 7095SOL     OW22183   2.471   4.479   4.771
 7095SOL    HW122184   2.527   4.548   4.725
 7095SOL    HW222185   2.468   4.395   4.716
 7096SOL     OW22186   0.410   1.070   1.529
 7096SOL    HW122187   0.426   1.147   1.467
 7096SOL    HW222188   0.314   1.070   1.557
 7097SOL     OW22189   4.530   0.789   1.344
 7097SOL    HW122190   4.596   0.789   1.420
 7097SOL    HW222191   4.438   0.803   1.380
 7098SOL     OW22192   1.062   6.685   3.784
 7098SOL    HW122193   1.142   6.686   3.845
 7098SOL    HW222194   1.045   6.777   3.750
 7099SOL     OW22195   2.723   2.108   3.871
 7099SOL    HW122196   2.802   2.163   3.898
 7099SOL    HW222197   2.664   2.093   3.950
 7100SOL     OW22198   5.750   4.263   1.125
 7100SOL    HW122199   5.704   4.257   1.214
 7100SOL    HW222200   5.748   4.173   1.080
 7101SOL     OW22201   2.473   6.066   5.765
 7101SOL    HW122202   2.460   5.981   5.713
 7101SOL    HW222203   2.519   6.045   5.851
 7102SOL     OW22204   5.426   0.788   1.746
 7102SOL    HW122205   5.518   0.829   1.741
 7102SOL    HW222206   5.408   0.756   1.839
 7103SOL     OW22207   4.938   3.832   3.065
 7103SOL    HW122208   4.883   3.858   3.145
 7103SOL    HW222209   4.917   3.895   2.989
 7104SOL     OW22210   5.262   3.939   3.474
 7104SOL    HW122211   5.237   3.910   3.382
 7104SOL    HW222212   5.201   4.013   3.504
 7105SOL     OW22213   3.364   4.169   4.088
 7105SOL    HW122214   3.292   4.153   4.156
 7105SOL    HW222215   3.451   4.186   4.135
 7106SOL     OW22216   3.173   2.503   0.645
 7106SOL    HW122217   3.234   2.425   0.659
 7106SOL    HW222218   3.225   2.588   0.656
 7107SOL     OW22219   3.570   0.822   6.313
 7107SOL    HW122220   3.541   0.728   6.293
 7107SOL    HW222221   3.543   0.881   6.238
 7108SOL     OW22222   4.569   0.837   1.903
 7108SOL    HW122223   4.652   0.785   1.924
 7108SOL    HW222224   4.489   0.791   1.942
 7109SOL     OW22225   2.459   5.791   6.352
 7109SOL    HW122226   2.490   5.871   6.403
 7109SOL    HW222227   2.369   5.808   6.314
 7110SOL     OW22228   3.145   6.355   4.377
 7110SOL    HW122229   3.225   6.299   4.357
 7110SOL    HW222230   3.064   6.317   4.331
 7111SOL     OW22231   6.883   0.128   4.681
 7111SOL    HW122232   6.937   0.050   4.713
 7111SOL    HW222233   6.882   0.127   4.581
 7112SOL     OW22234   1.491   5.023   4.946
 7112SOL    HW122235   1.406   5.076   4.956
 7112SOL    HW222236   1.488   4.943   5.005
 7113SOL     OW22237   3.593   5.746   5.405
 7113SOL    HW122238   3.634   5.780   5.489
 7113SOL    HW222239   3.629   5.798   5.327
 7114SOL     OW22240   5.207   4.965   0.413
 7114SOL    HW122241   5.292   4.917   0.390
 7114SOL    HW222242   5.182   4.945   0.508
 7115SOL     OW22243   6.321   3.539   6.573
 7115SOL    HW122244   6.386   3.606   6.609
 7115SOL    HW222245   6.371   3.466   6.525
 7116SOL     OW22246   6.442   4.213   4.063
 7116SOL    HW122247   6.351   4.186   4.033
 7116SOL    HW222248   6.495   4.132   4.087
 7117SOL     OW22249   5.933   7.008   3.222
 7117SOL    HW122250   6.005   6.939   3.225
 7117SOL    HW222251   5.973   0.078   3.217
 7118SOL     OW22252   4.183   4.211   5.286
 7118SOL    HW122253   4.086   4.205   5.260
 7118SOL    HW222254   4.225   4.288   5.237
 7119SOL     OW22255   3.664   6.334   5.238
 7119SOL    HW122256   3.754   6.376   5.223
 7119SOL    HW222257   3.664   6.242   5.199
 7120SOL     OW22258   4.755   0.666   0.309
 7120SOL    HW122259   4.663   0.635   0.285
 7120SOL    HW222260   4.775   0.642   0.404
 7121SOL     OW22261   1.812   6.046   2.247
 7121SOL    HW122262   1.844   5.960   2.286
 7121SOL    HW222263   1.725   6.071   2.288
 7122SOL     OW22264   2.874   1.093   6.709
 7122SOL    HW122265   2.961   1.044   6.712
 7122SOL    HW222266   2.863   1.136   6.619
 7123SOL     OW22267   5.158   5.302   6.226
 7123SOL    HW122268   5.166   5.373   6.156
 7123SOL    HW222269   5.232   5.236   6.215
 7124SOL     OW22270   1.242   2.291   1.359
 7124SOL    HW122271   1.240   2.205   1.409
 7124SOL    HW222272   1.148   2.323   1.343
 7125SOL     OW22273   0.613   6.471   1.593
 7125SOL    HW122274   0.522   6.513   1.592
 7125SOL    HW222275   0.606   6.376   1.565
 7126SOL     OW22276   3.407   5.403   1.071
 7126SOL    HW122277   3.314   5.368   1.058
 7126SOL    HW222278   3.469   5.357   1.007
 7127SOL     OW22279   2.496   6.740   5.386
 7127SOL    HW122280   2.541   6.744   5.475
 7127SOL    HW222281   2.525   6.657   5.338
 7128SOL     OW22282   4.370   3.867   6.173
 7128SOL    HW122283   4.284   3.872   6.226
 7128SOL    HW222284   4.427   3.793   6.209
 7129SOL     OW22285   0.516   0.242   0.819
 7129SOL    HW122286   0.525   0.155   0.867
 7129SOL    HW222287   0.589   0.251   0.751
 7130SOL     OW22288   3.250   6.625   3.923
 7130SOL    HW122289   3.256   6.718   3.888
 7130SOL    HW222290   3.289   6.621   4.015
 7131SOL     OW22291   3.419   1.302   2.986
 7131SOL    HW122292   3.350   1.299   3.059
 7131SOL    HW222293   3.442   1.397   2.966
 7132SOL     OW22294   5.424   4.696   0.677
 7132SOL    HW122295   5.365   4.662   0.604
 7132SOL    HW222296   5.450   4.620   0.737
 7133SOL     OW22297   5.225   5.473   2.815
 7133SOL    HW122298   5.267   5.428   2.736
 7133SOL    HW222299   5.233   5.573   2.806
 7134SOL     OW22300   5.425   5.381   0.834
 7134SOL    HW122301   5.345   5.388   0.894
 7134SOL    HW222302   5.504   5.422   0.879
 7135SOL     OW22303   1.649   2.321   0.980
 7135SOL    HW122304   1.561   2.332   1.025
 7135SOL    HW222305   1.659   2.390   0.908
 7136SOL     OW22306   2.083   1.796   1.722
 7136SOL    HW122307   2.128   1.762   1.640
 7136SOL    HW222308   2.007   1.736   1.747
 7137SOL     OW22309   2.857   2.122   1.456
 7137SOL    HW122310   2.864   2.160   1.548
 7137SOL    HW222311   2.780   2.058   1.452
 7138SOL     OW22312   0.957   2.619   0.556
 7138SOL    HW122313   0.931   2.681   0.631
 7138SOL    HW222314   0.959   2.525   0.590
 7139SOL     OW22315   6.356   6.347   0.700
 7139SOL    HW122316   6.325   6.422   0.642
 7139SOL    HW222317   6.283   6.323   0.765
 7140SOL     OW22318   6.700   3.466   0.425
 7140SOL    HW122319   6.795   3.475   0.394
 7140SOL    HW222320   6.656   3.392   0.374
 7141SOL     OW22321   3.517   0.435   0.991
 7141SOL    HW122322   3.519   0.535   0.981
 7141SOL    HW222323   3.555   0.410   1.080
 7142SOL     OW22324   3.056   6.888   4.765
 7142SOL    HW122325   3.085   6.847   4.852
 7142SOL    HW222326   3.136   6.900   4.706
 7143SOL     OW22327   2.952   4.144   6.448
 7143SOL    HW122328   3.009   4.062   6.458
 7143SOL    HW222329   2.928   4.156   6.352
 7144SOL     OW22330   6.678   0.700   5.853
 7144SOL    HW122331   6.627   0.719   5.769
 7144SOL    HW222332   6.776   0.693   5.830
 7145SOL     OW22333   5.238   2.333   6.544
 7145SOL    HW122334   5.220   2.326   6.446
 7145SOL    HW222335   5.151   2.350   6.592
 7146SOL     OW22336   1.827   2.324   5.435
 7146SOL    HW122337   1.913   2.374   5.430
 7146SOL    HW222338   1.828   2.262   5.514
 7147SOL     OW22339   6.284   6.525   2.061
 7147SOL    HW122340   6.289   6.431   2.028
 7147SOL    HW222341   6.265   6.525   2.159
 7148SOL     OW22342   6.542   6.989   0.901
 7148SOL    HW122343   6.570   6.895   0.885
 7148SOL    HW222344   6.543   7.009   0.999
 7149SOL     OW22345   6.096   4.983   5.742
 7149SOL    HW122346   6.172   4.983   5.807
 7149SOL    HW222347   6.130   4.961   5.651
 7150SOL     OW22348   3.604   3.190   6.964
 7150SOL    HW122349   3.506   3.173   6.958
 7150SOL    HW222350   3.621   3.288   6.953
 7151SOL     OW22351   3.452   1.225   0.917
 7151SOL    HW122352   3.421   1.316   0.889
 7151SOL    HW222353   3.542   1.206   0.876
 7152SOL     OW22354   6.299   1.464   6.214
 7152SOL    HW122355   6.329   1.500   6.303
 7152SOL    HW222356   6.305   1.537   6.146
 7153SOL     OW22357   3.394   5.821   0.836
 7153SOL    HW122358   3.426   5.869   0.918
 7153SOL    HW222359   3.379   5.887   0.763
 7154SOL     OW22360   4.327   1.957   1.873
 7154SOL    HW122361   4.243   1.988   1.917
 7154SOL    HW222362   4.405   1.979   1.932
 7155SOL     OW22363   2.436   1.098   1.761
 7155SOL    HW122364   2.403   1.087   1.667
 7155SOL    HW222365   2.491   1.182   1.767
 7156SOL     OW22366   6.097   3.218   6.372
 7156SOL    HW122367   6.078   3.279   6.295
 7156SOL    HW222368   6.041   3.245   6.451
 7157SOL     OW22369   6.590   4.271   6.086
 7157SOL    HW122370   6.685   4.242   6.073
 7157SOL    HW222371   6.538   4.253   6.003
 7158SOL     OW22372   4.516   6.926   3.875
 7158SOL    HW122373   4.561   6.864   3.811
 7158SOL    HW222374   4.423   6.945   3.843
 7159SOL     OW22375   0.919   6.378   2.796
 7159SOL    HW122376   0.938   6.329   2.711
 7159SOL    HW222377   0.822   6.367   2.819
 7160SOL     OW22378   0.156   0.046   3.456
 7160SOL    HW122379   0.076   0.096   3.422
 7160SOL    HW222380   0.129   6.973   3.481
 7161SOL     OW22381   3.728   2.900   3.126
 7161SOL    HW122382   3.679   2.915   3.212
 7161SOL    HW222383   3.816   2.948   3.129
 7162SOL     OW22384   0.071   5.413   1.671
 7162SOL    HW122385   0.096   5.496   1.622
 7162SOL    HW222386   0.123   5.336   1.635
 7163SOL     OW22387   6.651   1.753   1.848
 7163SOL    HW122388   6.676   1.678   1.787
 7163SOL    HW222389   6.623   1.716   1.937
 7164SOL     OW22390   2.130   1.325   6.454
 7164SOL    HW122391   2.082   1.237   6.460
 7164SOL    HW222392   2.077   1.388   6.397
 7165SOL     OW22393   5.568   1.555   0.576
 7165SOL    HW122394   5.533   1.646   0.598
 7165SOL    HW222395   5.668   1.558   0.573
 7166SOL     OW22396   6.488   5.938   6.463
 7166SOL    HW122397   6.472   5.851   6.417
 7166SOL    HW222398   6.443   5.937   6.553
 7167SOL     OW22399   5.913   2.557   4.754
 7167SOL    HW122400   5.965   2.505   4.686
 7167SOL    HW222401   5.911   2.506   4.840
 7168SOL     OW22402   2.931   1.159   1.721
 7168SOL    HW122403   2.940   1.088   1.790
 7168SOL    HW222404   3.001   1.147   1.651
 7169SOL     OW22405   1.835   3.582   6.735
 7169SOL    HW122406   1.877   3.558   6.822
 7169SOL    HW222407   1.895   3.555   6.660
 7170SOL     OW22408   3.995   1.149   0.610
 7170SOL    HW122409   4.064   1.115   0.546
 7170SOL    HW222410   4.029   1.142   0.703
 7171SOL     OW22411   6.973   4.648   0.530
 7171SOL    HW122412   6.937   4.585   0.598
 7171SOL    HW222413   6.921   4.639   0.445
 7172SOL     OW22414   1.414   1.916   4.178
 7172SOL    HW122415   1.471   1.874   4.249
 7172SOL    HW222416   1.442   2.011   4.165
 7173SOL     OW22417   4.827   5.574   6.066
 7173SOL    HW122418   4.783   5.550   5.980
 7173SOL    HW222419   4.766   5.550   6.142
 7174SOL     OW22420   6.786   4.429   2.267
 7174SOL    HW122421   6.828   4.460   2.353
 7174SOL    HW222422   6.827   4.478   2.191
 7175SOL     OW22423   6.080   3.552   6.415
 7175SOL    HW122424   6.031   3.472   6.449
 7175SOL    HW222425   6.163   3.567   6.469
 7176SOL     OW22426   0.929   0.636   5.240
 7176SOL    HW122427   0.892   0.544   5.229
 7176SOL    HW222428   0.874   0.686   5.307
 7177SOL     OW22429   1.550   5.547   3.446
 7177SOL    HW122430   1.588   5.459   3.472
 7177SOL    HW222431   1.512   5.541   3.353
 7178SOL     OW22432   2.010   0.394   5.060
 7178SOL    HW122433   1.941   0.440   5.117
 7178SOL    HW222434   1.971   0.374   4.970
 7179SOL     OW22435   3.093   5.530   6.237
 7179SOL    HW122436   3.074   5.609   6.179
 7179SOL    HW222437   3.011   5.474   6.246
 7180SOL     OW22438   1.592   3.455   1.043
 7180SOL    HW122439   1.672   3.471   1.102
 7180SOL    HW222440   1.597   3.363   1.005
 7181SOL     OW22441   2.304   1.848   5.765
 7181SOL    HW122442   2.206   1.827   5.759
 7181SOL    HW222443   2.356   1.773   5.724
 7182SOL     OW22444   1.996   1.732   4.231
 7182SOL    HW122445   1.897   1.719   4.230
 7182SOL    HW222446   2.034   1.706   4.142
 7183SOL     OW22447   0.714   6.992   2.156
 7183SOL    HW122448   0.795   7.013   2.211
 7183SOL    HW222449   0.740   6.979   2.060
 7184SOL     OW22450   6.581   0.328   4.054
 7184SOL    HW122451   6.533   0.362   4.135
 7184SOL    HW222452   6.553   0.234   4.036
 7185SOL     OW22453   4.166   1.023   4.544
 7185SOL    HW122454   4.085   0.990   4.591
 7185SOL    HW222455   4.247   1.001   4.597
 7186SOL     OW22456   0.325   0.365   6.598
 7186SOL    HW122457   0.350   0.342   6.504
 7186SOL    HW222458   0.252   0.434   6.597
 7187SOL     OW22459   3.119   3.087   4.357
 7187SOL    HW122460   3.150   3.028   4.283
 7187SOL    HW222461   3.188   3.091   4.428
 7188SOL     OW22462   3.993   4.451   0.444
 7188SOL    HW122463   4.081   4.472   0.402
 7188SOL    HW222464   3.932   4.411   0.375
 7189SOL     OW22465   6.640   2.553   5.727
 7189SOL    HW122466   6.604   2.646   5.732
 7189SOL    HW222467   6.738   2.556   5.706
 7190SOL     OW22468   5.601   5.177   1.576
 7190SOL    HW122469   5.583   5.095   1.630
 7190SOL    HW222470   5.610   5.256   1.638
 7191SOL     OW22471   0.280   4.977   4.274
 7191SOL    HW122472   0.292   4.980   4.175
 7191SOL    HW222473   0.182   4.975   4.296
 7192SOL     OW22474   2.293   4.528   6.659
 7192SOL    HW122475   2.227   4.566   6.724
 7192SOL    HW222476   2.282   4.429   6.654
 7193SOL     OW22477   3.007   2.181   2.751
 7193SOL    HW122478   2.963   2.095   2.775
 7193SOL    HW222479   3.078   2.164   2.682
 7194SOL     OW22480   3.212   2.700   6.132
 7194SOL    HW122481   3.154   2.779   6.113
 7194SOL    HW222482   3.231   2.651   6.047
 7195SOL     OW22483   0.409   4.798   4.971
 7195SOL    HW122484   0.317   4.786   4.934
 7195SOL    HW222485   0.411   4.761   5.064
 7196SOL     OW22486   3.434   4.195   1.898
 7196SOL    HW122487   3.531   4.197   1.874
 7196SOL    HW222488   3.379   4.211   1.816
 7197SOL     OW22489   2.941   4.228   5.871
 7197SOL    HW122490   2.894   4.159   5.817
 7197SOL    HW222491   2.881   4.307   5.884
 7198SOL     OW22492   0.707   0.545   1.943
 7198SOL    HW122493   0.728   0.521   1.848
 7198SOL    HW222494   0.652   0.628   1.945
 7199SOL     OW22495   7.001   1.290   2.265
 7199SOL    HW122496   0.000   1.207   2.317
 7199SOL    HW222497   6.965   1.360   2.326
 7200SOL     OW22498   1.030   2.551   0.862
 7200SOL    HW122499   0.988   2.632   0.821
 7200SOL    HW222500   1.127   2.548   0.838
 7201SOL     OW22501   5.637   5.634   3.930
 7201SOL    HW122502   5.539   5.625   3.911
 7201SOL    HW222503   5.684   5.551   3.902
 7202SOL     OW22504   4.862   0.877   5.595
 7202SOL    HW122505   4.844   0.883   5.693
 7202SOL    HW222506   4.924   0.950   5.567
 7203SOL     OW22507   0.298   1.439   0.970
 7203SOL    HW122508   0.304   1.529   1.013
 7203SOL    HW222509   0.256   1.375   1.034
 7204SOL     OW22510   6.244   0.169   1.869
 7204SOL    HW122511   6.258   0.220   1.784
 7204SOL    HW222512   6.149   0.136   1.872
 7205SOL     OW22513   2.928   1.943   4.060
 7205SOL    HW122514   2.984   2.025   4.050
 7205SOL    HW222515   2.848   1.950   4.000
 7206SOL     OW22516   2.443   3.680   0.874
 7206SOL    HW122517   2.368   3.682   0.939
 7206SOL    HW222518   2.413   3.722   0.788
 7207SOL     OW22519   2.025   1.163   4.094
 7207SOL    HW122520   2.079   1.246   4.106
 7207SOL    HW222521   2.069   1.103   4.028
 7208SOL     OW22522   2.974   0.230   4.300
 7208SOL    HW122523   2.931   0.251   4.388
 7208SOL    HW222524   3.012   0.138   4.302
 7209SOL     OW22525   3.316   2.069   2.134
 7209SOL    HW122526   3.247   2.135   2.164
 7209SOL    HW222527   3.279   1.976   2.145
 7210SOL     OW22528   2.991   1.407   3.324
 7210SOL    HW122529   2.970   1.479   3.390
 7210SOL    HW222530   3.011   1.322   3.373
 7211SOL     OW22531   3.900   5.870   4.893
 7211SOL    HW122532   3.989   5.901   4.926
 7211SOL    HW222533   3.863   5.802   4.957
 7212SOL     OW22534   6.897   4.473   5.954
 7212SOL    HW122535   6.952   4.543   5.999
 7212SOL    HW222536   6.889   4.393   6.013
 7213SOL     OW22537   3.949   1.885   0.545
 7213SOL    HW122538   3.963   1.878   0.446
 7213SOL    HW222539   3.959   1.980   0.574
 7214SOL     OW22540   6.952   0.630   6.327
 7214SOL    HW122541   6.954   0.614   6.426
 7214SOL    HW222542   6.879   0.695   6.306
 7215SOL     OW22543   6.808   2.676   2.712
 7215SOL    HW122544   6.896   2.672   2.666
 7215SOL    HW222545   6.756   2.755   2.678
 7216SOL     OW22546   3.288   6.709   2.838
 7216SOL    HW122547   3.303   6.630   2.778
 7216SOL    HW222548   3.192   6.736   2.833
 7217SOL     OW22549   1.246   2.862   3.414
 7217SOL    HW122550   1.302   2.859   3.496
 7217SOL    HW222551   1.299   2.828   3.336
 7218SOL     OW22552   6.450   4.345   4.472
 7218SOL    HW122553   6.435   4.392   4.385
 7218SOL    HW222554   6.366   4.349   4.526
 7219SOL     OW22555   3.473   5.744   2.673
 7219SOL    HW122556   3.478   5.646   2.656
 7219SOL    HW222557   3.400   5.763   2.739
 7220SOL     OW22558   6.087   4.437   4.802
 7220SOL    HW122559   6.020   4.507   4.774
 7220SOL    HW222560   6.117   4.385   4.723
 7221SOL     OW22561   3.431   5.653   4.088
 7221SOL    HW122562   3.476   5.570   4.120
 7221SOL    HW222563   3.434   5.657   3.988
 7222SOL     OW22564   0.333   5.694   4.381
 7222SOL    HW122565   0.381   5.624   4.433
 7222SOL    HW222566   0.244   5.712   4.423
 7223SOL     OW22567   0.014   3.620   1.652
 7223SOL    HW122568   0.020   3.536   1.706
 7223SOL    HW222569   0.027   3.699   1.711
 7224SOL     OW22570   4.021   1.710   3.400
 7224SOL    HW122571   4.079   1.781   3.439
 7224SOL    HW222572   4.069   1.622   3.402
 7225SOL     OW22573   1.528   6.553   0.841
 7225SOL    HW122574   1.481   6.591   0.921
 7225SOL    HW222575   1.607   6.500   0.872
 7226SOL     OW22576   6.025   6.317   0.886
 7226SOL    HW122577   5.941   6.323   0.940
 7226SOL    HW222578   6.015   6.369   0.802
 7227SOL     OW22579   2.228   0.812   1.686
 7227SOL    HW122580   2.196   0.848   1.774
 7227SOL    HW222581   2.150   0.771   1.637
 7228SOL     OW22582   6.929   3.320   2.537
 7228SOL    HW122583   7.019   3.293   2.503
 7228SOL    HW222584   6.919   3.291   2.632
 7229SOL     OW22585   6.738   0.696   5.119
 7229SOL    HW122586   6.677   0.728   5.047
 7229SOL    HW222587   6.833   0.717   5.095
 7230SOL     OW22588   2.196   5.061   4.257
 7230SOL    HW122589   2.141   5.095   4.334
 7230SOL    HW222590   2.150   4.983   4.215
 7231SOL     OW22591   4.660   1.452   6.634
 7231SOL    HW122592   4.752   1.452   6.673
 7231SOL    HW222593   4.606   1.378   6.675
 7232SOL     OW22594   5.057   7.016   3.163
 7232SOL    HW122595   5.034   0.064   3.094
 7232SOL    HW222596   5.147   0.016   3.202
 7233SOL     OW22597   6.588   1.261   4.324
 7233SOL    HW122598   6.608   1.170   4.288
 7233SOL    HW222599   6.671   1.317   4.322
 7234SOL     OW22600   5.144   3.985   2.712
 7234SOL    HW122601   5.140   4.078   2.749
 7234SOL    HW222602   5.225   3.939   2.748
 7235SOL     OW22603   0.123   6.129   1.331
 7235SOL    HW122604   0.157   6.048   1.284
 7235SOL    HW222605   0.074   6.187   1.267
 7236SOL     OW22606   2.207   2.500   3.049
 7236SOL    HW122607   2.213   2.439   2.969
 7236SOL    HW222608   2.246   2.454   3.129
 7237SOL     OW22609   5.470   0.984   0.195
 7237SOL    HW122610   5.371   0.979   0.185
 7237SOL    HW222611   5.493   1.017   0.287
 7238SOL     OW22612   3.913   3.091   0.803
 7238SOL    HW122613   3.943   3.144   0.883
 7238SOL    HW222614   3.832   3.038   0.827
 7239SOL     OW22615   0.017   2.773   2.593
 7239SOL    HW122616   0.096   2.756   2.535
 7239SOL    HW222617   7.013   2.870   2.590
 7240SOL     OW22618   6.857   1.937   6.150
 7240SOL    HW122619   6.930   1.911   6.213
 7240SOL    HW222620   6.788   1.865   6.147
 7241SOL     OW22621   2.622   1.315   1.790
 7241SOL    HW122622   2.718   1.333   1.768
 7241SOL    HW222623   2.597   1.363   1.873
 7242SOL     OW22624   6.016   5.240   5.130
 7242SOL    HW122625   6.064   5.315   5.084
 7242SOL    HW222626   6.020   5.158   5.073
 7243SOL     OW22627   6.160   4.215   6.719
 7243SOL    HW122628   6.074   4.201   6.767
 7243SOL    HW222629   6.147   4.282   6.645
 7244SOL     OW22630   0.100   6.750   6.675
 7244SOL    HW122631   0.080   6.656   6.701
 7244SOL    HW222632   0.024   6.810   6.701
 7245SOL     OW22633   1.133   3.237   0.174
 7245SOL    HW122634   1.073   3.209   0.099
 7245SOL    HW222635   1.183   3.320   0.148
 7246SOL     OW22636   3.312   0.122   3.945
 7246SOL    HW122637   3.277   0.032   3.969
 7246SOL    HW222638   3.244   0.171   3.890
 7247SOL     OW22639   2.795   2.712   5.806
 7247SOL    HW122640   2.760   2.632   5.856
 7247SOL    HW222641   2.719   2.775   5.789
 7248SOL     OW22642   3.483   0.705   4.721
 7248SOL    HW122643   3.480   0.711   4.622
 7248SOL    HW222644   3.392   0.682   4.756
 7249SOL     OW22645   3.876   5.216   1.890
 7249SOL    HW122646   3.896   5.220   1.987
 7249SOL    HW222647   3.844   5.306   1.858
 7250SOL     OW22648   4.932   5.826   5.708
 7250SOL    HW122649   4.927   5.854   5.804
 7250SOL    HW222650   4.840   5.820   5.670
 7251SOL     OW22651   0.208   5.602   5.548
 7251SOL    HW122652   0.116   5.626   5.518
 7251SOL    HW222653   0.219   5.502   5.546
 7252SOL     OW22654   3.350   4.066   2.139
 7252SOL    HW122655   3.301   4.015   2.068
 7252SOL    HW222656   3.396   4.145   2.097
 7253SOL     OW22657   1.315   5.699   5.282
 7253SOL    HW122658   1.342   5.787   5.243
 7253SOL    HW222659   1.363   5.685   5.369
 7254SOL     OW22660   5.225   3.887   3.885
 7254SOL    HW122661   5.311   3.934   3.865
 7254SOL    HW222662   5.215   3.877   3.984
 7255SOL     OW22663   5.351   3.328   6.731
 7255SOL    HW122664   5.351   3.408   6.671
 7255SOL    HW222665   5.444   3.293   6.740
 7256SOL     OW22666   3.437   6.469   5.866
 7256SOL    HW122667   3.418   6.544   5.929
 7256SOL    HW222668   3.525   6.428   5.889
 7257SOL     OW22669   0.821   1.096   4.570
 7257SOL    HW122670   0.863   1.130   4.653
 7257SOL    HW222671   0.813   1.171   4.504
 7258SOL     OW22672   6.015   1.758   3.333
 7258SOL    HW122673   6.020   1.674   3.279
 7258SOL    HW222674   5.919   1.784   3.345
 7259SOL     OW22675   0.719   4.484   2.886
 7259SOL    HW122676   0.646   4.547   2.859
 7259SOL    HW222677   0.710   4.462   2.983
 7260SOL     OW22678   5.520   3.506   1.138
 7260SOL    HW122679   5.446   3.557   1.095
 7260SOL    HW222680   5.608   3.542   1.107
 7261SOL     OW22681   0.071   4.379   0.137
 7261SOL    HW122682   0.071   4.279   0.148
 7261SOL    HW222683   7.004   4.408   0.100
 7262SOL     OW22684   6.370   1.908   5.906
 7262SOL    HW122685   6.383   2.006   5.920
 7262SOL    HW222686   6.365   1.889   5.808
 7263SOL     OW22687   0.738   5.511   0.307
 7263SOL    HW122688   0.726   5.478   0.401
 7263SOL    HW222689   0.826   5.560   0.300
 7264SOL     OW22690   5.742   1.577   0.849
 7264SOL    HW122691   5.738   1.496   0.908
 7264SOL    HW222692   5.799   1.558   0.770
 7265SOL     OW22693   4.160   5.630   5.332
 7265SOL    HW122694   4.076   5.655   5.382
 7265SOL    HW222695   4.230   5.602   5.397
 7266SOL     OW22696   6.955   0.520   3.740
 7266SOL    HW122697   6.920   0.444   3.796
 7266SOL    HW222698   0.031   0.535   3.761
 7267SOL     OW22699   6.226   5.463   4.723
 7267SOL    HW122700   6.306   5.410   4.751
 7267SOL    HW222701   6.256   5.541   4.668
 7268SOL     OW22702   6.188   6.446   3.701
 7268SOL    HW122703   6.200   6.350   3.674
 7268SOL    HW222704   6.261   6.501   3.660
 7269SOL     OW22705   2.291   5.166   5.226
 7269SOL    HW122706   2.320   5.258   5.198
 7269SOL    HW222707   2.371   5.109   5.242
 7270SOL     OW22708   0.842   1.624   3.863
 7270SOL    HW122709   0.905   1.562   3.817
 7270SOL    HW222710   0.811   1.695   3.800
 7271SOL     OW22711   0.636   4.091   3.573
 7271SOL    HW122712   0.714   4.037   3.603
 7271SOL    HW222713   0.585   4.125   3.652
 7272SOL     OW22714   6.164   5.653   2.865
 7272SOL    HW122715   6.111   5.731   2.832
 7272SOL    HW222716   6.223   5.682   2.940
 7273SOL     OW22717   0.180   2.979   5.596
 7273SOL    HW122718   0.275   3.009   5.590
 7273SOL    HW222719   0.132   3.006   5.512
 7274SOL     OW22720   0.722   4.676   6.730
 7274SOL    HW122721   0.738   4.766   6.771
 7274SOL    HW222722   0.626   4.666   6.707
 7275SOL     OW22723   6.234   6.897   3.074
 7275SOL    HW122724   6.192   6.888   3.164
 7275SOL    HW222725   6.314   6.957   3.080
 7276SOL     OW22726   4.653   6.730   3.725
 7276SOL    HW122727   4.630   6.718   3.629
 7276SOL    HW222728   4.673   6.641   3.766
 7277SOL     OW22729   4.740   0.225   5.723
 7277SOL    HW122730   4.740   0.296   5.653
 7277SOL    HW222731   4.671   0.245   5.792
 7278SOL     OW22732   3.089   3.872   2.446
 7278SOL    HW122733   3.160   3.803   2.458
 7278SOL    HW222734   3.132   3.963   2.444
 7279SOL     OW22735   3.926   5.748   6.975
 7279SOL    HW122736   4.020   5.779   6.991
 7279SOL    HW222737   3.917   5.720   6.880
 7280SOL     OW22738   4.537   0.374   5.850
 7280SOL    HW122739   4.601   0.451   5.854
 7280SOL    HW222740   4.537   0.326   5.937
 7281SOL     OW22741   4.227   1.466   6.807
 7281SOL    HW122742   4.195   1.555   6.775
 7281SOL    HW222743   4.150   1.405   6.819
 7282SOL     OW22744   5.954   5.311   2.113
 7282SOL    HW122745   5.916   5.276   2.026
 7282SOL    HW222746   5.916   5.401   2.132
 7283SOL     OW22747   2.636   0.770   3.545
 7283SOL    HW122748   2.727   0.729   3.539
 7283SOL    HW222749   2.600   0.787   3.454
 7284SOL     OW22750   6.925   3.828   5.251
 7284SOL    HW122751   6.849   3.853   5.311
 7284SOL    HW222752   6.947   3.905   5.191
 7285SOL     OW22753   5.130   5.573   1.855
 7285SOL    HW122754   5.177   5.487   1.836
 7285SOL    HW222755   5.134   5.593   1.953
 7286SOL     OW22756   2.549   2.783   1.165
 7286SOL    HW122757   2.462   2.796   1.117
 7286SOL    HW222758   2.624   2.796   1.100
 7287SOL     OW22759   6.653   0.750   6.508
 7287SOL    HW122760   6.568   0.795   6.537
 7287SOL    HW222761   6.676   0.778   6.415
 7288SOL     OW22762   4.056   0.169   6.365
 7288SOL    HW122763   4.139   0.193   6.315
 7288SOL    HW222764   3.979   0.221   6.329
 7289SOL     OW22765   5.337   1.909   3.249
 7289SOL    HW122766   5.272   1.913   3.173
 7289SOL    HW222767   5.422   1.866   3.218
 7290SOL     OW22768   2.277   5.222   4.853
 7290SOL    HW122769   2.310   5.274   4.931
 7290SOL    HW222770   2.216   5.280   4.798
 7291SOL     OW22771   2.237   6.234   1.416
 7291SOL    HW122772   2.328   6.194   1.406
 7291SOL    HW222773   2.245   6.328   1.449
 7292SOL     OW22774   2.630   6.701   3.249
 7292SOL    HW122775   2.557   6.707   3.316
 7292SOL    HW222776   2.631   6.784   3.193
 7293SOL     OW22777   1.844   1.442   4.813
 7293SOL    HW122778   1.914   1.503   4.849
 7293SOL    HW222779   1.882   1.390   4.736
 7294SOL     OW22780   2.393   5.030   0.344
 7294SOL    HW122781   2.369   4.945   0.297
 7294SOL    HW222782   2.452   5.008   0.423
 7295SOL     OW22783   0.372   1.598   0.564
 7295SOL    HW122784   0.390   1.678   0.620
 7295SOL    HW222785   0.275   1.594   0.541
 7296SOL     OW22786   2.910   4.609   0.756
 7296SOL    HW122787   2.931   4.599   0.854
 7296SOL    HW222788   2.872   4.700   0.740
 7297SOL     OW22789   4.330   6.366   0.683
 7297SOL    HW122790   4.409   6.425   0.666
 7297SOL    HW222791   4.293   6.334   0.596
 7298SOL     OW22792   5.956   4.088   4.791
 7298SOL    HW122793   5.890   4.158   4.818
 7298SOL    HW222794   5.976   4.097   4.693
 7299SOL     OW22795   6.612   2.864   0.976
 7299SOL    HW122796   6.582   2.808   0.899
 7299SOL    HW222797   6.655   2.948   0.942
 7300SOL     OW22798   4.967   5.633   0.997
 7300SOL    HW122799   4.983   5.609   0.901
 7300SOL    HW222800   4.977   5.732   1.008
 7301SOL     OW22801   6.520   6.958   5.914
 7301SOL    HW122802   6.572   6.889   5.863
 7301SOL    HW222803   6.466   6.913   5.984
 7302SOL     OW22804   0.105   1.005   0.218
 7302SOL    HW122805   0.102   1.086   0.276
 7302SOL    HW222806   0.020   0.954   0.226
 7303SOL     OW22807   3.559   0.563   6.646
 7303SOL    HW122808   3.649   0.547   6.607
 7303SOL    HW222809   3.566   0.571   6.746
 7304SOL     OW22810   4.065   3.505   5.946
 7304SOL    HW122811   4.017   3.515   5.859
 7304SOL    HW222812   4.133   3.578   5.955
 7305SOL     OW22813   5.405   1.555   0.197
 7305SOL    HW122814   5.341   1.630   0.213
 7305SOL    HW222815   5.366   1.492   0.130
 7306SOL     OW22816   4.863   4.210   1.405
 7306SOL    HW122817   4.790   4.148   1.433
 7306SOL    HW222818   4.837   4.257   1.321
 7307SOL     OW22819   3.244   6.414   1.829
 7307SOL    HW122820   3.217   6.460   1.914
 7307SOL    HW222821   3.252   6.481   1.755
 7308SOL     OW22822   6.747   3.704   4.101
 7308SOL    HW122823   6.781   3.640   4.032
 7308SOL    HW222824   6.766   3.668   4.192
 7309SOL     OW22825   5.068   6.650   0.482
 7309SOL    HW122826   5.116   6.737   0.492
 7309SOL    HW222827   5.133   6.580   0.451
 7310SOL     OW22828   2.519   5.555   1.171
 7310SOL    HW122829   2.550   5.482   1.111
 7310SOL    HW222830   2.596   5.592   1.223
 7311SOL     OW22831   2.724   2.103   2.005
 7311SOL    HW122832   2.673   2.088   2.090
 7311SOL    HW222833   2.814   2.141   2.026
 7312SOL     OW22834   0.033   2.248   5.440
 7312SOL    HW122835   0.067   2.303   5.517
 7312SOL    HW222836   0.071   2.156   5.445
 7313SOL     OW22837   4.301   2.128   6.494
 7313SOL    HW122838   4.308   2.217   6.540
 7313SOL    HW222839   4.276   2.059   6.561
 7314SOL     OW22840   6.928   3.697   4.975
 7314SOL    HW122841   0.002   3.670   4.961
 7314SOL    HW222842   6.920   3.748   5.061
 7315SOL     OW22843   6.972   0.314   3.937
 7315SOL    HW122844   0.046   0.345   3.928
 7315SOL    HW222845   6.940   0.333   4.030
 7316SOL     OW22846   3.815   3.367   5.622
 7316SOL    HW122847   3.744   3.345   5.555
 7316SOL    HW222848   3.886   3.297   5.619
 7317SOL     OW22849   3.563   0.731   2.759
 7317SOL    HW122850   3.614   0.698   2.680
 7317SOL    HW222851   3.465   0.718   2.744
 7318SOL     OW22852   0.884   1.892   1.587
 7318SOL    HW122853   0.902   1.801   1.625
 7318SOL    HW222854   0.950   1.957   1.625
 7319SOL     OW22855   6.111   4.505   6.873
 7319SOL    HW122856   6.190   4.478   6.818
 7319SOL    HW222857   6.047   4.555   6.816
 7320SOL     OW22858   0.424   3.525   2.132
 7320SOL    HW122859   0.499   3.586   2.159
 7320SOL    HW222860   0.455   3.465   2.058
 7321SOL     OW22861   2.449   1.419   4.474
 7321SOL    HW122862   2.533   1.461   4.510
 7321SOL    HW222863   2.371   1.474   4.503
 7322SOL     OW22864   0.834   4.120   3.139
 7322SOL    HW122865   0.883   4.206   3.148
 7322SOL    HW222866   0.770   4.126   3.061
 7323SOL     OW22867   1.866   2.132   3.505
 7323SOL    HW122868   1.823   2.222   3.515
 7323SOL    HW222869   1.878   2.111   3.408
 7324SOL     OW22870   5.734   0.869   3.565
 7324SOL    HW122871   5.737   0.784   3.512
 7324SOL    HW222872   5.640   0.903   3.568
 7325SOL     OW22873   3.872   6.258   6.059
 7325SOL    HW122874   3.781   6.277   6.096
 7325SOL    HW222875   3.928   6.340   6.065
 7326SOL     OW22876   2.645   6.282   5.872
 7326SOL    HW122877   2.649   6.349   5.946
 7326SOL    HW222878   2.730   6.285   5.819
 7327SOL     OW22879   0.921   2.765   6.239
 7327SOL    HW122880   0.892   2.849   6.285
 7327SOL    HW222881   1.011   2.738   6.273
 7328SOL     OW22882   3.259   6.875   6.687
 7328SOL    HW122883   3.352   6.838   6.698
 7328SOL    HW222884   3.233   6.925   6.770
 7329SOL     OW22885   4.268   3.530   0.585
 7329SOL    HW122886   4.293   3.536   0.488
 7329SOL    HW222887   4.330   3.469   0.632
 7330SOL     OW22888   3.270   1.383   6.744
 7330SOL    HW122889   3.186   1.364   6.795
 7330SOL    HW222890   3.264   1.475   6.704
 7331SOL     OW22891   5.155   0.469   2.470
 7331SOL    HW122892   5.252   0.488   2.485
 7331SOL    HW222893   5.106   0.478   2.557
 7332SOL     OW22894   2.554   6.025   0.048
 7332SOL    HW122895   2.583   5.932   0.026
 7332SOL    HW222896   2.629   6.089   0.029
 7333SOL     OW22897   0.627   4.783   3.017
 7333SOL    HW122898   0.578   4.697   3.023
 7333SOL    HW222899   0.643   4.819   3.109
 7334SOL     OW22900   3.722   5.926   5.245
 7334SOL    HW122901   3.676   6.000   5.196
 7334SOL    HW222902   3.787   5.965   5.310
 7335SOL     OW22903   1.680   2.406   2.602
 7335SOL    HW122904   1.750   2.451   2.547
 7335SOL    HW222905   1.607   2.470   2.624
 7336SOL     OW22906   1.518   5.957   4.146
 7336SOL    HW122907   1.598   6.016   4.160
 7336SOL    HW222908   1.549   5.865   4.123
 7337SOL     OW22909   1.212   3.136   2.317
 7337SOL    HW122910   1.152   3.070   2.362
 7337SOL    HW222911   1.306   3.122   2.348
 7338SOL     OW22912   6.780   2.210   1.552
 7338SOL    HW122913   6.813   2.265   1.628
 7338SOL    HW222914   6.856   2.187   1.491
 7339SOL     OW22915   6.739   6.017   4.142
 7339SOL    HW122916   6.654   5.997   4.093
 7339SOL    HW222917   6.723   6.091   4.208
 7340SOL     OW22918   2.385   0.212   0.030
 7340SOL    HW122919   2.423   0.138   6.995
 7340SOL    HW222920   2.349   0.284   6.991
 7341SOL     OW22921   6.169   2.205   0.218
 7341SOL    HW122922   6.219   2.232   0.300
 7341SOL    HW222923   6.071   2.205   0.236
 7342SOL     OW22924   6.835   6.284   2.640
 7342SOL    HW122925   6.748   6.235   2.634
 7342SOL    HW222926   6.881   6.281   2.552
 7343SOL     OW22927   5.415   3.187   0.807
 7343SOL    HW122928   5.380   3.234   0.726
 7343SOL    HW222929   5.511   3.212   0.821
 7344SOL     OW22930   1.398   6.015   6.129
 7344SOL    HW122931   1.333   6.010   6.204
 7344SOL    HW222932   1.355   6.060   6.051
 7345SOL     OW22933   3.767   3.465   5.957
 7345SOL    HW122934   3.761   3.370   5.925
 7345SOL    HW222935   3.859   3.484   5.989
 7346SOL     OW22936   3.788   5.469   2.732
 7346SOL    HW122937   3.820   5.561   2.753
 7346SOL    HW222938   3.797   5.452   2.634
 7347SOL     OW22939   6.432   2.308   0.129
 7347SOL    HW122940   6.471   2.275   0.215
 7347SOL    HW222941   6.339   2.274   0.119
 7348SOL     OW22942   1.741   4.436   2.705
 7348SOL    HW122943   1.651   4.392   2.701
 7348SOL    HW222944   1.798   4.402   2.630
 7349SOL     OW22945   3.820   0.964   0.935
 7349SOL    HW122946   3.872   0.899   0.991
 7349SOL    HW222947   3.810   0.927   0.843
 7350SOL     OW22948   2.706   0.724   5.462
 7350SOL    HW122949   2.698   0.721   5.363
 7350SOL    HW222950   2.773   0.794   5.488
 7351SOL     OW22951   4.342   4.905   3.948
 7351SOL    HW122952   4.429   4.881   3.905
 7351SOL    HW222953   4.285   4.954   3.882
 7352SOL     OW22954   0.469   2.546   3.218
 7352SOL    HW122955   0.551   2.602   3.227
 7352SOL    HW222956   0.472   2.469   3.282
 7353SOL     OW22957   6.226   0.574   6.905
 7353SOL    HW122958   6.181   0.509   6.844
 7353SOL    HW222959   6.201   0.554   6.999
 7354SOL     OW22960   1.396   1.979   3.216
 7354SOL    HW122961   1.462   2.051   3.235
 7354SOL    HW222962   1.437   1.890   3.238
 7355SOL     OW22963   0.175   2.052   6.050
 7355SOL    HW122964   0.099   2.102   6.092
 7355SOL    HW222965   0.185   2.081   5.955
 7356SOL     OW22966   4.447   3.635   6.304
 7356SOL    HW122967   4.528   3.593   6.263
 7356SOL    HW222968   4.365   3.590   6.270
 7357SOL     OW22969   5.403   5.784   1.867
 7357SOL    HW122970   5.409   5.767   1.768
 7357SOL    HW222971   5.423   5.699   1.916
 7358SOL     OW22972   5.816   2.052   2.875
 7358SOL    HW122973   5.895   2.087   2.926
 7358SOL    HW222974   5.836   1.959   2.844
 7359SOL     OW22975   4.717   0.386   6.501
 7359SOL    HW122976   4.790   0.429   6.447
 7359SOL    HW222977   4.738   0.289   6.514
 7360SOL     OW22978   2.675   3.246   5.304
 7360SOL    HW122979   2.633   3.161   5.269
 7360SOL    HW222980   2.712   3.229   5.395
 7361SOL     OW22981   4.784   0.220   2.372
 7361SOL    HW122982   4.687   0.219   2.397
 7361SOL    HW222983   4.836   0.163   2.436
 7362SOL     OW22984   3.709   5.185   6.618
 7362SOL    HW122985   3.804   5.183   6.650
 7362SOL    HW222986   3.651   5.223   6.690
 7363SOL     OW22987   3.739   0.569   0.826
 7363SOL    HW122988   3.818   0.573   0.887
 7363SOL    HW222989   3.661   0.613   0.869
 7364SOL     OW22990   4.819   6.999   1.756
 7364SOL    HW122991   4.890   6.946   1.711
 7364SOL    HW222992   4.766   0.028   1.688
 7365SOL     OW22993   6.010   4.650   2.424
 7365SOL    HW122994   6.062   4.734   2.413
 7365SOL    HW222995   5.912   4.668   2.410
 7366SOL     OW22996   2.931   1.366   3.970
 7366SOL    HW122997   2.963   1.344   4.063
 7366SOL    HW222998   2.926   1.465   3.959
 7367SOL     OW22999   5.074   1.220   6.625
 7367SOL    HW123000   5.141   1.146   6.630
 7367SOL    HW223001   5.016   1.208   6.545
 7368SOL     OW23002   4.125   3.354   2.880
 7368SOL    HW123003   4.056   3.296   2.835
 7368SOL    HW223004   4.153   3.427   2.817
 7369SOL     OW23005   5.205   2.981   0.654
 7369SOL    HW123006   5.197   2.887   0.619
 7369SOL    HW223007   5.137   2.995   0.725
 7370SOL     OW23008   2.287   1.629   4.556
 7370SOL    HW123009   2.221   1.702   4.542
 7370SOL    HW223010   2.360   1.660   4.617
 7371SOL     OW23011   4.157   0.212   3.626
 7371SOL    HW123012   4.090   0.258   3.684
 7371SOL    HW223013   4.240   0.268   3.621
 7372SOL     OW23014   4.274   6.934   4.421
 7372SOL    HW123015   4.280   6.933   4.321
 7372SOL    HW223016   4.337   6.866   4.458
 7373SOL     OW23017   4.810   2.561   4.746
 7373SOL    HW123018   4.856   2.627   4.686
 7373SOL    HW223019   4.711   2.576   4.742
 7374SOL     OW23020   0.365   1.632   5.315
 7374SOL    HW123021   0.419   1.642   5.399
 7374SOL    HW223022   0.427   1.615   5.238
 7375SOL     OW23023   2.002   3.040   2.231
 7375SOL    HW123024   1.903   3.056   2.237
 7375SOL    HW223025   2.020   2.968   2.164
 7376SOL     OW23026   0.439   4.306   0.629
 7376SOL    HW123027   0.446   4.207   0.623
 7376SOL    HW223028   0.343   4.332   0.642
 7377SOL     OW23029   3.013   5.653   0.125
 7377SOL    HW123030   2.928   5.599   0.128
 7377SOL    HW223031   3.027   5.699   0.212
 7378SOL     OW23032   1.623   6.303   3.649
 7378SOL    HW123033   1.638   6.262   3.739
 7378SOL    HW223034   1.677   6.387   3.641
 7379SOL     OW23035   4.072   0.573   0.804
 7379SOL    HW123036   4.064   0.473   0.803
 7379SOL    HW223037   4.006   0.610   0.869
 7380SOL     OW23038   5.892   3.607   3.553
 7380SOL    HW123039   5.945   3.584   3.471
 7380SOL    HW223040   5.934   3.565   3.633
 7381SOL     OW23041   3.730   0.787   7.011
 7381SOL    HW123042   3.696   0.795   0.084
 7381SOL    HW223043   3.766   0.875   6.980
 7382SOL     OW23044   6.798   1.335   6.163
 7382SOL    HW123045   6.752   1.400   6.102
 7382SOL    HW223046   6.730   1.284   6.215
 7383SOL     OW23047   1.817   6.434   1.555
 7383SOL    HW123048   1.840   6.348   1.510
 7383SOL    HW223049   1.755   6.416   1.631
 7384SOL     OW23050   0.312   6.954   1.103
 7384SOL    HW123051   0.350   0.004   1.162
 7384SOL    HW223052   0.267   6.996   1.024
 7385SOL     OW23053   4.350   4.915   2.484
 7385SOL    HW123054   4.413   4.881   2.553
 7385SOL    HW223055   4.332   4.842   2.417
 7386SOL     OW23056   6.089   3.252   0.710
 7386SOL    HW123057   6.096   3.294   0.800
 7386SOL    HW223058   6.165   3.188   0.697
 7387SOL     OW23059   6.739   4.880   5.632
 7387SOL    HW123060   6.702   4.960   5.679
 7387SOL    HW223061   6.688   4.863   5.548
 7388SOL     OW23062   1.945   6.262   2.344
 7388SOL    HW123063   1.903   6.185   2.296
 7388SOL    HW223064   1.937   6.344   2.288
 7389SOL     OW23065   6.671   3.045   0.297
 7389SOL    HW123066   6.599   3.100   0.338
 7389SOL    HW223067   6.705   2.979   0.364
 7390SOL     OW23068   2.554   1.929   2.750
 7390SOL    HW123069   2.454   1.934   2.760
 7390SOL    HW223070   2.594   2.015   2.781
 7391SOL     OW23071   3.544   3.436   2.934
 7391SOL    HW123072   3.606   3.365   2.969
 7391SOL    HW223073   3.554   3.518   2.990
 7392SOL     OW23074   3.728   5.331   6.382
 7392SOL    HW123075   3.697   5.286   6.466
 7392SOL    HW223076   3.819   5.370   6.396
 7393SOL     OW23077   5.788   5.513   4.527
 7393SOL    HW123078   5.814   5.576   4.454
 7393SOL    HW223079   5.693   5.485   4.515
 7394SOL     OW23080   2.380   2.434   6.102
 7394SOL    HW123081   2.407   2.530   6.101
 7394SOL    HW223082   2.339   2.411   6.190
 7395SOL     OW23083   2.914   4.589   1.049
 7395SOL    HW123084   2.925   4.681   1.088
 7395SOL    HW223085   2.876   4.528   1.119
 7396SOL     OW23086   2.330   5.085   2.125
 7396SOL    HW123087   2.379   5.170   2.106
 7396SOL    HW223088   2.329   5.069   2.224
 7397SOL     OW23089   5.451   4.321   3.990
 7397SOL    HW123090   5.463   4.265   3.908
 7397SOL    HW223091   5.429   4.261   4.068
 7398SOL     OW23092   1.986   4.627   2.669
 7398SOL    HW123093   1.998   4.683   2.751
 7398SOL    HW223094   1.960   4.534   2.695
 7399SOL     OW23095   5.289   1.865   5.047
 7399SOL    HW123096   5.349   1.944   5.034
 7399SOL    HW223097   5.194   1.896   5.049
 7400SOL     OW23098   5.280   2.628   5.496
 7400SOL    HW123099   5.342   2.578   5.435
 7400SOL    HW223100   5.332   2.667   5.572
 7401SOL     OW23101   0.731   2.711   3.887
 7401SOL    HW123102   0.703   2.619   3.859
 7401SOL    HW223103   0.762   2.710   3.982
 7402SOL     OW23104   3.130   6.142   5.483
 7402SOL    HW123105   3.103   6.095   5.567
 7402SOL    HW223106   3.135   6.241   5.501
 7403SOL     OW23107   1.624   2.989   4.582
 7403SOL    HW123108   1.660   2.953   4.668
 7403SOL    HW223109   1.620   2.916   4.514
 7404SOL     OW23110   3.148   3.850   0.999
 7404SOL    HW123111   3.138   3.754   1.026
 7404SOL    HW223112   3.058   3.891   0.989
 7405SOL     OW23113   3.215   5.926   4.976
 7405SOL    HW123114   3.224   5.985   5.056
 7405SOL    HW223115   3.290   5.944   4.913
 7406SOL     OW23116   0.656   1.209   4.813
 7406SOL    HW123117   0.585   1.149   4.776
 7406SOL    HW223118   0.642   1.302   4.779
 7407SOL     OW23119   0.800   6.339   5.536
 7407SOL    HW123120   0.804   6.432   5.500
 7407SOL    HW223121   0.883   6.289   5.507
 7408SOL     OW23122   3.535   3.884   5.168
 7408SOL    HW123123   3.459   3.855   5.110
 7408SOL    HW223124   3.601   3.935   5.114
 7409SOL     OW23125   6.100   4.183   0.519
 7409SOL    HW123126   6.075   4.160   0.425
 7409SOL    HW223127   6.174   4.251   0.518
 7410SOL     OW23128   6.710   0.400   1.526
 7410SOL    HW123129   6.647   0.343   1.577
 7410SOL    HW223130   6.803   0.365   1.535
 7411SOL     OW23131   1.520   2.057   5.234
 7411SOL    HW123132   1.465   2.140   5.239
 7411SOL    HW223133   1.617   2.081   5.233
 7412SOL     OW23134   4.276   6.740   6.909
 7412SOL    HW123135   4.356   6.763   6.852
 7412SOL    HW223136   4.253   6.818   6.966
 7413SOL     OW23137   3.885   6.785   3.109
 7413SOL    HW123138   3.872   6.745   3.199
 7413SOL    HW223139   3.852   6.721   3.039
 7414SOL     OW23140   2.528   2.116   4.058
 7414SOL    HW123141   2.576   2.139   4.143
 7414SOL    HW223142   2.432   2.096   4.078
 7415SOL     OW23143   4.140   6.165   6.289
 7415SOL    HW123144   4.228   6.159   6.336
 7415SOL    HW223145   4.123   6.260   6.262
 7416SOL     OW23146   1.188   1.764   2.605
 7416SOL    HW123147   1.275   1.776   2.557
 7416SOL    HW223148   1.183   1.672   2.643
 7417SOL     OW23149   0.678   1.853   3.771
 7417SOL    HW123150   0.655   1.951   3.777
 7417SOL    HW223151   0.664   1.821   3.678
 7418SOL     OW23152   1.767   3.907   6.308
 7418SOL    HW123153   1.770   3.858   6.221
 7418SOL    HW223154   1.686   3.881   6.359
 7419SOL     OW23155   6.906   3.877   3.935
 7419SOL    HW123156   6.830   3.825   3.972
 7419SOL    HW223157   6.883   3.974   3.932
 7420SOL     OW23158   6.350   6.867   2.071
 7420SOL    HW123159   6.295   6.848   1.989
 7420SOL    HW223160   6.447   6.856   2.049
 7421SOL     OW23161   4.936   3.731   1.618
 7421SOL    HW123162   4.909   3.679   1.537
 7421SOL    HW223163   4.855   3.759   1.669
 7422SOL     OW23164   5.518   2.810   2.055
 7422SOL    HW123165   5.468   2.890   2.087
 7422SOL    HW223166   5.534   2.747   2.131
 7423SOL     OW23167   5.589   1.850   5.886
 7423SOL    HW123168   5.601   1.913   5.810
 7423SOL    HW223169   5.554   1.901   5.965
 7424SOL     OW23170   0.855   1.581   4.149
 7424SOL    HW123171   0.762   1.545   4.157
 7424SOL    HW223172   0.886   1.570   4.055
 7425SOL     OW23173   6.100   0.194   7.016
 7425SOL    HW123174   6.126   0.197   0.092
 7425SOL    HW223175   6.076   0.100   6.991
 7426SOL     OW23176   3.241   2.897   5.802
 7426SOL    HW123177   3.188   2.813   5.802
 7426SOL    HW223178   3.276   2.915   5.894
 7427SOL     OW23179   3.769   1.615   4.032
 7427SOL    HW123180   3.728   1.592   4.120
 7427SOL    HW223181   3.744   1.546   3.964
 7428SOL     OW23182   4.268   5.724   5.693
 7428SOL    HW123183   4.229   5.799   5.639
 7428SOL    HW223184   4.269   5.641   5.637
 7429SOL     OW23185   1.823   6.901   2.232
 7429SOL    HW123186   1.756   6.835   2.197
 7429SOL    HW223187   1.781   6.991   2.239
 7430SOL     OW23188   6.327   5.139   2.760
 7430SOL    HW123189   6.336   5.047   2.721
 7430SOL    HW223190   6.233   5.154   2.789
 7431SOL     OW23191   1.495   2.071   4.516
 7431SOL    HW123192   1.561   1.996   4.514
 7431SOL    HW223193   1.523   2.142   4.451
 7432SOL     OW23194   1.978   0.345   3.048
 7432SOL    HW123195   1.947   0.250   3.058
 7432SOL    HW223196   1.912   0.406   3.091
 7433SOL     OW23197   2.151   0.581   6.748
 7433SOL    HW123198   2.185   0.652   6.810
 7433SOL    HW223199   2.169   0.608   6.653
 7434SOL     OW23200   3.979   5.845   5.756
 7434SOL    HW123201   4.033   5.888   5.683
 7434SOL    HW223202   4.001   5.890   5.843
 7435SOL     OW23203   4.767   5.584   3.124
 7435SOL    HW123204   4.765   5.657   3.193
 7435SOL    HW223205   4.757   5.624   3.033
 7436SOL     OW23206   5.413   2.991   6.582
 7436SOL    HW123207   5.414   2.929   6.503
 7436SOL    HW223208   5.487   3.058   6.571
 7437SOL     OW23209   3.996   6.267   1.198
 7437SOL    HW123210   4.082   6.274   1.147
 7437SOL    HW223211   3.978   6.353   1.246
 7438SOL     OW23212   2.525   0.366   0.232
 7438SOL    HW123213   2.479   0.329   0.313
 7438SOL    HW223214   2.487   0.323   0.150
 7439SOL     OW23215   0.837   4.708   6.168
 7439SOL    HW123216   0.748   4.738   6.201
 7439SOL    HW223217   0.862   4.623   6.215
 7440SOL     OW23218   5.045   2.830   4.288
 7440SOL    HW123219   4.982   2.907   4.291
 7440SOL    HW223220   5.038   2.785   4.199
 7441SOL     OW23221   5.868   6.238   1.596
 7441SOL    HW123222   5.784   6.231   1.649
 7441SOL    HW223223   5.934   6.169   1.628
 7442SOL     OW23224   5.245   0.608   5.278
 7442SOL    HW123225   5.161   0.556   5.291
 7442SOL    HW223226   5.294   0.615   5.365
 7443SOL     OW23227   0.166   0.630   2.067
 7443SOL    HW123228   0.176   0.590   2.158
 7443SOL    HW223229   0.179   0.560   1.997
 7444SOL     OW23230   0.933   6.330   6.460
 7444SOL    HW123231   0.875   6.269   6.514
 7444SOL    HW223232   1.012   6.279   6.426
 7445SOL     OW23233   4.252   6.011   1.483
 7445SOL    HW123234   4.184   5.975   1.547
 7445SOL    HW223235   4.233   6.107   1.465
 7446SOL     OW23236   5.204   4.151   0.306
 7446SOL    HW123237   5.163   4.113   0.389
 7446SOL    HW223238   5.136   4.203   0.256
 7447SOL     OW23239   0.706   4.838   1.561
 7447SOL    HW123240   0.742   4.789   1.640
 7447SOL    HW223241   0.633   4.784   1.518
 7448SOL     OW23242   4.942   4.956   6.109
 7448SOL    HW123243   4.845   4.979   6.096
 7448SOL    HW223244   4.999   5.029   6.073
 7449SOL     OW23245   0.507   4.742   6.445
 7449SOL    HW123246   0.580   4.811   6.448
 7449SOL    HW223247   0.511   4.694   6.358
 7450SOL     OW23248   4.949   2.014   5.987
 7450SOL    HW123249   4.881   2.082   6.010
 7450SOL    HW223250   4.907   1.943   5.929
 7451SOL     OW23251   5.479   4.886   2.796
 7451SOL    HW123252   5.548   4.861   2.864
 7451SOL    HW223253   5.405   4.819   2.797
 7452SOL     OW23254   5.855   5.387   5.291
 7452SOL    HW123255   5.864   5.393   5.390
 7452SOL    HW223256   5.897   5.302   5.259
 7453SOL     OW23257   3.676   5.815   0.056
 7453SOL    HW123258   3.630   5.727   0.044
 7453SOL    HW223259   3.772   5.807   0.032
 7454SOL     OW23260   3.862   2.265   0.644
 7454SOL    HW123261   3.847   2.253   0.742
 7454SOL    HW223262   3.844   2.361   0.620
 7455SOL     OW23263   6.921   2.832   3.153
 7455SOL    HW123264   6.840   2.790   3.112
 7455SOL    HW223265   6.907   2.840   3.252
 7456SOL     OW23266   3.233   2.016   5.455
 7456SOL    HW123267   3.185   1.942   5.502
 7456SOL    HW223268   3.289   1.977   5.382
 7457SOL     OW23269   2.747   0.403   2.975
 7457SOL    HW123270   2.772   0.320   2.925
 7457SOL    HW223271   2.806   0.478   2.945
 7458SOL     OW23272   1.191   5.990   5.296
 7458SOL    HW123273   1.113   6.040   5.258
 7458SOL    HW223274   1.262   5.981   5.226
 7459SOL     OW23275   5.681   0.727   2.842
 7459SOL    HW123276   5.655   0.686   2.929
 7459SOL    HW223277   5.605   0.782   2.807
 7460SOL     OW23278   1.680   6.774   0.573
 7460SOL    HW123279   1.605   6.831   0.607
 7460SOL    HW223280   1.654   6.678   0.581
 7461SOL     OW23281   1.296   4.975   6.342
 7461SOL    HW123282   1.315   5.073   6.345
 7461SOL    HW223283   1.357   4.932   6.275
 7462SOL     OW23284   1.292   5.059   0.737
 7462SOL    HW123285   1.261   5.008   0.817
 7462SOL    HW223286   1.253   5.151   0.739
 7463SOL     OW23287   3.504   4.675   0.845
 7463SOL    HW123288   3.541   4.702   0.756
 7463SOL    HW223289   3.407   4.654   0.836
 7464SOL     OW23290   6.409   6.025   5.473
 7464SOL    HW123291   6.418   5.978   5.386
 7464SOL    HW223292   6.318   6.009   5.512
 7465SOL     OW23293   2.068   4.752   0.372
 7465SOL    HW123294   2.059   4.852   0.375
 7465SOL    HW223295   1.988   4.712   0.328
 7466SOL     OW23296   0.416   6.524   4.621
 7466SOL    HW123297   0.421   6.481   4.531
 7466SOL    HW223298   0.374   6.460   4.686
 7467SOL     OW23299   0.449   3.579   5.647
 7467SOL    HW123300   0.526   3.523   5.676
 7467SOL    HW223301   0.404   3.618   5.726
 7468SOL     OW23302   6.019   3.460   5.720
 7468SOL    HW123303   5.992   3.554   5.743
 7468SOL    HW223304   5.937   3.403   5.715
 7469SOL     OW23305   6.836   2.469   1.346
 7469SOL    HW123306   6.834   2.568   1.358
 7469SOL    HW223307   6.929   2.439   1.327
 7470SOL     OW23308   5.189   2.907   3.847
 7470SOL    HW123309   5.140   2.860   3.773
 7470SOL    HW223310   5.288   2.899   3.831
 7471SOL     OW23311   5.224   5.795   6.073
 7471SOL    HW123312   5.218   5.894   6.068
 7471SOL    HW223313   5.282   5.761   5.998
 7472SOL     OW23314   6.164   6.013   5.559
 7472SOL    HW123315   6.175   6.111   5.578
 7472SOL    HW223316   6.070   5.986   5.579
 7473SOL     OW23317   3.894   5.957   3.912
 7473SOL    HW123318   3.986   5.947   3.874
 7473SOL    HW223319   3.879   6.053   3.936
 7474SOL     OW23320   6.748   1.953   5.504
 7474SOL    HW123321   6.721   2.023   5.570
 7474SOL    HW223322   6.786   1.997   5.423
 7475SOL     OW23323   4.837   2.344   0.774
 7475SOL    HW123324   4.789   2.270   0.821
 7475SOL    HW223325   4.922   2.364   0.822
 7476SOL     OW23326   1.786   1.134   2.747
 7476SOL    HW123327   1.871   1.081   2.760
 7476SOL    HW223328   1.754   1.167   2.835
 7477SOL     OW23329   1.097   4.336   4.797
 7477SOL    HW123330   1.040   4.257   4.775
 7477SOL    HW223331   1.050   4.420   4.768
 7478SOL     OW23332   0.736   1.278   5.867
 7478SOL    HW123333   0.776   1.214   5.800
 7478SOL    HW223334   0.667   1.334   5.822
 7479SOL     OW23335   6.457   3.223   0.031
 7479SOL    HW123336   6.423   3.132   0.010
 7479SOL    HW223337   6.381   3.288   0.027
 7480SOL     OW23338   3.855   5.159   2.476
 7480SOL    HW123339   3.796   5.175   2.555
 7480SOL    HW223340   3.816   5.086   2.420
 7481SOL     OW23341   0.369   4.175   6.825
 7481SOL    HW123342   0.272   4.196   6.814
 7481SOL    HW223343   0.420   4.260   6.839
 7482SOL     OW23344   3.940   2.194   2.698
 7482SOL    HW123345   3.851   2.164   2.663
 7482SOL    HW223346   4.013   2.157   2.639
 7483SOL     OW23347   4.476   2.123   6.199
 7483SOL    HW123348   4.499   2.049   6.262
 7483SOL    HW223349   4.382   2.153   6.216
 7484SOL     OW23350   2.973   6.550   3.945
 7484SOL    HW123351   3.072   6.544   3.933
 7484SOL    HW223352   2.949   6.636   3.989
 7485SOL     OW23353   2.694   0.105   4.837
 7485SOL    HW123354   2.764   0.174   4.826
 7485SOL    HW223355   2.693   0.044   4.758
 7486SOL     OW23356   2.336   6.449   1.090
 7486SOL    HW123357   2.277   6.392   1.033
 7486SOL    HW223358   2.422   6.401   1.108
 7487SOL     OW23359   4.118   6.356   3.830
 7487SOL    HW123360   4.153   6.271   3.790
 7487SOL    HW223361   4.031   6.380   3.788
 7488SOL     OW23362   0.985   5.325   3.894
 7488SOL    HW123363   0.914   5.381   3.853
 7488SOL    HW223364   0.943   5.253   3.950
 7489SOL     OW23365   6.465   3.364   6.318
 7489SOL    HW123366   6.439   3.448   6.271
 7489SOL    HW223367   6.497   3.297   6.252
 7490SOL     OW23368   0.998   2.189   2.111
 7490SOL    HW123369   1.000   2.214   2.207
 7490SOL    HW223370   1.033   2.095   2.100
 7491SOL     OW23371   4.512   3.204   0.493
 7491SOL    HW123372   4.605   3.201   0.455
 7491SOL    HW223373   4.468   3.115   0.480
 7492SOL     OW23374   1.297   0.325   4.289
 7492SOL    HW123375   1.393   0.333   4.314
 7492SOL    HW223376   1.264   0.413   4.254
 7493SOL     OW23377   6.887   4.409   4.806
 7493SOL    HW123378   6.877   4.451   4.896
 7493SOL    HW223379   6.982   4.417   4.776
 7494SOL     OW23380   5.958   1.362   2.726
 7494SOL    HW123381   5.943   1.268   2.696
 7494SOL    HW223382   6.021   1.407   2.662
 7495SOL     OW23383   1.739   3.812   4.939
 7495SOL    HW123384   1.769   3.763   4.857
 7495SOL    HW223385   1.666   3.876   4.916
 7496SOL     OW23386   5.732   4.051   2.577
 7496SOL    HW123387   5.766   4.108   2.502
 7496SOL    HW223388   5.640   4.080   2.602
 7497SOL     OW23389   7.002   6.438   0.292
 7497SOL    HW123390   7.008   6.353   0.240
 7497SOL    HW223391   0.071   6.459   0.330
 7498SOL     OW23392   2.936   0.385   2.627
 7498SOL    HW123393   3.020   0.354   2.670
 7498SOL    HW223394   2.899   0.312   2.569
 7499SOL     OW23395   4.194   1.701   3.725
 7499SOL    HW123396   4.247   1.623   3.758
 7499SOL    HW223397   4.118   1.718   3.787
 7500SOL     OW23398   3.609   6.738   2.958
 7500SOL    HW123399   3.555   6.731   3.042
 7500SOL    HW223400   3.625   6.834   2.935
 7501SOL     OW23401   6.168   2.262   4.766
 7501SOL    HW123402   6.235   2.335   4.778
 7501SOL    HW223403   6.114   2.279   4.683
 7502SOL     OW23404   4.107   0.625   4.217
 7502SOL    HW123405   4.101   0.538   4.168
 7502SOL    HW223406   4.113   0.608   4.315
 7503SOL     OW23407   1.836   6.113   1.560
 7503SOL    HW123408   1.801   6.106   1.467
 7503SOL    HW223409   1.936   6.102   1.559
 7504SOL     OW23410   6.365   6.572   3.529
 7504SOL    HW123411   6.413   6.488   3.503
 7504SOL    HW223412   6.355   6.631   3.449
 7505SOL     OW23413   1.114   6.854   5.581
 7505SOL    HW123414   1.102   6.949   5.552
 7505SOL    HW223415   1.201   6.820   5.546
 7506SOL     OW23416   2.680   1.731   3.166
 7506SOL    HW123417   2.594   1.764   3.205
 7506SOL    HW223418   2.683   1.631   3.173
 7507SOL     OW23419   6.380   3.886   4.741
 7507SOL    HW123420   6.345   3.975   4.712
 7507SOL    HW223421   6.322   3.849   4.813
 7508SOL     OW23422   1.887   6.053   6.583
 7508SOL    HW123423   1.935   6.028   6.667
 7508SOL    HW223424   1.802   6.101   6.606
 7509SOL     OW23425   5.240   4.558   0.490
 7509SOL    HW123426   5.327   4.509   0.484
 7509SOL    HW223427   5.166   4.502   0.454
 7510SOL     OW23428   3.748   3.591   3.801
 7510SOL    HW123429   3.822   3.653   3.826
 7510SOL    HW223430   3.778   3.530   3.727
 7511SOL     OW23431   3.259   5.975   3.482
 7511SOL    HW123432   3.353   5.966   3.514
 7511SOL    HW223433   3.196   5.950   3.556
 7512SOL     OW23434   3.493   6.692   6.027
 7512SOL    HW123435   3.580   6.651   6.055
 7512SOL    HW223436   3.444   6.726   6.108
 7513SOL     OW23437   0.601   2.086   2.452
 7513SOL    HW123438   0.541   2.069   2.374
 7513SOL    HW223439   0.631   2.181   2.451
 7514SOL     OW23440   1.467   4.185   2.397
 7514SOL    HW123441   1.535   4.117   2.424
 7514SOL    HW223442   1.388   4.179   2.459
 7515SOL     OW23443   0.106   4.485   4.093
 7515SOL    HW123444   0.144   4.468   4.184
 7515SOL    HW223445   0.129   4.578   4.064
 7516SOL     OW23446   1.180   6.362   5.246
 7516SOL    HW123447   1.082   6.373   5.229
 7516SOL    HW223448   1.218   6.447   5.281
 7517SOL     OW23449   0.513   1.410   6.887
 7517SOL    HW123450   0.519   1.451   6.796
 7517SOL    HW223451   0.603   1.413   6.930
 7518SOL     OW23452   4.857   2.782   3.700
 7518SOL    HW123453   4.793   2.734   3.641
 7518SOL    HW223454   4.929   2.823   3.644
 7519SOL     OW23455   3.604   6.271   4.427
 7519SOL    HW123456   3.668   6.311   4.361
 7519SOL    HW223457   3.558   6.345   4.477
 7520SOL     OW23458   1.770   1.811   0.665
 7520SOL    HW123459   1.855   1.790   0.713
 7520SOL    HW223460   1.714   1.871   0.722
 7521SOL     OW23461   3.946   1.333   5.737
 7521SOL    HW123462   4.002   1.389   5.799
 7521SOL    HW223463   4.006   1.282   5.676
 7522SOL     OW23464   1.627   0.024   2.927
 7522SOL    HW123465   1.650   0.104   2.873
 7522SOL    HW223466   1.528   0.008   2.923
 7523SOL     OW23467   5.476   1.094   6.342
 7523SOL    HW123468   5.478   1.011   6.399
 7523SOL    HW223469   5.510   1.172   6.396
 7524SOL     OW23470   0.222   3.359   5.141
 7524SOL    HW123471   0.249   3.338   5.235
 7524SOL    HW223472   0.260   3.448   5.115
 7525SOL     OW23473   4.444   5.750   6.489
 7525SOL    HW123474   4.462   5.845   6.514
 7525SOL    HW223475   4.351   5.741   6.453
 7526SOL     OW23476   2.340   3.353   1.586
 7526SOL    HW123477   2.327   3.381   1.681
 7526SOL    HW223478   2.389   3.424   1.536
 7527SOL     OW23479   4.201   5.668   3.927
 7527SOL    HW123480   4.128   5.600   3.931
 7527SOL    HW223481   4.289   5.622   3.941
 7528SOL     OW23482   6.918   3.208   6.233
 7528SOL    HW123483   6.822   3.226   6.212
 7528SOL    HW223484   6.924   3.130   6.297
 7529SOL     OW23485   6.477   3.037   4.432
 7529SOL    HW123486   6.577   3.028   4.436
 7529SOL    HW223487   6.434   2.964   4.484
 7530SOL     OW23488   6.802   2.188   2.053
 7530SOL    HW123489   6.741   2.119   2.014
 7530SOL    HW223490   6.756   2.277   2.052
 7531SOL     OW23491   4.395   1.939   3.743
 7531SOL    HW123492   4.460   1.894   3.680
 7531SOL    HW223493   4.337   1.869   3.785
 7532SOL     OW23494   4.404   5.158   6.379
 7532SOL    HW123495   4.384   5.254   6.399
 7532SOL    HW223496   4.404   5.106   6.464
 7533SOL     OW23497   4.732   3.850   1.765
 7533SOL    HW123498   4.715   3.947   1.782
 7533SOL    HW223499   4.766   3.807   1.849
 7534SOL     OW23500   4.814   6.740   4.271
 7534SOL    HW123501   4.842   6.761   4.364
 7534SOL    HW223502   4.733   6.792   4.248
 7535SOL     OW23503   0.516   5.335   3.600
 7535SOL    HW123504   0.599   5.386   3.579
 7535SOL    HW223505   0.506   5.258   3.537
 7536SOL     OW23506   4.839   5.915   4.491
 7536SOL    HW123507   4.880   5.840   4.541
 7536SOL    HW223508   4.847   5.898   4.393
 7537SOL     OW23509   3.335   6.394   3.454
 7537SOL    HW123510   3.319   6.299   3.426
 7537SOL    HW223511   3.330   6.400   3.554
 7538SOL     OW23512   0.890   4.274   0.614
 7538SOL    HW123513   0.975   4.235   0.578
 7538SOL    HW223514   0.891   4.272   0.714
 7539SOL     OW23515   0.576   6.007   3.558
 7539SOL    HW123516   0.594   6.104   3.569
 7539SOL    HW223517   0.523   5.974   3.637
 7540SOL     OW23518   6.191   5.304   3.719
 7540SOL    HW123519   6.143   5.223   3.751
 7540SOL    HW223520   6.239   5.283   3.633
 7541SOL     OW23521   1.597   4.171   6.976
 7541SOL    HW123522   1.566   4.127   6.891
 7541SOL    HW223523   1.630   4.100   0.018
 7542SOL     OW23524   6.059   5.657   5.688
 7542SOL    HW123525   5.967   5.689   5.712
 7542SOL    HW223526   6.104   5.622   5.770
 7543SOL     OW23527   2.623   0.853   6.492
 7543SOL    HW123528   2.591   0.928   6.434
 7543SOL    HW223529   2.700   0.885   6.548
 7544SOL     OW23530   0.180   2.835   4.380
 7544SOL    HW123531   0.174   2.765   4.309
 7544SOL    HW223532   0.108   2.821   4.448
 7545SOL     OW23533   1.006   5.070   0.053
 7545SOL    HW123534   0.916   5.108   0.071
 7545SOL    HW223535   1.007   4.972   0.077
 7546SOL     OW23536   3.366   2.771   1.969
 7546SOL    HW123537   3.357   2.690   2.026
 7546SOL    HW223538   3.415   2.748   1.885
 7547SOL     OW23539   4.334   0.741   2.027
 7547SOL    HW123540   4.296   0.773   2.114
 7547SOL    HW223541   4.372   0.650   2.038
 7548SOL     OW23542   4.095   2.094   6.696
 7548SOL    HW123543   4.171   2.158   6.683
 7548SOL    HW223544   4.031   2.103   6.621
 7549SOL     OW23545   4.915   2.411   4.950
 7549SOL    HW123546   4.887   2.466   4.871
 7549SOL    HW223547   4.834   2.372   4.993
 7550SOL     OW23548   2.168   4.036   4.295
 7550SOL    HW123549   2.197   4.128   4.323
 7550SOL    HW223550   2.152   4.035   4.196
 7551SOL     OW23551   5.975   2.550   5.832
 7551SOL    HW123552   5.946   2.631   5.780
 7551SOL    HW223553   6.074   2.556   5.849
 7552SOL     OW23554   2.382   5.667   4.950
 7552SOL    HW123555   2.424   5.692   4.863
 7552SOL    HW223556   2.419   5.580   4.982
 7553SOL     OW23557   5.743   6.285   6.028
 7553SOL    HW123558   5.835   6.248   6.016
 7553SOL    HW223559   5.748   6.379   6.061
 7554SOL     OW23560   5.294   0.963   1.313
 7554SOL    HW123561   5.271   1.051   1.354
 7554SOL    HW223562   5.290   0.891   1.383
 7555SOL     OW23563   3.294   4.949   5.551
 7555SOL    HW123564   3.393   4.938   5.563
 7555SOL    HW223565   3.273   4.963   5.455
 7556SOL     OW23566   0.149   0.056   0.904
 7556SOL    HW123567   0.111   7.016   0.834
 7556SOL    HW223568   0.077   0.118   0.936
 7557SOL     OW23569   4.662   0.609   6.934
 7557SOL    HW123570   4.615   0.691   6.968
 7557SOL    HW223571   4.659   0.538   7.003
 7558SOL     OW23572   1.134   2.249   4.613
 7558SOL    HW123573   1.133   2.228   4.515
 7558SOL    HW223574   1.186   2.179   4.662
 7559SOL     OW23575   3.824   1.881   4.743
 7559SOL    HW123576   3.896   1.918   4.801
 7559SOL    HW223577   3.861   1.807   4.687
 7560SOL     OW23578   0.385   0.929   5.978
 7560SOL    HW123579   0.399   0.836   6.010
 7560SOL    HW223580   0.467   0.960   5.930
 7561SOL     OW23581   5.505   2.089   5.001
 7561SOL    HW123582   5.576   2.153   4.970
 7561SOL    HW223583   5.416   2.134   4.994
 7562SOL     OW23584   1.241   4.204   4.048
 7562SOL    HW123585   1.336   4.236   4.046
 7562SOL    HW223586   1.215   4.187   4.143
 7563SOL     OW23587   3.515   5.464   2.654
 7563SOL    HW123588   3.530   5.414   2.569
 7563SOL    HW223589   3.602   5.476   2.702
 7564SOL     OW23590   4.552   1.473   4.667
 7564SOL    HW123591   4.577   1.488   4.763
 7564SOL    HW223592   4.489   1.396   4.662
 7565SOL     OW23593   5.428   3.968   6.379
 7565SOL    HW123594   5.342   3.928   6.349
 7565SOL    HW223595   5.437   4.060   6.340
 7566SOL     OW23596   4.096   4.338   1.386
 7566SOL    HW123597   4.137   4.283   1.460
 7566SOL    HW223598   4.019   4.390   1.423
 7567SOL     OW23599   1.751   0.470   4.642
 7567SOL    HW123600   1.780   0.391   4.696
 7567SOL    HW223601   1.828   0.533   4.630
 7568SOL     OW23602   5.960   5.374   1.750
 7568SOL    HW123603   5.932   5.384   1.654
 7568SOL    HW223604   5.959   5.463   1.795
 7569SOL     OW23605   4.676   3.901   0.119
 7569SOL    HW123606   4.679   3.940   0.211
 7569SOL    HW223607   4.617   3.958   0.061
 7570SOL     OW23608   6.379   2.894   2.903
 7570SOL    HW123609   6.284   2.908   2.875
 7570SOL    HW223610   6.429   2.847   2.830
 7571SOL     OW23611   4.409   2.464   3.170
 7571SOL    HW123612   4.324   2.414   3.183
 7571SOL    HW223613   4.486   2.408   3.201
 7572SOL     OW23614   4.659   6.160   1.969
 7572SOL    HW123615   4.659   6.223   2.046
 7572SOL    HW223616   4.721   6.084   1.988
 7573SOL     OW23617   4.712   6.279   5.482
 7573SOL    HW123618   4.641   6.290   5.551
 7573SOL    HW223619   4.777   6.209   5.511
 7574SOL     OW23620   0.035   1.338   4.033
 7574SOL    HW123621   6.976   1.362   4.089
 7574SOL    HW223622   0.020   1.249   3.990
 7575SOL     OW23623   0.228   6.870   2.365
 7575SOL    HW123624   0.310   6.907   2.408
 7575SOL    HW223625   0.251   6.785   2.317
 7576SOL     OW23626   5.658   3.299   0.752
 7576SOL    HW123627   5.725   3.310   0.825
 7576SOL    HW223628   5.621   3.388   0.726
 7577SOL     OW23629   1.513   6.958   0.712
 7577SOL    HW123630   1.556   0.027   0.701
 7577SOL    HW223631   1.423   6.958   0.668
 7578SOL     OW23632   0.246   5.690   3.480
 7578SOL    HW123633   0.320   5.747   3.445
 7578SOL    HW223634   0.269   5.594   3.464
 7579SOL     OW23635   6.771   1.365   0.185
 7579SOL    HW123636   6.812   1.374   0.094
 7579SOL    HW223637   6.773   1.270   0.214
 7580SOL     OW23638   2.549   4.898   3.679
 7580SOL    HW123639   2.597   4.810   3.673
 7580SOL    HW223640   2.555   4.932   3.773
 7581SOL     OW23641   6.730   1.066   2.574
 7581SOL    HW123642   6.736   1.073   2.475
 7581SOL    HW223643   6.819   1.086   2.615
 7582SOL     OW23644   3.451   0.996   5.088
 7582SOL    HW123645   3.451   1.095   5.105
 7582SOL    HW223646   3.544   0.966   5.065
 7583SOL     OW23647   5.117   3.009   2.721
 7583SOL    HW123648   5.182   2.954   2.669
 7583SOL    HW223649   5.156   3.100   2.738
 7584SOL     OW23650   0.189   0.625   3.009
 7584SOL    HW123651   0.139   0.711   3.016
 7584SOL    HW223652   0.283   0.638   3.041
 7585SOL     OW23653   1.135   1.660   0.182
 7585SOL    HW123654   1.107   1.591   0.114
 7585SOL    HW223655   1.085   1.745   0.165
 7586SOL     OW23656   1.325   2.133   2.768
 7586SOL    HW123657   1.422   2.125   2.790
 7586SOL    HW223658   1.271   2.110   2.850
 7587SOL     OW23659   3.522   0.706   0.930
 7587SOL    HW123660   3.550   0.782   0.989
 7587SOL    HW223661   3.428   0.719   0.901
 7588SOL     OW23662   1.992   2.273   4.565
 7588SOL    HW123663   2.087   2.301   4.547
 7588SOL    HW223664   1.936   2.354   4.580
 7589SOL     OW23665   0.436   0.883   2.916
 7589SOL    HW123666   0.522   0.880   2.969
 7589SOL    HW223667   0.398   0.975   2.921
 7590SOL     OW23668   0.232   1.701   6.457
 7590SOL    HW123669   0.311   1.746   6.415
 7590SOL    HW223670   0.250   1.603   6.467
 7591SOL     OW23671   4.232   3.256   5.279
 7591SOL    HW123672   4.190   3.174   5.319
 7591SOL    HW223673   4.179   3.285   5.199
 7592SOL     OW23674   6.761   6.250   4.601
 7592SOL    HW123675   6.679   6.285   4.554
 7592SOL    HW223676   6.748   6.154   4.622
 7593SOL     OW23677   1.161   1.400   5.945
 7593SOL    HW123678   1.130   1.355   6.030
 7593SOL    HW223679   1.256   1.377   5.928
 7594SOL     OW23680   0.258   4.561   0.075
 7594SOL    HW123681   0.199   4.481   0.063
 7594SOL    HW223682   0.317   4.548   0.155
 7595SOL     OW23683   0.062   3.011   6.408
 7595SOL    HW123684   0.012   3.063   6.477
 7595SOL    HW223685   0.069   2.915   6.436
 7596SOL     OW23686   2.997   0.774   5.188
 7596SOL    HW123687   3.009   0.797   5.285
 7596SOL    HW223688   2.954   0.851   5.140
 7597SOL     OW23689   1.416   4.624   2.418
 7597SOL    HW123690   1.442   4.551   2.355
 7597SOL    HW223691   1.497   4.661   2.462
 7598SOL     OW23692   6.361   1.360   3.130
 7598SOL    HW123693   6.281   1.414   3.156
 7598SOL    HW223694   6.391   1.387   3.039
 7599SOL     OW23695   4.049   3.380   1.264
 7599SOL    HW123696   3.968   3.360   1.318
 7599SOL    HW223697   4.131   3.369   1.322
 7600SOL     OW23698   1.556   0.113   4.550
 7600SOL    HW123699   1.501   0.170   4.613
 7600SOL    HW223700   1.647   0.100   4.589
 7601SOL     OW23701   3.704   5.705   2.233
 7601SOL    HW123702   3.768   5.635   2.265
 7601SOL    HW223703   3.630   5.716   2.300
 7602SOL     OW23704   6.982   1.262   0.574
 7602SOL    HW123705   6.991   1.162   0.576
 7602SOL    HW223706   0.026   1.303   0.638
 7603SOL     OW23707   2.688   0.321   5.073
 7603SOL    HW123708   2.637   0.406   5.061
 7603SOL    HW223709   2.670   0.259   4.996
 7604SOL     OW23710   0.868   2.626   4.687
 7604SOL    HW123711   0.948   2.684   4.703
 7604SOL    HW223712   0.819   2.658   4.606
 7605SOL     OW23713   2.345   6.459   0.241
 7605SOL    HW123714   2.259   6.435   0.285
 7605SOL    HW223715   2.337   6.446   0.142
 7606SOL     OW23716   6.474   1.550   3.412
 7606SOL    HW123717   6.473   1.617   3.487
 7606SOL    HW223718   6.554   1.490   3.421
 7607SOL     OW23719   2.489   5.823   5.624
 7607SOL    HW123720   2.584   5.833   5.651
 7607SOL    HW223721   2.460   5.728   5.635
 7608SOL     OW23722   6.247   2.527   6.126
 7608SOL    HW123723   6.344   2.538   6.144
 7608SOL    HW223724   6.214   2.443   6.170
 7609SOL     OW23725   0.511   1.969   4.742
 7609SOL    HW123726   0.535   1.997   4.649
 7609SOL    HW223727   0.594   1.948   4.793
 7610SOL     OW23728   3.851   5.027   5.510
 7610SOL    HW123729   3.771   5.074   5.472
 7610SOL    HW223730   3.915   5.007   5.437
 7611SOL     OW23731   4.751   3.474   1.160
 7611SOL    HW123732   4.793   3.454   1.071
 7611SOL    HW223733   4.679   3.407   1.178
 7612SOL     OW23734   2.957   1.757   3.320
 7612SOL    HW123735   2.937   1.710   3.406
 7612SOL    HW223736   2.871   1.779   3.274
 7613SOL     OW23737   0.251   1.151   2.093
 7613SOL    HW123738   0.271   1.136   1.996
 7613SOL    HW223739   0.224   1.064   2.135
 7614SOL     OW23740   5.490   3.937   0.982
 7614SOL    HW123741   5.524   3.933   0.888
 7614SOL    HW223742   5.397   3.901   0.985
 7615SOL     OW23743   5.737   3.500   4.723
 7615SOL    HW123744   5.722   3.553   4.807
 7615SOL    HW223745   5.805   3.546   4.667
 7616SOL     OW23746   6.087   6.928   3.564
 7616SOL    HW123747   6.093   6.917   3.465
 7616SOL    HW223748   6.114   0.000   3.589
 7617SOL     OW23749   5.301   5.368   3.664
 7617SOL    HW123750   5.294   5.302   3.589
 7617SOL    HW223751   5.212   5.379   3.707
 7618SOL     OW23752   2.402   2.901   0.053
 7618SOL    HW123753   2.329   2.930   0.115
 7618SOL    HW223754   2.477   2.967   0.058
 7619SOL     OW23755   0.609   2.103   4.519
 7619SOL    HW123756   0.664   2.183   4.545
 7619SOL    HW223757   0.533   2.132   4.460
 7620SOL     OW23758   4.159   3.947   1.438
 7620SOL    HW123759   4.186   4.000   1.519
 7620SOL    HW223760   4.107   3.866   1.467
 7621SOL     OW23761   0.196   4.364   0.370
 7621SOL    HW123762   0.127   4.381   0.300
 7621SOL    HW223763   0.272   4.313   0.330
 7622SOL     OW23764   3.004   3.598   1.352
 7622SOL    HW123765   2.928   3.650   1.313
 7622SOL    HW223766   3.082   3.659   1.367
 7623SOL     OW23767   4.488   4.637   0.948
 7623SOL    HW123768   4.456   4.584   0.870
 7623SOL    HW223769   4.472   4.585   1.032
 7624SOL     OW23770   0.732   2.921   2.064
 7624SOL    HW123771   0.807   2.981   2.037
 7624SOL    HW223772   0.652   2.976   2.088
 7625SOL     OW23773   5.380   1.546   1.102
 7625SOL    HW123774   5.422   1.532   1.012
 7625SOL    HW223775   5.450   1.574   1.168
 7626SOL     OW23776   5.569   1.254   5.568
 7626SOL    HW123777   5.516   1.179   5.609
 7626SOL    HW223778   5.584   1.325   5.637
 7627SOL     OW23779   3.688   1.978   6.679
 7627SOL    HW123780   3.698   2.056   6.740
 7627SOL    HW223781   3.598   1.980   6.636
 7628SOL     OW23782   3.521   2.675   6.959
 7628SOL    HW123783   3.533   2.631   0.027
 7628SOL    HW223784   3.430   2.715   6.953
 7629SOL     OW23785   6.121   2.703   3.849
 7629SOL    HW123786   6.060   2.774   3.883
 7629SOL    HW223787   6.165   2.734   3.765
 7630SOL     OW23788   1.578   6.815   5.574
 7630SOL    HW123789   1.489   6.769   5.570
 7630SOL    HW223790   1.607   6.839   5.481
 7631SOL     OW23791   1.406   6.781   5.900
 7631SOL    HW123792   1.441   6.854   5.841
 7631SOL    HW223793   1.347   6.821   5.970
 7632SOL     OW23794   5.140   5.177   0.244
 7632SOL    HW123795   5.204   5.212   0.175
 7632SOL    HW223796   5.188   5.112   0.303
 7633SOL     OW23797   6.248   1.320   1.618
 7633SOL    HW123798   6.275   1.415   1.633
 7633SOL    HW223799   6.260   1.296   1.522
 7634SOL     OW23800   7.018   2.012   0.581
 7634SOL    HW123801   0.039   1.922   0.587
 7634SOL    HW223802   0.068   2.082   0.593
 7635SOL     OW23803   2.466   4.543   5.885
 7635SOL    HW123804   2.428   4.532   5.793
 7635SOL    HW223805   2.434   4.469   5.943
 7636SOL     OW23806   0.354   3.572   4.554
 7636SOL    HW123807   0.307   3.617   4.478
 7636SOL    HW223808   0.445   3.613   4.565
 7637SOL     OW23809   0.749   6.559   4.666
 7637SOL    HW123810   0.690   6.550   4.585
 7637SOL    HW223811   0.698   6.534   4.748
 7638SOL     OW23812   0.627   5.673   1.867
 7638SOL    HW123813   0.687   5.740   1.912
 7638SOL    HW223814   0.655   5.661   1.772
 7639SOL     OW23815   1.626   1.115   0.147
 7639SOL    HW123816   1.548   1.063   0.182
 7639SOL    HW223817   1.685   1.055   0.094
 7640SOL     OW23818   3.152   0.469   6.878
 7640SOL    HW123819   3.222   0.409   6.839
 7640SOL    HW223820   3.067   0.459   6.825
 7641SOL     OW23821   0.484   3.969   3.380
 7641SOL    HW123822   0.541   4.012   3.450
 7641SOL    HW223823   0.403   4.025   3.364
 7642SOL     OW23824   6.343   0.939   3.678
 7642SOL    HW123825   6.271   0.996   3.718
 7642SOL    HW223826   6.325   0.843   3.698
 7643SOL     OW23827   5.423   3.706   3.133
 7643SOL    HW123828   5.473   3.692   3.048
 7643SOL    HW223829   5.333   3.662   3.127
 7644SOL     OW23830   5.299   3.730   1.368
 7644SOL    HW123831   5.220   3.671   1.385
 7644SOL    HW223832   5.383   3.678   1.386
 7645SOL     OW23833   3.404   4.244   6.175
 7645SOL    HW123834   3.354   4.166   6.212
 7645SOL    HW223835   3.340   4.307   6.130
 7646SOL     OW23836   0.286   2.373   1.994
 7646SOL    HW123837   0.382   2.381   1.968
 7646SOL    HW223838   0.261   2.448   2.055
 7647SOL     OW23839   6.544   2.610   5.158
 7647SOL    HW123840   6.508   2.704   5.152
 7647SOL    HW223841   6.478   2.547   5.118
 7648SOL     OW23842   2.590   1.735   1.637
 7648SOL    HW123843   2.499   1.762   1.608
 7648SOL    HW223844   2.597   1.740   1.737
 7649SOL     OW23845   4.660   1.186   5.456
 7649SOL    HW123846   4.644   1.219   5.363
 7649SOL    HW223847   4.758   1.185   5.475
 7650SOL     OW23848   4.023   1.621   0.532
 7650SOL    HW123849   3.998   1.717   0.545
 7650SOL    HW223850   4.115   1.606   0.565
 7651SOL     OW23851   2.603   4.820   5.718
 7651SOL    HW123852   2.667   4.760   5.766
 7651SOL    HW223853   2.514   4.774   5.710
 7652SOL     OW23854   6.966   1.123   3.915
 7652SOL    HW123855   6.877   1.123   3.869
 7652SOL    HW223856   6.993   1.029   3.936
 7653SOL     OW23857   0.619   1.469   6.644
 7653SOL    HW123858   0.686   1.542   6.656
 7653SOL    HW223859   0.666   1.385   6.616
 7654SOL     OW23860   5.811   2.262   6.519
 7654SOL    HW123861   5.755   2.240   6.598
 7654SOL    HW223862   5.873   2.338   6.542
 7655SOL     OW23863   3.002   1.146   3.389
 7655SOL    HW123864   2.943   1.159   3.468
 7655SOL    HW223865   2.995   1.052   3.356
 7656SOL     OW23866   0.172   3.100   6.650
 7656SOL    HW123867   0.157   3.022   6.711
 7656SOL    HW223868   0.194   3.067   6.558
 7657SOL     OW23869   1.362   3.904   4.162
 7657SOL    HW123870   1.267   3.889   4.135
 7657SOL    HW223871   1.400   3.819   4.199
 7658SOL     OW23872   2.528   1.575   1.014
 7658SOL    HW123873   2.575   1.650   0.968
 7658SOL    HW223874   2.575   1.554   1.100
 7659SOL     OW23875   4.329   3.793   5.473
 7659SOL    HW123876   4.367   3.708   5.435
 7659SOL    HW223877   4.316   3.859   5.400
 7660SOL     OW23878   0.417   5.479   4.505
 7660SOL    HW123879   0.376   5.512   4.590
 7660SOL    HW223880   0.515   5.498   4.506
 7661SOL     OW23881   4.484   2.128   5.830
 7661SOL    HW123882   4.545   2.071   5.885
 7661SOL    HW223883   4.394   2.133   5.875
 7662SOL     OW23884   0.614   1.525   1.425
 7662SOL    HW123885   0.529   1.518   1.477
 7662SOL    HW223886   0.683   1.465   1.466
 7663SOL     OW23887   6.733   5.509   5.313
 7663SOL    HW123888   6.771   5.420   5.336
 7663SOL    HW223889   6.641   5.498   5.276
 7664SOL     OW23890   3.822   2.047   2.355
 7664SOL    HW123891   3.772   1.992   2.289
 7664SOL    HW223892   3.892   2.101   2.308
 7665SOL     OW23893   4.166   0.807   5.330
 7665SOL    HW123894   4.179   0.844   5.237
 7665SOL    HW223895   4.247   0.826   5.385
 7666SOL     OW23896   5.695   4.934   4.197
 7666SOL    HW123897   5.729   4.848   4.158
 7666SOL    HW223898   5.708   4.934   4.296
 7667SOL     OW23899   4.405   5.930   1.162
 7667SOL    HW123900   4.447   5.906   1.075
 7667SOL    HW223901   4.442   5.871   1.234
 7668SOL     OW23902   2.103   4.941   1.174
 7668SOL    HW123903   2.089   5.039   1.164
 7668SOL    HW223904   2.176   4.924   1.240
 7669SOL     OW23905   2.814   6.662   5.612
 7669SOL    HW123906   2.797   6.634   5.518
 7669SOL    HW223907   2.800   6.761   5.621
 7670SOL     OW23908   0.415   6.586   0.244
 7670SOL    HW123909   0.509   6.615   0.259
 7670SOL    HW223910   0.360   6.664   0.214
 7671SOL     OW23911   4.327   6.798   0.798
 7671SOL    HW123912   4.382   6.872   0.760
 7671SOL    HW223913   4.357   6.778   0.891
 7672SOL     OW23914   4.834   4.630   2.910
 7672SOL    HW123915   4.755   4.685   2.936
 7672SOL    HW223916   4.806   4.562   2.842
 7673SOL     OW23917   0.699   5.903   4.563
 7673SOL    HW123918   0.788   5.927   4.522
 7673SOL    HW223919   0.712   5.878   4.659
 7674SOL     OW23920   4.067   6.331   4.289
 7674SOL    HW123921   3.997   6.290   4.348
 7674SOL    HW223922   4.157   6.298   4.316
 7675SOL     OW23923   4.337   6.750   3.113
 7675SOL    HW123924   4.430   6.782   3.129
 7675SOL    HW223925   4.325   6.728   3.016
 7676SOL     OW23926   3.112   2.851   5.427
 7676SOL    HW123927   3.061   2.768   5.404
 7676SOL    HW223928   3.090   2.922   5.360
 7677SOL     OW23929   5.513   4.975   1.087
 7677SOL    HW123930   5.578   4.909   1.051
 7677SOL    HW223931   5.442   4.994   1.018
 7678SOL     OW23932   1.131   0.881   5.254
 7678SOL    HW123933   1.086   0.947   5.315
 7678SOL    HW223934   1.075   0.798   5.248
 7679SOL     OW23935   1.869   5.520   5.459
 7679SOL    HW123936   1.893   5.598   5.517
 7679SOL    HW223937   1.952   5.466   5.440
 7680SOL     OW23938   2.073   0.119   5.214
 7680SOL    HW123939   2.092   0.169   5.130
 7680SOL    HW223940   2.156   0.073   5.245
 7681SOL     OW23941   2.533   3.719   6.830
 7681SOL    HW123942   2.542   3.715   6.929
 7681SOL    HW223943   2.558   3.630   6.790
 7682SOL     OW23944   3.036   1.793   2.566
 7682SOL    HW123945   3.014   1.781   2.469
 7682SOL    HW223946   3.091   1.715   2.597
 7683SOL     OW23947   1.147   0.784   4.590
 7683SOL    HW123948   1.153   0.765   4.492
 7683SOL    HW223949   1.055   0.762   4.623
 7684SOL     OW23950   4.153   2.297   1.983
 7684SOL    HW123951   4.252   2.301   1.985
 7684SOL    HW223952   4.120   2.346   1.902
 7685SOL     OW23953   2.353   0.742   0.182
 7685SOL    HW123954   2.374   0.829   0.225
 7685SOL    HW223955   2.384   0.667   0.241
 7686SOL     OW23956   6.118   0.221   4.439
 7686SOL    HW123957   6.018   0.229   4.445
 7686SOL    HW223958   6.145   0.127   4.461
 7687SOL     OW23959   4.938   4.524   5.178
 7687SOL    HW123960   4.962   4.494   5.085
 7687SOL    HW223961   4.857   4.583   5.174
 7688SOL     OW23962   0.736   4.911   6.419
 7688SOL    HW123963   0.834   4.894   6.421
 7688SOL    HW223964   0.716   4.996   6.468
 7689SOL     OW23965   4.785   0.557   1.459
 7689SOL    HW123966   4.755   0.647   1.490
 7689SOL    HW223967   4.705   0.502   1.435
 7690SOL     OW23968   6.254   5.690   1.382
 7690SOL    HW123969   6.319   5.766   1.395
 7690SOL    HW223970   6.268   5.621   1.453
 7691SOL     OW23971   4.756   4.425   2.727
 7691SOL    HW123972   4.827   4.366   2.689
 7691SOL    HW223973   4.680   4.433   2.662
 7692SOL     OW23974   2.528   0.007   1.903
 7692SOL    HW123975   2.477   0.070   1.962
 7692SOL    HW223976   2.467   6.995   1.830
 7693SOL     OW23977   2.279   1.831   0.886
 7693SOL    HW123978   2.362   1.861   0.932
 7693SOL    HW223979   2.296   1.744   0.839
 7694SOL     OW23980   5.943   2.089   5.505
 7694SOL    HW123981   6.039   2.063   5.493
 7694SOL    HW223982   5.894   2.015   5.552
 7695SOL     OW23983   4.959   0.421   3.036
 7695SOL    HW123984   4.976   0.328   3.004
 7695SOL    HW223985   5.046   0.468   3.050
 7696SOL     OW23986   0.646   2.868   6.203
 7696SOL    HW123987   0.570   2.862   6.268
 7696SOL    HW223988   0.718   2.926   6.241
 7697SOL     OW23989   4.354   6.830   2.393
 7697SOL    HW123990   4.287   6.880   2.338
 7697SOL    HW223991   4.446   6.857   2.365
 7698SOL     OW23992   6.717   2.633   0.135
 7698SOL    HW123993   6.671   2.721   0.126
 7698SOL    HW223994   6.674   2.580   0.208
 7699SOL     OW23995   4.309   5.477   5.935
 7699SOL    HW123996   4.265   5.441   6.017
 7699SOL    HW223997   4.340   5.571   5.952
 7700SOL     OW23998   5.217   5.747   2.668
 7700SOL    HW123999   5.174   5.753   2.578
 7700SOL    HW224000   5.157   5.787   2.737
 7701SOL     OW24001   0.416   2.635   6.123
 7701SOL    HW124002   0.397   2.703   6.194
 7701SOL    HW224003   0.512   2.641   6.096
 7702SOL     OW24004   4.390   0.079   4.773
 7702SOL    HW124005   4.338   0.034   4.700
 7702SOL    HW224006   4.480   0.105   4.739
 7703SOL     OW24007   6.583   6.680   5.307
 7703SOL    HW124008   6.571   6.663   5.210
 7703SOL    HW224009   6.570   6.595   5.358
 7704SOL     OW24010   6.844   1.713   4.492
 7704SOL    HW124011   6.936   1.702   4.529
 7704SOL    HW224012   6.778   1.708   4.566
 7705SOL     OW24013   1.014   4.827   0.151
 7705SOL    HW124014   0.970   4.749   0.107
 7705SOL    HW224015   1.008   4.816   0.251
 7706SOL     OW24016   3.598   2.854   2.146
 7706SOL    HW124017   3.532   2.779   2.140
 7706SOL    HW224018   3.623   2.884   2.054
 7707SOL     OW24019   6.540   4.529   6.227
 7707SOL    HW124020   6.528   4.440   6.184
 7707SOL    HW224021   6.529   4.520   6.326
 7708SOL     OW24022   2.424   0.042   4.926
 7708SOL    HW124023   2.362   0.115   4.899
 7708SOL    HW224024   2.516   0.063   4.895
 7709SOL     OW24025   0.233   5.256   1.541
 7709SOL    HW124026   0.162   5.233   1.474
 7709SOL    HW224027   0.320   5.219   1.509
 7710SOL     OW24028   0.344   3.465   0.933
 7710SOL    HW124029   0.443   3.476   0.931
 7710SOL    HW224030   0.319   3.375   0.896
 7711SOL     OW24031   0.185   4.928   5.183
 7711SOL    HW124032   0.251   4.994   5.218
 7711SOL    HW224033   0.094   4.970   5.179
 7712SOL     OW24034   6.901   4.407   5.667
 7712SOL    HW124035   6.984   4.351   5.666
 7712SOL    HW224036   6.847   4.385   5.748
 7713SOL     OW24037   2.127   4.493   0.206
 7713SOL    HW124038   2.080   4.529   0.125
 7713SOL    HW224039   2.222   4.472   0.182
 7714SOL     OW24040   6.600   0.736   5.593
 7714SOL    HW124041   6.570   0.764   5.501
 7714SOL    HW224042   6.594   0.637   5.601
 7715SOL     OW24043   2.848   2.486   6.112
 7715SOL    HW124044   2.890   2.454   6.027
 7715SOL    HW224045   2.918   2.493   6.183
 7716SOL     OW24046   1.022   5.807   5.527
 7716SOL    HW124047   1.057   5.871   5.458
 7716SOL    HW224048   0.961   5.856   5.589
 7717SOL     OW24049   0.833   1.681   6.684
 7717SOL    HW124050   0.905   1.625   6.726
 7717SOL    HW224051   0.853   1.778   6.700
 7718SOL     OW24052   1.331   3.843   2.629
 7718SOL    HW124053   1.277   3.760   2.615
 7718SOL    HW224054   1.376   3.839   2.718
 7719SOL     OW24055   2.119   4.402   4.892
 7719SOL    HW124056   2.090   4.328   4.831
 7719SOL    HW224057   2.176   4.364   4.965
 7720SOL     OW24058   5.529   1.198   0.035
 7720SOL    HW124059   5.576   1.249   0.108
 7720SOL    HW224060   5.510   1.105   0.067
 7721SOL     OW24061   0.571   0.561   2.342
 7721SOL    HW124062   0.638   0.633   2.359
 7721SOL    HW224063   0.492   0.573   2.403
 7722SOL     OW24064   2.063   6.187   3.286
 7722SOL    HW124065   2.099   6.261   3.229
 7722SOL    HW224066   1.966   6.203   3.306
 7723SOL     OW24067   4.928   4.407   0.826
 7723SOL    HW124068   4.985   4.467   0.769
 7723SOL    HW224069   4.874   4.463   0.889
 7724SOL     OW24070   2.176   3.952   2.034
 7724SOL    HW124071   2.155   4.028   1.973
 7724SOL    HW224072   2.146   3.974   2.127
 7725SOL     OW24073   5.303   3.053   3.429
 7725SOL    HW124074   5.348   3.003   3.356
 7725SOL    HW224075   5.360   3.130   3.458
 7726SOL     OW24076   0.954   3.067   6.563
 7726SOL    HW124077   0.991   2.978   6.538
 7726SOL    HW224078   0.867   3.055   6.611
 7727SOL     OW24079   5.155   1.918   2.482
 7727SOL    HW124080   5.251   1.914   2.454
 7727SOL    HW224081   5.103   1.848   2.433
 7728SOL     OW24082   2.160   3.393   4.397
 7728SOL    HW124083   2.255   3.393   4.430
 7728SOL    HW224084   2.100   3.361   4.470
 7729SOL     OW24085   6.621   2.059   4.318
 7729SOL    HW124086   6.710   2.018   4.295
 7729SOL    HW224087   6.591   2.025   4.407
 7730SOL     OW24088   6.636   4.087   5.074
 7730SOL    HW124089   6.604   4.178   5.047
 7730SOL    HW224090   6.612   4.021   5.003
 7731SOL     OW24091   6.534   6.694   6.667
 7731SOL    HW124092   6.613   6.704   6.607
 7731SOL    HW224093   6.465   6.761   6.642
 7732SOL     OW24094   4.192   0.462   6.310
 7732SOL    HW124095   4.266   0.395   6.306
 7732SOL    HW224096   4.224   0.549   6.273
 7733SOL     OW24097   6.374   5.869   2.137
 7733SOL    HW124098   6.440   5.890   2.064
 7733SOL    HW224099   6.390   5.929   2.215
 7734SOL     OW24100   3.515   3.724   4.898
 7734SOL    HW124101   3.432   3.757   4.944
 7734SOL    HW224102   3.526   3.772   4.811
 7735SOL     OW24103   6.762   6.198   0.680
 7735SOL    HW124104   6.812   6.129   0.627
 7735SOL    HW224105   6.816   6.281   0.687
 7736SOL     OW24106   2.219   3.199   0.375
 7736SOL    HW124107   2.229   3.127   0.307
 7736SOL    HW224108   2.239   3.163   0.466
 7737SOL     OW24109   3.612   4.904   1.172
 7737SOL    HW124110   3.522   4.893   1.130
 7737SOL    HW224111   3.611   4.865   1.264
 7738SOL     OW24112   2.397   6.780   6.632
 7738SOL    HW124113   2.353   6.704   6.584
 7738SOL    HW224114   2.430   6.848   6.566
 7739SOL     OW24115   1.453   2.023   0.274
 7739SOL    HW124116   1.483   2.115   0.298
 7739SOL    HW224117   1.461   1.963   0.353
 7740SOL     OW24118   1.888   0.788   5.113
 7740SOL    HW124119   1.806   0.839   5.086
 7740SOL    HW224120   1.961   0.805   5.047
 7741SOL     OW24121   1.588   4.327   5.935
 7741SOL    HW124122   1.670   4.275   5.957
 7741SOL    HW224123   1.507   4.271   5.953
 7742SOL     OW24124   4.200   1.396   4.176
 7742SOL    HW124125   4.132   1.448   4.125
 7742SOL    HW224126   4.270   1.458   4.211
 7743SOL     OW24127   5.114   2.220   5.589
 7743SOL    HW124128   5.213   2.227   5.581
 7743SOL    HW224129   5.072   2.304   5.553
 7744SOL     OW24130   0.184   6.418   4.493
 7744SOL    HW124131   0.263   6.388   4.439
 7744SOL    HW224132   0.107   6.357   4.477
 7745SOL     OW24133   2.357   6.838   0.787
 7745SOL    HW124134   2.402   6.920   0.823
 7745SOL    HW224135   2.383   6.827   0.691
 7746SOL     OW24136   1.511   6.187   1.014
 7746SOL    HW124137   1.502   6.133   0.930
 7746SOL    HW224138   1.452   6.268   1.008
 7747SOL     OW24139   1.222   6.063   0.223
 7747SOL    HW124140   1.231   6.024   0.315
 7747SOL    HW224141   1.160   6.141   0.226
 7748SOL     OW24142   4.183   2.425   5.676
 7748SOL    HW124143   4.120   2.499   5.655
 7748SOL    HW224144   4.147   2.372   5.753
 7749SOL     OW24145   3.965   3.683   4.043
 7749SOL    HW124146   3.900   3.715   4.112
 7749SOL    HW224147   3.979   3.585   4.053
 7750SOL     OW24148   6.285   4.043   5.547
 7750SOL    HW124149   6.234   4.099   5.482
 7750SOL    HW224150   6.363   4.095   5.582
 7751SOL     OW24151   6.657   0.886   5.335
 7751SOL    HW124152   6.754   0.868   5.319
 7751SOL    HW224153   6.604   0.862   5.253
 7752SOL     OW24154   6.205   5.452   5.534
 7752SOL    HW124155   6.201   5.551   5.543
 7752SOL    HW224156   6.141   5.410   5.598
 7753SOL     OW24157   2.447   0.682   4.827
 7753SOL    HW124158   2.421   0.777   4.843
 7753SOL    HW224159   2.365   0.626   4.814
 7754SOL     OW24160   5.668   0.950   1.890
 7754SOL    HW124161   5.603   1.011   1.933
 7754SOL    HW224162   5.662   0.859   1.932
 7755SOL     OW24163   0.865   5.916   5.741
 7755SOL    HW124164   0.781   5.905   5.793
 7755SOL    HW224165   0.929   5.973   5.792
 7756SOL     OW24166   3.712   5.312   2.236
 7756SOL    HW124167   3.743   5.357   2.152
 7756SOL    HW224168   3.670   5.224   2.214
 7757SOL     OW24169   4.509   6.289   5.658
 7757SOL    HW124170   4.414   6.313   5.640
 7757SOL    HW224171   4.543   6.344   5.734
 7758SOL     OW24172   2.419   2.221   5.732
 7758SOL    HW124173   2.506   2.183   5.700
 7758SOL    HW224174   2.386   2.288   5.666
 7759SOL     OW24175   2.150   0.540   4.521
 7759SOL    HW124176   2.092   0.619   4.538
 7759SOL    HW224177   2.207   0.556   4.440
 7760SOL     OW24178   5.069   2.972   2.378
 7760SOL    HW124179   5.042   3.004   2.469
 7760SOL    HW224180   5.089   2.874   2.382
 7761SOL     OW24181   3.508   6.752   6.641
 7761SOL    HW124182   3.459   6.665   6.630
 7761SOL    HW224183   3.582   6.739   6.707
 7762SOL     OW24184   3.894   1.402   0.418
 7762SOL    HW124185   3.926   1.310   0.440
 7762SOL    HW224186   3.930   1.467   0.485
 7763SOL     OW24187   1.683   1.661   0.431
 7763SOL    HW124188   1.716   1.690   0.521
 7763SOL    HW224189   1.731   1.713   0.360
 7764SOL     OW24190   3.575   2.851   2.431
 7764SOL    HW124191   3.478   2.873   2.426
 7764SOL    HW224192   3.596   2.776   2.369
 7765SOL     OW24193   6.604   2.237   3.047
 7765SOL    HW124194   6.696   2.199   3.053
 7765SOL    HW224195   6.575   2.238   2.952
 7766SOL     OW24196   6.936   2.550   6.827
 7766SOL    HW124197   6.860   2.566   6.765
 7766SOL    HW224198   6.904   2.498   6.906
 7767SOL     OW24199   4.363   5.798   4.399
 7767SOL    HW124200   4.335   5.799   4.303
 7767SOL    HW224201   4.427   5.874   4.415
 7768SOL     OW24202   3.804   4.919   2.324
 7768SOL    HW124203   3.714   4.889   2.354
 7768SOL    HW224204   3.807   4.920   2.224
 7769SOL     OW24205   5.430   1.925   1.610
 7769SOL    HW124206   5.393   1.964   1.694
 7769SOL    HW224207   5.521   1.962   1.594
 7770SOL     OW24208   3.113   5.201   1.163
 7770SOL    HW124209   3.148   5.107   1.157
 7770SOL    HW224210   3.172   5.254   1.224
 7771SOL     OW24211   2.414   2.180   5.989
 7771SOL    HW124212   2.404   2.271   6.029
 7771SOL    HW224213   2.414   2.187   5.889
 7772SOL     OW24214   5.060   0.721   4.317
 7772SOL    HW124215   5.083   0.768   4.402
 7772SOL    HW224216   5.099   0.629   4.319
 7773SOL     OW24217   4.271   3.688   5.977
 7773SOL    HW124218   4.361   3.680   5.934
 7773SOL    HW224219   4.271   3.766   6.040
 7774SOL     OW24220   5.092   1.689   6.268
 7774SOL    HW124221   5.114   1.785   6.284
 7774SOL    HW224222   5.003   1.668   6.310
 7775SOL     OW24223   2.918   6.281   2.178
 7775SOL    HW124224   2.837   6.275   2.236
 7775SOL    HW224225   2.916   6.208   2.110
 7776SOL     OW24226   3.764   3.461   6.538
 7776SOL    HW124227   3.813   3.543   6.570
 7776SOL    HW224228   3.674   3.457   6.582
 7777SOL     OW24229   2.129   1.396   6.719
 7777SOL    HW124230   2.146   1.365   6.626
 7777SOL    HW224231   2.106   1.318   6.777
 7778SOL     OW24232   5.535   0.830   7.014
 7778SOL    HW124233   5.513   0.862   0.085
 7778SOL    HW224234   5.627   0.861   6.989
 7779SOL     OW24235   4.159   3.037   0.711
 7779SOL    HW124236   4.067   3.044   0.750
 7779SOL    HW224237   4.214   3.115   0.743
 7780SOL     OW24238   2.182   6.273   5.100
 7780SOL    HW124239   2.261   6.215   5.122
 7780SOL    HW224240   2.186   6.300   5.004
 7781SOL     OW24241   1.119   4.628   4.566
 7781SOL    HW124242   1.187   4.686   4.610
 7781SOL    HW224243   1.117   4.647   4.468
 7782SOL     OW24244   2.650   4.167   6.197
 7782SOL    HW124245   2.749   4.157   6.186
 7782SOL    HW224246   2.625   4.263   6.188
 7783SOL     OW24247   2.329   5.365   6.588
 7783SOL    HW124248   2.415   5.324   6.559
 7783SOL    HW224249   2.295   5.425   6.515
 7784SOL     OW24250   0.384   2.456   6.947
 7784SOL    HW124251   0.396   2.555   6.946
 7784SOL    HW224252   0.444   2.414   6.879
 7785SOL     OW24253   2.452   6.035   4.163
 7785SOL    HW124254   2.437   5.937   4.147
 7785SOL    HW224255   2.459   6.052   4.261
 7786SOL     OW24256   3.095   4.376   5.289
 7786SOL    HW124257   3.150   4.459   5.290
 7786SOL    HW224258   3.001   4.398   5.267
 7787SOL     OW24259   2.356   2.754   5.183
 7787SOL    HW124260   2.371   2.834   5.126
 7787SOL    HW224261   2.345   2.782   5.279
 7788SOL     OW24262   1.412   1.623   0.384
 7788SOL    HW124263   1.366   1.711   0.386
 7788SOL    HW224264   1.510   1.636   0.404
 7789SOL     OW24265   2.445   0.677   1.248
 7789SOL    HW124266   2.404   0.677   1.340
 7789SOL    HW224267   2.542   0.699   1.255
 7790SOL     OW24268   5.273   3.212   2.805
 7790SOL    HW124269   5.220   3.287   2.765
 7790SOL    HW224270   5.332   3.248   2.877
 7791SOL     OW24271   1.687   5.214   4.945
 7791SOL    HW124272   1.756   5.196   4.874
 7791SOL    HW224273   1.610   5.152   4.932
 7792SOL     OW24274   2.500   5.690   5.908
 7792SOL    HW124275   2.465   5.602   5.876
 7792SOL    HW224276   2.461   5.710   5.998
 7793SOL     OW24277   1.018   1.164   6.133
 7793SOL    HW124278   1.034   1.131   6.226
 7793SOL    HW224279   1.040   1.092   6.068
 7794SOL     OW24280   5.445   5.690   4.258
 7794SOL    HW124281   5.372   5.733   4.312
 7794SOL    HW224282   5.498   5.762   4.212
 7795SOL     OW24283   2.599   4.398   5.264
 7795SOL    HW124284   2.539   4.427   5.189
 7795SOL    HW224285   2.695   4.403   5.233
 7796SOL     OW24286   3.496   4.106   3.315
 7796SOL    HW124287   3.427   4.121   3.244
 7796SOL    HW224288   3.451   4.080   3.400
 7797SOL     OW24289   0.136   6.995   2.816
 7797SOL    HW124290   0.174   6.948   2.736
 7797SOL    HW224291   0.130   6.932   2.893
 7798SOL     OW24292   3.241   5.747   0.042
 7798SOL    HW124293   3.149   5.717   0.067
 7798SOL    HW224294   3.308   5.683   0.078
 7799SOL     OW24295   0.423   4.467   1.707
 7799SOL    HW124296   0.398   4.502   1.798
 7799SOL    HW224297   0.521   4.447   1.706
 7800SOL     OW24298   0.424   5.501   1.912
 7800SOL    HW124299   0.505   5.559   1.906
 7800SOL    HW224300   0.383   5.510   2.002
 7801SOL     OW24301   3.215   1.916   6.842
 7801SOL    HW124302   3.276   1.938   6.765
 7801SOL    HW224303   3.128   1.964   6.830
 7802SOL     OW24304   5.687   2.368   1.882
 7802SOL    HW124305   5.739   2.406   1.959
 7802SOL    HW224306   5.601   2.331   1.916
 7803SOL     OW24307   3.960   3.871   5.559
 7803SOL    HW124308   3.946   3.853   5.656
 7803SOL    HW224309   4.028   3.944   5.547
 7804SOL     OW24310   5.218   2.039   5.991
 7804SOL    HW124311   5.267   2.087   5.918
 7804SOL    HW224312   5.120   2.042   5.972
 7805SOL     OW24313   5.153   3.624   2.142
 7805SOL    HW124314   5.062   3.585   2.125
 7805SOL    HW224315   5.186   3.592   2.231
 7806SOL     OW24316   5.681   2.822   6.257
 7806SOL    HW124317   5.671   2.790   6.350
 7806SOL    HW224318   5.621   2.770   6.196
 7807SOL     OW24319   0.016   4.078   6.214
 7807SOL    HW124320   0.103   4.084   6.262
 7807SOL    HW224321   0.012   3.992   6.162
 7808SOL     OW24322   1.170   1.013   4.705
 7808SOL    HW124323   1.156   0.926   4.657
 7808SOL    HW224324   1.084   1.043   4.746
 7809SOL     OW24325   2.705   5.614   4.781
 7809SOL    HW124326   2.692   5.589   4.686
 7809SOL    HW224327   2.667   5.706   4.798
 7810SOL     OW24328   2.714   0.707   6.122
 7810SOL    HW124329   2.810   0.699   6.148
 7810SOL    HW224330   2.657   0.709   6.205
 7811SOL     OW24331   5.810   4.324   4.347
 7811SOL    HW124332   5.755   4.349   4.268
 7811SOL    HW224333   5.885   4.390   4.359
 7812SOL     OW24334   1.842   1.621   3.609
 7812SOL    HW124335   1.787   1.664   3.537
 7812SOL    HW224336   1.860   1.526   3.583
 7813SOL     OW24337   0.175   3.053   0.114
 7813SOL    HW124338   0.088   3.102   0.128
 7813SOL    HW224339   0.185   2.983   0.184
 7814SOL     OW24340   6.924   3.602   2.982
 7814SOL    HW124341   6.974   3.667   2.925
 7814SOL    HW224342   6.826   3.614   2.969
 7815SOL     OW24343   6.252   1.700   6.051
 7815SOL    HW124344   6.216   1.757   6.124
 7815SOL    HW224345   6.289   1.758   5.978
 7816SOL     OW24346   1.329   3.747   4.784
 7816SOL    HW124347   1.235   3.713   4.772
 7816SOL    HW224348   1.389   3.701   4.719
 7817SOL     OW24349   5.389   4.222   4.715
 7817SOL    HW124350   5.309   4.279   4.732
 7817SOL    HW224351   5.372   4.130   4.748
 7818SOL     OW24352   5.332   6.372   1.784
 7818SOL    HW124353   5.233   6.388   1.788
 7818SOL    HW224354   5.352   6.277   1.809
 7819SOL     OW24355   0.031   2.084   1.462
 7819SOL    HW124356   0.054   2.059   1.556
 7819SOL    HW224357   0.115   2.114   1.415
 7820SOL     OW24358   1.712   1.342   6.520
 7820SOL    HW124359   1.720   1.378   6.613
 7820SOL    HW224360   1.617   1.350   6.490
 7821SOL     OW24361   3.253   5.313   1.574
 7821SOL    HW124362   3.219   5.369   1.499
 7821SOL    HW224363   3.263   5.368   1.656
 7822SOL     OW24364   1.389   6.002   5.094
 7822SOL    HW124365   1.423   6.075   5.154
 7822SOL    HW224366   1.453   5.988   5.019
 7823SOL     OW24367   1.576   4.789   4.736
 7823SOL    HW124368   1.599   4.722   4.807
 7823SOL    HW224369   1.629   4.770   4.653
 7824SOL     OW24370   0.779   3.040   5.007
 7824SOL    HW124371   0.733   2.970   4.952
 7824SOL    HW224372   0.712   3.092   5.058
 7825SOL     OW24373   2.865   1.601   6.133
 7825SOL    HW124374   2.842   1.694   6.163
 7825SOL    HW224375   2.884   1.544   6.213
 7826SOL     OW24376   0.392   2.725   6.636
 7826SOL    HW124377   0.408   2.641   6.688
 7826SOL    HW224378   0.423   2.804   6.689
 7827SOL     OW24379   6.973   6.278   4.387
 7827SOL    HW124380   6.884   6.305   4.423
 7827SOL    HW224381   7.009   6.201   4.441
 7828SOL     OW24382   0.536   4.382   6.872
 7828SOL    HW124383   0.627   4.364   6.910
 7828SOL    HW224384   0.510   4.477   6.889
 7829SOL     OW24385   3.891   2.695   0.685
 7829SOL    HW124386   3.820   2.748   0.732
 7829SOL    HW224387   3.978   2.705   0.733
 7830SOL     OW24388   2.616   4.660   4.612
 7830SOL    HW124389   2.578   4.752   4.618
 7830SOL    HW224390   2.602   4.623   4.521
 7831SOL     OW24391   1.698   1.481   0.235
 7831SOL    HW124392   1.702   1.547   0.310
 7831SOL    HW224393   1.743   1.520   0.155
 7832SOL     OW24394   6.277   0.889   4.350
 7832SOL    HW124395   6.201   0.825   4.338
 7832SOL    HW224396   6.242   0.978   4.377
 7833SOL     OW24397   1.939   0.724   4.606
 7833SOL    HW124398   1.877   0.771   4.668
 7833SOL    HW224399   1.898   0.721   4.514
 7834SOL     OW24400   5.999   3.169   4.663
 7834SOL    HW124401   6.080   3.115   4.682
 7834SOL    HW224402   5.977   3.164   4.566
 7835SOL     OW24403   4.275   1.915   5.131
 7835SOL    HW124404   4.251   1.991   5.072
 7835SOL    HW224405   4.370   1.924   5.161
 7836SOL     OW24406   3.788   3.810   4.983
 7836SOL    HW124407   3.773   3.878   4.911
 7836SOL    HW224408   3.707   3.751   4.990
 7837SOL     OW24409   6.179   5.373   6.710
 7837SOL    HW124410   6.235   5.322   6.644
 7837SOL    HW224411   6.091   5.394   6.669
 7838SOL     OW24412   5.379   5.397   1.262
 7838SOL    HW124413   5.330   5.398   1.175
 7838SOL    HW224414   5.449   5.326   1.261
 7839SOL     OW24415   5.480   3.726   4.184
 7839SOL    HW124416   5.476   3.628   4.164
 7839SOL    HW224417   5.489   3.740   4.283
 7840SOL     OW24418   1.936   2.952   3.984
 7840SOL    HW124419   2.000   2.975   3.912
 7840SOL    HW224420   1.928   3.029   4.048
 7841SOL     OW24421   4.747   2.159   6.121
 7841SOL    HW124422   4.653   2.132   6.144
 7841SOL    HW224423   4.811   2.102   6.172
 7842SOL     OW24424   1.794   1.278   1.907
 7842SOL    HW124425   1.764   1.354   1.965
 7842SOL    HW224426   1.775   1.192   1.954
 7843SOL     OW24427   0.346   6.617   2.723
 7843SOL    HW124428   0.294   6.586   2.803
 7843SOL    HW224429   0.342   6.717   2.718
 7844SOL     OW24430   3.485   1.565   2.917
 7844SOL    HW124431   3.567   1.617   2.941
 7844SOL    HW224432   3.489   1.541   2.820
 7845SOL     OW24433   6.406   2.634   1.102
 7845SOL    HW124434   6.438   2.599   1.190
 7845SOL    HW224435   6.475   2.696   1.063
 7846SOL     OW24436   0.533   2.627   0.488
 7846SOL    HW124437   0.575   2.547   0.531
 7846SOL    HW224438   0.542   2.706   0.548
 7847SOL     OW24439   5.805   3.137   4.862
 7847SOL    HW124440   5.726   3.098   4.814
 7847SOL    HW224441   5.884   3.139   4.801
 7848SOL     OW24442   3.182   4.865   0.888
 7848SOL    HW124443   3.176   4.775   0.845
 7848SOL    HW224444   3.259   4.866   0.953
 7849SOL     OW24445   4.511   4.429   6.238
 7849SOL    HW124446   4.596   4.417   6.186
 7849SOL    HW224447   4.532   4.436   6.335
 7850SOL     OW24448   0.057   0.850   3.917
 7850SOL    HW124449   0.112   0.798   3.852
 7850SOL    HW224450   6.988   0.807   3.927
 7851SOL     OW24451   0.621   4.105   2.231
 7851SOL    HW124452   0.716   4.086   2.206
 7851SOL    HW224453   0.563   4.029   2.202
 7852SOL     OW24454   0.855   2.165   6.301
 7852SOL    HW124455   0.775   2.133   6.351
 7852SOL    HW224456   0.938   2.134   6.347
 7853SOL     OW24457   4.001   3.022   1.718
 7853SOL    HW124458   3.978   2.997   1.812
 7853SOL    HW224459   4.060   3.102   1.718
 7854SOL     OW24460   5.092   2.692   6.494
 7854SOL    HW124461   5.072   2.790   6.503
 7854SOL    HW224462   5.007   2.640   6.501
 7855SOL     OW24463   5.083   6.851   4.284
 7855SOL    HW124464   5.062   6.949   4.293
 7855SOL    HW224465   5.051   6.803   4.366
 7856SOL     OW24466   2.144   6.422   4.838
 7856SOL    HW124467   2.217   6.474   4.793
 7856SOL    HW224468   2.060   6.478   4.838
 7857SOL     OW24469   5.427   4.132   1.187
 7857SOL    HW124470   5.382   4.109   1.273
 7857SOL    HW224471   5.418   4.055   1.123
 7858SOL     OW24472   0.795   5.339   5.678
 7858SOL    HW124473   0.810   5.312   5.773
 7858SOL    HW224474   0.779   5.257   5.622
 7859SOL     OW24475   5.348   2.827   0.305
 7859SOL    HW124476   5.300   2.751   0.260
 7859SOL    HW224477   5.337   2.910   0.251
 7860SOL     OW24478   2.643   0.583   4.239
 7860SOL    HW124479   2.626   0.680   4.224
 7860SOL    HW224480   2.741   0.564   4.230
 7861SOL     OW24481   2.911   5.982   0.667
 7861SOL    HW124482   2.872   6.050   0.604
 7861SOL    HW224483   2.869   5.992   0.757
 7862SOL     OW24484   2.507   5.761   0.407
 7862SOL    HW124485   2.593   5.714   0.424
 7862SOL    HW224486   2.459   5.716   0.332
 7863SOL     OW24487   6.702   4.555   3.272
 7863SOL    HW124488   6.619   4.499   3.273
 7863SOL    HW224489   6.780   4.500   3.303
 7864SOL     OW24490   2.071   6.770   5.151
 7864SOL    HW124491   2.125   6.686   5.152
 7864SOL    HW224492   2.093   6.825   5.231
 7865SOL     OW24493   5.659   5.732   3.635
 7865SOL    HW124494   5.598   5.656   3.611
 7865SOL    HW224495   5.705   5.712   3.721
 7866SOL     OW24496   0.932   6.853   5.780
 7866SOL    HW124497   0.992   6.845   5.701
 7866SOL    HW224498   0.845   6.893   5.752
 7867SOL     OW24499   5.385   6.194   3.663
 7867SOL    HW124500   5.408   6.102   3.630
 7867SOL    HW224501   5.468   6.241   3.692
 7868SOL     OW24502   3.494   6.113   1.248
 7868SOL    HW124503   3.575   6.134   1.193
 7868SOL    HW224504   3.448   6.198   1.274
 7869SOL     OW24505   5.450   4.662   6.181
 7869SOL    HW124506   5.486   4.753   6.204
 7869SOL    HW224507   5.372   4.671   6.119
 7870SOL     OW24508   5.567   6.204   5.229
 7870SOL    HW124509   5.507   6.239   5.157
 7870SOL    HW224510   5.638   6.271   5.249
 7871SOL     OW24511   4.645   1.667   1.688
 7871SOL    HW124512   4.720   1.718   1.646
 7871SOL    HW224513   4.567   1.664   1.625
 7872SOL     OW24514   1.818   6.237   2.795
 7872SOL    HW124515   1.836   6.140   2.811
 7872SOL    HW224516   1.888   6.274   2.734
 7873SOL     OW24517   6.367   1.066   6.856
 7873SOL    HW124518   6.377   1.123   6.937
 7873SOL    HW224519   6.305   0.990   6.876
 7874SOL     OW24520   5.594   2.386   0.916
 7874SOL    HW124521   5.513   2.327   0.919
 7874SOL    HW224522   5.574   2.472   0.963
 7875SOL     OW24523   4.968   4.367   6.931
 7875SOL    HW124524   5.018   4.302   6.874
 7875SOL    HW224525   4.922   4.434   6.872
 7876SOL     OW24526   0.896   0.080   2.339
 7876SOL    HW124527   0.938   0.152   2.396
 7876SOL    HW224528   0.956   0.000   2.338
 7877SOL     OW24529   0.320   2.247   3.063
 7877SOL    HW124530   0.220   2.237   3.059
 7877SOL    HW224531   0.346   2.336   3.027
 7878SOL     OW24532   4.203   5.128   3.264
 7878SOL    HW124533   4.130   5.061   3.249
 7878SOL    HW224534   4.277   5.086   3.316
 7879SOL     OW24535   2.433   4.663   3.180
 7879SOL    HW124536   2.516   4.717   3.168
 7879SOL    HW224537   2.399   4.633   3.091
 7880SOL     OW24538   1.361   4.212   1.885
 7880SOL    HW124539   1.406   4.220   1.974
 7880SOL    HW224540   1.374   4.297   1.834
 7881SOL     OW24541   5.092   4.186   4.046
 7881SOL    HW124542   5.033   4.107   4.028
 7881SOL    HW224543   5.186   4.154   4.063
 7882SOL     OW24544   1.368   2.996   0.968
 7882SOL    HW124545   1.351   3.076   0.911
 7882SOL    HW224546   1.298   2.927   0.949
 7883SOL     OW24547   1.146   1.182   5.359
 7883SOL    HW124548   1.244   1.198   5.346
 7883SOL    HW224549   1.109   1.250   5.423
 7884SOL     OW24550   0.870   2.931   4.329
 7884SOL    HW124551   0.966   2.905   4.335
 7884SOL    HW224552   0.857   2.991   4.250
 7885SOL     OW24553   5.835   6.063   0.206
 7885SOL    HW124554   5.842   6.088   0.110
 7885SOL    HW224555   5.924   6.030   0.239
 7886SOL     OW24556   4.744   5.167   6.701
 7886SOL    HW124557   4.684   5.232   6.655
 7886SOL    HW224558   4.691   5.116   6.769
 7887SOL     OW24559   5.103   1.802   0.124
 7887SOL    HW124560   5.049   1.743   0.184
 7887SOL    HW224561   5.154   1.746   0.060
 7888SOL     OW24562   5.186   1.082   4.449
 7888SOL    HW124563   5.169   1.000   4.504
 7888SOL    HW224564   5.154   1.162   4.500
 7889SOL     OW24565   0.957   6.733   2.129
 7889SOL    HW124566   0.994   6.659   2.072
 7889SOL    HW224567   1.022   6.808   2.133
 7890SOL     OW24568   1.864   2.983   3.001
 7890SOL    HW124569   1.830   3.055   3.062
 7890SOL    HW224570   1.813   2.985   2.915
 7891SOL     OW24571   2.471   4.887   2.521
 7891SOL    HW124572   2.439   4.813   2.462
 7891SOL    HW224573   2.511   4.960   2.464
 7892SOL     OW24574   1.742   2.178   5.722
 7892SOL    HW124575   1.660   2.223   5.687
 7892SOL    HW224576   1.795   2.242   5.776
 7893SOL     OW24577   6.066   6.255   1.254
 7893SOL    HW124578   6.138   6.187   1.243
 7893SOL    HW224579   6.088   6.315   1.331
 7894SOL     OW24580   3.034   6.772   1.678
 7894SOL    HW124581   3.094   6.695   1.658
 7894SOL    HW224582   3.012   6.821   1.594
 7895SOL     OW24583   0.257   1.493   4.054
 7895SOL    HW124584   0.326   1.470   3.986
 7895SOL    HW224585   0.176   1.436   4.040
 7896SOL     OW24586   4.554   2.753   5.792
 7896SOL    HW124587   4.579   2.661   5.823
 7896SOL    HW224588   4.454   2.760   5.783
 7897SOL     OW24589   3.002   2.939   6.110
 7897SOL    HW124590   3.026   3.036   6.098
 7897SOL    HW224591   2.912   2.932   6.152
 7898SOL     OW24592   4.362   2.193   3.549
 7898SOL    HW124593   4.336   2.099   3.569
 7898SOL    HW224594   4.462   2.200   3.544
 7899SOL     OW24595   5.860   1.758   2.882
 7899SOL    HW124596   5.870   1.673   2.934
 7899SOL    HW224597   5.770   1.759   2.837
 7900SOL     OW24598   1.627   5.021   0.735
 7900SOL    HW124599   1.537   5.022   0.778
 7900SOL    HW224600   1.617   5.016   0.636
 7901SOL     OW24601   6.058   6.295   6.879
 7901SOL    HW124602   6.145   6.259   6.844
 7901SOL    HW224603   6.036   6.380   6.833
 7902SOL     OW24604   4.251   3.689   6.809
 7902SOL    HW124605   4.299   3.650   6.730
 7902SOL    HW224606   4.280   3.784   6.822
 7903SOL     OW24607   0.182   1.959   6.531
 7903SOL    HW124608   0.191   1.859   6.527
 7903SOL    HW224609   0.198   1.998   6.440
 7904SOL     OW24610   6.482   0.965   2.689
 7904SOL    HW124611   6.487   0.885   2.630
 7904SOL    HW224612   6.563   1.022   2.675
 7905SOL     OW24613   3.744   1.203   1.064
 7905SOL    HW124614   3.780   1.118   1.025
 7905SOL    HW224615   3.795   1.281   1.028
 7906SOL     OW24616   6.204   5.891   0.106
 7906SOL    HW124617   6.262   5.813   0.082
 7906SOL    HW224618   6.139   5.909   0.033
 7907SOL     OW24619   6.752   2.650   2.270
 7907SOL    HW124620   6.767   2.688   2.179
 7907SOL    HW224621   6.689   2.573   2.265
 7908SOL     OW24622   6.480   2.424   3.735
 7908SOL    HW124623   6.534   2.340   3.734
 7908SOL    HW224624   6.411   2.419   3.663
 7909SOL     OW24625   4.680   4.632   5.123
 7909SOL    HW124626   4.737   4.652   5.043
 7909SOL    HW224627   4.613   4.705   5.135
 7910SOL     OW24628   5.585   3.179   5.840
 7910SOL    HW124629   5.577   3.249   5.769
 7910SOL    HW224630   5.673   3.190   5.887
 7911SOL     OW24631   5.703   4.536   0.155
 7911SOL    HW124632   5.750   4.586   0.228
 7911SOL    HW224633   5.610   4.571   0.145
 7912SOL     OW24634   6.350   4.958   5.877
 7912SOL    HW124635   6.351   4.985   5.780
 7912SOL    HW224636   6.429   4.900   5.897
 7913SOL     OW24637   6.904   5.735   6.061
 7913SOL    HW124638   6.806   5.743   6.077
 7913SOL    HW224639   6.953   5.797   6.122
 7914SOL     OW24640   6.814   4.388   1.901
 7914SOL    HW124641   6.721   4.417   1.922
 7914SOL    HW224642   6.840   4.313   1.962
 7915SOL     OW24643   3.398   1.635   3.181
 7915SOL    HW124644   3.352   1.721   3.159
 7915SOL    HW224645   3.407   1.579   3.099
 7916SOL     OW24646   5.284   3.728   5.368
 7916SOL    HW124647   5.298   3.813   5.318
 7916SOL    HW224648   5.273   3.747   5.465
 7917SOL     OW24649   3.239   3.754   4.017
 7917SOL    HW124650   3.272   3.724   3.927
 7917SOL    HW224651   3.151   3.801   4.006
 7918SOL     OW24652   6.303   1.668   2.624
 7918SOL    HW124653   6.395   1.705   2.610
 7918SOL    HW224654   6.237   1.743   2.619
 7919SOL     OW24655   6.007   4.908   2.065
 7919SOL    HW124656   6.019   4.933   1.969
 7919SOL    HW224657   6.096   4.902   2.110
 7920SOL     OW24658   0.763   5.395   1.683
 7920SOL    HW124659   0.716   5.355   1.762
 7920SOL    HW224660   0.793   5.322   1.622
 7921SOL     OW24661   3.223   6.596   1.635
 7921SOL    HW124662   3.166   6.548   1.569
 7921SOL    HW224663   3.285   6.658   1.587
 7922SOL     OW24664   0.739   4.988   6.792
 7922SOL    HW124665   0.688   4.992   6.878
 7922SOL    HW224666   0.795   5.070   6.782
 7923SOL     OW24667   1.746   1.778   2.988
 7923SOL    HW124668   1.651   1.806   2.981
 7923SOL    HW224669   1.795   1.842   3.048
 7924SOL     OW24670   2.226   0.048   4.149
 7924SOL    HW124671   2.323   0.063   4.168
 7924SOL    HW224672   2.189   0.126   4.099
 7925SOL     OW24673   6.706   1.260   6.566
 7925SOL    HW124674   6.750   1.348   6.549
 7925SOL    HW224675   6.710   1.238   6.663
 7926SOL     OW24676   3.794   0.023   1.781
 7926SOL    HW124677   3.770   0.065   1.693
 7926SOL    HW224678   3.884   7.000   1.773
 7927SOL     OW24679   5.002   5.166   4.699
 7927SOL    HW124680   4.964   5.192   4.611
 7927SOL    HW224681   5.077   5.228   4.723
 7928SOL     OW24682   1.501   5.008   1.390
 7928SOL    HW124683   1.424   5.071   1.406
 7928SOL    HW224684   1.466   4.920   1.358
 7929SOL     OW24685   3.578   4.188   4.281
 7929SOL    HW124686   3.629   4.196   4.366
 7929SOL    HW224687   3.638   4.154   4.209
 7930SOL     OW24688   4.878   6.148   3.861
 7930SOL    HW124689   4.905   6.191   3.947
 7930SOL    HW224690   4.821   6.068   3.880
 7931SOL     OW24691   2.026   1.898   0.779
 7931SOL    HW124692   2.118   1.876   0.811
 7931SOL    HW224693   2.022   1.996   0.757
 7932SOL     OW24694   2.574   6.935   1.175
 7932SOL    HW124695   2.481   6.903   1.195
 7932SOL    HW224696   2.581   6.959   1.078
 7933SOL     OW24697   1.518   0.696   0.208
 7933SOL    HW124698   1.576   0.725   0.284
 7933SOL    HW224699   1.521   0.766   0.136
 7934SOL     OW24700   2.835   3.792   6.198
 7934SOL    HW124701   2.827   3.831   6.107
 7934SOL    HW224702   2.756   3.819   6.253
 7935SOL     OW24703   4.174   6.089   1.082
 7935SOL    HW124704   4.202   6.098   0.987
 7935SOL    HW224705   4.241   6.035   1.132
 7936SOL     OW24706   4.502   6.206   3.282
 7936SOL    HW124707   4.558   6.261   3.220
 7936SOL    HW224708   4.407   6.238   3.277
 7937SOL     OW24709   6.145   6.286   5.515
 7937SOL    HW124710   6.049   6.312   5.508
 7937SOL    HW224711   6.180   6.262   5.424
 7938SOL     OW24712   5.379   5.015   4.836
 7938SOL    HW124713   5.362   5.083   4.764
 7938SOL    HW224714   5.295   4.999   4.887
 7939SOL     OW24715   0.958   1.118   4.857
 7939SOL    HW124716   0.864   1.142   4.881
 7939SOL    HW224717   1.021   1.165   4.918
 7940SOL     OW24718   1.648   5.744   1.112
 7940SOL    HW124719   1.716   5.732   1.185
 7940SOL    HW224720   1.657   5.669   1.046
 7941SOL     OW24721   0.604   0.570   0.753
 7941SOL    HW124722   0.521   0.531   0.712
 7941SOL    HW224723   0.586   0.592   0.849
 7942SOL     OW24724   0.933   1.006   1.531
 7942SOL    HW124725   0.970   0.935   1.591
 7942SOL    HW224726   0.870   0.966   1.466
 7943SOL     OW24727   5.134   1.792   1.221
 7943SOL    HW124728   5.193   1.783   1.301
 7943SOL    HW224729   5.058   1.854   1.243
 7944SOL     OW24730   1.146   4.899   1.767
 7944SOL    HW124731   1.172   4.834   1.839
 7944SOL    HW224732   1.053   4.931   1.783
 7945SOL     OW24733   4.962   6.424   2.134
 7945SOL    HW124734   4.864   6.443   2.136
 7945SOL    HW224735   4.980   6.345   2.075
 7946SOL     OW24736   1.481   2.342   5.649
 7946SOL    HW124737   1.391   2.317   5.614
 7946SOL    HW224738   1.481   2.334   5.749
 7947SOL     OW24739   3.947   3.613   6.328
 7947SOL    HW124740   3.855   3.586   6.298
 7947SOL    HW224741   3.949   3.621   6.427
 7948SOL     OW24742   0.164   6.330   0.574
 7948SOL    HW124743   0.163   6.390   0.654
 7948SOL    HW224744   0.190   6.383   0.493
 7949SOL     OW24745   5.265   4.332   4.268
 7949SOL    HW124746   5.275   4.247   4.215
 7949SOL    HW224747   5.355   4.364   4.297
 7950SOL     OW24748   3.690   5.080   4.488
 7950SOL    HW124749   3.754   5.020   4.439
 7950SOL    HW224750   3.630   5.025   4.545
 7951SOL     OW24751   3.512   3.259   1.250
 7951SOL    HW124752   3.606   3.276   1.219
 7951SOL    HW224753   3.505   3.167   1.287
 7952SOL     OW24754   5.742   3.047   1.030
 7952SOL    HW124755   5.716   3.070   1.123
 7952SOL    HW224756   5.688   2.969   0.998
 7953SOL     OW24757   2.009   2.607   2.891
 7953SOL    HW124758   1.945   2.532   2.877
 7953SOL    HW224759   2.076   2.581   2.961
 7954SOL     OW24760   4.277   5.156   5.166
 7954SOL    HW124761   4.205   5.215   5.128
 7954SOL    HW224762   4.325   5.111   5.091
 7955SOL     OW24763   0.966   6.850   6.087
 7955SOL    HW124764   0.949   6.871   5.991
 7955SOL    HW224765   0.881   6.817   6.129
 7956SOL     OW24766   6.169   0.186   3.668
 7956SOL    HW124767   6.092   0.248   3.685
 7956SOL    HW224768   6.188   0.133   3.751
 7957SOL     OW24769   0.739   2.331   0.953
 7957SOL    HW124770   0.728   2.428   0.975
 7957SOL    HW224771   0.836   2.311   0.942
 7958SOL     OW24772   2.561   5.629   2.999
 7958SOL    HW124773   2.592   5.724   3.010
 7958SOL    HW224774   2.464   5.629   2.974
 7959SOL     OW24775   5.500   5.120   0.816
 7959SOL    HW124776   5.598   5.120   0.835
 7959SOL    HW224777   5.468   5.214   0.809
 7960SOL     OW24778   2.571   2.436   1.423
 7960SOL    HW124779   2.566   2.349   1.471
 7960SOL    HW224780   2.658   2.481   1.445
 7961SOL     OW24781   1.662   5.116   6.373
 7961SOL    HW124782   1.642   5.118   6.275
 7961SOL    HW224783   1.761   5.104   6.387
 7962SOL     OW24784   1.209   0.649   2.264
 7962SOL    HW124785   1.285   0.621   2.205
 7962SOL    HW224786   1.125   0.649   2.210
 7963SOL     OW24787   0.158   0.506   4.970
 7963SOL    HW124788   0.144   0.532   5.065
 7963SOL    HW224789   0.106   0.423   4.950
 7964SOL     OW24790   5.961   5.600   3.488
 7964SOL    HW124791   5.917   5.510   3.484
 7964SOL    HW224792   5.955   5.636   3.581
 7965SOL     OW24793   5.631   1.776   0.203
 7965SOL    HW124794   5.653   1.681   0.182
 7965SOL    HW224795   5.545   1.779   0.255
 7966SOL     OW24796   0.273   5.059   4.010
 7966SOL    HW124797   0.219   5.143   4.022
 7966SOL    HW224798   0.260   5.024   3.917
 7967SOL     OW24799   2.802   6.599   2.857
 7967SOL    HW124800   2.896   6.576   2.882
 7967SOL    HW224801   2.782   6.563   2.766
 7968SOL     OW24802   2.047   1.538   2.167
 7968SOL    HW124803   2.106   1.616   2.145
 7968SOL    HW224804   1.967   1.539   2.108
 7969SOL     OW24805   2.771   2.311   3.298
 7969SOL    HW124806   2.729   2.378   3.361
 7969SOL    HW224807   2.803   2.358   3.216
 7970SOL     OW24808   0.662   4.344   3.210
 7970SOL    HW124809   0.592   4.277   3.187
 7970SOL    HW224810   0.724   4.306   3.278
 7971SOL     OW24811   2.554   1.470   1.524
 7971SOL    HW124812   2.565   1.534   1.599
 7971SOL    HW224813   2.625   1.400   1.529
 7972SOL     OW24814   0.411   4.345   1.986
 7972SOL    HW124815   0.469   4.274   1.947
 7972SOL    HW224816   0.421   4.345   2.086
 7973SOL     OW24817   4.713   2.885   3.259
 7973SOL    HW124818   4.702   2.902   3.161
 7973SOL    HW224819   4.690   2.789   3.279
 7974SOL     OW24820   5.244   0.470   4.330
 7974SOL    HW124821   5.267   0.393   4.390
 7974SOL    HW224822   5.325   0.527   4.317
 7975SOL     OW24823   3.263   1.385   4.214
 7975SOL    HW124824   3.164   1.396   4.208
 7975SOL    HW224825   3.308   1.472   4.193
 7976SOL     OW24826   0.879   5.584   6.466
 7976SOL    HW124827   0.814   5.563   6.394
 7976SOL    HW224828   0.970   5.550   6.441
 7977SOL     OW24829   5.577   6.191   1.670
 7977SOL    HW124830   5.520   6.192   1.588
 7977SOL    HW224831   5.527   6.147   1.745
 7978SOL     OW24832   4.270   2.800   5.805
 7978SOL    HW124833   4.211   2.796   5.725
 7978SOL    HW224834   4.276   2.894   5.838
 7979SOL     OW24835   3.685   6.679   4.401
 7979SOL    HW124836   3.678   6.644   4.494
 7979SOL    HW224837   3.615   6.750   4.387
 7980SOL     OW24838   3.141   6.192   1.161
 7980SOL    HW124839   3.094   6.122   1.215
 7980SOL    HW224840   3.165   6.154   1.072
 7981SOL     OW24841   1.044   5.373   2.778
 7981SOL    HW124842   1.070   5.416   2.692
 7981SOL    HW224843   0.952   5.403   2.804
 7982SOL     OW24844   6.442   3.138   1.014
 7982SOL    HW124845   6.487   3.056   0.978
 7982SOL    HW224846   6.504   3.187   1.075
 7983SOL     OW24847   5.166   2.686   2.844
 7983SOL    HW124848   5.190   2.728   2.757
 7983SOL    HW224849   5.094   2.617   2.829
 7984SOL     OW24850   0.474   1.939   1.616
 7984SOL    HW124851   0.425   2.025   1.606
 7984SOL    HW224852   0.535   1.945   1.695
 7985SOL     OW24853   0.303   1.642   1.786
 7985SOL    HW124854   0.350   1.705   1.849
 7985SOL    HW224855   0.217   1.683   1.756
 7986SOL     OW24856   3.883   1.247   0.028
 7986SOL    HW124857   3.870   1.341   0.061
 7986SOL    HW224858   3.865   1.183   0.102
 7987SOL     OW24859   0.559   3.141   4.498
 7987SOL    HW124860   0.531   3.049   4.523
 7987SOL    HW224861   0.549   3.153   4.399
 7988SOL     OW24862   2.996   1.729   5.085
 7988SOL    HW124863   2.921   1.777   5.131
 7988SOL    HW224864   2.979   1.725   4.987
 7989SOL     OW24865   2.827   2.647   5.317
 7989SOL    HW124866   2.770   2.597   5.382
 7989SOL    HW224867   2.810   2.745   5.327
 7990SOL     OW24868   1.433   2.307   4.931
 7990SOL    HW124869   1.399   2.286   5.022
 7990SOL    HW224870   1.392   2.244   4.865
 7991SOL     OW24871   0.954   3.097   5.998
 7991SOL    HW124872   0.873   3.038   5.997
 7991SOL    HW224873   1.025   3.057   5.941
 7992SOL     OW24874   2.423   1.153   0.755
 7992SOL    HW124875   2.387   1.243   0.779
 7992SOL    HW224876   2.351   1.099   0.713
 7993SOL     OW24877   1.945   6.364   6.787
 7993SOL    HW124878   1.941   6.418   6.703
 7993SOL    HW224879   2.040   6.349   6.812
 7994SOL     OW24880   5.567   0.998   3.245
 7994SOL    HW124881   5.631   0.956   3.181
 7994SOL    HW224882   5.524   0.928   3.302
 7995SOL     OW24883   3.179   5.126   3.784
 7995SOL    HW124884   3.226   5.208   3.814
 7995SOL    HW224885   3.085   5.126   3.818
 7996SOL     OW24886   3.746   7.005   5.049
 7996SOL    HW124887   3.766   6.923   5.102
 7996SOL    HW224888   3.810   0.057   5.074
 7997SOL     OW24889   5.626   2.653   1.485
 7997SOL    HW124890   5.690   2.628   1.558
 7997SOL    HW224891   5.670   2.719   1.423
 7998SOL     OW24892   6.029   4.885   6.915
 7998SOL    HW124893   6.039   4.974   6.959
 7998SOL    HW224894   5.956   4.834   6.959
 7999SOL     OW24895   2.208   0.375   5.381
 7999SOL    HW124896   2.260   0.292   5.405
 7999SOL    HW224897   2.112   0.351   5.368
 8000SOL     OW24898   6.484   6.923   5.436
 8000SOL    HW124899   6.538   6.849   5.396
 8000SOL    HW224900   6.420   6.958   5.367
 8001SOL     OW24901   1.717   6.966   0.955
 8001SOL    HW124902   1.733   6.884   1.010
 8001SOL    HW224903   1.800   6.988   0.904
 8002SOL     OW24904   6.012   2.986   5.298
 8002SOL    HW124905   6.022   2.892   5.328
 8002SOL    HW224906   5.918   3.002   5.268
 8003SOL     OW24907   3.820   5.060   3.092
 8003SOL    HW124908   3.854   5.153   3.079
 8003SOL    HW224909   3.746   5.060   3.159
 8004SOL     OW24910   1.967   3.666   2.504
 8004SOL    HW124911   2.011   3.734   2.445
 8004SOL    HW224912   1.926   3.594   2.448
 8005SOL     OW24913   3.182   0.876   1.622
 8005SOL    HW124914   3.263   0.933   1.606
 8005SOL    HW224915   3.115   0.893   1.550
 8006SOL     OW24916   3.395   5.989   0.140
 8006SOL    HW124917   3.316   6.037   0.180
 8006SOL    HW224918   3.376   5.891   0.136
 8007SOL     OW24919   0.559   0.395   4.526
 8007SOL    HW124920   0.560   0.301   4.562
 8007SOL    HW224921   0.603   0.396   4.436
 8008SOL     OW24922   6.287   6.579   0.532
 8008SOL    HW124923   6.364   6.618   0.584
 8008SOL    HW224924   6.247   6.649   0.473
 8009SOL     OW24925   0.173   6.807   3.730
 8009SOL    HW124926   0.272   6.798   3.719
 8009SOL    HW224927   0.128   6.784   3.644
 8010SOL     OW24928   1.865   2.767   0.028
 8010SOL    HW124929   1.944   2.718   0.065
 8010SOL    HW224930   1.888   2.805   6.959
 8011SOL     OW24931   3.263   1.963   0.397
 8011SOL    HW124932   3.168   1.938   0.418
 8011SOL    HW224933   3.325   1.897   0.438
 8012SOL     OW24934   2.766   6.665   1.801
 8012SOL    HW124935   2.783   6.571   1.831
 8012SOL    HW224936   2.845   6.699   1.750
 8013SOL     OW24937   6.513   4.226   4.793
 8013SOL    HW124938   6.581   4.153   4.785
 8013SOL    HW224939   6.448   4.219   4.717
 8014SOL     OW24940   2.008   6.610   0.006
 8014SOL    HW124941   2.103   6.612   0.039
 8014SOL    HW224942   2.001   6.545   6.951
 8015SOL     OW24943   2.317   2.759   6.858
 8015SOL    HW124944   2.330   2.812   6.941
 8015SOL    HW224945   2.224   2.725   6.854
 8016SOL     OW24946   3.574   6.504   0.864
 8016SOL    HW124947   3.579   6.516   0.765
 8016SOL    HW224948   3.623   6.580   0.909
 8017SOL     OW24949   5.947   4.645   4.698
 8017SOL    HW124950   6.012   4.698   4.751
 8017SOL    HW224951   5.949   4.675   4.603
 8018SOL     OW24952   5.238   2.159   4.982
 8018SOL    HW124953   5.173   2.087   5.005
 8018SOL    HW224954   5.199   2.248   5.007
 8019SOL     OW24955   2.947   5.714   0.613
 8019SOL    HW124956   2.921   5.810   0.624
 8019SOL    HW224957   2.886   5.657   0.668
 8020SOL     OW24958   5.332   5.654   6.858
 8020SOL    HW124959   5.417   5.677   6.907
 8020SOL    HW224960   5.348   5.574   6.801
 8021SOL     OW24961   0.539   0.601   1.211
 8021SOL    HW124962   0.537   0.621   1.309
 8021SOL    HW224963   0.543   0.687   1.160
 8022SOL     OW24964   4.244   6.351   2.959
 8022SOL    HW124965   4.291   6.393   3.037
 8022SOL    HW224966   4.208   6.422   2.899
 8023SOL     OW24967   6.038   6.913   2.684
 8023SOL    HW124968   6.018   6.999   2.638
 8023SOL    HW224969   5.958   6.853   2.679
 8024SOL     OW24970   4.677   5.292   5.069
 8024SOL    HW124971   4.686   5.241   4.984
 8024SOL    HW224972   4.654   5.230   5.144
 8025SOL     OW24973   4.049   5.467   6.967
 8025SOL    HW124974   4.099   5.528   0.009
 8025SOL    HW224975   4.095   5.467   6.878
 8026SOL     OW24976   1.162   3.005   0.345
 8026SOL    HW124977   1.063   2.990   0.342
 8026SOL    HW224978   1.185   3.081   0.284
 8027SOL     OW24979   4.704   2.190   5.436
 8027SOL    HW124980   4.775   2.127   5.467
 8027SOL    HW224981   4.689   2.259   5.506
 8028SOL     OW24982   5.494   4.241   6.723
 8028SOL    HW124983   5.499   4.303   6.644
 8028SOL    HW224984   5.473   4.149   6.691
 8029SOL     OW24985   3.762   4.191   0.530
 8029SOL    HW124986   3.741   4.185   0.432
 8029SOL    HW224987   3.856   4.165   0.546
 8030SOL     OW24988   5.716   4.189   6.305
 8030SOL    HW124989   5.676   4.264   6.251
 8030SOL    HW224990   5.725   4.218   6.400
 8031SOL     OW24991   3.672   5.446   1.498
 8031SOL    HW124992   3.689   5.450   1.597
 8031SOL    HW224993   3.748   5.490   1.450
 8032SOL     OW24994   5.388   3.423   5.862
 8032SOL    HW124995   5.454   3.388   5.796
 8032SOL    HW224996   5.303   3.449   5.815
 8033SOL     OW24997   5.837   3.022   6.957
 8033SOL    HW124998   5.831   2.963   0.017
 8033SOL    HW224999   5.747   3.062   6.939
 8034SOL     OW25000   5.765   0.080   4.970
 8034SOL    HW125001   5.777   7.006   4.999
 8034SOL    HW225002   5.797   0.090   4.876
 8035SOL     OW25003   5.867   6.701   6.328
 8035SOL    HW125004   5.783   6.706   6.383
 8035SOL    HW225005   5.915   6.616   6.348
 8036SOL     OW25006   1.792   4.471   1.764
 8036SOL    HW125007   1.737   4.522   1.830
 8036SOL    HW225008   1.884   4.457   1.801
 8037SOL     OW25009   1.780   3.203   1.203
 8037SOL    HW125010   1.690   3.219   1.244
 8037SOL    HW225011   1.842   3.164   1.271
 8038SOL     OW25012   0.214   2.484   4.344
 8038SOL    HW125013   0.267   2.530   4.273
 8038SOL    HW225014   0.272   2.420   4.394
 8039SOL     OW25015   2.771   0.043   3.421
 8039SOL    HW125016   2.851   0.022   3.364
 8039SOL    HW225017   2.785   0.006   3.513
 8040SOL     OW25018   6.808   6.015   1.002
 8040SOL    HW125019   6.784   5.964   1.084
 8040SOL    HW225020   6.904   6.043   1.008
 8041SOL     OW25021   4.338   1.494   0.642
 8041SOL    HW125022   4.431   1.521   0.617
 8041SOL    HW225023   4.314   1.409   0.596
 8042SOL     OW25024   3.235   3.330   1.556
 8042SOL    HW125025   3.181   3.414   1.560
 8042SOL    HW225026   3.333   3.353   1.553
 8043SOL     OW25027   2.556   6.659   1.973
 8043SOL    HW125028   2.627   6.664   1.904
 8043SOL    HW225029   2.598   6.663   2.064
 8044SOL     OW25030   2.901   3.769   1.812
 8044SOL    HW125031   2.908   3.800   1.907
 8044SOL    HW225032   2.936   3.676   1.804
 8045SOL     OW25033   5.709   2.570   3.058
 8045SOL    HW125034   5.804   2.542   3.071
 8045SOL    HW225035   5.704   2.670   3.050
 8046SOL     OW25036   6.871   4.946   6.025
 8046SOL    HW125037   6.856   4.865   5.969
 8046SOL    HW225038   6.964   4.945   6.061
 8047SOL     OW25039   3.626   5.930   4.169
 8047SOL    HW125040   3.690   6.003   4.191
 8047SOL    HW225041   3.603   5.879   4.252
 8048SOL     OW25042   6.519   0.146   5.514
 8048SOL    HW125043   6.608   0.182   5.486
 8048SOL    HW225044   6.513   0.048   5.490
 8049SOL     OW25045   1.120   5.908   0.585
 8049SOL    HW125046   1.204   5.953   0.553
 8049SOL    HW225047   1.143   5.824   0.633
 8050SOL     OW25048   1.921   2.825   1.390
 8050SOL    HW125049   2.011   2.820   1.348
 8050SOL    HW225050   1.856   2.770   1.338
 8051SOL     OW25051   4.600   0.780   3.803
 8051SOL    HW125052   4.586   0.701   3.743
 8051SOL    HW225053   4.667   0.842   3.761
 8052SOL     OW25054   2.748   1.340   2.910
 8052SOL    HW125055   2.791   1.341   2.819
 8052SOL    HW225056   2.817   1.361   2.979
 8053SOL     OW25057   3.918   3.719   2.352
 8053SOL    HW125058   3.837   3.665   2.375
 8053SOL    HW225059   3.945   3.774   2.431
 8054SOL     OW25060   4.230   6.533   4.896
 8054SOL    HW125061   4.266   6.593   4.968
 8054SOL    HW225062   4.153   6.578   4.851
 8055SOL     OW25063   1.720   6.659   6.086
 8055SOL    HW125064   1.749   6.657   5.990
 8055SOL    HW225065   1.696   6.752   6.111
 8056SOL     OW25066   4.477   1.683   2.931
 8056SOL    HW125067   4.564   1.685   2.881
 8056SOL    HW225068   4.440   1.590   2.932
 8057SOL     OW25069   3.140   6.765   3.098
 8057SOL    HW125070   3.178   6.707   3.170
 8057SOL    HW225071   3.214   6.817   3.055
 8058SOL     OW25072   2.627   1.105   2.844
 8058SOL    HW125073   2.679   1.182   2.880
 8058SOL    HW225074   2.559   1.076   2.912
 8059SOL     OW25075   3.011   1.638   4.080
 8059SOL    HW125076   3.047   1.607   3.993
 8059SOL    HW225077   2.978   1.732   4.072
 8060SOL     OW25078   0.572   1.533   4.169
 8060SOL    HW125079   0.543   1.438   4.178
 8060SOL    HW225080   0.549   1.567   4.078
 8061SOL     OW25081   6.964   5.233   2.344
 8061SOL    HW125082   6.985   5.286   2.426
 8061SOL    HW225083   0.002   5.264   2.269
 8062SOL     OW25084   1.951   4.035   3.160
 8062SOL    HW125085   2.045   4.012   3.131
 8062SOL    HW225086   1.955   4.101   3.235
 8063SOL     OW25087   3.124   3.015   0.275
 8063SOL    HW125088   3.211   3.065   0.266
 8063SOL    HW225089   3.054   3.075   0.312
 8064SOL     OW25090   6.869   3.982   6.833
 8064SOL    HW125091   6.823   3.904   6.876
 8064SOL    HW225092   6.800   4.047   6.800
 8065SOL     OW25093   4.749   0.428   5.510
 8065SOL    HW125094   4.684   0.500   5.488
 8065SOL    HW225095   4.744   0.357   5.440
 8066SOL     OW25096   1.763   0.364   1.206
 8066SOL    HW125097   1.721   0.306   1.136
 8066SOL    HW225098   1.692   0.410   1.259
 8067SOL     OW25099   5.102   2.696   2.405
 8067SOL    HW125100   5.143   2.678   2.316
 8067SOL    HW225101   5.047   2.617   2.433
 8068SOL     OW25102   1.207   4.389   4.507
 8068SOL    HW125103   1.226   4.335   4.588
 8068SOL    HW225104   1.170   4.478   4.534
 8069SOL     OW25105   1.498   6.608   1.605
 8069SOL    HW125106   1.528   6.547   1.532
 8069SOL    HW225107   1.438   6.679   1.567
 8070SOL     OW25108   3.688   6.811   1.291
 8070SOL    HW125109   3.787   6.829   1.287
 8070SOL    HW225110   3.639   6.897   1.275
 8071SOL     OW25111   3.912   6.258   6.641
 8071SOL    HW125112   3.876   6.165   6.648
 8071SOL    HW225113   4.009   6.258   6.666
 8072SOL     OW25114   5.584   1.106   0.741
 8072SOL    HW125115   5.595   1.143   0.833
 8072SOL    HW225116   5.504   1.149   0.698
 8073SOL     OW25117   3.962   6.200   5.715
 8073SOL    HW125118   3.901   6.276   5.694
 8073SOL    HW225119   3.908   6.123   5.750
 8074SOL     OW25120   3.599   3.782   6.901
 8074SOL    HW125121   3.566   3.692   6.932
 8074SOL    HW225122   3.680   3.808   6.954
 8075SOL     OW25123   0.341   1.846   3.185
 8075SOL    HW125124   0.386   1.920   3.134
 8075SOL    HW225125   0.292   1.885   3.263
 8076SOL     OW25126   6.157   3.362   5.951
 8076SOL    HW125127   6.124   3.425   6.021
 8076SOL    HW225128   6.106   3.376   5.867
 8077SOL     OW25129   1.455   0.519   0.905
 8077SOL    HW125130   1.406   0.601   0.875
 8077SOL    HW225131   1.396   0.465   0.964
 8078SOL     OW25132   6.341   3.518   0.742
 8078SOL    HW125133   6.339   3.577   0.823
 8078SOL    HW225134   6.348   3.575   0.660
 8079SOL     OW25135   6.490   2.162   2.317
 8079SOL    HW125136   6.400   2.168   2.358
 8079SOL    HW225137   6.516   2.066   2.305
 8080SOL     OW25138   3.300   4.945   0.044
 8080SOL    HW125139   3.323   5.028   0.095
 8080SOL    HW225140   3.274   4.970   6.971
 8081SOL     OW25141   6.157   0.988   5.696
 8081SOL    HW125142   6.237   0.930   5.709
 8081SOL    HW225143   6.134   0.992   5.599
 8082SOL     OW25144   6.869   2.800   3.734
 8082SOL    HW125145   6.857   2.747   3.818
 8082SOL    HW225146   6.848   2.742   3.655
 8083SOL     OW25147   4.491   2.279   4.103
 8083SOL    HW125148   4.497   2.223   4.021
 8083SOL    HW225149   4.549   2.240   4.175
 8084SOL     OW25150   6.738   0.409   1.072
 8084SOL    HW125151   6.658   0.458   1.107
 8084SOL    HW225152   6.815   0.421   1.135
 8085SOL     OW25153   5.263   1.767   1.442
 8085SOL    HW125154   5.297   1.679   1.474
 8085SOL    HW225155   5.314   1.841   1.488
 8086SOL     OW25156   3.432   0.204   5.417
 8086SOL    HW125157   3.428   0.296   5.378
 8086SOL    HW225158   3.374   0.142   5.364
 8087SOL     OW25159   2.830   2.530   1.480
 8087SOL    HW125160   2.818   2.629   1.490
 8087SOL    HW225161   2.926   2.511   1.458
 8088SOL     OW25162   4.295   1.129   3.031
 8088SOL    HW125163   4.353   1.195   3.079
 8088SOL    HW225164   4.205   1.126   3.074
 8089SOL     OW25165   6.030   3.164   0.094
 8089SOL    HW125166   5.968   3.113   0.034
 8089SOL    HW225167   5.988   3.176   0.184
 8090SOL     OW25168   4.289   2.152   5.526
 8090SOL    HW125169   4.281   2.215   5.450
 8090SOL    HW225170   4.385   2.124   5.536
 8091SOL     OW25171   3.011   4.868   5.613
 8091SOL    HW125172   2.973   4.793   5.559
 8091SOL    HW225173   3.111   4.870   5.601
 8092SOL     OW25174   1.625   1.812   4.377
 8092SOL    HW125175   1.645   1.841   4.470
 8092SOL    HW225176   1.592   1.718   4.378
 8093SOL     OW25177   5.668   6.023   1.193
 8093SOL    HW125178   5.598   5.993   1.258
 8093SOL    HW225179   5.726   6.092   1.236
 8094SOL     OW25180   0.896   3.993   6.014
 8094SOL    HW125181   0.992   4.018   5.998
 8094SOL    HW225182   0.869   4.019   6.106
 8095SOL     OW25183   5.210   3.639   4.085
 8095SOL    HW125184   5.212   3.542   4.059
 8095SOL    HW225185   5.297   3.664   4.127
 8096SOL     OW25186   3.588   6.039   1.926
 8096SOL    HW125187   3.571   6.133   1.895
 8096SOL    HW225188   3.501   5.990   1.932
 8097SOL     OW25189   5.270   1.169   3.853
 8097SOL    HW125190   5.204   1.097   3.832
 8097SOL    HW225191   5.342   1.170   3.784
 8098SOL     OW25192   2.522   6.790   3.727
 8098SOL    HW125193   2.495   6.882   3.700
 8098SOL    HW225194   2.620   6.787   3.746
 8099SOL     OW25195   4.568   6.335   5.045
 8099SOL    HW125196   4.536   6.364   5.136
 8099SOL    HW225197   4.667   6.344   5.040
 8100SOL     OW25198   0.583   6.598   1.015
 8100SOL    HW125199   0.574   6.654   1.097
 8100SOL    HW225200   0.510   6.620   0.950
 8101SOL     OW25201   1.267   5.926   3.035
 8101SOL    HW125202   1.282   6.024   3.044
 8101SOL    HW225203   1.349   5.877   3.064
 8102SOL     OW25204   0.110   5.567   5.964
 8102SOL    HW125205   0.028   5.616   5.996
 8102SOL    HW225206   0.167   5.630   5.912
 8103SOL     OW25207   3.252   1.316   2.658
 8103SOL    HW125208   3.258   1.287   2.563
 8103SOL    HW225209   3.327   1.275   2.710
 8104SOL     OW25210   2.740   6.615   6.285
 8104SOL    HW125211   2.715   6.590   6.378
 8104SOL    HW225212   2.832   6.656   6.285
 8105SOL     OW25213   1.969   2.167   3.233
 8105SOL    HW125214   1.967   2.262   3.265
 8105SOL    HW225215   2.058   2.127   3.252
 8106SOL     OW25216   1.081   3.892   4.137
 8106SOL    HW125217   1.044   3.801   4.158
 8106SOL    HW225218   1.094   3.943   4.222
 8107SOL     OW25219   1.932   6.276   6.104
 8107SOL    HW125220   1.986   6.275   6.188
 8107SOL    HW225221   1.839   6.309   6.125
 8108SOL     OW25222   0.787   3.081   3.855
 8108SOL    HW125223   0.748   3.149   3.792
 8108SOL    HW225224   0.712   3.032   3.900
 8109SOL     OW25225   1.597   5.466   5.048
 8109SOL    HW125226   1.629   5.376   5.016
 8109SOL    HW225227   1.672   5.513   5.096
 8110SOL     OW25228   2.218   5.020   0.811
 8110SOL    HW125229   2.168   4.941   0.846
 8110SOL    HW225230   2.237   5.083   0.886
 8111SOL     OW25231   2.662   5.391   4.134
 8111SOL    HW125232   2.704   5.455   4.199
 8111SOL    HW225233   2.585   5.344   4.178
 8112SOL     OW25234   3.119   0.941   4.758
 8112SOL    HW125235   3.022   0.932   4.782
 8112SOL    HW225236   3.175   0.908   4.835
 8113SOL     OW25237   3.751   2.380   6.154
 8113SOL    HW125238   3.710   2.463   6.117
 8113SOL    HW225239   3.838   2.403   6.199
 8114SOL     OW25240   2.528   3.102   1.459
 8114SOL    HW125241   2.542   3.157   1.542
 8114SOL    HW225242   2.438   3.125   1.420
 8115SOL     OW25243   3.419   0.963   1.052
 8115SOL    HW125244   3.506   1.007   1.076
 8115SOL    HW225245   3.379   1.008   0.973
 8116SOL     OW25246   6.118   0.607   5.383
 8116SOL    HW125247   6.075   0.656   5.308
 8116SOL    HW225248   6.218   0.611   5.374
 8117SOL     OW25249   2.035   1.817   5.686
 8117SOL    HW125250   1.989   1.745   5.634
 8117SOL    HW225251   2.011   1.906   5.648
 8118SOL     OW25252   0.957   3.327   4.755
 8118SOL    HW125253   1.036   3.368   4.708
 8118SOL    HW225254   0.983   3.236   4.788
 8119SOL     OW25255   1.235   6.494   2.581
 8119SOL    HW125256   1.246   6.411   2.526
 8119SOL    HW225257   1.233   6.574   2.521
 8120SOL     OW25258   4.485   3.790   1.701
 8120SOL    HW125259   4.486   3.692   1.683
 8120SOL    HW225260   4.579   3.825   1.702
 8121SOL     OW25261   5.892   0.486   3.164
 8121SOL    HW125262   5.919   0.579   3.142
 8121SOL    HW225263   5.964   0.423   3.133
 8122SOL     OW25264   6.784   6.449   2.362
 8122SOL    HW125265   6.726   6.395   2.300
 8122SOL    HW225266   6.726   6.496   2.429
 8123SOL     OW25267   1.102   6.458   6.971
 8123SOL    HW125268   1.082   6.536   0.008
 8123SOL    HW225269   1.039   6.457   6.893
 8124SOL     OW25270   0.734   5.775   2.530
 8124SOL    HW125271   0.789   5.837   2.474
 8124SOL    HW225272   0.735   5.805   2.625
 8125SOL     OW25273   5.395   5.446   3.051
 8125SOL    HW125274   5.486   5.413   3.076
 8125SOL    HW225275   5.394   5.469   2.954
 8126SOL     OW25276   5.403   5.054   2.354
 8126SOL    HW125277   5.349   4.971   2.349
 8126SOL    HW225278   5.450   5.059   2.442
 8127SOL     OW25279   2.614   4.619   0.259
 8127SOL    HW125280   2.703   4.586   0.228
 8127SOL    HW225281   2.594   4.706   0.214
 8128SOL     OW25282   3.965   2.503   5.430
 8128SOL    HW125283   3.988   2.554   5.512
 8128SOL    HW225284   4.026   2.530   5.355
 8129SOL     OW25285   5.098   0.138   6.592
 8129SOL    HW125286   5.197   0.124   6.592
 8129SOL    HW225287   5.062   0.123   6.684
 8130SOL     OW25288   1.882   6.373   0.240
 8130SOL    HW125289   1.852   6.432   0.165
 8130SOL    HW225290   1.883   6.278   0.210
 8131SOL     OW25291   1.934   1.568   0.617
 8131SOL    HW125292   2.020   1.616   0.604
 8131SOL    HW225293   1.897   1.540   0.528
 8132SOL     OW25294   6.598   5.000   3.778
 8132SOL    HW125295   6.502   4.995   3.753
 8132SOL    HW225296   6.647   5.062   3.717
 8133SOL     OW25297   1.091   5.754   1.656
 8133SOL    HW125298   1.177   5.764   1.707
 8133SOL    HW225299   1.112   5.726   1.562
 8134SOL     OW25300   2.128   2.392   2.585
 8134SOL    HW125301   2.078   2.347   2.512
 8134SOL    HW225302   2.128   2.491   2.569
 8135SOL     OW25303   4.638   5.910   1.775
 8135SOL    HW125304   4.562   5.962   1.736
 8135SOL    HW225305   4.666   5.839   1.711
 8136SOL     OW25306   4.442   5.769   1.385
 8136SOL    HW125307   4.353   5.786   1.428
 8136SOL    HW225308   4.514   5.777   1.454
 8137SOL     OW25309   2.397   4.012   5.538
 8137SOL    HW125310   2.413   3.916   5.561
 8137SOL    HW225311   2.467   4.042   5.473
 8138SOL     OW25312   5.075   0.956   3.833
 8138SOL    HW125313   4.992   0.900   3.823
 8138SOL    HW225314   5.125   0.926   3.915
 8139SOL     OW25315   1.809   2.793   3.644
 8139SOL    HW125316   1.808   2.723   3.572
 8139SOL    HW225317   1.903   2.809   3.674
 8140SOL     OW25318   4.205   0.091   0.834
 8140SOL    HW125319   4.218   0.087   0.933
 8140SOL    HW225320   4.214   7.019   0.796
 8141SOL     OW25321   4.595   1.004   5.024
 8141SOL    HW125322   4.582   1.007   4.924
 8141SOL    HW225323   4.673   1.061   5.049
 8142SOL     OW25324   2.006   5.874   0.900
 8142SOL    HW125325   1.990   5.936   0.977
 8142SOL    HW225326   2.050   5.791   0.934
 8143SOL     OW25327   6.220   4.948   0.609
 8143SOL    HW125328   6.189   4.932   0.515
 8143SOL    HW225329   6.303   5.003   0.608
 8144SOL     OW25330   0.026   4.947   6.778
 8144SOL    HW125331   7.015   4.972   6.687
 8144SOL    HW225332   0.008   4.850   6.795
 8145SOL     OW25333   5.502   5.968   6.880
 8145SOL    HW125334   5.488   5.945   6.977
 8145SOL    HW225335   5.545   5.891   6.834
 8146SOL     OW25336   6.152   0.429   4.224
 8146SOL    HW125337   6.059   0.399   4.201
 8146SOL    HW225338   6.185   0.375   4.302
 8147SOL     OW25339   1.627   0.864   6.352
 8147SOL    HW125340   1.587   0.821   6.271
 8147SOL    HW225341   1.667   0.952   6.326
 8148SOL     OW25342   4.506   5.163   0.215
 8148SOL    HW125343   4.428   5.111   0.179
 8148SOL    HW225344   4.482   5.260   0.218
 8149SOL     OW25345   0.793   5.765   5.308
 8149SOL    HW125346   0.876   5.710   5.302
 8149SOL    HW225347   0.808   5.843   5.369
 8150SOL     OW25348   0.658   3.473   1.073
 8150SOL    HW125349   0.711   3.390   1.057
 8150SOL    HW225350   0.587   3.455   1.140
 8151SOL     OW25351   6.585   5.559   3.151
 8151SOL    HW125352   6.635   5.474   3.136
 8151SOL    HW225353   6.646   5.628   3.189
 8152SOL     OW25354   4.795   1.336   3.783
 8152SOL    HW125355   4.855   1.412   3.761
 8152SOL    HW225356   4.779   1.281   3.700
 8153SOL     OW25357   0.399   1.265   2.397
 8153SOL    HW125358   0.343   1.344   2.421
 8153SOL    HW225359   0.342   1.195   2.355
 8154SOL     OW25360   1.758   0.714   3.018
 8154SOL    HW125361   1.783   0.637   3.076
 8154SOL    HW225362   1.841   0.764   2.992
 8155SOL     OW25363   2.046   5.421   2.692
 8155SOL    HW125364   1.966   5.361   2.680
 8155SOL    HW225365   2.022   5.497   2.752
 8156SOL     OW25366   6.583   5.281   1.569
 8156SOL    HW125367   6.644   5.215   1.612
 8156SOL    HW225368   6.634   5.336   1.503
 8157SOL     OW25369   0.540   3.342   5.295
 8157SOL    HW125370   0.629   3.382   5.315
 8157SOL    HW225371   0.552   3.261   5.238
 8158SOL     OW25372   5.563   5.286   6.767
 8158SOL    HW125373   5.621   5.344   6.709
 8158SOL    HW225374   5.604   5.279   6.858
 8159SOL     OW25375   3.407   6.451   5.589
 8159SOL    HW125376   3.313   6.433   5.562
 8159SOL    HW225377   3.409   6.477   5.686
 8160SOL     OW25378   4.824   0.953   3.313
 8160SOL    HW125379   4.870   0.913   3.392
 8160SOL    HW225380   4.784   0.880   3.257
 8161SOL     OW25381   5.811   3.057   1.652
 8161SOL    HW125382   5.729   3.008   1.683
 8161SOL    HW225383   5.870   3.076   1.731
 8162SOL     OW25384   0.307   5.394   6.082
 8162SOL    HW125385   0.299   5.353   6.173
 8162SOL    HW225386   0.239   5.466   6.072
 8163SOL     OW25387   4.561   4.426   5.360
 8163SOL    HW125388   4.646   4.376   5.369
 8163SOL    HW225389   4.495   4.392   5.427
 8164SOL     OW25390   4.796   1.681   0.671
 8164SOL    HW125391   4.895   1.670   0.666
 8164SOL    HW225392   4.772   1.775   0.646
 8165SOL     OW25393   6.844   1.372   6.908
 8165SOL    HW125394   6.812   1.278   6.895
 8165SOL    HW225395   6.941   1.371   6.932
 8166SOL     OW25396   1.851   1.822   4.855
 8166SOL    HW125397   1.783   1.843   4.925
 8166SOL    HW225398   1.938   1.866   4.879
 8167SOL     OW25399   1.258   2.615   4.756
 8167SOL    HW125400   1.352   2.632   4.786
 8167SOL    HW225401   1.215   2.548   4.815
 8168SOL     OW25402   2.467   1.080   2.053
 8168SOL    HW125403   2.456   1.094   1.955
 8168SOL    HW225404   2.385   1.112   2.101
 8169SOL     OW25405   5.338   2.719   0.548
 8169SOL    HW125406   5.324   2.766   0.461
 8169SOL    HW225407   5.412   2.764   0.599
 8170SOL     OW25408   6.269   5.171   2.499
 8170SOL    HW125409   6.293   5.215   2.586
 8170SOL    HW225410   6.215   5.235   2.443
 8171SOL     OW25411   1.962   1.054   1.020
 8171SOL    HW125412   2.060   1.050   1.037
 8171SOL    HW225413   1.930   1.148   1.029
 8172SOL     OW25414   0.643   2.628   0.902
 8172SOL    HW125415   0.584   2.607   0.980
 8172SOL    HW225416   0.695   2.711   0.922
 8173SOL     OW25417   6.061   1.006   2.261
 8173SOL    HW125418   5.984   1.065   2.237
 8173SOL    HW225419   6.026   0.923   2.306
 8174SOL     OW25420   2.635   4.809   3.077
 8174SOL    HW125421   2.621   4.742   3.005
 8174SOL    HW225422   2.727   4.800   3.114
 8175SOL     OW25423   0.355   1.570   4.907
 8175SOL    HW125424   0.416   1.578   4.987
 8175SOL    HW225425   0.399   1.613   4.828
 8176SOL     OW25426   2.625   3.875   0.551
 8176SOL    HW125427   2.699   3.897   0.615
 8176SOL    HW225428   2.646   3.914   0.461
 8177SOL     OW25429   3.888   0.827   3.273
 8177SOL    HW125430   3.865   0.752   3.334
 8177SOL    HW225431   3.983   0.855   3.289
 8178SOL     OW25432   2.309   6.860   1.249
 8178SOL    HW125433   2.253   6.801   1.307
 8178SOL    HW225434   2.311   6.824   1.156
 8179SOL     OW25435   5.715   1.217   3.377
 8179SOL    HW125436   5.791   1.195   3.438
 8179SOL    HW225437   5.656   1.137   3.366
 8180SOL     OW25438   4.879   6.549   6.967
 8180SOL    HW125439   4.813   6.621   6.989
 8180SOL    HW225440   4.921   6.514   0.030
 8181SOL     OW25441   0.825   1.170   0.617
 8181SOL    HW125442   0.841   1.140   0.711
 8181SOL    HW225443   0.748   1.120   0.579
 8182SOL     OW25444   2.901   3.616   4.880
 8182SOL    HW125445   2.874   3.568   4.964
 8182SOL    HW225446   2.888   3.714   4.893
 8183SOL     OW25447   0.460   0.374   5.026
 8183SOL    HW125448   0.405   0.353   5.106
 8183SOL    HW225449   0.465   0.473   5.014
 8184SOL     OW25450   0.151   6.148   6.858
 8184SOL    HW125451   0.221   6.079   6.879
 8184SOL    HW225452   0.065   6.102   6.836
 8185SOL     OW25453   0.960   5.930   0.059
 8185SOL    HW125454   0.926   6.023   0.049
 8185SOL    HW225455   0.960   5.905   0.156
 8186SOL     OW25456   1.229   5.444   6.648
 8186SOL    HW125457   1.196   5.448   6.554
 8186SOL    HW225458   1.220   5.535   6.690
 8187SOL     OW25459   0.462   0.772   5.683
 8187SOL    HW125460   0.425   0.735   5.598
 8187SOL    HW225461   0.465   0.700   5.753
 8188SOL     OW25462   2.091   2.793   3.656
 8188SOL    HW125463   2.103   2.774   3.559
 8188SOL    HW225464   2.173   2.837   3.692
 8189SOL     OW25465   5.481   4.944   3.707
 8189SOL    HW125466   5.532   4.883   3.767
 8189SOL    HW225467   5.525   4.946   3.617
 8190SOL     OW25468   6.396   3.517   3.270
 8190SOL    HW125469   6.492   3.540   3.283
 8190SOL    HW225470   6.384   3.468   3.184
 8191SOL     OW25471   3.188   5.593   0.904
 8191SOL    HW125472   3.277   5.629   0.877
 8191SOL    HW225473   3.173   5.504   0.860
 8192SOL     OW25474   0.744   4.719   3.437
 8192SOL    HW125475   0.832   4.707   3.482
 8192SOL    HW225476   0.670   4.699   3.502
 8193SOL     OW25477   0.884   4.141   4.740
 8193SOL    HW125478   0.954   4.114   4.673
 8193SOL    HW225479   0.794   4.139   4.696
 8194SOL     OW25480   4.862   6.367   1.526
 8194SOL    HW125481   4.848   6.279   1.571
 8194SOL    HW225482   4.796   6.433   1.562
 8195SOL     OW25483   5.606   6.563   3.025
 8195SOL    HW125484   5.582   6.492   2.959
 8195SOL    HW225485   5.572   6.537   3.115
 8196SOL     OW25486   5.010   0.761   0.375
 8196SOL    HW125487   4.949   0.731   0.302
 8196SOL    HW225488   5.079   0.691   0.393
 8197SOL     OW25489   4.627   1.543   2.655
 8197SOL    HW125490   4.635   1.454   2.700
 8197SOL    HW225491   4.666   1.537   2.563
 8198SOL     OW25492   1.569   0.313   2.416
 8198SOL    HW125493   1.619   0.326   2.502
 8198SOL    HW225494   1.473   0.295   2.437
 8199SOL     OW25495   5.828   3.259   5.994
 8199SOL    HW125496   5.877   3.192   6.049
 8199SOL    HW225497   5.819   3.344   6.045
 8200SOL     OW25498   4.318   2.672   1.115
 8200SOL    HW125499   4.409   2.685   1.076
 8200SOL    HW225500   4.270   2.760   1.115
 8201SOL     OW25501   6.866   6.678   5.286
 8201SOL    HW125502   6.767   6.685   5.271
 8201SOL    HW225503   6.885   6.664   5.383
 8202SOL     OW25504   0.840   6.188   2.025
 8202SOL    HW125505   0.918   6.226   2.075
 8202SOL    HW225506   0.831   6.236   1.937
 8203SOL     OW25507   1.107   3.816   1.427
 8203SOL    HW125508   1.146   3.772   1.508
 8203SOL    HW225509   1.017   3.854   1.450
 8204SOL     OW25510   3.366   2.810   0.840
 8204SOL    HW125511   3.354   2.888   0.902
 8204SOL    HW225512   3.375   2.843   0.746
 8205SOL     OW25513   1.239   3.657   0.703
 8205SOL    HW125514   1.163   3.667   0.767
 8205SOL    HW225515   1.320   3.624   0.751
 8206SOL     OW25516   3.547   0.590   6.902
 8206SOL    HW125517   3.481   0.583   6.977
 8206SOL    HW225518   3.628   0.641   6.933
 8207SOL     OW25519   3.790   2.918   4.898
 8207SOL    HW125520   3.832   2.893   4.811
 8207SOL    HW225521   3.705   2.969   4.880
 8208SOL     OW25522   2.022   0.643   0.504
 8208SOL    HW125523   2.043   0.551   0.470
 8208SOL    HW225524   1.959   0.635   0.581
 8209SOL     OW25525   6.530   1.115   5.450
 8209SOL    HW125526   6.541   1.116   5.549
 8209SOL    HW225527   6.588   1.043   5.411
 8210SOL     OW25528   1.443   2.760   0.017
 8210SOL    HW125529   1.426   2.823   0.093
 8210SOL    HW225530   1.470   2.812   6.957
 8211SOL     OW25531   3.389   4.827   1.033
 8211SOL    HW125532   3.441   4.772   0.968
 8211SOL    HW225533   3.321   4.769   1.079
 8212SOL     OW25534   1.530   2.619   3.561
 8212SOL    HW125535   1.611   2.605   3.504
 8212SOL    HW225536   1.517   2.717   3.576
 8213SOL     OW25537   7.000   5.218   1.431
 8213SOL    HW125538   6.964   5.295   1.483
 8213SOL    HW225539   6.928   5.150   1.417
 8214SOL     OW25540   5.136   4.265   3.402
 8214SOL    HW125541   5.058   4.328   3.410
 8214SOL    HW225542   5.157   4.226   3.491
 8215SOL     OW25543   3.335   5.173   4.549
 8215SOL    HW125544   3.279   5.195   4.628
 8215SOL    HW225545   3.286   5.196   4.465
 8216SOL     OW25546   4.576   4.464   3.712
 8216SOL    HW125547   4.499   4.527   3.717
 8216SOL    HW225548   4.624   4.462   3.799
 8217SOL     OW25549   2.444   6.019   0.315
 8217SOL    HW125550   2.493   5.943   0.358
 8217SOL    HW225551   2.476   6.031   0.221
 8218SOL     OW25552   0.745   1.352   0.036
 8218SOL    HW125553   0.741   1.321   0.131
 8218SOL    HW225554   0.827   1.316   7.013
 8219SOL     OW25555   5.936   2.061   6.412
 8219SOL    HW125556   5.979   2.007   6.484
 8219SOL    HW225557   5.884   2.136   6.452
 8220SOL     OW25558   3.665   3.253   2.769
 8220SOL    HW125559   3.589   3.209   2.721
 8220SOL    HW225560   3.652   3.352   2.771
 8221SOL     OW25561   5.093   5.745   3.553
 8221SOL    HW125562   5.150   5.668   3.524
 8221SOL    HW225563   5.037   5.776   3.476
 8222SOL     OW25564   5.431   1.921   2.480
 8222SOL    HW125565   5.439   1.934   2.579
 8222SOL    HW225566   5.521   1.930   2.438
 8223SOL     OW25567   0.564   4.830   6.037
 8223SOL    HW125568   0.609   4.768   5.973
 8223SOL    HW225569   0.495   4.779   6.089
 8224SOL     OW25570   1.174   2.873   4.022
 8224SOL    HW125571   1.196   2.874   3.924
 8224SOL    HW225572   1.252   2.907   4.074
 8225SOL     OW25573   4.923   1.438   6.761
 8225SOL    HW125574   4.999   1.503   6.755
 8225SOL    HW225575   4.955   1.346   6.736
 8226SOL     OW25576   5.043   0.882   0.938
 8226SOL    HW125577   4.973   0.932   0.990
 8226SOL    HW225578   5.118   0.857   0.999
 8227SOL     OW25579   6.371   2.987   3.317
 8227SOL    HW125580   6.357   2.907   3.259
 8227SOL    HW225581   6.330   3.067   3.274
 8228SOL     OW25582   6.486   2.782   5.380
 8228SOL    HW125583   6.554   2.852   5.399
 8228SOL    HW225584   6.523   2.692   5.404
 8229SOL     OW25585   3.559   5.227   6.891
 8229SOL    HW125586   3.591   5.132   6.887
 8229SOL    HW225587   3.632   5.284   6.930
 8230SOL     OW25588   5.715   0.506   4.562
 8230SOL    HW125589   5.621   0.538   4.560
 8230SOL    HW225590   5.737   0.471   4.653
 8231SOL     OW25591   5.084   6.201   0.472
 8231SOL    HW125592   5.106   6.164   0.562
 8231SOL    HW225593   5.106   6.133   0.402
 8232SOL     OW25594   3.618   1.709   6.715
 8232SOL    HW125595   3.564   1.721   6.799
 8232SOL    HW225596   3.677   1.788   6.702
 8233SOL     OW25597   0.776   5.296   6.279
 8233SOL    HW125598   0.699   5.234   6.269
 8233SOL    HW225599   0.746   5.390   6.263
 8234SOL     OW25600   3.262   2.732   7.003
 8234SOL    HW125601   3.222   2.719   0.073
 8234SOL    HW225602   3.197   2.704   6.933
 8235SOL     OW25603   4.403   3.829   1.440
 8235SOL    HW125604   4.431   3.824   1.535
 8235SOL    HW225605   4.327   3.893   1.430
 8236SOL     OW25606   6.247   3.012   7.015
 8236SOL    HW125607   6.285   3.022   6.923
 8236SOL    HW225608   6.167   3.070   0.004
 8237SOL     OW25609   3.940   6.039   5.466
 8237SOL    HW125610   3.883   6.035   5.549
 8237SOL    HW225611   3.959   6.134   5.442
 8238SOL     OW25612   1.813   2.725   6.335
 8238SOL    HW125613   1.766   2.746   6.420
 8238SOL    HW225614   1.841   2.809   6.290
 8239SOL     OW25615   0.018   1.203   5.887
 8239SOL    HW125616   6.979   1.154   5.824
 8239SOL    HW225617   0.114   1.184   5.863
 8240SOL     OW25618   3.340   4.156   2.997
 8240SOL    HW125619   3.301   4.148   2.906
 8240SOL    HW225620   3.423   4.213   2.993
 8241SOL     OW25621   3.751   6.880   6.966
 8241SOL    HW125622   3.741   6.793   6.917
 8241SOL    HW225623   3.678   6.890   0.013
 8242SOL     OW25624   1.043   4.498   5.294
 8242SOL    HW125625   1.090   4.428   5.240
 8242SOL    HW225626   0.976   4.454   5.353
 8243SOL     OW25627   0.837   3.272   5.638
 8243SOL    HW125628   0.931   3.296   5.661
 8243SOL    HW225629   0.834   3.179   5.602
 8244SOL     OW25630   0.619   6.436   4.037
 8244SOL    HW125631   0.673   6.480   4.110
 8244SOL    HW225632   0.529   6.413   4.072
 8245SOL     OW25633   4.175   2.203   1.195
 8245SOL    HW125634   4.159   2.111   1.230
 8245SOL    HW225635   4.152   2.271   1.265
 8246SOL     OW25636   5.461   3.442   6.132
 8246SOL    HW125637   5.461   3.435   6.032
 8246SOL    HW225638   5.430   3.356   6.172
 8247SOL     OW25639   0.766   0.186   1.707
 8247SOL    HW125640   0.720   0.102   1.679
 8247SOL    HW225641   0.862   0.182   1.679
 8248SOL     OW25642   5.224   4.446   3.792
 8248SOL    HW125643   5.190   4.362   3.834
 8248SOL    HW225644   5.155   4.518   3.800
 8249SOL     OW25645   1.550   4.735   3.977
 8249SOL    HW125646   1.583   4.829   3.987
 8249SOL    HW225647   1.622   4.672   4.005
 8250SOL     OW25648   4.079   3.615   2.706
 8250SOL    HW125649   4.114   3.701   2.670
 8250SOL    HW225650   3.984   3.628   2.735
 8251SOL     OW25651   5.680   1.626   4.832
 8251SOL    HW125652   5.745   1.566   4.878
 8251SOL    HW225653   5.722   1.664   4.750
 8252SOL     OW25654   2.136   2.630   5.692
 8252SOL    HW125655   2.141   2.563   5.767
 8252SOL    HW225656   2.093   2.714   5.725
 8253SOL     OW25657   3.380   2.714   5.504
 8253SOL    HW125658   3.338   2.625   5.516
 8253SOL    HW225659   3.314   2.786   5.524
 8254SOL     OW25660   4.100   4.791   3.776
 8254SOL    HW125661   4.156   4.717   3.740
 8254SOL    HW225662   4.112   4.797   3.875
 8255SOL     OW25663   4.308   6.259   4.390
 8255SOL    HW125664   4.326   6.204   4.472
 8255SOL    HW225665   4.393   6.271   4.339
 8256SOL     OW25666   6.624   1.443   4.574
 8256SOL    HW125667   6.628   1.534   4.615
 8256SOL    HW225668   6.643   1.450   4.476
 8257SOL     OW25669   5.641   4.997   3.434
 8257SOL    HW125670   5.547   5.023   3.410
 8257SOL    HW225671   5.663   4.909   3.391
 8258SOL     OW25672   3.860   1.496   0.155
 8258SOL    HW125673   3.888   1.479   0.250
 8258SOL    HW225674   3.784   1.561   0.154
 8259SOL     OW25675   3.533   1.997   3.515
 8259SOL    HW125676   3.486   1.920   3.557
 8259SOL    HW225677   3.624   2.007   3.555
 8260SOL     OW25678   2.713   6.461   0.385
 8260SOL    HW125679   2.798   6.474   0.335
 8260SOL    HW225680   2.727   6.484   0.481
 8261SOL     OW25681   5.265   1.495   1.561
 8261SOL    HW125682   5.291   1.525   1.652
 8261SOL    HW225683   5.320   1.415   1.535
 8262SOL     OW25684   0.949   3.274   1.817
 8262SOL    HW125685   1.031   3.312   1.861
 8262SOL    HW225686   0.949   3.298   1.720
 8263SOL     OW25687   6.297   1.478   1.251
 8263SOL    HW125688   6.286   1.577   1.260
 8263SOL    HW225689   6.388   1.452   1.281
 8264SOL     OW25690   1.561   5.537   2.470
 8264SOL    HW125691   1.587   5.610   2.533
 8264SOL    HW225692   1.632   5.528   2.400
 8265SOL     OW25693   1.774   0.363   2.066
 8265SOL    HW125694   1.740   0.392   2.156
 8265SOL    HW225695   1.746   0.430   1.997
 8266SOL     OW25696   3.065   6.455   2.593
 8266SOL    HW125697   3.060   6.388   2.520
 8266SOL    HW225698   3.160   6.483   2.607
 8267SOL     OW25699   1.548   3.383   1.358
 8267SOL    HW125700   1.596   3.439   1.291
 8267SOL    HW225701   1.451   3.410   1.360
 8268SOL     OW25702   2.498   6.541   5.744
 8268SOL    HW125703   2.589   6.572   5.770
 8268SOL    HW225704   2.431   6.612   5.765
 8269SOL     OW25705   5.586   1.549   1.298
 8269SOL    HW125706   5.631   1.622   1.351
 8269SOL    HW225707   5.567   1.472   1.358
 8270SOL     OW25708   3.493   6.043   3.942
 8270SOL    HW125709   3.434   6.123   3.956
 8270SOL    HW225710   3.518   6.004   4.031
 8271SOL     OW25711   0.114   1.678   3.161
 8271SOL    HW125712   0.102   1.617   3.240
 8271SOL    HW225713   0.200   1.728   3.171
 8272SOL     OW25714   3.962   1.172   2.630
 8272SOL    HW125715   3.914   1.107   2.571
 8272SOL    HW225716   3.928   1.264   2.613
 8273SOL     OW25717   3.002   6.833   0.971
 8273SOL    HW125718   3.100   6.819   0.960
 8273SOL    HW225719   2.956   6.745   0.978
 8274SOL     OW25720   4.911   5.216   2.665
 8274SOL    HW125721   4.825   5.168   2.650
 8274SOL    HW225722   4.968   5.164   2.728
 8275SOL     OW25723   4.816   1.991   6.308
 8275SOL    HW125724   4.906   1.967   6.273
 8275SOL    HW225725   4.759   1.909   6.312
 8276SOL     OW25726   0.746   2.141   4.045
 8276SOL    HW125727   0.734   2.045   4.019
 8276SOL    HW225728   0.669   2.170   4.101
 8277SOL     OW25729   6.912   6.938   6.751
 8277SOL    HW125730   6.890   6.963   6.845
 8277SOL    HW225731   6.959   7.014   6.706
 8278SOL     OW25732   2.382   2.183   0.797
 8278SOL    HW125733   2.380   2.098   0.745
 8278SOL    HW225734   2.411   2.164   0.891
 8279SOL     OW25735   0.663   6.570   4.366
 8279SOL    HW125736   0.716   6.488   4.343
 8279SOL    HW225737   0.724   6.649   4.372
 8280SOL     OW25738   3.601   2.559   5.936
 8280SOL    HW125739   3.572   2.629   5.871
 8280SOL    HW225740   3.696   2.576   5.963
 8281SOL     OW25741   0.276   6.180   1.598
 8281SOL    HW125742   0.247   6.137   1.513
 8281SOL    HW225743   0.329   6.114   1.652
 8282SOL     OW25744   5.357   2.709   6.143
 8282SOL    HW125745   5.396   2.730   6.053
 8282SOL    HW225746   5.380   2.614   6.168
 8283SOL     OW25747   1.878   3.854   5.879
 8283SOL    HW125748   1.976   3.834   5.878
 8283SOL    HW225749   1.862   3.941   5.925
 8284SOL     OW25750   6.715   4.211   2.437
 8284SOL    HW125751   6.695   4.263   2.519
 8284SOL    HW225752   6.732   4.273   2.360
 8285SOL     OW25753   3.820   3.177   5.136
 8285SOL    HW125754   3.893   3.244   5.153
 8285SOL    HW225755   3.846   3.089   5.176
 8286SOL     OW25756   6.502   2.258   6.098
 8286SOL    HW125757   6.565   2.327   6.062
 8286SOL    HW225758   6.427   2.244   6.033
 8287SOL     OW25759   0.990   5.655   4.669
 8287SOL    HW125760   1.028   5.573   4.626
 8287SOL    HW225761   0.893   5.642   4.686
 8288SOL     OW25762   2.281   2.970   2.995
 8288SOL    HW125763   2.327   2.886   3.025
 8288SOL    HW225764   2.255   2.961   2.899
 8289SOL     OW25765   0.994   0.250   0.587
 8289SOL    HW125766   1.062   0.289   0.649
 8289SOL    HW225767   1.027   0.258   0.493
 8290SOL     OW25768   6.068   1.733   0.611
 8290SOL    HW125769   6.011   1.770   0.537
 8290SOL    HW225770   6.115   1.808   0.657
 8291SOL     OW25771   4.069   6.778   6.077
 8291SOL    HW125772   4.103   6.696   6.033
 8291SOL    HW225773   3.975   6.797   6.047
 8292SOL     OW25774   3.464   6.474   6.589
 8292SOL    HW125775   3.474   6.428   6.677
 8292SOL    HW225776   3.516   6.425   6.519
 8293SOL     OW25777   4.361   6.384   6.004
 8293SOL    HW125778   4.380   6.286   5.992
 8293SOL    HW225779   4.391   6.412   6.095
 8294SOL     OW25780   5.925   2.492   6.536
 8294SOL    HW125781   5.996   2.527   6.597
 8294SOL    HW225782   5.917   2.552   6.456
 8295SOL     OW25783   5.328   4.249   1.466
 8295SOL    HW125784   5.359   4.258   1.561
 8295SOL    HW225785   5.293   4.157   1.451
 8296SOL     OW25786   1.536   5.814   6.897
 8296SOL    HW125787   1.470   5.864   6.840
 8296SOL    HW225788   1.489   5.779   6.978
 8297SOL     OW25789   6.270   2.444   3.548
 8297SOL    HW125790   6.297   2.457   3.452
 8297SOL    HW225791   6.170   2.440   3.554
 8298SOL     OW25792   4.938   1.224   1.636
 8298SOL    HW125793   4.988   1.139   1.654
 8298SOL    HW225794   4.931   1.277   1.720
 8299SOL     OW25795   6.435   2.701   2.141
 8299SOL    HW125796   6.467   2.638   2.070
 8299SOL    HW225797   6.469   2.793   2.123
 8300SOL     OW25798   0.578   4.581   4.667
 8300SOL    HW125799   0.529   4.655   4.621
 8300SOL    HW225800   0.676   4.598   4.662
 8301SOL     OW25801   4.455   2.901   1.479
 8301SOL    HW125802   4.358   2.877   1.489
 8301SOL    HW225803   4.511   2.818   1.484
 8302SOL     OW25804   6.270   6.190   6.686
 8302SOL    HW125805   6.322   6.273   6.664
 8302SOL    HW225806   6.325   6.132   6.747
 8303SOL     OW25807   0.241   0.244   4.846
 8303SOL    HW125808   0.318   0.299   4.879
 8303SOL    HW225809   0.176   0.304   4.799
 8304SOL     OW25810   0.717   3.858   6.336
 8304SOL    HW125811   0.726   3.835   6.433
 8304SOL    HW225812   0.621   3.856   6.310
 8305SOL     OW25813   3.787   5.320   4.067
 8305SOL    HW125814   3.741   5.330   3.980
 8305SOL    HW225815   3.853   5.244   4.062
 8306SOL     OW25816   0.999   3.055   4.877
 8306SOL    HW125817   1.073   3.054   4.943
 8306SOL    HW225818   0.911   3.043   4.924
 8307SOL     OW25819   3.717   5.469   0.325
 8307SOL    HW125820   3.803   5.495   0.281
 8307SOL    HW225821   3.678   5.548   0.372
 8308SOL     OW25822   3.792   6.767   2.180
 8308SOL    HW125823   3.771   6.670   2.194
 8308SOL    HW225824   3.708   6.821   2.182
 8309SOL     OW25825   5.651   6.140   2.274
 8309SOL    HW125826   5.573   6.076   2.279
 8309SOL    HW225827   5.736   6.088   2.279
 8310SOL     OW25828   0.163   4.915   0.427
 8310SOL    HW125829   0.123   4.851   0.493
 8310SOL    HW225830   0.137   4.887   0.334
 8311SOL     OW25831   6.826   0.843   0.054
 8311SOL    HW125832   6.755   0.814   0.118
 8311SOL    HW225833   6.790   0.844   6.982
 8312SOL     OW25834   5.364   6.755   1.635
 8312SOL    HW125835   5.405   6.679   1.584
 8312SOL    HW225836   5.356   6.730   1.732
 8313SOL     OW25837   3.805   1.463   2.981
 8313SOL    HW125838   3.904   1.468   2.973
 8313SOL    HW225839   3.767   1.556   2.986
 8314SOL     OW25840   5.989   0.103   1.870
 8314SOL    HW125841   5.983   0.137   1.776
 8314SOL    HW225842   5.900   0.112   1.914
 8315SOL     OW25843   4.566   3.463   0.857
 8315SOL    HW125844   4.495   3.405   0.818
 8315SOL    HW225845   4.648   3.408   0.874
 8316SOL     OW25846   1.164   4.520   0.776
 8316SOL    HW125847   1.195   4.545   0.685
 8316SOL    HW225848   1.087   4.578   0.803
 8317SOL     OW25849   1.867   4.341   2.491
 8317SOL    HW125850   1.892   4.419   2.434
 8317SOL    HW225851   1.900   4.256   2.449
 8318SOL     OW25852   4.017   1.276   4.818
 8318SOL    HW125853   3.958   1.347   4.858
 8318SOL    HW225854   3.990   1.261   4.723
 8319SOL     OW25855   3.361   0.851   5.624
 8319SOL    HW125856   3.389   0.887   5.535
 8319SOL    HW225857   3.439   0.806   5.668
 8320SOL     OW25858   2.942   4.853   1.124
 8320SOL    HW125859   2.912   4.866   1.218
 8320SOL    HW225860   3.027   4.903   1.109
 8321SOL     OW25861   0.601   0.603   0.342
 8321SOL    HW125862   0.551   0.532   0.292
 8321SOL    HW225863   0.699   0.589   0.329
 8322SOL     OW25864   0.237   0.339   0.091
 8322SOL    HW125865   0.160   0.326   0.154
 8322SOL    HW225866   0.293   0.255   0.090
 8323SOL     OW25867   0.751   0.943   2.782
 8323SOL    HW125868   0.685   0.889   2.836
 8323SOL    HW225869   0.843   0.905   2.795
 8324SOL     OW25870   5.933   0.757   2.162
 8324SOL    HW125871   5.862   0.687   2.154
 8324SOL    HW225872   5.942   0.784   2.258
 8325SOL     OW25873   3.232   2.955   4.168
 8325SOL    HW125874   3.264   3.020   4.100
 8325SOL    HW225875   3.309   2.924   4.224
 8326SOL     OW25876   4.362   3.023   5.951
 8326SOL    HW125877   4.308   3.108   5.951
 8326SOL    HW225878   4.455   3.043   5.922
 8327SOL     OW25879   5.873   2.349   6.220
 8327SOL    HW125880   5.960   2.300   6.216
 8327SOL    HW225881   5.853   2.372   6.316
 8328SOL     OW25882   2.186   2.799   6.284
 8328SOL    HW125883   2.261   2.864   6.277
 8328SOL    HW225884   2.103   2.840   6.246
 8329SOL     OW25885   6.875   2.953   5.230
 8329SOL    HW125886   6.792   2.941   5.285
 8329SOL    HW225887   6.883   2.876   5.166
 8330SOL     OW25888   1.792   6.367   0.513
 8330SOL    HW125889   1.833   6.377   0.422
 8330SOL    HW225890   1.861   6.387   0.583
 8331SOL     OW25891   2.931   0.521   1.461
 8331SOL    HW125892   2.904   0.457   1.389
 8331SOL    HW225893   3.030   0.520   1.471
 8332SOL     OW25894   4.665   5.086   1.936
 8332SOL    HW125895   4.568   5.064   1.930
 8332SOL    HW225896   4.718   5.002   1.952
 8333SOL     OW25897   0.708   5.744   0.547
 8333SOL    HW125898   0.667   5.794   0.470
 8333SOL    HW225899   0.796   5.705   0.518
 8334SOL     OW25900   6.607   2.135   3.938
 8334SOL    HW125901   6.593   2.036   3.929
 8334SOL    HW225902   6.609   2.177   3.848
 8335SOL     OW25903   6.169   5.770   5.456
 8335SOL    HW125904   6.107   5.729   5.523
 8335SOL    HW225905   6.183   5.866   5.479
 8336SOL     OW25906   0.689   1.755   1.799
 8336SOL    HW125907   0.739   1.713   1.723
 8336SOL    HW225908   0.741   1.833   1.833
 8337SOL     OW25909   0.843   6.370   2.374
 8337SOL    HW125910   0.888   6.325   2.451
 8337SOL    HW225911   0.744   6.358   2.382
 8338SOL     OW25912   1.849   4.881   1.313
 8338SOL    HW125913   1.846   4.949   1.386
 8338SOL    HW225914   1.916   4.909   1.244
 8339SOL     OW25915   5.708   1.429   2.729
 8339SOL    HW125916   5.807   1.421   2.732
 8339SOL    HW225917   5.677   1.424   2.634
 8340SOL     OW25918   4.957   4.226   0.624
 8340SOL    HW125919   5.040   4.173   0.645
 8340SOL    HW225920   4.943   4.295   0.695
 8341SOL     OW25921   2.022   6.580   1.056
 8341SOL    HW125922   2.048   6.502   1.113
 8341SOL    HW225923   2.082   6.584   0.975
 8342SOL     OW25924   3.723   0.694   0.500
 8342SOL    HW125925   3.748   0.779   0.548
 8342SOL    HW225926   3.720   0.619   0.566
 8343SOL     OW25927   1.121   5.486   6.402
 8343SOL    HW125928   1.156   5.545   6.329
 8343SOL    HW225929   1.114   5.392   6.369
 8344SOL     OW25930   4.115   6.440   6.153
 8344SOL    HW125931   4.188   6.410   6.090
 8344SOL    HW225932   4.146   6.520   6.204
 8345SOL     OW25933   5.910   1.414   3.003
 8345SOL    HW125934   5.922   1.319   3.033
 8345SOL    HW225935   5.922   1.420   2.904
 8346SOL     OW25936   2.668   4.979   1.112
 8346SOL    HW125937   2.659   4.884   1.083
 8346SOL    HW225938   2.586   5.007   1.162
 8347SOL     OW25939   3.093   6.651   5.454
 8347SOL    HW125940   3.131   6.618   5.368
 8347SOL    HW225941   3.030   6.727   5.436
 8348SOL     OW25942   1.231   0.762   1.330
 8348SOL    HW125943   1.142   0.752   1.287
 8348SOL    HW225944   1.301   0.776   1.260
 8349SOL     OW25945   6.062   3.698   0.714
 8349SOL    HW125946   6.071   3.770   0.783
 8349SOL    HW225947   6.120   3.721   0.635
 8350SOL     OW25948   6.284   1.013   5.378
 8350SOL    HW125949   6.223   1.092   5.385
 8350SOL    HW225950   6.379   1.045   5.380
 8351SOL     OW25951   3.145   5.980   4.119
 8351SOL    HW125952   3.195   5.928   4.049
 8351SOL    HW225953   3.185   5.964   4.209
 8352SOL     OW25954   6.802   6.850   2.631
 8352SOL    HW125955   6.792   6.752   2.645
 8352SOL    HW225956   6.729   6.883   2.571
 8353SOL     OW25957   6.456   3.637   1.666
 8353SOL    HW125958   6.468   3.549   1.620
 8353SOL    HW225959   6.474   3.625   1.764
 8354SOL     OW25960   3.006   1.378   6.881
 8354SOL    HW125961   2.989   1.471   6.914
 8354SOL    HW225962   2.960   1.312   6.940
 8355SOL     OW25963   3.263   6.951   6.953
 8355SOL    HW125964   3.329   6.989   7.018
 8355SOL    HW225965   3.192   7.019   6.934
 8356SOL     OW25966   1.636   5.901   0.396
 8356SOL    HW125967   1.579   5.819   0.399
 8356SOL    HW225968   1.725   5.879   0.355
 8357SOL     OW25969   4.141   5.865   5.056
 8357SOL    HW125970   4.214   5.932   5.046
 8357SOL    HW225971   4.180   5.773   5.053
 8358SOL     OW25972   1.980   2.824   5.827
 8358SOL    HW125973   2.042   2.847   5.903
 8358SOL    HW225974   1.934   2.908   5.796
 8359SOL     OW25975   4.189   5.429   4.208
 8359SOL    HW125976   4.134   5.482   4.273
 8359SOL    HW225977   4.176   5.331   4.226
 8360SOL     OW25978   4.757   6.781   2.933
 8360SOL    HW125979   4.760   6.698   2.878
 8360SOL    HW225980   4.760   6.861   2.873
 8361SOL     OW25981   1.557   0.992   2.750
 8361SOL    HW125982   1.632   1.054   2.729
 8361SOL    HW225983   1.487   0.999   2.679
 8362SOL     OW25984   2.297   2.491   0.213
 8362SOL    HW125985   2.368   2.518   0.277
 8362SOL    HW225986   2.339   2.467   0.125
 8363SOL     OW25987   0.482   3.003   0.306
 8363SOL    HW125988   0.433   2.918   0.328
 8363SOL    HW225989   0.447   3.078   0.362
 8364SOL     OW25990   6.190   3.825   3.139
 8364SOL    HW125991   6.215   3.798   3.232
 8364SOL    HW225992   6.238   3.767   3.073
 8365SOL     OW25993   1.562   3.442   0.152
 8365SOL    HW125994   1.472   3.406   0.179
 8365SOL    HW225995   1.554   3.540   0.133
 8366SOL     OW25996   4.477   6.199   2.370
 8366SOL    HW125997   4.455   6.288   2.329
 8366SOL    HW225998   4.576   6.191   2.380
 8367SOL     OW25999   4.887   6.363   3.599
 8367SOL    HW126000   4.823   6.286   3.593
 8367SOL    HW226001   4.979   6.328   3.619
 8368SOL     OW26002   2.395   5.420   5.931
 8368SOL    HW126003   2.310   5.423   5.878
 8368SOL    HW226004   2.388   5.350   6.002
 8369SOL     OW26005   2.260   1.543   0.210
 8369SOL    HW126006   2.184   1.536   0.145
 8369SOL    HW226007   2.228   1.521   0.302
 8370SOL     OW26008   1.352   1.928   6.421
 8370SOL    HW126009   1.362   1.831   6.446
 8370SOL    HW226010   1.426   1.955   6.359
 8371SOL     OW26011   1.480   2.943   0.568
 8371SOL    HW126012   1.550   2.955   0.637
 8371SOL    HW226013   1.393   2.920   0.612
 8372SOL     OW26014   0.025   0.672   2.493
 8372SOL    HW126015   6.983   0.686   2.569
 8372SOL    HW226016   0.060   0.760   2.461
 8373SOL     OW26017   1.035   6.172   5.492
 8373SOL    HW126018   1.094   6.110   5.440
 8373SOL    HW226019   1.069   6.180   5.585
 8374SOL     OW26020   6.646   0.269   0.147
 8374SOL    HW126021   6.679   0.293   0.056
 8374SOL    HW226022   6.659   0.346   0.209
 8375SOL     OW26023   3.318   0.011   6.124
 8375SOL    HW126024   3.237   0.065   6.101
 8375SOL    HW226025   3.305   6.938   6.093
 8376SOL     OW26026   2.727   0.468   3.946
 8376SOL    HW126027   2.770   0.533   3.883
 8376SOL    HW226028   2.769   0.476   4.037
 8377SOL     OW26029   6.198   4.999   1.621
 8377SOL    HW126030   6.246   4.921   1.661
 8377SOL    HW226031   6.121   5.024   1.681
 8378SOL     OW26032   5.646   3.069   3.244
 8378SOL    HW126033   5.726   3.093   3.299
 8378SOL    HW226034   5.573   3.136   3.260
 8379SOL     OW26035   6.268   3.258   1.342
 8379SOL    HW126036   6.203   3.297   1.275
 8379SOL    HW226037   6.267   3.159   1.335
 8380SOL     OW26038   5.295   1.384   2.695
 8380SOL    HW126039   5.300   1.286   2.680
 8380SOL    HW226040   5.210   1.406   2.743
 8381SOL     OW26041   1.290   5.377   4.717
 8381SOL    HW126042   1.236   5.409   4.639
 8381SOL    HW226043   1.236   5.384   4.801
 8382SOL     OW26044   1.123   2.479   2.619
 8382SOL    HW126045   1.023   2.476   2.624
 8382SOL    HW226046   1.151   2.533   2.540
 8383SOL     OW26047   2.830   2.188   6.979
 8383SOL    HW126048   2.887   2.172   6.898
 8383SOL    HW226049   2.772   2.268   6.964
 8384SOL     OW26050   6.845   6.580   2.009
 8384SOL    HW126051   6.908   6.639   2.059
 8384SOL    HW226052   6.897   6.511   1.958
 8385SOL     OW26053   4.961   2.489   2.468
 8385SOL    HW126054   4.950   2.391   2.448
 8385SOL    HW226055   4.879   2.522   2.515
 8386SOL     OW26056   0.659   4.135   2.932
 8386SOL    HW126057   0.645   4.135   2.833
 8386SOL    HW226058   0.583   4.182   2.976
 8387SOL     OW26059   0.684   1.990   1.364
 8387SOL    HW126060   0.748   1.950   1.429
 8387SOL    HW226061   0.600   1.937   1.364
 8388SOL     OW26062   2.774   0.201   1.956
 8388SOL    HW126063   2.700   0.134   1.952
 8388SOL    HW226064   2.737   0.291   1.980
 8389SOL     OW26065   5.166   3.216   2.009
 8389SOL    HW126066   5.215   3.301   2.029
 8389SOL    HW226067   5.127   3.180   2.094
 8390SOL     OW26068   4.820   1.865   5.760
 8390SOL    HW126069   4.736   1.878   5.814
 8390SOL    HW226070   4.806   1.793   5.693
 8391SOL     OW26071   6.234   1.221   1.357
 8391SOL    HW126072   6.135   1.209   1.358
 8391SOL    HW226073   6.258   1.295   1.295
 8392SOL     OW26074   5.638   3.323   4.339
 8392SOL    HW126075   5.623   3.333   4.438
 8392SOL    HW226076   5.733   3.347   4.318
 8393SOL     OW26077   5.027   0.265   1.596
 8393SOL    HW126078   5.061   0.207   1.523
 8393SOL    HW226079   5.097   0.331   1.623
 8394SOL     OW26080   6.293   4.084   2.322
 8394SOL    HW126081   6.266   4.134   2.240
 8394SOL    HW226082   6.385   4.047   2.310
 8395SOL     OW26083   2.581   1.147   5.051
 8395SOL    HW126084   2.497   1.178   5.096
 8395SOL    HW226085   2.658   1.154   5.115
 8396SOL     OW26086   4.163   5.333   4.963
 8396SOL    HW126087   4.108   5.402   5.009
 8396SOL    HW226088   4.260   5.355   4.973
 8397SOL     OW26089   6.468   0.919   3.425
 8397SOL    HW126090   6.470   0.939   3.523
 8397SOL    HW226091   6.463   1.004   3.373
 8398SOL     OW26092   5.850   2.226   5.808
 8398SOL    HW126093   5.821   2.207   5.902
 8398SOL    HW226094   5.870   2.323   5.798
 8399SOL     OW26095   0.218   5.903   0.775
 8399SOL    HW126096   0.132   5.860   0.745
 8399SOL    HW226097   0.295   5.848   0.744
 8400SOL     OW26098   1.194   2.317   4.048
 8400SOL    HW126099   1.172   2.357   4.137
 8400SOL    HW226100   1.257   2.240   4.061
 8401SOL     OW26101   2.961   0.501   5.830
 8401SOL    HW126102   2.908   0.571   5.879
 8401SOL    HW226103   2.979   0.424   5.891
 8402SOL     OW26104   3.940   1.002   6.075
 8402SOL    HW126105   3.911   1.097   6.073
 8402SOL    HW226106   4.025   0.994   6.128
 8403SOL     OW26107   5.905   4.757   4.435
 8403SOL    HW126108   5.973   4.814   4.390
 8403SOL    HW226109   5.813   4.783   4.404
 8404SOL     OW26110   1.931   1.737   6.530
 8404SOL    HW126111   1.916   1.833   6.552
 8404SOL    HW226112   1.964   1.689   6.611
 8405SOL     OW26113   4.071   1.201   5.494
 8405SOL    HW126114   4.116   1.122   5.450
 8405SOL    HW226115   4.035   1.262   5.423
 8406SOL     OW26116   5.256   1.019   6.645
 8406SOL    HW126117   5.329   0.976   6.592
 8406SOL    HW226118   5.249   0.974   6.734
 8407SOL     OW26119   3.465   6.545   4.089
 8407SOL    HW126120   3.504   6.532   4.180
 8407SOL    HW226121   3.519   6.614   4.040
 8408SOL     OW26122   4.923   0.750   1.281
 8408SOL    HW126123   4.869   0.686   1.336
 8408SOL    HW226124   4.897   0.742   1.185
 8409SOL     OW26125   4.820   2.784   2.471
 8409SOL    HW126126   4.786   2.799   2.564
 8409SOL    HW226127   4.920   2.787   2.471
 8410SOL     OW26128   0.088   1.843   1.633
 8410SOL    HW126129   0.089   1.920   1.697
 8410SOL    HW226130   7.015   1.808   1.624
 8411SOL     OW26131   1.512   5.801   0.862
 8411SOL    HW126132   1.485   5.894   0.838
 8411SOL    HW226133   1.547   5.800   0.955
 8412SOL     OW26134   3.110   2.719   0.225
 8412SOL    HW126135   3.171   2.787   0.266
 8412SOL    HW226136   3.015   2.747   0.239
 8413SOL     OW26137   4.247   5.236   5.513
 8413SOL    HW126138   4.264   5.205   5.419
 8413SOL    HW226139   4.236   5.157   5.573
 8414SOL     OW26140   1.139   1.519   2.769
 8414SOL    HW126141   1.063   1.462   2.738
 8414SOL    HW226142   1.123   1.547   2.864
 8415SOL     OW26143   2.655   0.720   5.192
 8415SOL    HW126144   2.729   0.748   5.132
 8415SOL    HW226145   2.600   0.649   5.148
 8416SOL     OW26146   6.575   1.601   5.076
 8416SOL    HW126147   6.491   1.548   5.081
 8416SOL    HW226148   6.586   1.655   5.159
 8417SOL     OW26149   1.467   3.647   4.564
 8417SOL    HW126150   1.434   3.624   4.472
 8417SOL    HW226151   1.549   3.704   4.556
 8418SOL     OW26152   1.034   5.967   2.582
 8418SOL    HW126153   1.065   5.903   2.512
 8418SOL    HW226154   1.064   5.935   2.672
 8419SOL     OW26155   5.461   0.839   4.136
 8419SOL    HW126156   5.501   0.866   4.048
 8419SOL    HW226157   5.411   0.916   4.175
 8420SOL     OW26158   3.123   0.064   2.172
 8420SOL    HW126159   3.084   0.117   2.097
 8420SOL    HW226160   3.205   0.016   2.141
 8421SOL     OW26161   4.209   5.788   5.959
 8421SOL    HW126162   4.257   5.786   5.871
 8421SOL    HW226163   4.116   5.754   5.948
 8422SOL     OW26164   4.638   2.631   3.339
 8422SOL    HW126165   4.567   2.585   3.285
 8422SOL    HW226166   4.616   2.622   3.437
 8423SOL     OW26167   5.662   4.871   6.114
 8423SOL    HW126168   5.732   4.810   6.151
 8423SOL    HW226169   5.631   4.838   6.025
 8424SOL     OW26170   2.054   0.437   3.831
 8424SOL    HW126171   2.091   0.520   3.873
 8424SOL    HW226172   2.062   0.444   3.732
 8425SOL     OW26173   3.515   3.212   3.112
 8425SOL    HW126174   3.551   3.139   3.054
 8425SOL    HW226175   3.432   3.250   3.071
 8426SOL     OW26176   3.683   2.960   1.892
 8426SOL    HW126177   3.646   3.045   1.931
 8426SOL    HW226178   3.783   2.960   1.902
 8427SOL     OW26179   3.109   3.486   3.406
 8427SOL    HW126180   3.192   3.440   3.437
 8427SOL    HW226181   3.029   3.432   3.433
 8428SOL     OW26182   7.010   0.860   0.993
 8428SOL    HW126183   6.989   0.951   1.029
 8428SOL    HW226184   6.925   0.817   0.961
 8429SOL     OW26185   1.444   5.570   6.489
 8429SOL    HW126186   1.366   5.543   6.546
 8429SOL    HW226187   1.420   5.654   6.439
 8430SOL     OW26188   4.297   6.413   4.650
 8430SOL    HW126189   4.291   6.313   4.642
 8430SOL    HW226190   4.258   6.442   4.738
 8431SOL     OW26191   3.157   3.808   5.669
 8431SOL    HW126192   3.199   3.785   5.581
 8431SOL    HW226193   3.178   3.736   5.735
 8432SOL     OW26194   6.315   5.850   6.671
 8432SOL    HW126195   6.356   5.782   6.732
 8432SOL    HW226196   6.290   5.931   6.722
 8433SOL     OW26197   5.182   2.551   0.679
 8433SOL    HW126198   5.239   2.614   0.627
 8433SOL    HW226199   5.086   2.562   0.650
 8434SOL     OW26200   1.868   5.185   5.267
 8434SOL    HW126201   1.914   5.158   5.183
 8434SOL    HW226202   1.907   5.270   5.301
 8435SOL     OW26203   4.889   1.011   2.921
 8435SOL    HW126204   4.884   1.078   2.995
 8435SOL    HW226205   4.899   1.060   2.833
 8436SOL     OW26206   2.273   6.781   2.670
 8436SOL    HW126207   2.254   6.797   2.573
 8436SOL    HW226208   2.371   6.769   2.684
 8437SOL     OW26209   2.041   3.268   2.360
 8437SOL    HW126210   2.098   3.243   2.438
 8437SOL    HW226211   2.026   3.188   2.302
 8438SOL     OW26212   1.489   4.357   2.668
 8438SOL    HW126213   1.496   4.260   2.692
 8438SOL    HW226214   1.460   4.365   2.573
 8439SOL     OW26215   5.863   5.974   3.643
 8439SOL    HW126216   5.811   5.889   3.634
 8439SOL    HW226217   5.954   5.962   3.603
 8440SOL     OW26218   1.557   1.304   3.226
 8440SOL    HW126219   1.498   1.372   3.183
 8440SOL    HW226220   1.503   1.224   3.251
 8441SOL     OW26221   5.452   1.069   5.324
 8441SOL    HW126222   5.485   0.981   5.356
 8441SOL    HW226223   5.475   1.140   5.391
 8442SOL     OW26224   3.787   1.741   5.139
 8442SOL    HW126225   3.876   1.765   5.102
 8442SOL    HW226226   3.775   1.785   5.228
 8443SOL     OW26227   1.667   4.670   2.853
 8443SOL    HW126228   1.674   4.575   2.822
 8443SOL    HW226229   1.571   4.695   2.862
 8444SOL     OW26230   4.981   5.425   3.666
 8444SOL    HW126231   4.927   5.362   3.611
 8444SOL    HW226232   4.969   5.519   3.632
 8445SOL     OW26233   4.204   6.238   6.669
 8445SOL    HW126234   4.298   6.243   6.635
 8445SOL    HW226235   4.181   6.324   6.715
 8446SOL     OW26236   0.258   6.041   5.094
 8446SOL    HW126237   0.227   5.983   5.169
 8446SOL    HW226238   0.248   6.137   5.121
 8447SOL     OW26239   4.423   1.552   3.320
 8447SOL    HW126240   4.447   1.643   3.286
 8447SOL    HW226241   4.324   1.537   3.310
 8448SOL     OW26242   4.615   6.830   3.191
 8448SOL    HW126243   4.697   6.868   3.233
 8448SOL    HW226244   4.633   6.809   3.095
 8449SOL     OW26245   1.621   2.452   3.008
 8449SOL    HW126246   1.648   2.375   2.951
 8449SOL    HW226247   1.654   2.537   2.966
 8450SOL     OW26248   6.636   0.500   0.339
 8450SOL    HW126249   6.563   0.477   0.402
 8450SOL    HW226250   6.706   0.554   0.386
 8451SOL     OW26251   4.704   2.108   1.229
 8451SOL    HW126252   4.658   2.193   1.256
 8451SOL    HW226253   4.665   2.032   1.281
 8452SOL     OW26254   5.134   1.756   5.403
 8452SOL    HW126255   5.052   1.811   5.389
 8452SOL    HW226256   5.154   1.704   5.320
 8453SOL     OW26257   0.251   5.833   0.421
 8453SOL    HW126258   0.288   5.827   0.513
 8453SOL    HW226259   0.207   5.922   0.408
 8454SOL     OW26260   0.627   4.350   0.443
 8454SOL    HW126261   0.673   4.266   0.415
 8454SOL    HW226262   0.551   4.328   0.504
 8455SOL     OW26263   0.932   0.623   2.858
 8455SOL    HW126264   0.952   0.721   2.848
 8455SOL    HW226265   0.881   0.591   2.778
 8456SOL     OW26266   5.849   1.320   3.867
 8456SOL    HW126267   5.823   1.223   3.865
 8456SOL    HW226268   5.920   1.335   3.935
 8457SOL     OW26269   6.013   5.939   4.448
 8457SOL    HW126270   6.075   5.871   4.408
 8457SOL    HW226271   5.993   5.913   4.543
 8458SOL     OW26272   0.403   0.148   0.009
 8458SOL    HW126273   0.474   0.095   6.984
 8458SOL    HW226274   0.395   0.238   6.986
 8459SOL     OW26275   1.729   5.388   3.063
 8459SOL    HW126276   1.744   5.296   3.026
 8459SOL    HW226277   1.679   5.381   3.150
 8460SOL     OW26278   3.194   4.042   4.947
 8460SOL    HW126279   3.174   4.069   4.853
 8460SOL    HW226280   3.123   4.078   5.008
 8461SOL     OW26281   6.195   3.985   3.783
 8461SOL    HW126282   6.218   4.049   3.856
 8461SOL    HW226283   6.225   3.893   3.809
 8462SOL     OW26284   2.252   2.690   1.582
 8462SOL    HW126285   2.285   2.753   1.511
 8462SOL    HW226286   2.300   2.709   1.668
 8463SOL     OW26287   5.491   0.822   2.248
 8463SOL    HW126288   5.555   0.886   2.206
 8463SOL    HW226289   5.533   0.783   2.330
 8464SOL     OW26290   5.970   2.712   5.011
 8464SOL    HW126291   5.877   2.713   5.048
 8464SOL    HW226292   5.993   2.802   4.974
 8465SOL     OW26293   1.624   2.703   0.487
 8465SOL    HW126294   1.593   2.798   0.484
 8465SOL    HW226295   1.703   2.691   0.427
 8466SOL     OW26296   0.947   6.237   3.484
 8466SOL    HW126297   0.971   6.297   3.408
 8466SOL    HW226298   0.981   6.275   3.569
 8467SOL     OW26299   2.828   5.527   0.791
 8467SOL    HW126300   2.863   5.435   0.775
 8467SOL    HW226301   2.730   5.523   0.810
 8468SOL     OW26302   4.355   1.913   6.920
 8468SOL    HW126303   4.323   1.853   6.847
 8468SOL    HW226304   4.392   1.997   6.880
 8469SOL     OW26305   3.520   2.427   6.821
 8469SOL    HW126306   3.473   2.356   6.873
 8469SOL    HW226307   3.521   2.512   6.875
 8470SOL     OW26308   2.724   3.149   6.473
 8470SOL    HW126309   2.633   3.170   6.437
 8470SOL    HW226310   2.715   3.100   6.560
 8471SOL     OW26311   3.807   0.771   4.211
 8471SOL    HW126312   3.785   0.739   4.119
 8471SOL    HW226313   3.866   0.852   4.204
 8472SOL     OW26314   1.254   6.488   4.409
 8472SOL    HW126315   1.281   6.504   4.505
 8472SOL    HW226316   1.155   6.476   4.404
 8473SOL     OW26317   6.370   5.222   0.180
 8473SOL    HW126318   6.327   5.166   0.109
 8473SOL    HW226319   6.337   5.317   0.172
 8474SOL     OW26320   3.646   4.002   1.579
 8474SOL    HW126321   3.718   4.071   1.581
 8474SOL    HW226322   3.652   3.945   1.660
 8475SOL     OW26323   5.393   1.643   2.714
 8475SOL    HW126324   5.449   1.561   2.702
 8475SOL    HW226325   5.296   1.616   2.714
 8476SOL     OW26326   4.721   0.879   2.181
 8476SOL    HW126327   4.803   0.825   2.204
 8476SOL    HW226328   4.734   0.973   2.211
 8477SOL     OW26329   3.012   1.125   1.435
 8477SOL    HW126330   3.093   1.152   1.382
 8477SOL    HW226331   2.935   1.113   1.373
 8478SOL     OW26332   1.280   0.258   5.849
 8478SOL    HW126333   1.207   0.190   5.854
 8478SOL    HW226334   1.307   0.284   5.942
 8479SOL     OW26335   5.704   1.135   1.436
 8479SOL    HW126336   5.695   1.077   1.517
 8479SOL    HW226337   5.689   1.079   1.354
 8480SOL     OW26338   2.650   1.617   1.330
 8480SOL    HW126339   2.744   1.583   1.336
 8480SOL    HW226340   2.595   1.573   1.400
 8481SOL     OW26341   3.637   0.307   4.203
 8481SOL    HW126342   3.729   0.277   4.229
 8481SOL    HW226343   3.625   0.403   4.227
 8482SOL     OW26344   1.638   6.725   2.155
 8482SOL    HW126345   1.543   6.750   2.135
 8482SOL    HW226346   1.639   6.639   2.206
 8483SOL     OW26347   3.948   5.957   1.044
 8483SOL    HW126348   4.025   6.017   1.067
 8483SOL    HW226349   3.865   5.989   1.090
 8484SOL     OW26350   0.812   5.147   4.302
 8484SOL    HW126351   0.730   5.193   4.335
 8484SOL    HW226352   0.845   5.082   4.370
 8485SOL     OW26353   2.326   3.095   6.893
 8485SOL    HW126354   2.303   3.141   6.979
 8485SOL    HW226355   2.404   3.035   6.907
 8486SOL     OW26356   5.227   0.762   2.569
 8486SOL    HW126357   5.234   0.846   2.516
 8486SOL    HW226358   5.132   0.734   2.577
 8487SOL     OW26359   4.536   6.991   0.706
 8487SOL    HW126360   4.569   6.988   0.612
 8487SOL    HW226361   4.540   0.065   0.740
 8488SOL     OW26362   4.863   3.029   4.224
 8488SOL    HW126363   4.819   2.979   4.150
 8488SOL    HW226364   4.838   3.126   4.220
 8489SOL     OW26365   4.229   4.843   1.766
 8489SOL    HW126366   4.216   4.834   1.667
 8489SOL    HW226367   4.226   4.752   1.807
 8490SOL     OW26368   4.359   5.156   2.593
 8490SOL    HW126369   4.348   5.067   2.548
 8490SOL    HW226370   4.269   5.191   2.619
 8491SOL     OW26371   2.532   0.493   2.265
 8491SOL    HW126372   2.566   0.466   2.355
 8491SOL    HW226373   2.444   0.540   2.276
 8492SOL     OW26374   6.021   3.521   5.019
 8492SOL    HW126375   6.069   3.480   4.942
 8492SOL    HW226376   5.960   3.454   5.061
 8493SOL     OW26377   4.483   1.731   0.054
 8493SOL    HW126378   4.487   1.768   0.146
 8493SOL    HW226379   4.439   1.797   7.014
 8494SOL     OW26380   3.948   5.539   6.239
 8494SOL    HW126381   3.984   5.626   6.274
 8494SOL    HW226382   3.885   5.557   6.164
 8495SOL     OW26383   0.044   2.676   1.164
 8495SOL    HW126384   6.972   2.711   1.150
 8495SOL    HW226385   0.109   2.753   1.166
 8496SOL     OW26386   0.051   2.951   3.677
 8496SOL    HW126387   6.989   2.898   3.698
 8496SOL    HW226388   0.061   3.025   3.743
 8497SOL     OW26389   5.778   5.809   3.042
 8497SOL    HW126390   5.826   5.889   3.008
 8497SOL    HW226391   5.762   5.819   3.141
 8498SOL     OW26392   0.430   0.915   0.829
 8498SOL    HW126393   0.409   0.817   0.823
 8498SOL    HW226394   0.528   0.926   0.844
 8499SOL     OW26395   3.685   3.961   6.256
 8499SOL    HW126396   3.621   4.019   6.306
 8499SOL    HW226397   3.721   4.011   6.177
 8500SOL     OW26398   2.889   6.696   6.013
 8500SOL    HW126399   2.809   6.730   5.964
 8500SOL    HW226400   2.944   6.639   5.952
 8501SOL     OW26401   1.597   3.841   6.644
 8501SOL    HW126402   1.572   3.745   6.652
 8501SOL    HW226403   1.673   3.850   6.580
 8502SOL     OW26404   6.318   0.110   1.458
 8502SOL    HW126405   6.246   0.045   1.434
 8502SOL    HW226406   6.277   0.196   1.486
 8503SOL     OW26407   2.725   4.816   3.455
 8503SOL    HW126408   2.635   4.848   3.428
 8503SOL    HW226409   2.795   4.876   3.416
 8504SOL     OW26410   1.527   5.292   3.241
 8504SOL    HW126411   1.446   5.327   3.195
 8504SOL    HW226412   1.519   5.193   3.251
 8505SOL     OW26413   4.999   3.342   3.432
 8505SOL    HW126414   5.003   3.280   3.354
 8505SOL    HW226415   4.945   3.423   3.408
 8506SOL     OW26416   1.613   6.472   0.185
 8506SOL    HW126417   1.582   6.414   0.109
 8506SOL    HW226418   1.611   6.420   0.270
 8507SOL     OW26419   1.095   1.215   5.727
 8507SOL    HW126420   1.093   1.292   5.791
 8507SOL    HW226421   1.110   1.130   5.778
 8508SOL     OW26422   0.801   1.883   5.938
 8508SOL    HW126423   0.774   1.787   5.936
 8508SOL    HW226424   0.721   1.940   5.917
 8509SOL     OW26425   6.399   1.718   4.718
 8509SOL    HW126426   6.313   1.676   4.691
 8509SOL    HW226427   6.381   1.805   4.764
 8510SOL     OW26428   5.615   6.381   2.387
 8510SOL    HW126429   5.616   6.299   2.330
 8510SOL    HW226430   5.649   6.359   2.478
 8511SOL     OW26431   6.456   4.867   1.958
 8511SOL    HW126432   6.553   4.858   1.977
 8511SOL    HW226433   6.436   4.961   1.928
 8512SOL     OW26434   5.446   2.529   0.015
 8512SOL    HW126435   5.491   2.545   0.103
 8512SOL    HW226436   5.474   2.599   6.970
 8513SOL     OW26437   6.280   4.975   1.304
 8513SOL    HW126438   6.300   5.042   1.375
 8513SOL    HW226439   6.344   4.898   1.312
 8514SOL     OW26440   2.883   2.040   4.704
 8514SOL    HW126441   2.885   2.064   4.801
 8514SOL    HW226442   2.795   1.998   4.682
 8515SOL     OW26443   1.004   0.642   0.978
 8515SOL    HW126444   0.967   0.664   0.888
 8515SOL    HW226445   0.980   0.715   1.042
 8516SOL     OW26446   6.191   2.779   2.497
 8516SOL    HW126447   6.260   2.710   2.518
 8516SOL    HW226448   6.168   2.774   2.400
 8517SOL     OW26449   1.641   2.714   5.033
 8517SOL    HW126450   1.669   2.752   5.121
 8517SOL    HW226451   1.661   2.780   4.961
 8518SOL     OW26452   5.159   4.900   6.685
 8518SOL    HW126453   5.111   4.819   6.719
 8518SOL    HW226454   5.207   4.877   6.600
 8519SOL     OW26455   1.501   4.126   0.715
 8519SOL    HW126456   1.491   4.028   0.698
 8519SOL    HW226457   1.563   4.139   0.793
 8520SOL     OW26458   4.180   3.536   4.875
 8520SOL    HW126459   4.152   3.523   4.780
 8520SOL    HW226460   4.277   3.559   4.879
 8521SOL     OW26461   1.421   5.928   5.469
 8521SOL    HW126462   1.391   5.930   5.564
 8521SOL    HW226463   1.358   5.980   5.412
 8522SOL     OW26464   1.446   6.072   0.769
 8522SOL    HW126465   1.517   6.105   0.708
 8522SOL    HW226466   1.368   6.134   0.766
 8523SOL     OW26467   2.781   0.832   6.810
 8523SOL    HW126468   2.786   0.931   6.800
 8523SOL    HW226469   2.709   0.795   6.751
 8524SOL     OW26470   1.581   5.889   4.636
 8524SOL    HW126471   1.614   5.843   4.719
 8524SOL    HW226472   1.481   5.901   4.642
 8525SOL     OW26473   0.290   4.946   1.538
 8525SOL    HW126474   0.272   4.936   1.440
 8525SOL    HW226475   0.384   4.917   1.558
 8526SOL     OW26476   2.380   6.270   0.462
 8526SOL    HW126477   2.414   6.326   0.387
 8526SOL    HW226478   2.368   6.176   0.430
 8527SOL     OW26479   3.484   0.552   6.182
 8527SOL    HW126480   3.408   0.519   6.238
 8527SOL    HW226481   3.532   0.474   6.141
 8528SOL     OW26482   5.242   2.336   0.087
 8528SOL    HW126483   5.191   2.303   0.008
 8528SOL    HW226484   5.321   2.389   0.056
 8529SOL     OW26485   1.264   6.360   6.626
 8529SOL    HW126486   1.347   6.402   6.591
 8529SOL    HW226487   1.272   6.348   6.725
 8530SOL     OW26488   3.008   3.905   4.419
 8530SOL    HW126489   3.032   3.847   4.497
 8530SOL    HW226490   2.969   3.848   4.346
 8531SOL     OW26491   6.656   5.935   3.367
 8531SOL    HW126492   6.716   6.012   3.390
 8531SOL    HW226493   6.701   5.876   3.299
 8532SOL     OW26494   3.091   5.707   4.455
 8532SOL    HW126495   3.032   5.739   4.380
 8532SOL    HW226496   3.160   5.645   4.418
 8533SOL     OW26497   0.919   6.559   5.931
 8533SOL    HW126498   0.978   6.578   6.009
 8533SOL    HW226499   0.929   6.632   5.863
 8534SOL     OW26500   4.174   2.206   3.989
 8534SOL    HW126501   4.261   2.156   3.990
 8534SOL    HW226502   4.158   2.243   3.897
 8535SOL     OW26503   5.931   1.135   3.062
 8535SOL    HW126504   5.871   1.057   3.080
 8535SOL    HW226505   6.025   1.104   3.050
 8536SOL     OW26506   0.150   0.670   4.601
 8536SOL    HW126507   0.206   0.653   4.683
 8536SOL    HW226508   0.189   0.621   4.523
 8537SOL     OW26509   6.956   1.123   2.748
 8537SOL    HW126510   6.927   1.069   2.826
 8537SOL    HW226511   0.012   1.182   2.775
 8538SOL     OW26512   1.187   2.833   0.061
 8538SOL    HW126513   1.136   2.760   0.106
 8538SOL    HW226514   1.271   2.796   0.022
 8539SOL     OW26515   6.693   2.635   3.066
 8539SOL    HW126516   6.782   2.592   3.054
 8539SOL    HW226517   6.635   2.576   3.123
 8540SOL     OW26518   4.239   0.016   0.241
 8540SOL    HW126519   4.220   6.989   0.326
 8540SOL    HW226520   4.258   0.112   0.261
 8541SOL     OW26521   2.281   2.386   3.581
 8541SOL    HW126522   2.254   2.385   3.677
 8541SOL    HW226523   2.350   2.315   3.565
 8542SOL     OW26524   3.986   3.993   6.598
 8542SOL    HW126525   3.989   4.049   6.680
 8542SOL    HW226526   3.983   4.052   6.517
 8543SOL     OW26527   1.726   2.615   6.825
 8543SOL    HW126528   1.778   2.554   6.765
 8543SOL    HW226529   1.788   2.680   6.867
 8544SOL     OW26530   5.650   2.389   4.450
 8544SOL    HW126531   5.561   2.400   4.496
 8544SOL    HW226532   5.643   2.317   4.382
 8545SOL     OW26533   5.032   6.506   4.617
 8545SOL    HW126534   5.125   6.533   4.643
 8545SOL    HW226535   5.037   6.444   4.539
 8546SOL     OW26536   4.808   1.465   4.569
 8546SOL    HW126537   4.709   1.464   4.584
 8546SOL    HW226538   4.831   1.540   4.507
 8547SOL     OW26539   0.852   4.566   3.197
 8547SOL    HW126540   0.847   4.636   3.268
 8547SOL    HW226541   0.781   4.498   3.213
 8548SOL     OW26542   5.826   1.070   5.357
 8548SOL    HW126543   5.761   1.110   5.293
 8548SOL    HW226544   5.862   1.142   5.418
 8549SOL     OW26545   6.416   3.494   4.517
 8549SOL    HW126546   6.447   3.437   4.442
 8549SOL    HW226547   6.460   3.584   4.512
 8550SOL     OW26548   1.487   4.438   6.655
 8550SOL    HW126549   1.544   4.467   6.578
 8550SOL    HW226550   1.546   4.400   6.727
 8551SOL     OW26551   3.271   4.108   6.903
 8551SOL    HW126552   3.297   4.085   6.809
 8551SOL    HW226553   3.283   4.027   6.961
 8552SOL     OW26554   1.871   6.491   3.994
 8552SOL    HW126555   1.920   6.540   4.065
 8552SOL    HW226556   1.809   6.424   4.035
 8553SOL     OW26557   5.080   6.984   0.445
 8553SOL    HW126558   5.117   7.016   0.533
 8553SOL    HW226559   5.004   0.023   0.418
 8554SOL     OW26560   6.785   3.806   6.604
 8554SOL    HW126561   6.821   3.866   6.675
 8554SOL    HW226562   6.738   3.729   6.646
 8555SOL     OW26563   1.344   6.893   3.788
 8555SOL    HW126564   1.390   6.961   3.846
 8555SOL    HW226565   1.319   6.814   3.844
 8556SOL     OW26566   6.343   0.642   3.427
 8556SOL    HW126567   6.365   0.608   3.518
 8556SOL    HW226568   6.382   0.734   3.416
 8557SOL     OW26569   6.948   0.423   1.228
 8557SOL    HW126570   6.973   0.520   1.221
 8557SOL    HW226571   6.943   0.397   1.325
 8558SOL     OW26572   1.302   5.214   1.997
 8558SOL    HW126573   1.319   5.166   1.911
 8558SOL    HW226574   1.383   5.266   2.022
 8559SOL     OW26575   1.225   0.228   1.142
 8559SOL    HW126576   1.202   0.325   1.148
 8559SOL    HW226577   1.170   0.186   1.070
 8560SOL     OW26578   6.328   1.979   0.217
 8560SOL    HW126579   6.254   2.036   0.251
 8560SOL    HW226580   6.290   1.901   0.168
 8561SOL     OW26581   4.471   6.485   3.645
 8561SOL    HW126582   4.554   6.437   3.674
 8561SOL    HW226583   4.493   6.546   3.569
 8562SOL     OW26584   3.302   6.255   4.051
 8562SOL    HW126585   3.340   6.345   4.070
 8562SOL    HW226586   3.239   6.229   4.124
 8563SOL     OW26587   3.013   2.508   6.860
 8563SOL    HW126588   2.990   2.580   6.795
 8563SOL    HW226589   2.932   2.484   6.913
 8564SOL     OW26590   1.275   0.019   3.554
 8564SOL    HW126591   1.368   0.033   3.521
 8564SOL    HW226592   1.277   6.982   3.636
 8565SOL     OW26593   3.581   6.561   1.209
 8565SOL    HW126594   3.649   6.541   1.138
 8565SOL    HW226595   3.591   6.655   1.240
 8566SOL     OW26596   1.789   2.612   3.433
 8566SOL    HW126597   1.847   2.530   3.441
 8566SOL    HW226598   1.801   2.652   3.342
 8567SOL     OW26599   5.219   1.192   1.459
 8567SOL    HW126600   5.185   1.158   1.547
 8567SOL    HW226601   5.186   1.286   1.445
 8568SOL     OW26602   5.544   1.082   0.429
 8568SOL    HW126603   5.544   1.171   0.385
 8568SOL    HW226604   5.565   1.092   0.526
 8569SOL     OW26605   4.229   1.289   4.458
 8569SOL    HW126606   4.184   1.207   4.492
 8569SOL    HW226607   4.245   1.281   4.360
 8570SOL     OW26608   0.360   4.218   0.195
 8570SOL    HW126609   0.436   4.174   0.147
 8570SOL    HW226610   0.274   4.196   0.148
 8571SOL     OW26611   0.069   4.307   5.100
 8571SOL    HW126612   0.126   4.385   5.126
 8571SOL    HW226613   0.113   4.258   5.025
 8572SOL     OW26614   2.569   5.064   5.212
 8572SOL    HW126615   2.637   5.126   5.173
 8572SOL    HW226616   2.596   4.969   5.193
 8573SOL     OW26617   3.115   5.814   5.769
 8573SOL    HW126618   3.060   5.741   5.729
 8573SOL    HW226619   3.207   5.811   5.731
 8574SOL     OW26620   1.000   3.866   5.742
 8574SOL    HW126621   1.088   3.822   5.732
 8574SOL    HW226622   0.927   3.798   5.732
 8575SOL     OW26623   3.450   2.299   0.426
 8575SOL    HW126624   3.400   2.382   0.400
 8575SOL    HW226625   3.407   2.258   0.506
 8576SOL     OW26626   1.556   0.029   1.443
 8576SOL    HW126627   1.497   0.102   1.407
 8576SOL    HW226628   1.642   0.029   1.392
 8577SOL     OW26629   6.471   6.154   3.335
 8577SOL    HW126630   6.528   6.072   3.338
 8577SOL    HW226631   6.482   6.199   3.246
 8578SOL     OW26632   4.035   6.802   3.647
 8578SOL    HW126633   4.082   6.890   3.645
 8578SOL    HW226634   4.082   6.737   3.587
 8579SOL     OW26635   1.431   5.072   3.361
 8579SOL    HW126636   1.368   5.149   3.371
 8579SOL    HW226637   1.408   5.002   3.429
 8580SOL     OW26638   1.842   5.245   0.298
 8580SOL    HW126639   1.841   5.227   0.199
 8580SOL    HW226640   1.793   5.331   0.316
 8581SOL     OW26641   3.351   1.868   1.495
 8581SOL    HW126642   3.415   1.815   1.440
 8581SOL    HW226643   3.383   1.963   1.502
 8582SOL     OW26644   4.158   4.225   1.618
 8582SOL    HW126645   4.182   4.300   1.680
 8582SOL    HW226646   4.238   4.167   1.602
 8583SOL     OW26647   6.180   0.513   6.010
 8583SOL    HW126648   6.252   0.454   6.048
 8583SOL    HW226649   6.093   0.462   6.008
 8584SOL     OW26650   6.925   5.985   0.556
 8584SOL    HW126651   6.970   5.900   0.584
 8584SOL    HW226652   6.836   5.964   0.517
 8585SOL     OW26653   0.312   0.987   0.063
 8585SOL    HW126654   0.231   0.979   0.121
 8585SOL    HW226655   0.330   1.084   0.044
 8586SOL     OW26656   3.912   5.458   3.207
 8586SOL    HW126657   3.993   5.460   3.266
 8586SOL    HW226658   3.868   5.548   3.209
 8587SOL     OW26659   0.090   2.084   1.759
 8587SOL    HW126660   0.072   2.080   1.857
 8587SOL    HW226661   0.119   2.177   1.735
 8588SOL     OW26662   4.750   2.657   0.232
 8588SOL    HW126663   4.791   2.715   0.161
 8588SOL    HW226664   4.823   2.608   0.281
 8589SOL     OW26665   3.348   2.051   4.430
 8589SOL    HW126666   3.258   2.085   4.457
 8589SOL    HW226667   3.380   1.985   4.499
 8590SOL     OW26668   6.155   4.842   5.482
 8590SOL    HW126669   6.066   4.799   5.501
 8590SOL    HW226670   6.143   4.913   5.413
 8591SOL     OW26671   1.278   3.435   0.071
 8591SOL    HW126672   1.285   3.402   6.997
 8591SOL    HW226673   1.221   3.518   0.073
 8592SOL     OW26674   6.093   4.434   0.129
 8592SOL    HW126675   6.099   4.520   0.179
 8592SOL    HW226676   6.120   4.448   0.034
 8593SOL     OW26677   1.111   0.664   2.623
 8593SOL    HW126678   1.110   0.714   2.710
 8593SOL    HW226679   1.018   0.637   2.599
 8594SOL     OW26680   3.303   3.819   4.313
 8594SOL    HW126681   3.340   3.911   4.304
 8594SOL    HW226682   3.259   3.792   4.227
 8595SOL     OW26683   1.602   1.865   2.669
 8595SOL    HW126684   1.590   1.964   2.683
 8595SOL    HW226685   1.695   1.847   2.635
 8596SOL     OW26686   6.223   5.271   1.786
 8596SOL    HW126687   6.125   5.290   1.785
 8596SOL    HW226688   6.241   5.182   1.743
 8597SOL     OW26689   2.784   1.360   0.803
 8597SOL    HW126690   2.728   1.278   0.814
 8597SOL    HW226691   2.776   1.417   0.884
 8598SOL     OW26692   5.651   5.438   0.948
 8598SOL    HW126693   5.659   5.523   1.000
 8598SOL    HW226694   5.683   5.362   1.003
 8599SOL     OW26695   1.681   2.695   2.876
 8599SOL    HW126696   1.682   2.674   2.778
 8599SOL    HW226697   1.660   2.792   2.889
 8600SOL     OW26698   6.543   4.517   6.483
 8600SOL    HW126699   6.466   4.581   6.490
 8600SOL    HW226700   6.520   4.432   6.531
 8601SOL     OW26701   0.214   6.939   4.459
 8601SOL    HW126702   0.232   6.987   4.546
 8601SOL    HW226703   0.195   6.843   4.477
 8602SOL     OW26704   2.854   5.303   2.100
 8602SOL    HW126705   2.834   5.378   2.163
 8602SOL    HW226706   2.776   5.241   2.097
 8603SOL     OW26707   4.041   3.373   0.632
 8603SOL    HW126708   4.123   3.430   0.633
 8603SOL    HW226709   3.988   3.389   0.716
 8604SOL     OW26710   5.386   2.680   3.626
 8604SOL    HW126711   5.324   2.723   3.561
 8604SOL    HW226712   5.333   2.633   3.696
 8605SOL     OW26713   2.227   6.357   2.690
 8605SOL    HW126714   2.161   6.416   2.644
 8605SOL    HW226715   2.194   6.262   2.687
 8606SOL     OW26716   3.956   4.516   5.682
 8606SOL    HW126717   3.868   4.521   5.728
 8606SOL    HW226718   3.952   4.447   5.609
 8607SOL     OW26719   4.645   5.724   1.554
 8607SOL    HW126720   4.713   5.753   1.487
 8607SOL    HW226721   4.677   5.642   1.601
 8608SOL     OW26722   4.585   5.672   2.012
 8608SOL    HW126723   4.678   5.644   2.038
 8608SOL    HW226724   4.524   5.666   2.091
 8609SOL     OW26725   3.262   0.481   5.514
 8609SOL    HW126726   3.258   0.393   5.562
 8609SOL    HW226727   3.259   0.464   5.415
 8610SOL     OW26728   0.741   6.156   3.942
 8610SOL    HW126729   0.732   6.176   3.845
 8610SOL    HW226730   0.702   6.231   3.995
 8611SOL     OW26731   2.147   2.105   3.963
 8611SOL    HW126732   2.084   2.098   4.040
 8611SOL    HW226733   2.101   2.148   3.885
 8612SOL     OW26734   4.330   2.949   5.469
 8612SOL    HW126735   4.245   2.995   5.443
 8612SOL    HW226736   4.387   3.013   5.521
 8613SOL     OW26737   1.777   1.554   1.186
 8613SOL    HW126738   1.807   1.614   1.259
 8613SOL    HW226739   1.683   1.574   1.162
 8614SOL     OW26740   0.974   2.249   3.424
 8614SOL    HW126741   0.887   2.294   3.406
 8614SOL    HW226742   1.002   2.198   3.343
 8615SOL     OW26743   4.288   2.340   5.314
 8615SOL    HW126744   4.298   2.416   5.378
 8615SOL    HW226745   4.269   2.375   5.223
 8616SOL     OW26746   1.041   4.491   0.276
 8616SOL    HW126747   1.107   4.450   0.338
 8616SOL    HW226748   1.001   4.573   0.317
 8617SOL     OW26749   6.134   2.658   1.097
 8617SOL    HW126750   6.234   2.654   1.096
 8617SOL    HW226751   6.098   2.574   1.140
 8618SOL     OW26752   4.665   0.163   3.326
 8618SOL    HW126753   4.591   0.147   3.391
 8618SOL    HW226754   4.699   0.075   3.292
 8619SOL     OW26755   4.573   5.109   6.909
 8619SOL    HW126756   4.578   5.209   6.909
 8619SOL    HW226757   4.499   5.080   6.970
 8620SOL     OW26758   6.454   6.299   3.064
 8620SOL    HW126759   6.462   6.234   2.989
 8620SOL    HW226760   6.545   6.335   3.086
 8621SOL     OW26761   5.729   0.616   3.419
 8621SOL    HW126762   5.701   0.520   3.416
 8621SOL    HW226763   5.828   0.623   3.415
 8622SOL     OW26764   4.745   5.498   0.347
 8622SOL    HW126765   4.804   5.578   0.361
 8622SOL    HW226766   4.796   5.415   0.371
 8623SOL     OW26767   0.027   3.703   2.757
 8623SOL    HW126768   0.042   3.801   2.742
 8623SOL    HW226769   7.002   3.664   2.677
 8624SOL     OW26770   0.446   4.226   3.059
 8624SOL    HW126771   0.373   4.224   3.128
 8624SOL    HW226772   0.409   4.257   2.972
 8625SOL     OW26773   3.551   0.412   4.521
 8625SOL    HW126774   3.573   0.453   4.433
 8625SOL    HW226775   3.453   0.390   4.524
 8626SOL     OW26776   3.141   3.760   3.386
 8626SOL    HW126777   3.124   3.663   3.369
 8626SOL    HW226778   3.207   3.794   3.320
 8627SOL     OW26779   1.733   0.240   0.045
 8627SOL    HW126780   1.726   0.154   0.096
 8627SOL    HW226781   1.672   0.308   0.086
 8628SOL     OW26782   5.292   0.916   6.894
 8628SOL    HW126783   5.228   0.846   6.925
 8628SOL    HW226784   5.382   0.899   6.934
 8629SOL     OW26785   1.581   4.008   3.827
 8629SOL    HW126786   1.622   4.085   3.877
 8629SOL    HW226787   1.608   3.922   3.870
 8630SOL     OW26788   5.616   4.777   3.873
 8630SOL    HW126789   5.694   4.757   3.932
 8630SOL    HW226790   5.535   4.728   3.907
 8631SOL     OW26791   3.761   5.716   5.073
 8631SOL    HW126792   3.686   5.655   5.098
 8631SOL    HW226793   3.746   5.806   5.115
 8632SOL     OW26794   3.977   0.254   3.416
 8632SOL    HW126795   3.892   0.268   3.468
 8632SOL    HW226796   4.055   0.266   3.477
 8633SOL     OW26797   6.148   1.101   3.783
 8633SOL    HW126798   6.159   1.169   3.710
 8633SOL    HW226799   6.071   1.040   3.761
 8634SOL     OW26800   6.661   5.177   2.091
 8634SOL    HW126801   6.681   5.158   2.187
 8634SOL    HW226802   6.620   5.268   2.083
 8635SOL     OW26803   5.991   3.690   5.436
 8635SOL    HW126804   5.914   3.753   5.449
 8635SOL    HW226805   5.959   3.596   5.441
 8636SOL     OW26806   6.516   5.765   0.708
 8636SOL    HW126807   6.548   5.851   0.749
 8636SOL    HW226808   6.417   5.759   0.720
 8637SOL     OW26809   2.286   0.672   1.000
 8637SOL    HW126810   2.351   0.661   0.925
 8637SOL    HW226811   2.336   0.699   1.083
 8638SOL     OW26812   3.392   5.004   0.493
 8638SOL    HW126813   3.404   5.022   0.591
 8638SOL    HW226814   3.299   5.028   0.465
 8639SOL     OW26815   6.332   3.856   1.659
 8639SOL    HW126816   6.385   3.774   1.638
 8639SOL    HW226817   6.311   3.858   1.757
 8640SOL     OW26818   4.882   5.383   1.125
 8640SOL    HW126819   4.941   5.393   1.205
 8640SOL    HW226820   4.861   5.474   1.088
 8641SOL     OW26821   6.050   4.243   3.213
 8641SOL    HW126822   6.095   4.180   3.150
 8641SOL    HW226823   6.063   4.337   3.181
 8642SOL     OW26824   4.300   1.523   1.690
 8642SOL    HW126825   4.323   1.431   1.660
 8642SOL    HW226826   4.330   1.535   1.785
 8643SOL     OW26827   5.054   0.224   5.857
 8643SOL    HW126828   5.096   0.287   5.792
 8643SOL    HW226829   5.003   0.153   5.808
 8644SOL     OW26830   6.340   3.248   5.161
 8644SOL    HW126831   6.406   3.309   5.205
 8644SOL    HW226832   6.256   3.244   5.215
 8645SOL     OW26833   6.062   4.723   1.460
 8645SOL    HW126834   6.145   4.705   1.513
 8645SOL    HW226835   5.983   4.726   1.522
 8646SOL     OW26836   5.414   0.752   0.623
 8646SOL    HW126837   5.346   0.706   0.680
 8646SOL    HW226838   5.500   0.760   0.673
 8647SOL     OW26839   4.261   5.350   0.359
 8647SOL    HW126840   4.183   5.348   0.421
 8647SOL    HW226841   4.345   5.365   0.411
 8648SOL     OW26842   5.433   1.250   4.051
 8648SOL    HW126843   5.500   1.319   4.024
 8648SOL    HW226844   5.389   1.212   3.970
 8649SOL     OW26845   6.478   4.315   5.679
 8649SOL    HW126846   6.460   4.410   5.703
 8649SOL    HW226847   6.519   4.311   5.588
 8650SOL     OW26848   2.001   4.784   3.217
 8650SOL    HW126849   2.096   4.756   3.228
 8650SOL    HW226850   1.957   4.728   3.147
 8651SOL     OW26851   3.497   1.072   0.198
 8651SOL    HW126852   3.414   1.093   0.146
 8651SOL    HW226853   3.514   1.144   0.265
 8652SOL     OW26854   1.787   3.691   3.498
 8652SOL    HW126855   1.756   3.775   3.452
 8652SOL    HW226856   1.819   3.713   3.590
 8653SOL     OW26857   0.397   2.727   6.957
 8653SOL    HW126858   0.406   2.734   0.035
 8653SOL    HW226859   0.317   2.780   6.927
 8654SOL     OW26860   0.780   0.131   3.367
 8654SOL    HW126861   0.848   0.069   3.406
 8654SOL    HW226862   0.824   0.192   3.301
 8655SOL     OW26863   6.057   6.227   4.504
 8655SOL    HW126864   6.132   6.220   4.570
 8655SOL    HW226865   6.040   6.136   4.465
 8656SOL     OW26866   6.390   1.288   0.791
 8656SOL    HW126867   6.306   1.311   0.840
 8656SOL    HW226868   6.466   1.287   0.856
 8657SOL     OW26869   4.251   4.214   6.921
 8657SOL    HW126870   4.198   4.265   6.987
 8657SOL    HW226871   4.256   4.265   6.835
 8658SOL     OW26872   5.958   5.511   6.608
 8658SOL    HW126873   5.945   5.605   6.637
 8658SOL    HW226874   5.873   5.460   6.619
 8659SOL     OW26875   5.486   0.627   4.309
 8659SOL    HW126876   5.473   0.701   4.243
 8659SOL    HW226877   5.531   0.550   4.264
 8660SOL     OW26878   5.777   4.026   0.983
 8660SOL    HW126879   5.684   3.992   0.996
 8660SOL    HW226880   5.796   4.037   0.885
 8661SOL     OW26881   6.752   3.966   1.291
 8661SOL    HW126882   6.730   3.911   1.211
 8661SOL    HW226883   6.779   3.906   1.367
 8662SOL     OW26884   0.018   6.798   1.004
 8662SOL    HW126885   0.028   6.873   1.069
 8662SOL    HW226886   7.020   6.835   0.913
 8663SOL     OW26887   2.483   5.457   0.533
 8663SOL    HW126888   2.541   5.378   0.514
 8663SOL    HW226889   2.530   5.517   0.598
 8664SOL     OW26890   4.468   5.910   0.012
 8664SOL    HW126891   4.523   5.988   0.043
 8664SOL    HW226892   4.504   5.876   6.946
 8665SOL     OW26893   5.088   5.570   5.655
 8665SOL    HW126894   5.051   5.652   5.699
 8665SOL    HW226895   5.116   5.593   5.562
 8666SOL     OW26896   5.155   2.518   4.585
 8666SOL    HW126897   5.173   2.617   4.583
 8666SOL    HW226898   5.171   2.484   4.678
 8667SOL     OW26899   4.903   1.270   4.313
 8667SOL    HW126900   4.872   1.259   4.219
 8667SOL    HW226901   4.944   1.184   4.345
 8668SOL     OW26902   4.014   2.118   4.493
 8668SOL    HW126903   4.053   2.174   4.420
 8668SOL    HW226904   4.064   2.031   4.499
 8669SOL     OW26905   4.111   0.489   5.596
 8669SOL    HW126906   4.046   0.537   5.654
 8669SOL    HW226907   4.094   0.512   5.500
 8670SOL     OW26908   3.755   5.366   4.350
 8670SOL    HW126909   3.811   5.297   4.398
 8670SOL    HW226910   3.769   5.357   4.252
 8671SOL     OW26911   5.911   6.760   3.745
 8671SOL    HW126912   5.891   6.824   3.818
 8671SOL    HW226913   5.973   6.802   3.679
 8672SOL     OW26914   3.887   4.896   4.417
 8672SOL    HW126915   3.906   4.934   4.507
 8672SOL    HW226916   3.970   4.895   4.362
 8673SOL     OW26917   6.020   2.042   0.708
 8673SOL    HW126918   6.119   2.038   0.721
 8673SOL    HW226919   5.976   1.966   0.757
 8674SOL     OW26920   6.851   7.005   2.881
 8674SOL    HW126921   6.934   6.954   2.903
 8674SOL    HW226922   6.771   6.947   2.899
 8675SOL     OW26923   2.149   1.142   2.648
 8675SOL    HW126924   2.159   1.212   2.720
 8675SOL    HW226925   2.235   1.093   2.637
 8676SOL     OW26926   4.476   0.001   2.674
 8676SOL    HW126927   4.433   6.966   2.604
 8676SOL    HW226928   4.407   0.034   2.738
 8677SOL     OW26929   2.368   4.675   5.633
 8677SOL    HW126930   2.269   4.687   5.644
 8677SOL    HW226931   2.389   4.656   5.537
 8678SOL     OW26932   1.205   0.132   6.875
 8678SOL    HW126933   1.258   0.207   6.914
 8678SOL    HW226934   1.237   0.113   6.782
 8679SOL     OW26935   6.428   2.396   5.394
 8679SOL    HW126936   6.457   2.492   5.385
 8679SOL    HW226937   6.381   2.369   5.310
 8680SOL     OW26938   1.465   3.882   6.924
 8680SOL    HW126939   1.376   3.841   6.907
 8680SOL    HW226940   1.516   3.889   6.838
 8681SOL     OW26941   3.577   4.071   0.692
 8681SOL    HW126942   3.647   4.120   0.641
 8681SOL    HW226943   3.526   4.135   0.749
 8682SOL     OW26944   2.616   6.277   3.116
 8682SOL    HW126945   2.597   6.370   3.082
 8682SOL    HW226946   2.689   6.236   3.061
 8683SOL     OW26947   6.962   3.061   0.687
 8683SOL    HW126948   0.025   3.111   0.710
 8683SOL    HW226949   6.936   3.082   0.593
 8684SOL     OW26950   5.894   3.672   4.549
 8684SOL    HW126951   5.967   3.604   4.537
 8684SOL    HW226952   5.855   3.695   4.460
 8685SOL     OW26953   0.716   2.455   6.286
 8685SOL    HW126954   0.712   2.527   6.356
 8685SOL    HW226955   0.806   2.412   6.288
 8686SOL     OW26956   6.822   2.065   3.066
 8686SOL    HW126957   6.880   2.141   3.039
 8686SOL    HW226958   6.872   1.979   3.055
 8687SOL     OW26959   3.512   6.910   2.606
 8687SOL    HW126960   3.552   6.940   2.693
 8687SOL    HW226961   3.546   6.967   2.532
 8688SOL     OW26962   2.407   0.369   1.523
 8688SOL    HW126963   2.392   0.312   1.603
 8688SOL    HW226964   2.366   0.326   1.443
 8689SOL     OW26965   4.755   5.998   0.015
 8689SOL    HW126966   4.699   5.980   6.955
 8689SOL    HW226967   4.744   5.924   0.081
 8690SOL     OW26968   0.569   1.266   3.084
 8690SOL    HW126969   0.617   1.285   2.998
 8690SOL    HW226970   0.564   1.349   3.139
 8691SOL     OW26971   5.254   2.151   6.879
 8691SOL    HW126972   5.311   2.227   6.850
 8691SOL    HW226973   5.312   2.073   6.902
 8692SOL     OW26974   2.347   1.720   3.836
 8692SOL    HW126975   2.336   1.779   3.916
 8692SOL    HW226976   2.258   1.686   3.807
 8693SOL     OW26977   5.556   1.989   0.973
 8693SOL    HW126978   5.458   1.972   0.961
 8693SOL    HW226979   5.590   2.045   0.897
 8694SOL     OW26980   4.795   6.948   6.043
 8694SOL    HW126981   4.782   0.010   6.097
 8694SOL    HW226982   4.717   6.886   6.058
 8695SOL     OW26983   4.975   4.168   5.907
 8695SOL    HW126984   5.037   4.114   5.850
 8695SOL    HW226985   5.024   4.200   5.988
 8696SOL     OW26986   2.401   5.812   1.379
 8696SOL    HW126987   2.427   5.812   1.283
 8696SOL    HW226988   2.455   5.743   1.428
 8697SOL     OW26989   6.412   4.058   0.378
 8697SOL    HW126990   6.446   3.967   0.401
 8697SOL    HW226991   6.476   4.127   0.414
 8698SOL     OW26992   5.409   6.241   4.342
 8698SOL    HW126993   5.474   6.254   4.267
 8698SOL    HW226994   5.320   6.214   4.304
 8699SOL     OW26995   1.322   1.793   5.602
 8699SOL    HW126996   1.374   1.708   5.605
 8699SOL    HW226997   1.231   1.778   5.641
 8700SOL     OW26998   3.050   1.330   5.330
 8700SOL    HW126999   3.013   1.325   5.423
 8700SOL    HW227000   3.150   1.325   5.334
 8701SOL     OW27001   0.695   1.504   4.643
 8701SOL    HW127002   0.712   1.586   4.697
 8701SOL    HW227003   0.773   1.443   4.650
 8702SOL     OW27004   5.557   5.316   0.075
 8702SOL    HW127005   5.591   5.301   0.168
 8702SOL    HW227006   5.472   5.266   0.062
 8703SOL     OW27007   2.554   5.754   0.728
 8703SOL    HW127008   2.651   5.745   0.707
 8703SOL    HW227009   2.540   5.833   0.789
 8704SOL     OW27010   0.317   4.590   2.193
 8704SOL    HW127011   0.284   4.507   2.237
 8704SOL    HW227012   0.278   4.598   2.102
 8705SOL     OW27013   4.979   0.230   6.114
 8705SOL    HW127014   5.029   0.220   6.027
 8705SOL    HW227015   4.944   0.323   6.121
 8706SOL     OW27016   5.342   1.839   0.310
 8706SOL    HW127017   5.245   1.840   0.286
 8706SOL    HW227018   5.362   1.918   0.368
 8707SOL     OW27019   4.807   2.528   6.165
 8707SOL    HW127020   4.744   2.543   6.089
 8707SOL    HW227021   4.877   2.599   6.166
 8708SOL     OW27022   3.949   1.424   1.273
 8708SOL    HW127023   3.944   1.509   1.221
 8708SOL    HW227024   3.993   1.353   1.219
 8709SOL     OW27025   6.588   4.147   0.709
 8709SOL    HW127026   6.659   4.094   0.755
 8709SOL    HW227027   6.501   4.134   0.757
 8710SOL     OW27028   2.104   3.620   3.150
 8710SOL    HW127029   2.139   3.558   3.221
 8710SOL    HW227030   2.076   3.566   3.070
 8711SOL     OW27031   6.849   0.980   2.982
 8711SOL    HW127032   6.769   0.919   2.984
 8711SOL    HW227033   6.821   1.072   3.009
 8712SOL     OW27034   3.610   1.253   4.894
 8712SOL    HW127035   3.634   1.350   4.891
 8712SOL    HW227036   3.662   1.209   4.967
 8713SOL     OW27037   6.708   4.815   3.958
 8713SOL    HW127038   6.675   4.881   3.891
 8713SOL    HW227039   6.688   4.722   3.926
 8714SOL     OW27040   1.428   0.921   5.515
 8714SOL    HW127041   1.467   0.867   5.440
 8714SOL    HW227042   1.360   0.866   5.563
 8715SOL     OW27043   6.338   2.003   1.643
 8715SOL    HW127044   6.355   2.093   1.684
 8715SOL    HW227045   6.316   1.938   1.715
 8716SOL     OW27046   1.282   1.433   1.451
 8716SOL    HW127047   1.189   1.461   1.428
 8716SOL    HW227048   1.346   1.502   1.417
 8717SOL     OW27049   4.215   3.603   1.806
 8717SOL    HW127050   4.278   3.668   1.764
 8717SOL    HW227051   4.171   3.645   1.886
 8718SOL     OW27052   6.474   3.011   5.086
 8718SOL    HW127053   6.429   3.099   5.104
 8718SOL    HW227054   6.566   3.028   5.051
 8719SOL     OW27055   0.897   0.170   5.242
 8719SOL    HW127056   0.987   0.212   5.233
 8719SOL    HW227057   0.876   0.119   5.158
 8720SOL     OW27058   5.546   4.416   5.485
 8720SOL    HW127059   5.465   4.474   5.468
 8720SOL    HW227060   5.539   4.332   5.431
 8721SOL     OW27061   6.833   2.382   4.531
 8721SOL    HW127062   6.746   2.429   4.519
 8721SOL    HW227063   6.818   2.298   4.583
 8722SOL     OW27064   3.832   2.502   0.514
 8722SOL    HW127065   3.896   2.497   0.437
 8722SOL    HW227066   3.851   2.584   0.568
 8723SOL     OW27067   6.617   5.693   1.209
 8723SOL    HW127068   6.610   5.772   1.269
 8723SOL    HW227069   6.672   5.717   1.129
 8724SOL     OW27070   5.717   0.368   5.624
 8724SOL    HW127071   5.723   0.293   5.558
 8724SOL    HW227072   5.726   0.455   5.576
 8725SOL     OW27073   2.172   6.695   0.252
 8725SOL    HW127074   2.137   6.625   0.314
 8725SOL    HW227075   2.247   6.657   0.198
 8726SOL     OW27076   6.015   0.441   1.647
 8726SOL    HW127077   5.962   0.457   1.731
 8726SOL    HW227078   5.976   0.495   1.572
 8727SOL     OW27079   6.492   6.371   1.442
 8727SOL    HW127080   6.560   6.311   1.397
 8727SOL    HW227081   6.524   6.465   1.437
 8728SOL     OW27082   2.833   6.677   5.052
 8728SOL    HW127083   2.925   6.641   5.034
 8728SOL    HW227084   2.828   6.773   5.025
 8729SOL     OW27085   4.371   5.770   3.683
 8729SOL    HW127086   4.440   5.716   3.731
 8729SOL    HW227087   4.309   5.709   3.634
 8730SOL     OW27088   0.152   6.010   1.951
 8730SOL    HW127089   0.139   5.918   1.987
 8730SOL    HW227090   0.247   6.039   1.966
 8731SOL     OW27091   1.241   2.013   3.009
 8731SOL    HW127092   1.290   2.000   3.095
 8731SOL    HW227093   1.156   1.961   3.012
 8732SOL     OW27094   5.722   3.892   1.529
 8732SOL    HW127095   5.734   3.808   1.476
 8732SOL    HW227096   5.736   3.872   1.626
 8733SOL     OW27097   1.072   6.420   1.326
 8733SOL    HW127098   1.104   6.449   1.416
 8733SOL    HW227099   1.132   6.458   1.255
 8734SOL     OW27100   0.004   6.273   1.133
 8734SOL    HW127101   7.012   6.204   1.062
 8734SOL    HW227102   6.949   6.339   1.129
 8735SOL     OW27103   6.936   2.027   6.620
 8735SOL    HW127104   0.007   1.990   6.608
 8735SOL    HW227105   6.869   1.955   6.600
 8736SOL     OW27106   0.972   4.817   6.620
 8736SOL    HW127107   1.034   4.896   6.622
 8736SOL    HW227108   0.887   4.840   6.667
 8737SOL     OW27109   3.728   5.949   6.263
 8737SOL    HW127110   3.703   5.855   6.283
 8737SOL    HW227111   3.719   5.966   6.164
 8738SOL     OW27112   1.466   3.356   3.621
 8738SOL    HW127113   1.408   3.421   3.671
 8738SOL    HW227114   1.526   3.309   3.685
 8739SOL     OW27115   0.170   3.657   5.331
 8739SOL    HW127116   0.071   3.643   5.333
 8739SOL    HW227117   0.216   3.579   5.373
 8740SOL     OW27118   2.968   6.476   0.274
 8740SOL    HW127119   3.018   6.391   0.259
 8740SOL    HW227120   2.987   6.539   0.198
 8741SOL     OW27121   1.692   3.514   2.584
 8741SOL    HW127122   1.743   3.559   2.657
 8741SOL    HW227123   1.756   3.469   2.521
 8742SOL     OW27124   4.390   0.161   1.455
 8742SOL    HW127125   4.354   0.201   1.539
 8742SOL    HW227126   4.346   0.073   1.439
 8743SOL     OW27127   2.723   5.374   2.542
 8743SOL    HW127128   2.751   5.395   2.636
 8743SOL    HW227129   2.770   5.435   2.479
 8744SOL     OW27130   4.103   2.585   6.126
 8744SOL    HW127131   4.139   2.678   6.123
 8744SOL    HW227132   4.154   2.532   6.194
 8745SOL     OW27133   6.258   2.535   5.795
 8745SOL    HW127134   6.354   2.538   5.768
 8745SOL    HW227135   6.251   2.547   5.894
 8746SOL     OW27136   5.066   4.886   5.578
 8746SOL    HW127137   5.044   4.804   5.526
 8746SOL    HW227138   5.154   4.873   5.625
 8747SOL     OW27139   1.698   2.476   4.085
 8747SOL    HW127140   1.723   2.454   3.990
 8747SOL    HW227141   1.619   2.536   4.086
 8748SOL     OW27142   1.457   0.652   6.823
 8748SOL    HW127143   1.396   0.724   6.790
 8748SOL    HW227144   1.458   0.576   6.757
 8749SOL     OW27145   4.356   0.369   3.437
 8749SOL    HW127146   4.415   0.399   3.362
 8749SOL    HW227147   4.302   0.447   3.469
 8750SOL     OW27148   1.955   1.957   5.147
 8750SOL    HW127149   2.048   1.927   5.170
 8750SOL    HW227150   1.890   1.884   5.170
 8751SOL     OW27151   1.354   0.123   2.622
 8751SOL    HW127152   1.390   0.030   2.615
 8751SOL    HW227153   1.414   0.177   2.682
 8752SOL     OW27154   1.642   2.874   6.096
 8752SOL    HW127155   1.592   2.853   6.012
 8752SOL    HW227156   1.737   2.845   6.086
 8753SOL     OW27157   5.018   1.633   4.778
 8753SOL    HW127158   4.976   1.547   4.748
 8753SOL    HW227159   5.114   1.635   4.750
 8754SOL     OW27160   1.790   2.027   5.954
 8754SOL    HW127161   1.746   1.944   5.919
 8754SOL    HW227162   1.767   2.105   5.895
 8755SOL     OW27163   2.174   1.452   0.457
 8755SOL    HW127164   2.235   1.372   0.457
 8755SOL    HW227165   2.080   1.422   0.475
 8756SOL     OW27166   2.229   3.029   4.103
 8756SOL    HW127167   2.201   3.062   4.013
 8756SOL    HW227168   2.265   2.936   4.095
 8757SOL     OW27169   4.568   6.452   4.751
 8757SOL    HW127170   4.581   6.422   4.845
 8757SOL    HW227171   4.471   6.444   4.727
 8758SOL     OW27172   6.298   6.701   1.578
 8758SOL    HW127173   6.266   6.715   1.672
 8758SOL    HW227174   6.386   6.745   1.565
 8759SOL     OW27175   4.961   0.647   5.770
 8759SOL    HW127176   4.956   0.620   5.674
 8759SOL    HW227177   5.022   0.726   5.780
 8760SOL     OW27178   1.717   1.705   4.130
 8760SOL    HW127179   1.683   1.618   4.093
 8760SOL    HW227180   1.662   1.731   4.209
 8761SOL     OW27181   4.409   6.938   0.065
 8761SOL    HW127182   4.349   6.978   0.135
 8761SOL    HW227183   4.462   7.011   0.022
 8762SOL     OW27184   1.099   4.274   1.211
 8762SOL    HW127185   1.122   4.309   1.120
 8762SOL    HW227186   1.071   4.350   1.270
 8763SOL     OW27187   0.074   6.390   6.053
 8763SOL    HW127188   7.012   6.362   6.004
 8763SOL    HW227189   0.056   6.389   6.152
 8764SOL     OW27190   4.343   1.848   4.788
 8764SOL    HW127191   4.349   1.940   4.828
 8764SOL    HW227192   4.431   1.823   4.748
 8765SOL     OW27193   5.843   0.238   4.483
 8765SOL    HW127194   5.778   0.184   4.429
 8765SOL    HW227195   5.806   0.330   4.497
 8766SOL     OW27196   1.916   4.859   2.555
 8766SOL    HW127197   1.930   4.767   2.590
 8766SOL    HW227198   1.977   4.875   2.477
 8767SOL     OW27199   4.233   0.600   3.599
 8767SOL    HW127200   4.169   0.654   3.653
 8767SOL    HW227201   4.324   0.641   3.605
 8768SOL     OW27202   1.980   3.090   0.160
 8768SOL    HW127203   1.947   3.105   0.253
 8768SOL    HW227204   1.901   3.085   0.098
 8769SOL     OW27205   2.199   6.970   5.989
 8769SOL    HW127206   2.274   0.015   6.001
 8769SOL    HW227207   2.117   7.018   5.959
 8770SOL     OW27208   5.285   3.249   1.325
 8770SOL    HW127209   5.281   3.303   1.409
 8770SOL    HW227210   5.271   3.310   1.247
 8771SOL     OW27211   1.290   1.367   6.230
 8771SOL    HW127212   1.310   1.465   6.229
 8771SOL    HW227213   1.192   1.354   6.244
 8772SOL     OW27214   5.807   1.260   6.538
 8772SOL    HW127215   5.811   1.284   6.635
 8772SOL    HW227216   5.833   1.340   6.483
 8773SOL     OW27217   2.518   2.428   2.863
 8773SOL    HW127218   2.448   2.442   2.932
 8773SOL    HW227219   2.517   2.503   2.797
 8774SOL     OW27220   1.460   1.292   1.071
 8774SOL    HW127221   1.441   1.260   1.164
 8774SOL    HW227222   1.519   1.226   1.024
 8775SOL     OW27223   6.734   0.176   3.552
 8775SOL    HW127224   6.744   0.160   3.650
 8775SOL    HW227225   6.643   0.216   3.535
 8776SOL     OW27226   3.551   2.825   5.283
 8776SOL    HW127227   3.514   2.910   5.246
 8776SOL    HW227228   3.499   2.799   5.364
 8777SOL     OW27229   6.519   6.097   1.563
 8777SOL    HW127230   6.477   6.187   1.553
 8777SOL    HW227231   6.617   6.103   1.543
 8778SOL     OW27232   0.448   2.314   3.928
 8778SOL    HW127233   0.491   2.334   4.015
 8778SOL    HW227234   0.356   2.353   3.926
 8779SOL     OW27235   0.729   5.103   0.672
 8779SOL    HW127236   0.756   5.016   0.714
 8779SOL    HW227237   0.633   5.097   0.643
 8780SOL     OW27238   1.114   5.463   4.507
 8780SOL    HW127239   1.026   5.463   4.459
 8780SOL    HW227240   1.167   5.543   4.478
 8781SOL     OW27241   0.643   2.063   2.732
 8781SOL    HW127242   0.649   2.153   2.776
 8781SOL    HW227243   0.613   2.073   2.637
 8782SOL     OW27244   4.482   1.305   3.172
 8782SOL    HW127245   4.455   1.390   3.217
 8782SOL    HW227246   4.572   1.317   3.130
 8783SOL     OW27247   5.748   3.672   4.307
 8783SOL    HW127248   5.707   3.668   4.216
 8783SOL    HW227249   5.697   3.739   4.362
 8784SOL     OW27250   5.205   5.130   5.500
 8784SOL    HW127251   5.127   5.072   5.476
 8784SOL    HW227252   5.216   5.201   5.430
 8785SOL     OW27253   5.964   4.695   6.689
 8785SOL    HW127254   5.957   4.771   6.753
 8785SOL    HW227255   5.968   4.730   6.596
 8786SOL     OW27256   2.029   6.927   0.252
 8786SOL    HW127257   2.075   6.839   0.239
 8786SOL    HW227258   1.977   6.925   0.338
 8787SOL     OW27259   1.422   3.643   0.948
 8787SOL    HW127260   1.481   3.582   1.001
 8787SOL    HW227261   1.443   3.738   0.970
 8788SOL     OW27262   1.073   1.700   5.632
 8788SOL    HW127263   1.009   1.772   5.604
 8788SOL    HW227264   1.078   1.631   5.560
 8789SOL     OW27265   6.949   0.790   6.606
 8789SOL    HW127266   6.855   0.757   6.590
 8789SOL    HW227267   6.955   0.886   6.578
 8790SOL     OW27268   5.864   1.876   6.765
 8790SOL    HW127269   5.798   1.808   6.797
 8790SOL    HW227270   5.829   1.968   6.783
 8791SOL     OW27271   4.785   6.559   5.701
 8791SOL    HW127272   4.752   6.651   5.722
 8791SOL    HW227273   4.732   6.492   5.752
 8792SOL     OW27274   5.190   0.267   2.780
 8792SOL    HW127275   5.207   0.218   2.694
 8792SOL    HW227276   5.162   0.361   2.759
 8793SOL     OW27277   1.599   5.921   3.757
 8793SOL    HW127278   1.635   5.827   3.758
 8793SOL    HW227279   1.670   5.984   3.787
 8794SOL     OW27280   1.706   0.140   2.246
 8794SOL    HW127281   1.670   0.154   2.153
 8794SOL    HW227282   1.650   0.192   2.311
 8795SOL     OW27283   1.723   5.986   5.659
 8795SOL    HW127284   1.751   6.079   5.678
 8795SOL    HW227285   1.686   5.981   5.566
 8796SOL     OW27286   4.550   2.314   5.652
 8796SOL    HW127287   4.520   2.244   5.717
 8796SOL    HW227288   4.470   2.366   5.620
 8797SOL     OW27289   0.535   6.834   0.106
 8797SOL    HW127290   0.606   6.871   0.167
 8797SOL    HW227291   0.482   6.909   0.067
 8798SOL     OW27292   4.990   3.659   5.437
 8798SOL    HW127293   5.059   3.731   5.448
 8798SOL    HW227294   4.904   3.701   5.407
 8799SOL     OW27295   2.867   5.033   3.327
 8799SOL    HW127296   2.884   5.111   3.386
 8799SOL    HW227297   2.953   4.988   3.304
 8800SOL     OW27298   4.331   4.978   0.087
 8800SOL    HW127299   4.330   4.929   0.000
 8800SOL    HW227300   4.268   4.934   0.151
 8801SOL     OW27301   2.875   1.231   4.951
 8801SOL    HW127302   2.786   1.233   4.995
 8801SOL    HW227303   2.929   1.309   4.980
 8802SOL     OW27304   3.091   6.017   2.472
 8802SOL    HW127305   3.136   5.928   2.470
 8802SOL    HW227306   2.994   6.005   2.449
 8803SOL     OW27307   3.056   5.271   0.219
 8803SOL    HW127308   3.006   5.336   0.275
 8803SOL    HW227309   2.995   5.197   0.191
 8804SOL     OW27310   4.983   0.575   0.881
 8804SOL    HW127311   4.900   0.623   0.910
 8804SOL    HW227312   5.049   0.642   0.845
 8805SOL     OW27313   0.441   0.494   3.163
 8805SOL    HW127314   0.382   0.457   3.092
 8805SOL    HW227315   0.473   0.419   3.222
 8806SOL     OW27316   1.674   4.708   6.861
 8806SOL    HW127317   1.769   4.739   6.865
 8806SOL    HW227318   1.671   4.609   6.876
 8807SOL     OW27319   0.902   6.144   6.055
 8807SOL    HW127320   0.899   6.223   5.994
 8807SOL    HW227321   0.810   6.127   6.092
 8808SOL     OW27322   5.111   1.475   1.104
 8808SOL    HW127323   5.061   1.509   1.184
 8808SOL    HW227324   5.207   1.502   1.111
 8809SOL     OW27325   5.994   4.058   1.168
 8809SOL    HW127326   5.913   4.027   1.117
 8809SOL    HW227327   5.979   4.043   1.266
 8810SOL     OW27328   3.959   1.256   4.264
 8810SOL    HW127329   3.907   1.273   4.180
 8810SOL    HW227330   4.043   1.310   4.264
 8811SOL     OW27331   1.360   1.328   2.689
 8811SOL    HW127332   1.437   1.388   2.666
 8811SOL    HW227333   1.280   1.383   2.713
 8812SOL     OW27334   2.046   1.147   0.734
 8812SOL    HW127335   1.993   1.124   0.816
 8812SOL    HW227336   2.106   1.225   0.753
 8813SOL     OW27337   2.280   6.352   1.967
 8813SOL    HW127338   2.189   6.316   1.943
 8813SOL    HW227339   2.280   6.451   1.957
 8814SOL     OW27340   6.306   0.977   6.012
 8814SOL    HW127341   6.284   0.884   5.985
 8814SOL    HW227342   6.231   1.015   6.067
 8815SOL     OW27343   0.206   6.131   2.550
 8815SOL    HW127344   0.176   6.041   2.518
 8815SOL    HW227345   0.156   6.202   2.502
 8816SOL     OW27346   1.327   6.080   1.195
 8816SOL    HW127347   1.372   6.072   1.285
 8816SOL    HW227348   1.376   6.148   1.140
 8817SOL     OW27349   1.369   5.113   5.260
 8817SOL    HW127350   1.287   5.107   5.316
 8817SOL    HW227351   1.396   5.209   5.250
 8818SOL     OW27352   0.340   5.736   4.085
 8818SOL    HW127353   0.337   5.700   4.178
 8818SOL    HW227354   0.258   5.790   4.067
 8819SOL     OW27355   4.334   6.573   4.236
 8819SOL    HW127356   4.279   6.495   4.266
 8819SOL    HW227357   4.277   6.638   4.186
 8820SOL     OW27358   1.325   2.042   3.827
 8820SOL    HW127359   1.274   2.006   3.749
 8820SOL    HW227360   1.280   2.012   3.912
 8821SOL     OW27361   2.234   1.005   6.591
 8821SOL    HW127362   2.166   0.982   6.660
 8821SOL    HW227363   2.266   0.922   6.546
 8822SOL     OW27364   0.602   2.112   3.775
 8822SOL    HW127365   0.548   2.069   3.703
 8822SOL    HW227366   0.553   2.191   3.812
 8823SOL     OW27367   1.835   5.942   1.326
 8823SOL    HW127368   1.918   5.915   1.278
 8823SOL    HW227369   1.828   5.892   1.413
 8824SOL     OW27370   3.597   3.741   1.099
 8824SOL    HW127371   3.659   3.799   1.152
 8824SOL    HW227372   3.632   3.730   1.006
 8825SOL     OW27373   1.059   1.508   2.266
 8825SOL    HW127374   1.025   1.435   2.325
 8825SOL    HW227375   1.025   1.496   2.173
 8826SOL     OW27376   4.984   1.837   6.538
 8826SOL    HW127377   4.977   1.935   6.518
 8826SOL    HW227378   4.898   1.792   6.516
 8827SOL     OW27379   1.480   1.655   3.745
 8827SOL    HW127380   1.552   1.596   3.706
 8827SOL    HW227381   1.517   1.706   3.822
 8828SOL     OW27382   2.851   0.152   2.862
 8828SOL    HW127383   2.817   0.063   2.829
 8828SOL    HW227384   2.929   0.180   2.806
 8829SOL     OW27385   6.842   2.099   0.360
 8829SOL    HW127386   6.902   2.074   0.437
 8829SOL    HW227387   6.896   2.104   0.276
 8830SOL     OW27388   0.711   1.926   0.617
 8830SOL    HW127389   0.713   1.932   0.717
 8830SOL    HW227390   0.801   1.898   0.584
 8831SOL     OW27391   6.831   0.702   2.730
 8831SOL    HW127392   6.758   0.693   2.663
 8831SOL    HW227393   6.793   0.730   2.818
 8832SOL     OW27394   6.472   0.625   2.635
 8832SOL    HW127395   6.440   0.625   2.540
 8832SOL    HW227396   6.548   0.561   2.643
 8833SOL     OW27397   2.102   4.864   3.710
 8833SOL    HW127398   2.188   4.863   3.659
 8833SOL    HW227399   2.053   4.949   3.691
 8834SOL     OW27400   5.680   3.864   5.314
 8834SOL    HW127401   5.625   3.791   5.275
 8834SOL    HW227402   5.774   3.857   5.281
 8835SOL     OW27403   6.907   0.062   6.156
 8835SOL    HW127404   6.864   0.134   6.210
 8835SOL    HW227405   6.895   0.081   6.059
 8836SOL     OW27406   4.353   1.186   0.168
 8836SOL    HW127407   4.419   1.258   0.148
 8836SOL    HW227408   4.400   1.105   0.202
 8837SOL     OW27409   0.224   1.402   1.894
 8837SOL    HW127410   0.176   1.421   1.980
 8837SOL    HW227411   0.260   1.487   1.857
 8838SOL     OW27412   2.338   5.175   3.355
 8838SOL    HW127413   2.392   5.257   3.375
 8838SOL    HW227414   2.397   5.105   3.315
 8839SOL     OW27415   6.692   6.903   3.987
 8839SOL    HW127416   6.781   6.871   3.956
 8839SOL    HW227417   6.671   6.863   4.076
 8840SOL     OW27418   5.819   2.484   2.084
 8840SOL    HW127419   5.841   2.446   2.173
 8840SOL    HW227420   5.882   2.558   2.062
 8841SOL     OW27421   1.303   1.511   5.519
 8841SOL    HW127422   1.354   1.442   5.469
 8841SOL    HW227423   1.206   1.488   5.520
 8842SOL     OW27424   2.393   2.866   1.751
 8842SOL    HW127425   2.375   2.956   1.712
 8842SOL    HW227426   2.488   2.862   1.784
 8843SOL     OW27427   1.165   3.063   5.085
 8843SOL    HW127428   1.179   3.009   5.168
 8843SOL    HW227429   1.174   3.160   5.107
 8844SOL     OW27430   6.640   1.194   6.306
 8844SOL    HW127431   6.661   1.216   6.401
 8844SOL    HW227432   6.541   1.193   6.293
 8845SOL     OW27433   5.842   4.311   0.017
 8845SOL    HW127434   5.797   4.400   0.012
 8845SOL    HW227435   5.936   4.323   0.049
 8846SOL     OW27436   1.735   4.564   4.100
 8846SOL    HW127437   1.804   4.637   4.106
 8846SOL    HW227438   1.706   4.538   4.192
 8847SOL     OW27439   3.453   0.499   2.056
 8847SOL    HW127440   3.372   0.448   2.085
 8847SOL    HW227441   3.424   0.586   2.016
 8848SOL     OW27442   1.188   0.581   2.919
 8848SOL    HW127443   1.089   0.578   2.903
 8848SOL    HW227444   1.236   0.586   2.831
 8849SOL     OW27445   2.869   6.612   1.020
 8849SOL    HW127446   2.769   6.618   1.011
 8849SOL    HW227447   2.894   6.519   1.046
 8850SOL     OW27448   3.523   2.801   6.608
 8850SOL    HW127449   3.563   2.739   6.677
 8850SOL    HW227450   3.541   2.764   6.517
 8851SOL     OW27451   1.001   3.565   2.823
 8851SOL    HW127452   0.966   3.546   2.915
 8851SOL    HW227453   0.989   3.484   2.766
 8852SOL     OW27454   0.956   1.748   6.271
 8852SOL    HW127455   0.872   1.780   6.227
 8852SOL    HW227456   1.035   1.784   6.221
 8853SOL     OW27457   4.051   0.675   0.537
 8853SOL    HW127458   3.991   0.744   0.496
 8853SOL    HW227459   4.041   0.677   0.637
 8854SOL     OW27460   1.176   3.398   4.608
 8854SOL    HW127461   1.126   3.328   4.557
 8854SOL    HW227462   1.237   3.354   4.674
 8855SOL     OW27463   5.697   5.695   1.090
 8855SOL    HW127464   5.769   5.697   1.160
 8855SOL    HW227465   5.724   5.751   1.012
 8856SOL     OW27466   0.262   6.024   5.842
 8856SOL    HW127467   0.290   5.941   5.793
 8856SOL    HW227468   0.236   5.999   5.936
 8857SOL     OW27469   6.381   1.686   5.332
 8857SOL    HW127470   6.370   1.617   5.404
 8857SOL    HW227471   6.319   1.666   5.256
 8858SOL     OW27472   6.592   5.384   4.595
 8858SOL    HW127473   6.557   5.336   4.515
 8858SOL    HW227474   6.692   5.383   4.593
 8859SOL     OW27475   1.134   0.250   3.581
 8859SOL    HW127476   1.205   0.181   3.567
 8859SOL    HW227477   1.125   0.269   3.679
 8860SOL     OW27478   0.134   2.998   2.125
 8860SOL    HW127479   0.069   3.029   2.193
 8860SOL    HW227480   0.096   3.013   2.033
 8861SOL     OW27481   4.375   2.368   1.687
 8861SOL    HW127482   4.365   2.369   1.787
 8861SOL    HW227483   4.345   2.456   1.650
 8862SOL     OW27484   4.711   4.862   4.931
 8862SOL    HW127485   4.713   4.921   4.850
 8862SOL    HW227486   4.748   4.772   4.908
 8863SOL     OW27487   2.116   4.035   3.572
 8863SOL    HW127488   2.183   4.081   3.630
 8863SOL    HW227489   2.024   4.052   3.608
 8864SOL     OW27490   6.203   1.970   5.344
 8864SOL    HW127491   6.276   1.913   5.308
 8864SOL    HW227492   6.230   2.008   5.433
 8865SOL     OW27493   1.987   1.629   6.763
 8865SOL    HW127494   2.053   1.698   6.793
 8865SOL    HW227495   2.035   1.547   6.732
 8866SOL     OW27496   5.929   6.216   2.055
 8866SOL    HW127497   5.964   6.262   2.137
 8866SOL    HW227498   5.830   6.228   2.050
 8867SOL     OW27499   6.142   4.031   2.810
 8867SOL    HW127500   6.045   4.055   2.815
 8867SOL    HW227501   6.181   4.069   2.726
 8868SOL     OW27502   0.055   3.227   3.243
 8868SOL    HW127503   0.129   3.193   3.301
 8868SOL    HW227504   7.006   3.270   3.301
 8869SOL     OW27505   3.635   6.942   3.176
 8869SOL    HW127506   3.574   6.874   3.216
 8869SOL    HW227507   3.710   6.961   3.239
 8870SOL     OW27508   1.444   0.812   3.488
 8870SOL    HW127509   1.459   0.734   3.427
 8870SOL    HW227510   1.524   0.824   3.546
 8871SOL     OW27511   0.318   0.508   2.489
 8871SOL    HW127512   0.318   0.439   2.562
 8871SOL    HW227513   0.291   0.596   2.528
 8872SOL     OW27514   0.159   5.453   4.832
 8872SOL    HW127515   0.152   5.548   4.802
 8872SOL    HW227516   0.243   5.442   4.885
 8873SOL     OW27517   1.924   1.193   2.533
 8873SOL    HW127518   1.858   1.206   2.607
 8873SOL    HW227519   2.015   1.177   2.571
 8874SOL     OW27520   3.662   6.494   0.615
 8874SOL    HW127521   3.668   6.450   0.525
 8874SOL    HW227522   3.711   6.581   0.612
 8875SOL     OW27523   6.774   3.100   3.684
 8875SOL    HW127524   6.682   3.095   3.647
 8875SOL    HW227525   6.815   3.009   3.685
 8876SOL     OW27526   3.773   1.107   6.526
 8876SOL    HW127527   3.715   1.078   6.602
 8876SOL    HW227528   3.850   1.161   6.561
 8877SOL     OW27529   1.878   3.945   1.210
 8877SOL    HW127530   1.855   3.874   1.143
 8877SOL    HW227531   1.860   4.035   1.171
 8878SOL     OW27532   4.938   3.888   0.800
 8878SOL    HW127533   4.851   3.848   0.774
 8878SOL    HW227534   4.923   3.964   0.863
 8879SOL     OW27535   5.781   4.976   2.975
 8879SOL    HW127536   5.728   4.943   3.053
 8879SOL    HW227537   5.823   5.064   2.998
 8880SOL     OW27538   4.321   0.702   4.077
 8880SOL    HW127539   4.394   0.640   4.047
 8880SOL    HW227540   4.249   0.649   4.121
 8881SOL     OW27541   4.217   4.765   4.617
 8881SOL    HW127542   4.127   4.809   4.609
 8881SOL    HW227543   4.234   4.741   4.712
 8882SOL     OW27544   4.544   0.321   0.494
 8882SOL    HW127545   4.487   0.311   0.576
 8882SOL    HW227546   4.589   0.410   0.496
 8883SOL     OW27547   6.489   6.224   4.522
 8883SOL    HW127548   6.518   6.131   4.501
 8883SOL    HW227549   6.419   6.222   4.594
 8884SOL     OW27550   5.249   3.417   5.160
 8884SOL    HW127551   5.208   3.336   5.202
 8884SOL    HW227552   5.180   3.490   5.156
 8885SOL     OW27553   6.685   5.830   0.490
 8885SOL    HW127554   6.632   5.878   0.420
 8885SOL    HW227555   6.625   5.811   0.569
 8886SOL     OW27556   4.150   5.380   6.146
 8886SOL    HW127557   4.080   5.427   6.199
 8886SOL    HW227558   4.107   5.323   6.077
 8887SOL     OW27559   5.009   1.130   1.280
 8887SOL    HW127560   5.049   1.144   1.371
 8887SOL    HW227561   5.082   1.109   1.215
 8888SOL     OW27562   2.303   2.084   3.011
 8888SOL    HW127563   2.389   2.129   3.035
 8888SOL    HW227564   2.248   2.072   3.094
 8889SOL     OW27565   0.491   6.074   6.728
 8889SOL    HW127566   0.453   6.033   6.645
 8889SOL    HW227567   0.580   6.033   6.747
 8890SOL     OW27568   0.226   6.562   0.445
 8890SOL    HW127569   0.294   6.568   0.371
 8890SOL    HW227570   0.270   6.588   0.531
 8891SOL     OW27571   5.982   3.713   6.929
 8891SOL    HW127572   6.050   3.786   6.933
 8891SOL    HW227573   5.944   3.698   7.020
 8892SOL     OW27574   3.327   5.333   3.833
 8892SOL    HW127575   3.391   5.321   3.757
 8892SOL    HW227576   3.377   5.364   3.914
 8893SOL     OW27577   1.257   5.113   4.644
 8893SOL    HW127578   1.247   5.210   4.669
 8893SOL    HW227579   1.354   5.090   4.640
 8894SOL     OW27580   4.351   1.777   0.503
 8894SOL    HW127581   4.357   1.678   0.493
 8894SOL    HW227582   4.281   1.813   0.441
 8895SOL     OW27583   6.946   3.893   1.044
 8895SOL    HW127584   6.893   3.809   1.046
 8895SOL    HW227585   0.015   3.875   1.004
 8896SOL     OW27586   0.442   2.650   4.943
 8896SOL    HW127587   0.390   2.657   4.858
 8896SOL    HW227588   0.389   2.689   5.018
 8897SOL     OW27589   2.120   3.765   3.657
 8897SOL    HW127590   2.027   3.770   3.695
 8897SOL    HW227591   2.133   3.838   3.591
 8898SOL     OW27592   4.967   4.299   2.626
 8898SOL    HW127593   4.978   4.200   2.620
 8898SOL    HW227594   4.927   4.334   2.541
 8899SOL     OW27595   0.998   3.858   4.967
 8899SOL    HW127596   1.076   3.919   4.951
 8899SOL    HW227597   0.936   3.899   5.034
 8900SOL     OW27598   4.723   2.428   4.021
 8900SOL    HW127599   4.757   2.440   4.114
 8900SOL    HW227600   4.634   2.383   4.024
 8901SOL     OW27601   1.758   3.240   4.591
 8901SOL    HW127602   1.691   3.166   4.585
 8901SOL    HW227603   1.718   3.317   4.642
 8902SOL     OW27604   0.363   4.637   0.809
 8902SOL    HW127605   0.449   4.617   0.764
 8902SOL    HW227606   0.287   4.606   0.752
 8903SOL     OW27607   1.543   6.490   5.400
 8903SOL    HW127608   1.548   6.397   5.438
 8903SOL    HW227609   1.620   6.544   5.434
 8904SOL     OW27610   0.407   0.742   3.184
 8904SOL    HW127611   0.487   0.787   3.145
 8904SOL    HW227612   0.422   0.643   3.187
 8905SOL     OW27613   1.676   3.997   2.400
 8905SOL    HW127614   1.653   3.928   2.469
 8905SOL    HW227615   1.686   3.954   2.311
 8906SOL     OW27616   6.405   0.455   0.862
 8906SOL    HW127617   6.372   0.530   0.803
 8906SOL    HW227618   6.451   0.387   0.806
 8907SOL     OW27619   3.015   3.123   4.727
 8907SOL    HW127620   2.977   3.212   4.753
 8907SOL    HW227621   2.957   3.081   4.658
 8908SOL     OW27622   1.074   5.325   0.183
 8908SOL    HW127623   0.985   5.304   0.142
 8908SOL    HW227624   1.139   5.252   0.159
 8909SOL     OW27625   2.866   0.326   0.409
 8909SOL    HW127626   2.951   0.343   0.459
 8909SOL    HW227627   2.861   0.388   0.330
 8910SOL     OW27628   2.447   1.286   3.768
 8910SOL    HW127629   2.546   1.283   3.780
 8910SOL    HW227630   2.425   1.327   3.680
 8911SOL     OW27631   4.530   2.137   3.861
 8911SOL    HW127632   4.623   2.121   3.826
 8911SOL    HW227633   4.469   2.066   3.826
 8912SOL     OW27634   3.483   3.895   4.639
 8912SOL    HW127635   3.474   3.981   4.588
 8912SOL    HW227636   3.399   3.843   4.631
 8913SOL     OW27637   5.238   6.693   6.527
 8913SOL    HW127638   5.316   6.671   6.585
 8913SOL    HW227639   5.269   6.709   6.433
 8914SOL     OW27640   4.276   5.491   6.763
 8914SOL    HW127641   4.372   5.505   6.739
 8914SOL    HW227642   4.222   5.570   6.734
 8915SOL     OW27643   1.371   1.355   4.041
 8915SOL    HW127644   1.325   1.421   3.982
 8915SOL    HW227645   1.307   1.321   4.110
 8916SOL     OW27646   4.163   1.100   6.965
 8916SOL    HW127647   4.124   1.176   6.914
 8916SOL    HW227648   4.244   1.131   7.016
 8917SOL     OW27649   5.724   1.993   0.533
 8917SOL    HW127650   5.793   2.065   0.538
 8917SOL    HW227651   5.664   2.009   0.454
 8918SOL     OW27652   0.799   3.818   2.768
 8918SOL    HW127653   0.864   3.880   2.812
 8918SOL    HW227654   0.848   3.739   2.731
 8919SOL     OW27655   6.067   3.887   0.938
 8919SOL    HW127656   5.999   3.909   0.869
 8919SOL    HW227657   6.054   3.947   1.017
 8920SOL     OW27658   6.324   1.723   0.018
 8920SOL    HW127659   6.383   1.651   0.054
 8920SOL    HW227660   6.337   1.730   6.940
 8921SOL     OW27661   1.940   2.797   1.680
 8921SOL    HW127662   1.931   2.816   1.582
 8921SOL    HW227663   2.037   2.800   1.705
 8922SOL     OW27664   3.554   0.063   3.499
 8922SOL    HW127665   3.625   0.015   3.551
 8922SOL    HW227666   3.546   0.157   3.534
 8923SOL     OW27667   1.700   2.261   4.933
 8923SOL    HW127668   1.603   2.287   4.936
 8923SOL    HW227669   1.719   2.195   5.005
 8924SOL     OW27670   5.273   5.643   4.894
 8924SOL    HW127671   5.332   5.580   4.943
 8924SOL    HW227672   5.177   5.626   4.919
 8925SOL     OW27673   1.154   0.048   3.284
 8925SOL    HW127674   1.225   0.022   3.218
 8925SOL    HW227675   1.192   0.049   3.376
 8926SOL     OW27676   5.933   2.687   6.346
 8926SOL    HW127677   5.998   2.742   6.294
 8926SOL    HW227678   5.850   2.740   6.364
 8927SOL     OW27679   0.758   0.872   5.991
 8927SOL    HW127680   0.708   0.886   6.076
 8927SOL    HW227681   0.706   0.913   5.915
 8928SOL     OW27682   1.810   6.341   5.195
 8928SOL    HW127683   1.738   6.351   5.125
 8928SOL    HW227684   1.812   6.423   5.252
 8929SOL     OW27685   6.588   2.823   4.776
 8929SOL    HW127686   6.535   2.815   4.691
 8929SOL    HW227687   6.619   2.918   4.788
 8930SOL     OW27688   1.730   4.402   3.338
 8930SOL    HW127689   1.813   4.349   3.321
 8930SOL    HW227690   1.711   4.404   3.436
 8931SOL     OW27691   3.766   2.235   1.214
 8931SOL    HW127692   3.797   2.246   1.308
 8931SOL    HW227693   3.804   2.150   1.176
 8932SOL     OW27694   0.217   3.115   3.479
 8932SOL    HW127695   0.314   3.097   3.464
 8932SOL    HW227696   0.182   3.053   3.549
 8933SOL     OW27697   3.432   1.670   5.538
 8933SOL    HW127698   3.399   1.616   5.615
 8933SOL    HW227699   3.365   1.667   5.464
 8934SOL     OW27700   3.032   5.780   3.393
 8934SOL    HW127701   3.036   5.803   3.491
 8934SOL    HW227702   3.076   5.692   3.378
 8935SOL     OW27703   0.022   4.489   0.867
 8935SOL    HW127704   6.966   4.519   0.811
 8935SOL    HW227705   0.042   4.558   0.936
 8936SOL     OW27706   2.100   2.789   0.404
 8936SOL    HW127707   2.076   2.739   0.320
 8936SOL    HW227708   2.021   2.841   0.435
 8937SOL     OW27709   0.631   5.919   5.885
 8937SOL    HW127710   0.555   5.895   5.825
 8937SOL    HW227711   0.602   5.988   5.950
 8938SOL     OW27712   5.905   5.669   1.255
 8938SOL    HW127713   5.984   5.644   1.198
 8938SOL    HW227714   5.937   5.697   1.345
 8939SOL     OW27715   5.290   1.711   4.825
 8939SOL    HW127716   5.306   1.759   4.911
 8939SOL    HW227717   5.323   1.617   4.832
 8940SOL     OW27718   5.766   0.906   3.095
 8940SOL    HW127719   5.757   0.830   3.159
 8940SOL    HW227720   5.821   0.877   3.017
 8941SOL     OW27721   5.238   2.285   6.264
 8941SOL    HW127722   5.150   2.305   6.221
 8941SOL    HW227723   5.302   2.252   6.194
 8942SOL     OW27724   0.638   2.338   5.434
 8942SOL    HW127725   0.572   2.412   5.447
 8942SOL    HW227726   0.714   2.371   5.378
 8943SOL     OW27727   5.216   3.855   1.021
 8943SOL    HW127728   5.163   3.834   1.103
 8943SOL    HW227729   5.154   3.886   0.948
 8944SOL     OW27730   4.268   5.594   0.617
 8944SOL    HW127731   4.217   5.536   0.680
 8944SOL    HW227732   4.206   5.630   0.547
 8945SOL     OW27733   2.666   1.029   4.410
 8945SOL    HW127734   2.588   0.982   4.452
 8945SOL    HW227735   2.644   1.126   4.398
 8946SOL     OW27736   3.377   1.642   4.191
 8946SOL    HW127737   3.468   1.623   4.229
 8946SOL    HW227738   3.312   1.653   4.265
 8947SOL     OW27739   4.247   3.940   5.256
 8947SOL    HW127740   4.212   4.033   5.270
 8947SOL    HW227741   4.195   3.896   5.183
 8948SOL     OW27742   5.836   5.150   3.572
 8948SOL    HW127743   5.762   5.086   3.553
 8948SOL    HW227744   5.850   5.210   3.493
 8949SOL     OW27745   1.933   6.068   0.242
 8949SOL    HW127746   1.928   6.017   0.328
 8949SOL    HW227747   1.875   6.024   0.173
 8950SOL     OW27748   4.421   2.516   4.188
 8950SOL    HW127749   4.330   2.500   4.225
 8950SOL    HW227750   4.468   2.429   4.173
 8951SOL     OW27751   1.693   2.699   5.469
 8951SOL    HW127752   1.788   2.730   5.464
 8951SOL    HW227753   1.690   2.599   5.465
 8952SOL     OW27754   0.202   1.477   2.471
 8952SOL    HW127755   0.159   1.535   2.540
 8952SOL    HW227756   0.232   1.533   2.394
 8953SOL     OW27757   1.386   3.159   7.001
 8953SOL    HW127758   1.467   3.188   0.031
 8953SOL    HW227759   1.311   3.143   0.044
 8954SOL     OW27760   1.995   5.957   6.344
 8954SOL    HW127761   1.972   6.004   6.430
 8954SOL    HW227762   1.964   5.862   6.349
 8955SOL     OW27763   6.423   3.908   3.517
 8955SOL    HW127764   6.486   3.981   3.490
 8955SOL    HW227765   6.475   3.836   3.565
 8956SOL     OW27766   1.003   0.379   6.061
 8956SOL    HW127767   1.102   0.378   6.045
 8956SOL    HW227768   0.967   0.286   6.053
 8957SOL     OW27769   3.071   4.930   2.656
 8957SOL    HW127770   3.018   4.854   2.618
 8957SOL    HW227771   3.089   4.914   2.753
 8958SOL     OW27772   1.651   6.669   4.254
 8958SOL    HW127773   1.611   6.577   4.254
 8958SOL    HW227774   1.751   6.662   4.250
 8959SOL     OW27775   1.739   4.279   0.234
 8959SOL    HW127776   1.692   4.263   0.147
 8959SOL    HW227777   1.679   4.256   0.310
 8960SOL     OW27778   3.663   5.486   1.174
 8960SOL    HW127779   3.750   5.481   1.223
 8960SOL    HW227780   3.671   5.438   1.087
 8961SOL     OW27781   1.219   2.259   3.565
 8961SOL    HW127782   1.188   2.292   3.653
 8961SOL    HW227783   1.143   2.259   3.500
 8962SOL     OW27784   5.741   0.337   3.341
 8962SOL    HW127785   5.819   0.389   3.306
 8962SOL    HW227786   5.680   0.314   3.265
 8963SOL     OW27787   6.093   0.887   4.043
 8963SOL    HW127788   6.033   0.855   3.969
 8963SOL    HW227789   6.119   0.810   4.101
 8964SOL     OW27790   5.102   4.547   2.494
 8964SOL    HW127791   5.041   4.470   2.514
 8964SOL    HW227792   5.192   4.531   2.534
 8965SOL     OW27793   1.624   5.207   2.134
 8965SOL    HW127794   1.688   5.191   2.059
 8965SOL    HW227795   1.574   5.292   2.117
 8966SOL     OW27796   2.115   2.509   5.947
 8966SOL    HW127797   2.202   2.477   5.985
 8966SOL    HW227798   2.071   2.570   6.013
 8967SOL     OW27799   4.471   0.625   0.287
 8967SOL    HW127800   4.437   0.680   0.364
 8967SOL    HW227801   4.418   0.645   0.205
 8968SOL     OW27802   4.769   6.127   1.645
 8968SOL    HW127803   4.754   6.044   1.699
 8968SOL    HW227804   4.691   6.189   1.656
 8969SOL     OW27805   6.484   0.756   4.181
 8969SOL    HW127806   6.552   0.825   4.160
 8969SOL    HW227807   6.409   0.798   4.232
 8970SOL     OW27808   3.530   1.645   1.861
 8970SOL    HW127809   3.445   1.683   1.825
 8970SOL    HW227810   3.607   1.679   1.807
 8971SOL     OW27811   4.105   5.267   2.619
 8971SOL    HW127812   4.034   5.214   2.572
 8971SOL    HW227813   4.090   5.364   2.604
 8972SOL     OW27814   5.435   6.805   5.353
 8972SOL    HW127815   5.413   6.738   5.283
 8972SOL    HW227816   5.531   6.796   5.379
 8973SOL     OW27817   1.511   4.739   0.072
 8973SOL    HW127818   1.590   4.749   0.011
 8973SOL    HW227819   1.443   4.679   0.030
 8974SOL     OW27820   0.809   3.636   5.062
 8974SOL    HW127821   0.775   3.581   4.987
 8974SOL    HW227822   0.903   3.610   5.083
 8975SOL     OW27823   3.217   6.810   0.592
 8975SOL    HW127824   3.303   6.788   0.545
 8975SOL    HW227825   3.142   6.761   0.548
 8976SOL     OW27826   1.454   5.544   4.252
 8976SOL    HW127827   1.509   5.560   4.335
 8976SOL    HW227828   1.484   5.460   4.208
 8977SOL     OW27829   6.266   1.491   5.851
 8977SOL    HW127830   6.260   1.572   5.910
 8977SOL    HW227831   6.174   1.461   5.828
 8978SOL     OW27832   5.648   6.979   0.477
 8978SOL    HW127833   5.714   0.002   0.417
 8978SOL    HW227834   5.645   6.880   0.458
 8979SOL     OW27835   1.844   4.081   5.018
 8979SOL    HW127836   1.877   4.058   5.110
 8979SOL    HW227837   1.773   4.016   4.991
 8980SOL     OW27838   3.507   2.896   4.574
 8980SOL    HW127839   3.522   2.829   4.647
 8980SOL    HW227840   3.510   2.988   4.613
 8981SOL     OW27841   3.770   1.475   5.313
 8981SOL    HW127842   3.856   1.436   5.282
 8981SOL    HW227843   3.758   1.566   5.273
 8982SOL     OW27844   2.977   4.327   0.700
 8982SOL    HW127845   2.998   4.425   0.707
 8982SOL    HW227846   3.000   4.282   0.786
 8983SOL     OW27847   4.257   5.580   0.198
 8983SOL    HW127848   4.331   5.641   0.228
 8983SOL    HW227849   4.249   5.503   0.261
 8984SOL     OW27850   2.232   5.935   3.104
 8984SOL    HW127851   2.306   5.994   3.071
 8984SOL    HW227852   2.161   5.991   3.147
 8985SOL     OW27853   3.978   2.711   6.550
 8985SOL    HW127854   4.057   2.766   6.522
 8985SOL    HW227855   4.009   2.636   6.609
 8986SOL     OW27856   3.888   4.816   2.898
 8986SOL    HW127857   3.808   4.778   2.850
 8986SOL    HW227858   3.861   4.902   2.941
 8987SOL     OW27859   5.388   6.066   1.843
 8987SOL    HW127860   5.393   5.966   1.847
 8987SOL    HW227861   5.381   6.103   1.936
 8988SOL     OW27862   0.632   5.365   4.312
 8988SOL    HW127863   0.551   5.329   4.358
 8988SOL    HW227864   0.610   5.390   4.218
 8989SOL     OW27865   4.201   2.874   6.535
 8989SOL    HW127866   4.215   2.950   6.471
 8989SOL    HW227867   4.287   2.824   6.545
 8990SOL     OW27868   6.991   5.237   3.454
 8990SOL    HW127869   7.002   5.276   3.545
 8990SOL    HW227870   6.894   5.231   3.432
 8991SOL     OW27871   1.381   2.321   5.231
 8991SOL    HW127872   1.465   2.370   5.255
 8991SOL    HW227873   1.306   2.387   5.219
 8992SOL     OW27874   6.311   2.061   6.772
 8992SOL    HW127875   6.392   2.112   6.800
 8992SOL    HW227876   6.235   2.082   6.834
 8993SOL     OW27877   4.461   2.497   6.544
 8993SOL    HW127878   4.449   2.592   6.571
 8993SOL    HW227879   4.508   2.493   6.456
 8994SOL     OW27880   1.946   4.648   4.385
 8994SOL    HW127881   1.998   4.679   4.465
 8994SOL    HW227882   2.007   4.646   4.305
 8995SOL     OW27883   0.202   1.506   1.413
 8995SOL    HW127884   0.108   1.478   1.436
 8995SOL    HW227885   0.208   1.606   1.414
 8996SOL     OW27886   5.246   4.537   6.378
 8996SOL    HW127887   5.232   4.518   6.476
 8996SOL    HW227888   5.334   4.583   6.366
 8997SOL     OW27889   5.617   1.145   4.863
 8997SOL    HW127890   5.602   1.196   4.779
 8997SOL    HW227891   5.669   1.062   4.843
 8998SOL     OW27892   6.108   4.336   4.542
 8998SOL    HW127893   6.057   4.412   4.500
 8998SOL    HW227894   6.079   4.250   4.501
 8999SOL     OW27895   5.033   6.754   6.083
 8999SOL    HW127896   5.025   6.721   6.177
 8999SOL    HW227897   4.979   6.837   6.072
 9000SOL     OW27898   1.972   4.260   1.547
 9000SOL    HW127899   2.027   4.208   1.482
 9000SOL    HW227900   1.912   4.323   1.497
 9001SOL     OW27901   0.254   5.007   2.005
 9001SOL    HW127902   0.270   4.933   2.070
 9001SOL    HW227903   0.192   4.974   1.933
 9002SOL     OW27904   1.036   4.471   6.090
 9002SOL    HW127905   1.031   4.409   6.012
 9002SOL    HW227906   1.129   4.471   6.127
 9003SOL     OW27907   5.760   1.665   1.494
 9003SOL    HW127908   5.797   1.585   1.540
 9003SOL    HW227909   5.743   1.738   1.560
 9004SOL     OW27910   4.236   4.671   0.577
 9004SOL    HW127911   4.166   4.742   0.581
 9004SOL    HW227912   4.200   4.586   0.615
 9005SOL     OW27913   5.459   1.037   5.665
 9005SOL    HW127914   5.509   0.951   5.676
 9005SOL    HW227915   5.365   1.025   5.695
 9006SOL     OW27916   3.852   6.993   0.733
 9006SOL    HW127917   3.791   0.045   0.766
 9006SOL    HW227918   3.904   0.006   0.655
 9007SOL     OW27919   2.566   1.460   2.715
 9007SOL    HW127920   2.647   1.495   2.667
 9007SOL    HW227921   2.595   1.396   2.786
 9008SOL     OW27922   0.540   5.560   2.940
 9008SOL    HW127923   0.538   5.616   3.023
 9008SOL    HW227924   0.449   5.523   2.923
 9009SOL     OW27925   4.040   5.727   0.435
 9009SOL    HW127926   4.062   5.815   0.478
 9009SOL    HW227927   3.972   5.741   0.364
 9010SOL     OW27928   1.286   6.698   3.943
 9010SOL    HW127929   1.301   6.731   4.036
 9010SOL    HW227930   1.319   6.604   3.935
 9011SOL     OW27931   4.456   0.547   3.216
 9011SOL    HW127932   4.362   0.574   3.193
 9011SOL    HW227933   4.491   0.606   3.289
 9012SOL     OW27934   2.416   5.547   0.249
 9012SOL    HW127935   2.449   5.503   0.332
 9012SOL    HW227936   2.316   5.552   0.251
 9013SOL     OW27937   1.517   6.433   4.305
 9013SOL    HW127938   1.516   6.339   4.273
 9013SOL    HW227939   1.427   6.458   4.341
 9014SOL     OW27940   6.103   2.457   2.256
 9014SOL    HW127941   6.015   2.492   2.290
 9014SOL    HW227942   6.128   2.506   2.172
 9015SOL     OW27943   5.553   2.101   0.711
 9015SOL    HW127944   5.575   2.198   0.701
 9015SOL    HW227945   5.607   2.048   0.645
 9016SOL     OW27946   6.119   5.401   5.956
 9016SOL    HW127947   6.207   5.359   5.975
 9016SOL    HW227948   6.083   5.365   5.870
 9017SOL     OW27949   3.348   0.397   4.799
 9017SOL    HW127950   3.314   0.490   4.787
 9017SOL    HW227951   3.445   0.398   4.820
 9018SOL     OW27952   4.061   3.062   6.704
 9018SOL    HW127953   4.005   3.018   6.774
 9018SOL    HW227954   4.125   2.996   6.665
 9019SOL     OW27955   0.641   2.616   2.919
 9019SOL    HW127956   0.649   2.542   2.986
 9019SOL    HW227957   0.622   2.702   2.966
 9020SOL     OW27958   6.365   5.895   1.807
 9020SOL    HW127959   6.323   5.970   1.756
 9020SOL    HW227960   6.295   5.828   1.831
 9021SOL     OW27961   0.156   0.661   4.123
 9021SOL    HW127962   0.098   0.740   4.141
 9021SOL    HW227963   0.243   0.693   4.084
 9022SOL     OW27964   4.010   2.302   6.908
 9022SOL    HW127965   3.967   2.225   6.861
 9022SOL    HW227966   4.082   2.268   6.969
 9023SOL     OW27967   4.512   3.291   1.213
 9023SOL    HW127968   4.454   3.210   1.225
 9023SOL    HW227969   4.454   3.371   1.196
 9024SOL     OW27970   1.628   5.160   6.095
 9024SOL    HW127971   1.533   5.182   6.071
 9024SOL    HW227972   1.658   5.081   6.042
 9025SOL     OW27973   0.346   5.673   1.078
 9025SOL    HW127974   0.274   5.736   1.048
 9025SOL    HW227975   0.312   5.579   1.072
 9026SOL     OW27976   3.724   1.816   0.307
 9026SOL    HW127977   3.711   1.744   0.239
 9026SOL    HW227978   3.804   1.871   0.283
 9027SOL     OW27979   0.574   3.613   4.031
 9027SOL    HW127980   0.496   3.641   3.975
 9027SOL    HW227981   0.626   3.542   3.984
 9028SOL     OW27982   3.554   3.853   5.437
 9028SOL    HW127983   3.639   3.801   5.435
 9028SOL    HW227984   3.530   3.880   5.344
 9029SOL     OW27985   4.109   0.130   4.749
 9029SOL    HW127986   4.201   0.166   4.762
 9029SOL    HW227987   4.044   0.186   4.801
 9030SOL     OW27988   2.794   2.001   3.640
 9030SOL    HW127989   2.883   2.043   3.622
 9030SOL    HW227990   2.763   2.026   3.732
 9031SOL     OW27991   4.637   0.149   4.639
 9031SOL    HW127992   4.624   0.248   4.647
 9031SOL    HW227993   4.599   0.118   4.552
 9032SOL     OW27994   4.536   3.539   1.629
 9032SOL    HW127995   4.538   3.474   1.553
 9032SOL    HW227996   4.629   3.552   1.664
 9033SOL     OW27997   1.262   5.592   2.887
 9033SOL    HW127998   1.335   5.562   2.949
 9033SOL    HW227999   1.207   5.512   2.860
 9034SOL     OW28000   2.891   6.361   4.783
 9034SOL    HW128001   2.822   6.309   4.732
 9034SOL    HW228002   2.958   6.298   4.822
 9035SOL     OW28003   1.964   4.885   0.760
 9035SOL    HW128004   1.982   4.895   0.662
 9035SOL    HW228005   1.955   4.975   0.802
 9036SOL     OW28006   1.259   3.767   5.752
 9036SOL    HW128007   1.307   3.798   5.834
 9036SOL    HW228008   1.322   3.716   5.693
 9037SOL     OW28009   0.715   2.381   3.087
 9037SOL    HW128010   0.798   2.413   3.133
 9037SOL    HW228011   0.703   2.283   3.105
 9038SOL     OW28012   4.672   3.231   6.216
 9038SOL    HW128013   4.736   3.219   6.292
 9038SOL    HW228014   4.718   3.279   6.142
 9039SOL     OW28015   2.961   4.945   6.896
 9039SOL    HW128016   2.935   5.040   6.910
 9039SOL    HW228017   3.055   4.941   6.862
 9040SOL     OW28018   1.830   1.993   1.288
 9040SOL    HW128019   1.849   1.969   1.383
 9040SOL    HW228020   1.912   2.031   1.245
 9041SOL     OW28021   0.027   2.390   0.780
 9041SOL    HW128022   6.997   2.324   0.836
 9041SOL    HW228023   7.000   2.402   0.692
 9042SOL     OW28024   3.743   5.605   6.041
 9042SOL    HW128025   3.652   5.582   6.078
 9042SOL    HW228026   3.744   5.702   6.015
 9043SOL     OW28027   2.935   1.240   0.298
 9043SOL    HW128028   2.956   1.155   0.250
 9043SOL    HW228029   3.017   1.274   0.342
 9044SOL     OW28030   0.902   0.200   6.435
 9044SOL    HW128031   0.837   0.182   6.509
 9044SOL    HW228032   0.875   0.283   6.386
 9045SOL     OW28033   4.226   0.331   2.534
 9045SOL    HW128034   4.166   0.333   2.454
 9045SOL    HW228035   4.205   0.407   2.595
 9046SOL     OW28036   2.996   3.868   2.786
 9046SOL    HW128037   3.005   3.887   2.884
 9046SOL    HW228038   2.930   3.794   2.772
 9047SOL     OW28039   1.416   4.115   5.983
 9047SOL    HW128040   1.458   4.042   5.929
 9047SOL    HW228041   1.329   4.083   6.021
 9048SOL     OW28042   6.343   2.183   5.895
 9048SOL    HW128043   6.246   2.173   5.917
 9048SOL    HW228044   6.353   2.245   5.816
 9049SOL     OW28045   3.127   6.308   6.415
 9049SOL    HW128046   3.029   6.290   6.410
 9049SOL    HW228047   3.173   6.266   6.337
 9050SOL     OW28048   0.383   4.306   1.404
 9050SOL    HW128049   0.338   4.237   1.347
 9050SOL    HW228050   0.356   4.295   1.499
 9051SOL     OW28051   2.499   1.975   1.000
 9051SOL    HW128052   2.564   1.901   0.989
 9051SOL    HW228053   2.547   2.061   1.016
 9052SOL     OW28054   1.799   3.190   5.054
 9052SOL    HW128055   1.734   3.239   4.995
 9052SOL    HW228056   1.755   3.169   5.141
 9053SOL     OW28057   1.717   1.902   1.062
 9053SOL    HW128058   1.778   1.824   1.051
 9053SOL    HW228059   1.731   1.943   1.152
 9054SOL     OW28060   2.763   5.442   3.386
 9054SOL    HW128061   2.768   5.538   3.413
 9054SOL    HW228062   2.756   5.435   3.287
 9055SOL     OW28063   0.373   4.370   4.698
 9055SOL    HW128064   0.418   4.458   4.693
 9055SOL    HW228065   0.406   4.319   4.777
 9056SOL     OW28066   6.475   1.875   2.569
 9056SOL    HW128067   6.571   1.854   2.549
 9056SOL    HW228068   6.468   1.915   2.660
 9057SOL     OW28069   4.633   1.244   4.369
 9057SOL    HW128070   4.731   1.230   4.381
 9057SOL    HW228071   4.596   1.174   4.308
 9058SOL     OW28072   1.651   0.860   6.645
 9058SOL    HW128073   1.609   0.786   6.697
 9058SOL    HW228074   1.614   0.861   6.552
 9059SOL     OW28075   1.396   1.838   2.467
 9059SOL    HW128076   1.353   1.924   2.439
 9059SOL    HW228077   1.463   1.856   2.539
 9060SOL     OW28078   5.570   2.994   4.846
 9060SOL    HW128079   5.521   2.913   4.815
 9060SOL    HW228080   5.542   3.016   4.939
 9061SOL     OW28081   5.266   5.541   2.378
 9061SOL    HW128082   5.213   5.623   2.398
 9061SOL    HW228083   5.271   5.484   2.460
 9062SOL     OW28084   1.388   4.876   0.984
 9062SOL    HW128085   1.405   4.861   1.082
 9062SOL    HW228086   1.456   4.827   0.930
 9063SOL     OW28087   3.413   2.074   2.609
 9063SOL    HW128088   3.340   2.126   2.565
 9063SOL    HW228089   3.394   2.066   2.707
 9064SOL     OW28090   6.641   3.310   6.530
 9064SOL    HW128091   6.569   3.335   6.466
 9064SOL    HW228092   6.614   3.335   6.623
 9065SOL     OW28093   2.240   0.996   0.600
 9065SOL    HW128094   2.268   0.900   0.588
 9065SOL    HW228095   2.155   0.999   0.653
 9066SOL     OW28096   4.670   6.774   0.077
 9066SOL    HW128097   4.764   6.795   0.102
 9066SOL    HW228098   4.609   6.842   0.116
 9067SOL     OW28099   1.800   6.995   3.567
 9067SOL    HW128100   1.713   6.972   3.524
 9067SOL    HW228101   1.786   7.013   3.665
 9068SOL     OW28102   1.564   5.332   6.812
 9068SOL    HW128103   1.575   5.420   6.766
 9068SOL    HW228104   1.518   5.268   6.750
 9069SOL     OW28105   1.497   2.534   6.208
 9069SOL    HW128106   1.488   2.545   6.307
 9069SOL    HW228107   1.553   2.609   6.171
 9070SOL     OW28108   1.080   4.669   4.313
 9070SOL    HW128109   1.066   4.586   4.259
 9070SOL    HW228110   1.144   4.729   4.266
 9071SOL     OW28111   6.100   6.620   6.904
 9071SOL    HW128112   6.197   6.646   6.898
 9071SOL    HW228113   6.073   6.576   6.818
 9072SOL     OW28114   5.894   4.182   6.807
 9072SOL    HW128115   5.862   4.219   6.894
 9072SOL    HW228116   5.867   4.086   6.799
 9073SOL     OW28117   1.895   0.708   1.687
 9073SOL    HW128118   1.894   0.807   1.699
 9073SOL    HW228119   1.859   0.664   1.769
 9074SOL     OW28120   1.351   7.011   2.995
 9074SOL    HW128121   1.283   0.064   2.994
 9074SOL    HW228122   1.330   6.945   2.923
 9075SOL     OW28123   6.763   1.028   2.296
 9075SOL    HW128124   6.859   1.015   2.271
 9075SOL    HW228125   6.705   1.006   2.218
 9076SOL     OW28126   6.534   1.101   5.747
 9076SOL    HW128127   6.478   1.019   5.744
 9076SOL    HW228128   6.484   1.174   5.794
 9077SOL     OW28129   6.000   6.630   2.300
 9077SOL    HW128130   6.041   6.720   2.308
 9077SOL    HW228131   5.931   6.617   2.371
 9078SOL     OW28132   3.782   2.908   5.170
 9078SOL    HW128133   3.788   2.911   5.071
 9078SOL    HW228134   3.698   2.861   5.197
 9079SOL     OW28135   3.579   0.318   6.075
 9079SOL    HW128136   3.653   0.335   6.010
 9079SOL    HW228137   3.594   0.229   6.119
 9080SOL     OW28138   5.326   1.837   1.009
 9080SOL    HW128139   5.355   1.748   0.974
 9080SOL    HW228140   5.255   1.823   1.078
 9081SOL     OW28141   5.635   6.598   2.006
 9081SOL    HW128142   5.648   6.697   1.998
 9081SOL    HW228143   5.719   6.551   1.980
 9082SOL     OW28144   3.521   1.224   3.578
 9082SOL    HW128145   3.492   1.228   3.673
 9082SOL    HW228146   3.451   1.179   3.523
 9083SOL     OW28147   4.517   4.706   4.662
 9083SOL    HW128148   4.548   4.636   4.726
 9083SOL    HW228149   4.447   4.762   4.706
 9084SOL     OW28150   2.912   3.410   3.000
 9084SOL    HW128151   2.917   3.348   3.078
 9084SOL    HW228152   2.927   3.504   3.031
 9085SOL     OW28153   1.255   2.200   0.485
 9085SOL    HW128154   1.306   2.256   0.550
 9085SOL    HW228155   1.272   2.104   0.503
 9086SOL     OW28156   0.360   4.455   1.052
 9086SOL    HW128157   0.302   4.509   0.990
 9086SOL    HW228158   0.362   4.360   1.021
 9087SOL     OW28159   4.820   3.788   2.003
 9087SOL    HW128160   4.756   3.716   2.029
 9087SOL    HW228161   4.898   3.788   2.066
 9088SOL     OW28162   5.074   0.300   0.204
 9088SOL    HW128163   5.097   0.317   0.300
 9088SOL    HW228164   5.088   0.383   0.151
 9089SOL     OW28165   4.803   0.280   5.226
 9089SOL    HW128166   4.738   0.245   5.158
 9089SOL    HW228167   4.850   0.203   5.269
 9090SOL     OW28168   6.056   1.845   4.718
 9090SOL    HW128169   6.135   1.891   4.758
 9090SOL    HW228170   6.053   1.750   4.749
 9091SOL     OW28171   3.136   3.670   6.958
 9091SOL    HW128172   3.168   3.575   6.964
 9091SOL    HW228173   3.067   3.678   6.886
 9092SOL     OW28174   0.152   2.113   6.933
 9092SOL    HW128175   0.147   2.199   6.882
 9092SOL    HW228176   0.066   2.064   6.926
 9093SOL     OW28177   1.273   6.169   5.933
 9093SOL    HW128178   1.190   6.224   5.924
 9093SOL    HW228179   1.350   6.217   5.891
 9094SOL     OW28180   0.436   3.882   1.894
 9094SOL    HW128181   0.496   3.817   1.849
 9094SOL    HW228182   0.462   3.976   1.870
 9095SOL     OW28183   5.853   6.361   4.647
 9095SOL    HW128184   5.820   6.300   4.718
 9095SOL    HW228185   5.935   6.322   4.604
 9096SOL     OW28186   6.162   6.112   3.294
 9096SOL    HW128187   6.251   6.138   3.330
 9096SOL    HW228188   6.145   6.160   3.208
 9097SOL     OW28189   1.226   2.972   6.064
 9097SOL    HW128190   1.282   3.045   6.026
 9097SOL    HW228191   1.215   2.987   6.163
 9098SOL     OW28192   1.677   3.792   3.985
 9098SOL    HW128193   1.699   3.822   4.078
 9098SOL    HW228194   1.637   3.701   3.988
 9099SOL     OW28195   2.873   2.954   6.884
 9099SOL    HW128196   2.872   2.937   6.983
 9099SOL    HW228197   2.887   2.868   6.836
 9100SOL     OW28198   0.662   4.897   3.267
 9100SOL    HW128199   0.676   4.825   3.334
 9100SOL    HW228200   0.747   4.948   3.253
 9101SOL     OW28201   1.076   2.749   1.913
 9101SOL    HW128202   1.111   2.658   1.889
 9101SOL    HW228203   1.076   2.759   2.013
 9102SOL     OW28204   4.143   6.404   3.340
 9102SOL    HW128205   4.063   6.421   3.283
 9102SOL    HW228206   4.122   6.331   3.405
 9103SOL     OW28207   6.253   1.525   0.578
 9103SOL    HW128208   6.207   1.614   0.574
 9103SOL    HW228209   6.237   1.483   0.667
 9104SOL     OW28210   6.057   0.978   6.647
 9104SOL    HW128211   6.127   0.953   6.580
 9104SOL    HW228212   5.980   1.023   6.600
 9105SOL     OW28213   2.200   0.154   6.192
 9105SOL    HW128214   2.179   0.226   6.258
 9105SOL    HW228215   2.167   0.066   6.227
 9106SOL     OW28216   1.725   4.149   1.098
 9106SOL    HW128217   1.770   4.229   1.138
 9106SOL    HW228218   1.628   4.168   1.087
 9107SOL     OW28219   2.343   1.149   7.007
 9107SOL    HW128220   2.386   1.233   0.018
 9107SOL    HW228221   2.272   1.122   0.051
 9108SOL     OW28222   5.923   5.376   6.171
 9108SOL    HW128223   5.956   5.285   6.197
 9108SOL    HW228224   5.970   5.406   6.088
 9109SOL     OW28225   5.207   3.412   2.485
 9109SOL    HW128226   5.277   3.453   2.426
 9109SOL    HW228227   5.167   3.483   2.543
 9110SOL     OW28228   1.187   5.951   4.924
 9110SOL    HW128229   1.173   6.041   4.881
 9110SOL    HW228230   1.255   5.959   4.997
 9111SOL     OW28231   4.234   2.867   6.145
 9111SOL    HW128232   4.289   2.902   6.069
 9111SOL    HW228233   4.233   2.934   6.219
 9112SOL     OW28234   0.953   5.519   1.833
 9112SOL    HW128235   0.990   5.608   1.806
 9112SOL    HW228236   0.891   5.486   1.762
 9113SOL     OW28237   5.623   1.441   3.972
 9113SOL    HW128238   5.654   1.531   4.000
 9113SOL    HW228239   5.696   1.394   3.922
 9114SOL     OW28240   1.424   6.227   5.244
 9114SOL    HW128241   1.484   6.282   5.185
 9114SOL    HW228242   1.342   6.281   5.265
 9115SOL     OW28243   5.096   4.456   4.060
 9115SOL    HW128244   5.178   4.477   4.112
 9115SOL    HW228245   5.091   4.358   4.042
 9116SOL     OW28246   1.521   6.879   3.499
 9116SOL    HW128247   1.483   6.855   3.410
 9116SOL    HW228248   1.461   6.843   3.571
 9117SOL     OW28249   3.484   6.762   0.468
 9117SOL    HW128250   3.534   6.848   0.477
 9117SOL    HW228251   3.548   6.688   0.450
 9118SOL     OW28252   6.318   4.516   1.668
 9118SOL    HW128253   6.404   4.524   1.617
 9118SOL    HW228254   6.320   4.433   1.724
 9119SOL     OW28255   3.476   0.312   0.726
 9119SOL    HW128256   3.499   0.379   0.796
 9119SOL    HW228257   3.445   0.227   0.769
 9120SOL     OW28258   5.939   3.787   5.091
 9120SOL    HW128259   5.912   3.827   5.003
 9120SOL    HW228260   5.960   3.690   5.078
 9121SOL     OW28261   3.052   0.516   5.146
 9121SOL    HW128262   3.019   0.466   5.066
 9121SOL    HW228263   3.038   0.614   5.132
 9122SOL     OW28264   1.752   3.781   2.158
 9122SOL    HW128265   1.768   3.753   2.064
 9122SOL    HW228266   1.711   3.705   2.209
 9123SOL     OW28267   0.468   0.146   4.053
 9123SOL    HW128268   0.475   0.100   3.965
 9123SOL    HW228269   0.465   0.077   4.126
 9124SOL     OW28270   2.741   5.635   1.292
 9124SOL    HW128271   2.808   5.561   1.302
 9124SOL    HW228272   2.784   5.713   1.247
 9125SOL     OW28273   4.541   5.870   0.885
 9125SOL    HW128274   4.504   5.857   0.793
 9125SOL    HW228275   4.599   5.791   0.908
 9126SOL     OW28276   3.828   4.678   0.184
 9126SOL    HW128277   3.768   4.637   0.116
 9126SOL    HW228278   3.788   4.668   0.275
 9127SOL     OW28279   6.968   4.727   4.243
 9127SOL    HW128280   6.896   4.695   4.181
 9127SOL    HW228281   6.927   4.780   4.317
 9128SOL     OW28282   5.698   3.764   6.220
 9128SOL    HW128283   5.756   3.826   6.273
 9128SOL    HW228284   5.690   3.798   6.127
 9129SOL     OW28285   1.226   2.776   0.858
 9129SOL    HW128286   1.292   2.700   0.864
 9129SOL    HW228287   1.168   2.764   0.778
 9130SOL     OW28288   2.913   3.864   4.978
 9130SOL    HW128289   2.908   3.963   4.992
 9130SOL    HW228290   2.885   3.817   5.061
 9131SOL     OW28291   4.929   2.524   0.587
 9131SOL    HW128292   4.901   2.449   0.647
 9131SOL    HW228293   4.873   2.605   0.606
 9132SOL     OW28294   6.693   4.104   3.439
 9132SOL    HW128295   6.774   4.078   3.492
 9132SOL    HW228296   6.717   4.113   3.343
 9133SOL     OW28297   4.591   1.074   0.934
 9133SOL    HW128298   4.672   1.047   0.985
 9133SOL    HW228299   4.590   1.174   0.924
 9134SOL     OW28300   4.443   5.083   0.520
 9134SOL    HW128301   4.479   5.169   0.484
 9134SOL    HW228302   4.358   5.060   0.472
 9135SOL     OW28303   6.567   6.617   2.534
 9135SOL    HW128304   6.509   6.609   2.615
 9135SOL    HW228305   6.511   6.646   2.456
 9136SOL     OW28306   6.385   4.502   0.234
 9136SOL    HW128307   6.286   4.506   0.217
 9136SOL    HW228308   6.404   4.536   0.326
 9137SOL     OW28309   5.244   6.165   6.306
 9137SOL    HW128310   5.265   6.096   6.376
 9137SOL    HW228311   5.160   6.213   6.332
 9138SOL     OW28312   3.173   3.270   0.507
 9138SOL    HW128313   3.100   3.217   0.464
 9138SOL    HW228314   3.178   3.248   0.604
 9139SOL     OW28315   6.493   0.545   1.099
 9139SOL    HW128316   6.463   0.510   1.011
 9139SOL    HW228317   6.464   0.482   1.171
 9140SOL     OW28318   1.280   3.805   3.233
 9140SOL    HW128319   1.195   3.845   3.200
 9140SOL    HW228320   1.291   3.713   3.196
 9141SOL     OW28321   6.697   5.857   4.950
 9141SOL    HW128322   6.746   5.937   4.986
 9141SOL    HW228323   6.747   5.774   4.974
 9142SOL     OW28324   1.560   4.469   4.580
 9142SOL    HW128325   1.522   4.503   4.666
 9142SOL    HW228326   1.640   4.413   4.600
 9143SOL     OW28327   6.503   4.171   2.873
 9143SOL    HW128328   6.467   4.232   2.943
 9143SOL    HW228329   6.557   4.099   2.917
 9144SOL     OW28330   2.669   4.821   5.087
 9144SOL    HW128331   2.731   4.744   5.070
 9144SOL    HW228332   2.637   4.859   5.000
 9145SOL     OW28333   1.261   6.006   5.710
 9145SOL    HW128334   1.280   5.912   5.738
 9145SOL    HW228335   1.298   6.070   5.778
 9146SOL     OW28336   5.599   2.797   3.466
 9146SOL    HW128337   5.549   2.849   3.397
 9146SOL    HW228338   5.534   2.749   3.525
 9147SOL     OW28339   4.081   0.032   5.126
 9147SOL    HW128340   4.065   6.990   5.049
 9147SOL    HW228341   4.022   0.006   5.202
 9148SOL     OW28342   5.503   5.901   1.376
 9148SOL    HW128343   5.430   5.833   1.366
 9148SOL    HW228344   5.590   5.855   1.390
 9149SOL     OW28345   0.029   3.625   1.388
 9149SOL    HW128346   7.005   3.613   1.477
 9149SOL    HW228347   0.071   3.715   1.384
 9150SOL     OW28348   2.219   2.975   0.241
 9150SOL    HW128349   2.205   2.897   0.302
 9150SOL    HW228350   2.132   3.002   0.201
 9151SOL     OW28351   1.696   3.434   3.503
 9151SOL    HW128352   1.608   3.438   3.550
 9151SOL    HW228353   1.729   3.527   3.486
 9152SOL     OW28354   1.488   4.203   2.129
 9152SOL    HW128355   1.470   4.190   2.226
 9152SOL    HW228356   1.569   4.151   2.102
 9153SOL     OW28357   0.715   3.631   5.927
 9153SOL    HW128358   0.776   3.663   5.999
 9153SOL    HW228359   0.620   3.639   5.957
 9154SOL     OW28360   5.360   5.125   2.836
 9154SOL    HW128361   5.412   5.044   2.810
 9154SOL    HW228362   5.422   5.203   2.842
 9155SOL     OW28363   1.430   6.575   2.898
 9155SOL    HW128364   1.521   6.572   2.856
 9155SOL    HW228365   1.369   6.633   2.843
 9156SOL     OW28366   6.547   3.907   6.167
 9156SOL    HW128367   6.607   3.931   6.243
 9156SOL    HW228368   6.591   3.933   6.080
 9157SOL     OW28369   1.514   4.168   6.231
 9157SOL    HW128370   1.487   4.138   6.139
 9157SOL    HW228371   1.511   4.091   6.294
 9158SOL     OW28372   6.780   3.912   4.602
 9158SOL    HW128373   6.820   3.994   4.643
 9158SOL    HW228374   6.772   3.841   4.671
 9159SOL     OW28375   2.955   1.426   4.237
 9159SOL    HW128376   2.960   1.514   4.189
 9159SOL    HW228377   2.958   1.442   4.335
 9160SOL     OW28378   0.677   4.421   1.789
 9160SOL    HW128379   0.669   4.323   1.805
 9160SOL    HW228380   0.765   4.440   1.744
 9161SOL     OW28381   6.784   4.033   2.200
 9161SOL    HW128382   6.785   4.055   2.297
 9161SOL    HW228383   6.736   3.946   2.186
 9162SOL     OW28384   4.460   1.955   1.598
 9162SOL    HW128385   4.383   1.930   1.656
 9162SOL    HW228386   4.529   2.003   1.653
 9163SOL     OW28387   1.988   2.405   3.378
 9163SOL    HW128388   2.010   2.494   3.340
 9163SOL    HW228389   2.066   2.370   3.430
 9164SOL     OW28390   2.770   6.162   6.968
 9164SOL    HW128391   2.744   6.166   6.871
 9164SOL    HW228392   2.720   6.233   7.019
 9165SOL     OW28393   5.855   1.785   5.923
 9165SOL    HW128394   5.763   1.806   5.954
 9165SOL    HW228395   5.921   1.811   5.993
 9166SOL     OW28396   4.957   6.193   1.245
 9166SOL    HW128397   4.919   6.157   1.160
 9166SOL    HW228398   4.928   6.288   1.256
 9167SOL     OW28399   1.702   1.229   4.921
 9167SOL    HW128400   1.768   1.305   4.917
 9167SOL    HW228401   1.679   1.200   4.829
 9168SOL     OW28402   6.579   5.990   4.426
 9168SOL    HW128403   6.487   5.988   4.387
 9168SOL    HW228404   6.632   5.913   4.390
 9169SOL     OW28405   6.847   6.219   1.805
 9169SOL    HW128406   6.920   6.162   1.768
 9169SOL    HW228407   6.763   6.165   1.812
 9170SOL     OW28408   1.291   0.930   6.340
 9170SOL    HW128409   1.338   0.913   6.253
 9170SOL    HW228410   1.345   0.993   6.395
 9171SOL     OW28411   3.351   5.084   6.239
 9171SOL    HW128412   3.436   5.064   6.289
 9171SOL    HW228413   3.334   5.182   6.240
 9172SOL     OW28414   4.562   1.757   4.644
 9172SOL    HW128415   4.624   1.772   4.567
 9172SOL    HW228416   4.546   1.659   4.655
 9173SOL     OW28417   5.655   3.644   4.947
 9173SOL    HW128418   5.580   3.667   5.009
 9173SOL    HW228419   5.708   3.726   4.928
 9174SOL     OW28420   6.799   4.935   0.894
 9174SOL    HW128421   6.706   4.929   0.857
 9174SOL    HW228422   6.865   4.905   0.825
 9175SOL     OW28423   2.338   0.046   0.251
 9175SOL    HW128424   2.392   0.081   0.327
 9175SOL    HW228425   2.326   0.118   0.183
 9176SOL     OW28426   1.672   1.698   2.175
 9176SOL    HW128427   1.744   1.745   2.124
 9176SOL    HW228428   1.633   1.761   2.242
 9177SOL     OW28429   0.261   5.276   3.707
 9177SOL    HW128430   0.237   5.182   3.729
 9177SOL    HW228431   0.360   5.288   3.712
 9178SOL     OW28432   2.154   4.704   1.048
 9178SOL    HW128433   2.162   4.640   1.124
 9178SOL    HW228434   2.130   4.794   1.082
 9179SOL     OW28435   3.228   5.484   4.316
 9179SOL    HW128436   3.147   5.433   4.343
 9179SOL    HW228437   3.309   5.444   4.359
 9180SOL     OW28438   0.237   1.183   5.195
 9180SOL    HW128439   0.226   1.282   5.195
 9180SOL    HW228440   0.241   1.150   5.100
 9181SOL     OW28441   2.459   2.165   3.500
 9181SOL    HW128442   2.546   2.131   3.464
 9181SOL    HW228443   2.456   2.152   3.599
 9182SOL     OW28444   0.683   1.646   3.015
 9182SOL    HW128445   0.778   1.629   3.039
 9182SOL    HW228446   0.638   1.696   3.089
 9183SOL     OW28447   1.524   1.928   6.198
 9183SOL    HW128448   1.521   1.832   6.168
 9183SOL    HW228449   1.572   1.983   6.130
 9184SOL     OW28450   3.932   3.671   0.561
 9184SOL    HW128451   3.977   3.606   0.499
 9184SOL    HW228452   3.835   3.675   0.540
 9185SOL     OW28453   1.327   0.588   6.294
 9185SOL    HW128454   1.400   0.532   6.333
 9185SOL    HW228455   1.368   0.661   6.238
 9186SOL     OW28456   5.219   1.103   6.243
 9186SOL    HW128457   5.244   1.136   6.153
 9186SOL    HW228458   5.302   1.079   6.294
 9187SOL     OW28459   5.517   2.515   0.481
 9187SOL    HW128460   5.448   2.586   0.497
 9187SOL    HW228461   5.548   2.520   0.386
 9188SOL     OW28462   1.409   0.006   2.000
 9188SOL    HW128463   1.356   0.090   2.011
 9188SOL    HW228464   1.501   0.029   1.969
 9189SOL     OW28465   4.533   1.095   5.686
 9189SOL    HW128466   4.604   1.041   5.731
 9189SOL    HW228467   4.566   1.126   5.597
 9190SOL     OW28468   5.698   1.944   5.449
 9190SOL    HW128469   5.701   1.845   5.456
 9190SOL    HW228470   5.697   1.971   5.353
 9191SOL     OW28471   5.450   0.369   1.052
 9191SOL    HW128472   5.465   0.456   1.099
 9191SOL    HW228473   5.523   0.305   1.076
 9192SOL     OW28474   4.880   3.653   3.865
 9192SOL    HW128475   4.891   3.729   3.800
 9192SOL    HW228476   4.867   3.568   3.814
 9193SOL     OW28477   3.384   3.035   3.300
 9193SOL    HW128478   3.291   3.050   3.269
 9193SOL    HW228479   3.444   3.104   3.261
 9194SOL     OW28480   4.126   5.845   2.683
 9194SOL    HW128481   4.105   5.759   2.636
 9194SOL    HW228482   4.044   5.903   2.682
 9195SOL     OW28483   0.020   3.053   2.695
 9195SOL    HW128484   0.035   3.048   2.794
 9195SOL    HW228485   6.943   3.042   2.676
 9196SOL     OW28486   5.245   6.621   3.764
 9196SOL    HW128487   5.146   6.607   3.771
 9196SOL    HW228488   5.263   6.719   3.754
 9197SOL     OW28489   3.990   2.860   5.991
 9197SOL    HW128490   3.904   2.907   6.009
 9197SOL    HW228491   4.056   2.882   6.063
 9198SOL     OW28492   5.914   2.387   5.525
 9198SOL    HW128493   5.980   2.427   5.589
 9198SOL    HW228494   5.949   2.299   5.492
 9199SOL     OW28495   1.748   3.467   6.233
 9199SOL    HW128496   1.658   3.458   6.190
 9199SOL    HW228497   1.779   3.561   6.225
 9200SOL     OW28498   5.744   6.286   0.935
 9200SOL    HW128499   5.666   6.291   0.998
 9200SOL    HW228500   5.715   6.315   0.844
 9201SOL     OW28501   1.319   4.080   2.891
 9201SOL    HW128502   1.361   4.060   2.803
 9201SOL    HW228503   1.367   4.029   2.963
 9202SOL     OW28504   3.035   5.504   3.550
 9202SOL    HW128505   3.051   5.480   3.645
 9202SOL    HW228506   3.115   5.481   3.495
 9203SOL     OW28507   4.814   0.738   6.132
 9203SOL    HW128508   4.868   0.819   6.109
 9203SOL    HW228509   4.722   0.766   6.159
 9204SOL     OW28510   5.211   4.231   2.240
 9204SOL    HW128511   5.142   4.300   2.218
 9204SOL    HW228512   5.231   4.177   2.158
 9205SOL     OW28513   4.942   3.160   2.204
 9205SOL    HW128514   4.969   3.080   2.257
 9205SOL    HW228515   4.881   3.133   2.130
 9206SOL     OW28516   0.903   6.564   3.049
 9206SOL    HW128517   0.815   6.535   3.011
 9206SOL    HW228518   0.929   6.503   3.124
 9207SOL     OW28519   4.228   6.311   0.031
 9207SOL    HW128520   4.220   6.406   0.062
 9207SOL    HW228521   4.323   6.292   0.008
 9208SOL     OW28522   4.858   4.321   1.935
 9208SOL    HW128523   4.781   4.287   1.989
 9208SOL    HW228524   4.824   4.370   1.855
 9209SOL     OW28525   3.904   0.017   3.032
 9209SOL    HW128526   3.938   0.041   3.123
 9209SOL    HW228527   3.846   6.957   3.038
 9210SOL     OW28528   1.366   6.668   0.344
 9210SOL    HW128529   1.401   6.651   0.252
 9210SOL    HW228530   1.394   6.593   0.405
 9211SOL     OW28531   5.074   1.427   5.955
 9211SOL    HW128532   5.038   1.516   5.983
 9211SOL    HW228533   5.132   1.439   5.874
 9212SOL     OW28534   5.433   3.674   5.102
 9212SOL    HW128535   5.382   3.673   5.188
 9212SOL    HW228536   5.387   3.733   5.036
 9213SOL     OW28537   6.434   6.908   2.555
 9213SOL    HW128538   6.464   6.981   2.617
 9213SOL    HW228539   6.457   6.933   2.461
 9214SOL     OW28540   2.604   2.564   5.482
 9214SOL    HW128541   2.668   2.534   5.552
 9214SOL    HW228542   2.558   2.485   5.442
 9215SOL     OW28543   0.168   2.723   2.811
 9215SOL    HW128544   0.146   2.789   2.883
 9215SOL    HW228545   0.118   2.746   2.728
 9216SOL     OW28546   2.935   5.763   3.861
 9216SOL    HW128547   2.865   5.822   3.900
 9216SOL    HW228548   2.999   5.735   3.933
 9217SOL     OW28549   4.362   0.705   6.485
 9217SOL    HW128550   4.289   0.720   6.551
 9217SOL    HW228551   4.326   0.716   6.392
 9218SOL     OW28552   5.823   5.680   6.095
 9218SOL    HW128553   5.764   5.754   6.129
 9218SOL    HW228554   5.916   5.694   6.131
 9219SOL     OW28555   3.512   2.342   5.789
 9219SOL    HW128556   3.538   2.409   5.858
 9219SOL    HW228557   3.501   2.388   5.700
 9220SOL     OW28558   0.463   6.952   2.904
 9220SOL    HW128559   0.469   6.916   2.998
 9220SOL    HW228560   0.451   0.030   2.907
 9221SOL     OW28561   1.900   1.751   0.272
 9221SOL    HW128562   1.932   1.717   0.184
 9221SOL    HW228563   1.968   1.814   0.310
 9222SOL     OW28564   1.887   3.154   4.200
 9222SOL    HW128565   1.914   3.247   4.177
 9222SOL    HW228566   1.930   3.126   4.286
 9223SOL     OW28567   0.579   3.087   5.197
 9223SOL    HW128568   0.512   3.074   5.123
 9223SOL    HW228569   0.536   3.065   5.284
 9224SOL     OW28570   2.599   4.545   3.385
 9224SOL    HW128571   2.522   4.568   3.325
 9224SOL    HW228572   2.670   4.614   3.375
 9225SOL     OW28573   5.598   5.694   6.467
 9225SOL    HW128574   5.507   5.698   6.424
 9225SOL    HW228575   5.641   5.784   6.461
 9226SOL     OW28576   0.552   0.741   0.557
 9226SOL    HW128577   0.571   0.677   0.632
 9226SOL    HW228578   0.565   0.695   0.469
 9227SOL     OW28579   2.879   4.203   0.480
 9227SOL    HW128580   2.931   4.194   0.395
 9227SOL    HW228581   2.941   4.229   0.554
 9228SOL     OW28582   3.506   3.532   5.246
 9228SOL    HW128583   3.568   3.510   5.171
 9228SOL    HW228584   3.447   3.608   5.219
 9229SOL     OW28585   6.725   4.989   0.257
 9229SOL    HW128586   6.819   4.977   0.226
 9229SOL    HW228587   6.671   4.908   0.232
 9230SOL     OW28588   4.505   1.487   4.945
 9230SOL    HW128589   4.551   1.519   5.027
 9230SOL    HW228590   4.461   1.399   4.964
 9231SOL     OW28591   6.476   6.097   2.910
 9231SOL    HW128592   6.491   6.136   2.819
 9231SOL    HW228593   6.534   6.016   2.921
 9232SOL     OW28594   1.326   5.381   2.470
 9232SOL    HW128595   1.361   5.300   2.424
 9232SOL    HW228596   1.401   5.447   2.483
 9233SOL     OW28597   0.700   6.395   6.313
 9233SOL    HW128598   0.690   6.492   6.334
 9233SOL    HW228599   0.796   6.369   6.321
 9234SOL     OW28600   2.333   4.121   6.834
 9234SOL    HW128601   2.310   4.025   6.814
 9234SOL    HW228602   2.263   4.180   6.794
 9235SOL     OW28603   1.866   1.851   2.750
 9235SOL    HW128604   1.950   1.807   2.780
 9235SOL    HW228605   1.791   1.825   2.812
 9236SOL     OW28606   1.758   3.131   6.679
 9236SOL    HW128607   1.665   3.168   6.670
 9236SOL    HW228608   1.823   3.206   6.667
 9237SOL     OW28609   5.263   5.146   3.140
 9237SOL    HW128610   5.244   5.237   3.178
 9237SOL    HW228611   5.303   5.157   3.049
 9238SOL     OW28612   1.728   2.907   4.811
 9238SOL    HW128613   1.703   2.981   4.873
 9238SOL    HW228614   1.827   2.907   4.797
 9239SOL     OW28615   1.303   4.539   7.008
 9239SOL    HW128616   1.314   4.459   0.047
 9239SOL    HW228617   1.297   4.510   6.913
 9240SOL     OW28618   4.703   1.579   3.141
 9240SOL    HW128619   4.774   1.581   3.211
 9240SOL    HW228620   4.614   1.594   3.184
 9241SOL     OW28621   5.124   0.340   0.794
 9241SOL    HW128622   5.133   0.411   0.864
 9241SOL    HW228623   5.030   0.306   0.793
 9242SOL     OW28624   2.061   2.597   0.148
 9242SOL    HW128625   2.149   2.567   0.185
 9242SOL    HW228626   1.997   2.520   0.149
 9243SOL     OW28627   1.568   0.439   0.139
 9243SOL    HW128628   1.554   0.535   0.162
 9243SOL    HW228629   1.481   0.390   0.148
 9244SOL     OW28630   3.823   6.859   6.007
 9244SOL    HW128631   3.749   6.832   6.068
 9244SOL    HW228632   3.795   6.940   5.955
 9245SOL     OW28633   1.280   5.092   3.004
 9245SOL    HW128634   1.305   5.003   3.042
 9245SOL    HW228635   1.205   5.081   2.939
 9246SOL     OW28636   5.396   0.304   6.431
 9246SOL    HW128637   5.379   0.207   6.414
 9246SOL    HW228638   5.463   0.339   6.365
 9247SOL     OW28639   4.168   5.580   2.634
 9247SOL    HW128640   4.267   5.592   2.628
 9247SOL    HW228641   4.142   5.566   2.729
 9248SOL     OW28642   2.512   0.738   6.704
 9248SOL    HW128643   2.505   0.815   6.767
 9248SOL    HW228644   2.522   0.772   6.611
 9249SOL     OW28645   2.811   6.262   0.658
 9249SOL    HW128646   2.773   6.244   0.749
 9249SOL    HW228647   2.810   6.361   0.641
 9250SOL     OW28648   0.389   2.896   4.571
 9250SOL    HW128649   0.356   2.842   4.648
 9250SOL    HW228650   0.320   2.900   4.499
 9251SOL     OW28651   2.737   2.137   0.774
 9251SOL    HW128652   2.659   2.162   0.831
 9251SOL    HW228653   2.788   2.220   0.750
 9252SOL     OW28654   5.811   1.616   5.438
 9252SOL    HW128655   5.901   1.635   5.398
 9252SOL    HW228656   5.740   1.662   5.384
 9253SOL     OW28657   0.965   6.108   5.178
 9253SOL    HW128658   0.991   6.162   5.098
 9253SOL    HW228659   0.889   6.153   5.225
 9254SOL     OW28660   0.377   4.856   2.208
 9254SOL    HW128661   0.399   4.759   2.198
 9254SOL    HW228662   0.308   4.867   2.279
 9255SOL     OW28663   6.671   4.568   1.065
 9255SOL    HW128664   6.621   4.484   1.085
 9255SOL    HW228665   6.608   4.637   1.031
 9256SOL     OW28666   2.713   6.239   0.915
 9256SOL    HW128667   2.796   6.284   0.947
 9256SOL    HW228668   2.642   6.308   0.898
 9257SOL     OW28669   6.540   5.683   4.339
 9257SOL    HW128670   6.637   5.675   4.363
 9257SOL    HW228671   6.508   5.596   4.301
 9258SOL     OW28672   3.504   5.158   1.024
 9258SOL    HW128673   3.458   5.145   1.111
 9258SOL    HW228674   3.601   5.131   1.033
 9259SOL     OW28675   1.635   2.076   0.002
 9259SOL    HW128676   1.629   2.107   6.928
 9259SOL    HW228677   1.581   1.992   0.013
 9260SOL     OW28678   5.251   3.677   4.687
 9260SOL    HW128679   5.245   3.589   4.734
 9260SOL    HW228680   5.233   3.751   4.752
 9261SOL     OW28681   3.361   2.217   1.272
 9261SOL    HW128682   3.337   2.153   1.198
 9261SOL    HW228683   3.288   2.285   1.281
 9262SOL     OW28684   6.754   6.143   5.482
 9262SOL    HW128685   6.699   6.212   5.529
 9262SOL    HW228686   6.717   6.052   5.502
 9263SOL     OW28687   2.174   4.477   3.410
 9263SOL    HW128688   2.131   4.429   3.486
 9263SOL    HW228689   2.184   4.574   3.433
 9264SOL     OW28690   5.347   4.269   6.315
 9264SOL    HW128691   5.327   4.350   6.260
 9264SOL    HW228692   5.263   4.238   6.360
 9265SOL     OW28693   5.886   1.726   1.235
 9265SOL    HW128694   5.820   1.754   1.165
 9265SOL    HW228695   5.839   1.712   1.322
 9266SOL     OW28696   1.551   4.383   1.395
 9266SOL    HW128697   1.519   4.288   1.387
 9266SOL    HW228698   1.474   4.442   1.420
 9267SOL     OW28699   6.802   0.500   4.128
 9267SOL    HW128700   6.851   0.514   4.214
 9267SOL    HW228701   6.710   0.465   4.146
 9268SOL     OW28702   0.327   0.164   1.238
 9268SOL    HW128703   0.342   0.248   1.186
 9268SOL    HW228704   0.387   0.162   1.318
 9269SOL     OW28705   2.889   1.009   0.175
 9269SOL    HW128706   2.902   0.916   0.208
 9269SOL    HW228707   2.791   1.031   0.176
 9270SOL     OW28708   2.608   0.222   6.540
 9270SOL    HW128709   2.514   0.256   6.531
 9270SOL    HW228710   2.664   0.260   6.466
 9271SOL     OW28711   1.098   5.693   4.928
 9271SOL    HW128712   1.130   5.788   4.934
 9271SOL    HW228713   1.051   5.679   4.841
 9272SOL     OW28714   6.984   6.630   6.379
 9272SOL    HW128715   6.993   6.582   6.466
 9272SOL    HW228716   6.900   6.600   6.334
 9273SOL     OW28717   5.186   4.151   3.642
 9273SOL    HW128718   5.097   4.181   3.678
 9273SOL    HW228719   5.236   4.102   3.713
 9274SOL     OW28720   0.709   3.277   0.829
 9274SOL    HW128721   0.637   3.209   0.822
 9274SOL    HW228722   0.754   3.269   0.918
 9275SOL     OW28723   6.531   0.906   0.462
 9275SOL    HW128724   6.525   0.818   0.508
 9275SOL    HW228725   6.574   0.973   0.523
 9276SOL     OW28726   2.481   5.220   0.153
 9276SOL    HW128727   2.454   5.166   0.232
 9276SOL    HW228728   2.404   5.278   0.124
 9277SOL     OW28729   5.338   5.276   2.121
 9277SOL    HW128730   5.348   5.214   2.199
 9277SOL    HW228731   5.281   5.354   2.146
 9278SOL     OW28732   1.138   0.082   5.445
 9278SOL    HW128733   1.072   0.146   5.483
 9278SOL    HW228734   1.115   0.063   5.349
 9279SOL     OW28735   3.628   5.545   1.743
 9279SOL    HW128736   3.629   5.495   1.829
 9279SOL    HW228737   3.688   5.625   1.750
 9280SOL     OW28738   1.656   6.526   2.742
 9280SOL    HW128739   1.738   6.471   2.753
 9280SOL    HW228740   1.598   6.485   2.671
 9281SOL     OW28741   2.119   5.351   0.232
 9281SOL    HW128742   2.036   5.319   0.277
 9281SOL    HW228743   2.131   5.449   0.250
 9282SOL     OW28744   3.392   6.907   5.437
 9282SOL    HW128745   3.428   6.945   5.352
 9282SOL    HW228746   3.469   6.885   5.498
 9283SOL     OW28747   3.990   6.573   1.258
 9283SOL    HW128748   4.080   6.617   1.261
 9283SOL    HW228749   3.951   6.571   1.349
 9284SOL     OW28750   4.656   3.924   5.567
 9284SOL    HW128751   4.705   3.876   5.494
 9284SOL    HW228752   4.713   3.926   5.649
 9285SOL     OW28753   0.725   5.080   2.681
 9285SOL    HW128754   0.728   5.164   2.628
 9285SOL    HW228755   0.663   5.092   2.759
 9286SOL     OW28756   4.371   6.902   1.650
 9286SOL    HW128757   4.284   6.891   1.602
 9286SOL    HW228758   4.446   6.874   1.589
 9287SOL     OW28759   3.713   4.234   5.755
 9287SOL    HW128760   3.625   4.190   5.741
 9287SOL    HW228761   3.750   4.265   5.667
 9288SOL     OW28762   3.714   1.745   2.556
 9288SOL    HW128763   3.632   1.781   2.513
 9288SOL    HW228764   3.724   1.784   2.648
 9289SOL     OW28765   4.822   6.794   0.440
 9289SOL    HW128766   4.805   6.817   0.536
 9289SOL    HW228767   4.895   6.726   0.435
 9290SOL     OW28768   5.069   1.311   4.572
 9290SOL    HW128769   5.134   1.387   4.582
 9290SOL    HW228770   4.980   1.347   4.544
 9291SOL     OW28771   1.236   3.971   6.127
 9291SOL    HW128772   1.260   3.885   6.171
 9291SOL    HW228773   1.193   4.032   6.195
 9292SOL     OW28774   1.181   1.358   0.070
 9292SOL    HW128775   1.107   1.312   0.021
 9292SOL    HW228776   1.223   1.294   0.134
 9293SOL     OW28777   4.907   2.426   4.512
 9293SOL    HW128778   5.001   2.452   4.534
 9293SOL    HW228779   4.845   2.465   4.580
 9294SOL     OW28780   4.566   6.866   6.279
 9294SOL    HW128781   4.516   6.925   6.342
 9294SOL    HW228782   4.509   6.846   6.199
 9295SOL     OW28783   0.342   1.000   4.985
 9295SOL    HW128784   0.350   1.045   4.896
 9295SOL    HW228785   0.369   0.904   4.976
 9296SOL     OW28786   2.565   5.028   5.937
 9296SOL    HW128787   2.564   4.954   6.004
 9296SOL    HW228788   2.610   4.997   5.853
 9297SOL     OW28789   6.348   6.083   2.362
 9297SOL    HW128790   6.299   6.008   2.407
 9297SOL    HW228791   6.292   6.120   2.288
 9298SOL     OW28792   1.169   4.325   6.398
 9298SOL    HW128793   1.131   4.410   6.434
 9298SOL    HW228794   1.238   4.347   6.329
 9299SOL     OW28795   2.436   2.647   4.450
 9299SOL    HW128796   2.351   2.697   4.467
 9299SOL    HW228797   2.495   2.652   4.530
 9300SOL     OW28798   1.784   5.893   5.144
 9300SOL    HW128799   1.725   5.949   5.202
 9300SOL    HW228800   1.871   5.939   5.130
 9301SOL     OW28801   6.914   4.279   4.138
 9301SOL    HW128802   6.982   4.231   4.194
 9301SOL    HW228803   6.960   4.349   4.083
 9302SOL     OW28804   2.122   3.637   4.858
 9302SOL    HW128805   2.105   3.702   4.784
 9302SOL    HW228806   2.111   3.682   4.946
 9303SOL     OW28807   2.406   4.454   0.155
 9303SOL    HW128808   2.464   4.513   0.211
 9303SOL    HW228809   2.451   4.366   0.142
 9304SOL     OW28810   5.012   5.500   6.729
 9304SOL    HW128811   5.102   5.536   6.702
 9304SOL    HW228812   4.972   5.450   6.652
 9305SOL     OW28813   1.647   2.068   0.858
 9305SOL    HW128814   1.667   1.998   0.927
 9305SOL    HW228815   1.649   2.159   0.901
 9306SOL     OW28816   6.851   6.421   5.133
 9306SOL    HW128817   6.844   6.437   5.035
 9306SOL    HW228818   6.900   6.497   5.176
 9307SOL     OW28819   1.513   3.510   1.652
 9307SOL    HW128820   1.607   3.520   1.685
 9307SOL    HW228821   1.501   3.565   1.569
 9308SOL     OW28822   2.042   3.079   1.780
 9308SOL    HW128823   2.033   3.161   1.837
 9308SOL    HW228824   1.972   3.013   1.807
 9309SOL     OW28825   4.969   5.251   6.532
 9309SOL    HW128826   4.889   5.227   6.587
 9309SOL    HW228827   4.943   5.253   6.436
 9310SOL     OW28828   5.848   6.133   6.950
 9310SOL    HW128829   5.919   6.200   6.926
 9310SOL    HW228830   5.762   6.180   6.967
 9311SOL     OW28831   4.662   3.971   0.472
 9311SOL    HW128832   4.760   3.960   0.454
 9311SOL    HW228833   4.626   4.046   0.417
 9312SOL     OW28834   0.544   2.806   3.119
 9312SOL    HW128835   0.545   2.806   3.219
 9312SOL    HW228836   0.572   2.897   3.086
 9313SOL     OW28837   0.554   0.781   1.951
 9313SOL    HW128838   0.528   0.831   1.868
 9313SOL    HW228839   0.517   0.828   2.031
 9314SOL     OW28840   5.289   4.173   0.771
 9314SOL    HW128841   5.267   4.081   0.738
 9314SOL    HW228842   5.260   4.181   0.867
 9315SOL     OW28843   4.777   6.673   6.283
 9315SOL    HW128844   4.716   6.752   6.292
 9315SOL    HW228845   4.869   6.700   6.310
 9316SOL     OW28846   5.184   0.982   5.656
 9316SOL    HW128847   5.133   1.064   5.683
 9316SOL    HW228848   5.184   0.974   5.556
 9317SOL     OW28849   3.444   5.948   3.251
 9317SOL    HW128850   3.425   5.903   3.338
 9317SOL    HW228851   3.379   5.915   3.182
 9318SOL     OW28852   4.008   6.960   2.034
 9318SOL    HW128853   4.043   6.924   2.121
 9318SOL    HW228854   3.922   6.915   2.012
 9319SOL     OW28855   3.242   2.303   6.812
 9319SOL    HW128856   3.256   2.352   6.726
 9319SOL    HW228857   3.190   2.362   6.875
 9320SOL     OW28858   6.424   6.430   6.671
 9320SOL    HW128859   6.450   6.526   6.661
 9320SOL    HW228860   6.404   6.410   6.767
 9321SOL     OW28861   0.377   3.066   4.993
 9321SOL    HW128862   0.293   3.117   4.976
 9321SOL    HW228863   0.435   3.069   4.912
 9322SOL     OW28864   6.186   3.350   7.005
 9322SOL    HW128865   6.132   3.293   0.046
 9322SOL    HW228866   6.125   3.400   6.944
 9323SOL     OW28867   0.644   2.111   5.846
 9323SOL    HW128868   0.703   2.143   5.772
 9323SOL    HW228869   0.549   2.106   5.813
 9324SOL     OW28870   0.882   4.034   2.176
 9324SOL    HW128871   0.911   4.072   2.088
 9324SOL    HW228872   0.904   3.936   2.178
 9325SOL     OW28873   1.005   4.340   3.124
 9325SOL    HW128874   0.960   4.427   3.145
 9325SOL    HW228875   1.105   4.353   3.130
 9326SOL     OW28876   4.716   4.099   1.822
 9326SOL    HW128877   4.783   4.170   1.799
 9326SOL    HW228878   4.643   4.139   1.876
 9327SOL     OW28879   3.192   0.957   3.049
 9327SOL    HW128880   3.102   0.973   3.088
 9327SOL    HW228881   3.259   0.947   3.122
 9328SOL     OW28882   2.240   0.688   3.857
 9328SOL    HW128883   2.284   0.658   3.941
 9328SOL    HW228884   2.306   0.683   3.781
 9329SOL     OW28885   0.009   5.471   6.726
 9329SOL    HW128886   6.973   5.440   6.650
 9329SOL    HW228887   0.086   5.524   6.691
 9330SOL     OW28888   6.822   6.310   6.892
 9330SOL    HW128889   6.903   6.364   6.917
 9330SOL    HW228890   6.744   6.371   6.877
 9331SOL     OW28891   2.121   3.128   3.586
 9331SOL    HW128892   2.036   3.181   3.590
 9331SOL    HW228893   2.153   3.123   3.491
 9332SOL     OW28894   5.200   6.054   0.705
 9332SOL    HW128895   5.162   6.113   0.777
 9332SOL    HW228896   5.294   6.080   0.687
 9333SOL     OW28897   3.939   3.640   1.199
 9333SOL    HW128898   3.960   3.549   1.235
 9333SOL    HW228899   3.906   3.632   1.105
 9334SOL     OW28900   6.247   6.235   5.971
 9334SOL    HW128901   6.190   6.153   5.964
 9334SOL    HW228902   6.236   6.290   5.888
 9335SOL     OW28903   0.794   3.457   2.001
 9335SOL    HW128904   0.834   3.381   1.951
 9335SOL    HW228905   0.720   3.497   1.947
 9336SOL     OW28906   5.768   6.802   5.870
 9336SOL    HW128907   5.704   6.737   5.829
 9336SOL    HW228908   5.761   6.890   5.824
 9337SOL     OW28909   2.178   0.710   5.962
 9337SOL    HW128910   2.231   0.630   5.935
 9337SOL    HW228911   2.086   0.682   5.987
 9338SOL     OW28912   5.598   6.571   0.321
 9338SOL    HW128913   5.589   6.585   0.222
 9338SOL    HW228914   5.682   6.521   0.340
 9339SOL     OW28915   6.776   3.971   5.487
 9339SOL    HW128916   6.726   3.967   5.574
 9339SOL    HW228917   6.716   4.007   5.416
 9340SOL     OW28918   3.669   4.995   0.755
 9340SOL    HW128919   3.703   4.939   0.831
 9340SOL    HW228920   3.573   5.016   0.771
 9341SOL     OW28921   5.262   4.889   6.411
 9341SOL    HW128922   5.359   4.865   6.406
 9341SOL    HW228923   5.209   4.830   6.350
 9342SOL     OW28924   3.375   0.221   4.203
 9342SOL    HW128925   3.448   0.289   4.200
 9342SOL    HW228926   3.329   0.218   4.114
 9343SOL     OW28927   4.644   4.354   0.888
 9343SOL    HW128928   4.598   4.423   0.832
 9343SOL    HW228929   4.652   4.269   0.836
 9344SOL     OW28930   6.338   0.006   5.227
 9344SOL    HW128931   6.344   0.098   5.267
 9344SOL    HW228932   6.409   7.017   5.157
 9345SOL     OW28933   0.795   5.279   0.110
 9345SOL    HW128934   0.765   5.362   0.064
 9345SOL    HW228935   0.779   5.288   0.209
 9346SOL     OW28936   5.953   6.507   1.260
 9346SOL    HW128937   6.036   6.563   1.263
 9346SOL    HW228938   5.974   6.419   1.215
 9347SOL     OW28939   3.601   5.674   0.762
 9347SOL    HW128940   3.670   5.693   0.832
 9347SOL    HW228941   3.516   5.722   0.786
 9348SOL     OW28942   2.567   5.571   1.923
 9348SOL    HW128943   2.544   5.666   1.898
 9348SOL    HW228944   2.596   5.522   1.841
 9349SOL     OW28945   6.493   6.297   1.981
 9349SOL    HW128946   6.555   6.309   2.058
 9349SOL    HW228947   6.516   6.214   1.931
 9350SOL     OW28948   6.456   0.671   6.206
 9350SOL    HW128949   6.462   0.745   6.139
 9350SOL    HW228950   6.363   0.667   6.242
 9351SOL     OW28951   3.492   3.058   6.091
 9351SOL    HW128952   3.527   3.133   6.148
 9351SOL    HW228953   3.456   2.986   6.150
 9352SOL     OW28954   3.432   2.450   6.234
 9352SOL    HW128955   3.336   2.420   6.230
 9352SOL    HW228956   3.473   2.442   6.144
 9353SOL     OW28957   0.610   3.936   1.175
 9353SOL    HW128958   0.510   3.935   1.182
 9353SOL    HW228959   0.646   4.014   1.226
 9354SOL     OW28960   4.919   1.976   2.053
 9354SOL    HW128961   4.839   1.916   2.062
 9354SOL    HW228962   4.941   1.988   1.956
 9355SOL     OW28963   6.026   0.757   3.129
 9355SOL    HW128964   6.121   0.744   3.102
 9355SOL    HW228965   6.017   0.743   3.227
 9356SOL     OW28966   4.677   4.652   2.481
 9356SOL    HW128967   4.616   4.601   2.543
 9356SOL    HW228968   4.713   4.590   2.412
 9357SOL     OW28969   3.236   2.812   0.506
 9357SOL    HW128970   3.264   2.811   0.411
 9357SOL    HW228971   3.163   2.880   0.518
 9358SOL     OW28972   5.624   4.333   1.754
 9358SOL    HW128973   5.686   4.259   1.730
 9358SOL    HW228974   5.622   4.345   1.854
 9359SOL     OW28975   5.672   4.065   6.066
 9359SOL    HW128976   5.715   4.130   6.004
 9359SOL    HW228977   5.696   4.088   6.160
 9360SOL     OW28978   2.069   0.340   6.048
 9360SOL    HW128979   2.127   0.286   6.109
 9360SOL    HW228980   2.119   0.358   5.963
 9361SOL     OW28981   3.125   0.654   2.290
 9361SOL    HW128982   3.034   0.684   2.319
 9361SOL    HW228983   3.126   0.637   2.192
 9362SOL     OW28984   2.230   1.783   3.112
 9362SOL    HW128985   2.183   1.769   3.200
 9362SOL    HW228986   2.327   1.799   3.128
 9363SOL     OW28987   2.851   5.942   2.275
 9363SOL    HW128988   2.815   5.972   2.187
 9363SOL    HW228989   2.929   5.882   2.261
 9364SOL     OW28990   5.291   4.852   0.019
 9364SOL    HW128991   5.296   4.916   6.963
 9364SOL    HW228992   5.205   4.864   0.067
 9365SOL     OW28993   2.153   1.366   4.980
 9365SOL    HW128994   2.170   1.343   4.884
 9365SOL    HW228995   2.235   1.407   5.019
 9366SOL     OW28996   3.149   1.660   0.604
 9366SOL    HW128997   3.160   1.651   0.703
 9366SOL    HW228998   3.080   1.594   0.573
 9367SOL     OW28999   6.956   5.846   3.028
 9367SOL    HW129000   6.987   5.817   2.937
 9367SOL    HW229001   0.015   5.863   3.087
 9368SOL     OW29002   3.323   2.711   1.534
 9368SOL    HW129003   3.348   2.663   1.450
 9368SOL    HW229004   3.303   2.807   1.513
 9369SOL     OW29005   0.055   2.491   4.998
 9369SOL    HW129006   0.024   2.570   5.052
 9369SOL    HW229007   0.051   2.409   5.056
 9370SOL     OW29008   6.233   1.075   3.114
 9370SOL    HW129009   6.301   1.020   3.065
 9370SOL    HW229010   6.267   1.168   3.123
 9371SOL     OW29011   0.470   6.667   0.759
 9371SOL    HW129012   0.379   6.664   0.799
 9371SOL    HW229013   0.472   6.737   0.687
 9372SOL     OW29014   6.397   6.751   5.713
 9372SOL    HW129015   6.372   6.847   5.705
 9372SOL    HW229016   6.362   6.714   5.800
 9373SOL     OW29017   4.387   1.276   3.587
 9373SOL    HW129018   4.291   1.302   3.578
 9373SOL    HW229019   4.408   1.254   3.682
 9374SOL     OW29020   5.161   3.966   0.654
 9374SOL    HW129021   5.086   3.920   0.701
 9374SOL    HW229022   5.199   3.904   0.585
 9375SOL     OW29023   0.993   1.020   4.022
 9375SOL    HW129024   0.894   1.024   4.008
 9375SOL    HW229025   1.014   1.041   4.117
 9376SOL     OW29026   1.630   3.192   1.994
 9376SOL    HW129027   1.617   3.177   1.896
 9376SOL    HW229028   1.703   3.260   2.008
 9377SOL     OW29029   5.956   5.653   3.749
 9377SOL    HW129030   6.034   5.687   3.802
 9377SOL    HW229031   5.943   5.556   3.766
 9378SOL     OW29032   3.015   6.625   0.520
 9378SOL    HW129033   2.927   6.671   0.528
 9378SOL    HW229034   3.018   6.572   0.435
 9379SOL     OW29035   5.297   4.678   4.529
 9379SOL    HW129036   5.222   4.741   4.508
 9379SOL    HW229037   5.264   4.584   4.523
 9380SOL     OW29038   6.185   6.991   5.934
 9380SOL    HW129039   6.132   6.942   5.865
 9380SOL    HW229040   6.228   6.926   5.996
 9381SOL     OW29041   2.420   1.286   6.458
 9381SOL    HW129042   2.327   1.310   6.485
 9381SOL    HW229043   2.477   1.368   6.459
 9382SOL     OW29044   4.444   2.521   2.884
 9382SOL    HW129045   4.427   2.537   2.982
 9382SOL    HW229046   4.418   2.427   2.861
 9383SOL     OW29047   4.397   5.684   5.149
 9383SOL    HW129048   4.489   5.715   5.173
 9383SOL    HW229049   4.343   5.671   5.232
 9384SOL     OW29050   4.836   5.803   1.386
 9384SOL    HW129051   4.806   5.850   1.303
 9384SOL    HW229052   4.880   5.869   1.447
 9385SOL     OW29053   3.789   1.211   3.262
 9385SOL    HW129054   3.736   1.160   3.194
 9385SOL    HW229055   3.765   1.308   3.255
 9386SOL     OW29056   3.207   6.620   4.470
 9386SOL    HW129057   3.223   6.624   4.569
 9386SOL    HW229058   3.186   6.526   4.444
 9387SOL     OW29059   3.673   0.192   6.529
 9387SOL    HW129060   3.746   0.127   6.505
 9387SOL    HW229061   3.711   0.284   6.531
 9388SOL     OW29062   6.638   0.291   2.994
 9388SOL    HW129063   6.692   0.354   3.051
 9388SOL    HW229064   6.636   0.324   2.900
 9389SOL     OW29065   2.793   0.723   5.857
 9389SOL    HW129066   2.756   0.713   5.949
 9389SOL    HW229067   2.744   0.661   5.795
 9390SOL     OW29068   3.251   5.238   2.256
 9390SOL    HW129069   3.331   5.185   2.225
 9390SOL    HW229070   3.168   5.186   2.238
 9391SOL     OW29071   0.762   1.027   5.581
 9391SOL    HW129072   0.849   0.979   5.573
 9391SOL    HW229073   0.709   1.014   5.497
 9392SOL     OW29074   0.967   5.904   4.520
 9392SOL    HW129075   0.975   5.826   4.582
 9392SOL    HW229076   1.043   5.904   4.456
 9393SOL     OW29077   3.731   2.177   5.344
 9393SOL    HW129078   3.790   2.146   5.269
 9393SOL    HW229079   3.639   2.193   5.309
 9394SOL     OW29080   6.095   2.678   2.743
 9394SOL    HW129081   6.123   2.720   2.657
 9394SOL    HW229082   6.041   2.596   2.724
 9395SOL     OW29083   2.167   3.285   0.014
 9395SOL    HW129084   2.108   3.212   0.048
 9395SOL    HW229085   2.113   3.349   6.980
 9396SOL     OW29086   6.320   0.191   6.231
 9396SOL    HW129087   6.251   0.248   6.276
 9396SOL    HW229088   6.351   0.236   6.147
 9397SOL     OW29089   2.541   0.438   1.029
 9397SOL    HW129090   2.578   0.517   0.981
 9397SOL    HW229091   2.564   0.445   1.126
 9398SOL     OW29092   2.583   1.485   6.246
 9398SOL    HW129093   2.637   1.534   6.315
 9398SOL    HW229094   2.551   1.550   6.177
 9399SOL     OW29095   6.912   0.382   5.624
 9399SOL    HW129096   7.008   0.379   5.596
 9399SOL    HW229097   6.898   0.459   5.686
 9400SOL     OW29098   5.668   2.666   2.765
 9400SOL    HW129099   5.612   2.656   2.847
 9400SOL    HW229100   5.659   2.759   2.729
 9401SOL     OW29101   3.206   0.284   3.010
 9401SOL    HW129102   3.261   0.235   3.077
 9401SOL    HW229103   3.186   0.223   2.933
 9402SOL     OW29104   2.143   5.050   6.582
 9402SOL    HW129105   2.188   5.116   6.523
 9402SOL    HW229106   2.204   4.974   6.600
 9403SOL     OW29107   5.587   1.235   4.342
 9403SOL    HW129108   5.503   1.272   4.303
 9403SOL    HW229109   5.653   1.309   4.355
 9404SOL     OW29110   1.167   3.998   6.561
 9404SOL    HW129111   1.130   4.011   6.469
 9404SOL    HW229112   1.224   4.076   6.585
 9405SOL     OW29113   5.812   0.059   1.226
 9405SOL    HW129114   5.910   0.080   1.225
 9405SOL    HW229115   5.799   6.981   1.225
 9406SOL     OW29116   0.129   1.701   5.252
 9406SOL    HW129117   0.109   1.616   5.203
 9406SOL    HW229118   0.224   1.700   5.282
 9407SOL     OW29119   3.310   6.111   2.826
 9407SOL    HW129120   3.302   6.150   2.918
 9407SOL    HW229121   3.357   6.177   2.766
 9408SOL     OW29122   3.590   1.981   5.907
 9408SOL    HW129123   3.671   1.923   5.919
 9408SOL    HW229124   3.538   1.950   5.828
 9409SOL     OW29125   5.605   4.232   3.657
 9409SOL    HW129126   5.687   4.178   3.677
 9409SOL    HW229127   5.575   4.214   3.563
 9410SOL     OW29128   4.323   6.567   2.448
 9410SOL    HW129129   4.238   6.527   2.412
 9410SOL    HW229130   4.331   6.661   2.415
 9411SOL     OW29131   4.515   5.033   0.797
 9411SOL    HW129132   4.553   4.942   0.809
 9411SOL    HW229133   4.512   5.057   0.700
 9412SOL     OW29134   6.700   2.512   0.994
 9412SOL    HW129135   6.636   2.435   0.994
 9412SOL    HW229136   6.738   2.524   0.902
 9413SOL     OW29137   3.698   5.902   6.004
 9413SOL    HW129138   3.614   5.936   5.961
 9413SOL    HW229139   3.776   5.923   5.945
 9414SOL     OW29140   2.347   1.858   1.528
 9414SOL    HW129141   2.357   1.818   1.437
 9414SOL    HW229142   2.339   1.958   1.519
 9415SOL     OW29143   2.899   6.990   2.290
 9415SOL    HW129144   2.986   7.017   2.249
 9415SOL    HW229145   2.830   6.981   2.219
 9416SOL     OW29146   0.975   2.429   1.432
 9416SOL    HW129147   0.923   2.485   1.368
 9416SOL    HW229148   1.009   2.487   1.506
 9417SOL     OW29149   2.262   5.857   5.117
 9417SOL    HW129150   2.283   5.785   5.051
 9417SOL    HW229151   2.308   5.838   5.204
 9418SOL     OW29152   3.541   5.368   0.534
 9418SOL    HW129153   3.612   5.397   0.469
 9418SOL    HW229154   3.581   5.361   0.626
 9419SOL     OW29155   3.212   6.657   5.706
 9419SOL    HW129156   3.304   6.693   5.719
 9419SOL    HW229157   3.184   6.669   5.611
 9420SOL     OW29158   0.097   1.456   4.453
 9420SOL    HW129159   0.119   1.445   4.550
 9420SOL    HW229160   0.122   1.372   4.404
 9421SOL     OW29161   1.190   4.616   5.565
 9421SOL    HW129162   1.166   4.564   5.483
 9421SOL    HW229163   1.212   4.710   5.539
 9422SOL     OW29164   4.543   1.208   2.392
 9422SOL    HW129165   4.608   1.178   2.462
 9422SOL    HW229166   4.451   1.176   2.415
 9423SOL     OW29167   4.003   0.735   4.519
 9423SOL    HW129168   3.978   0.816   4.572
 9423SOL    HW229169   3.948   0.731   4.436
 9424SOL     OW29170   2.838   6.087   4.663
 9424SOL    HW129171   2.769   6.141   4.711
 9424SOL    HW229172   2.795   6.041   4.585
 9425SOL     OW29173   1.404   2.965   4.177
 9425SOL    HW129174   1.503   2.959   4.173
 9425SOL    HW229175   1.377   3.048   4.226
 9426SOL     OW29176   3.599   0.233   6.799
 9426SOL    HW129177   3.642   0.181   6.725
 9426SOL    HW229178   3.504   0.253   6.774
 9427SOL     OW29179   3.013   5.296   4.512
 9427SOL    HW129180   2.931   5.241   4.530
 9427SOL    HW229181   3.021   5.367   4.582
 9428SOL     OW29182   4.988   0.151   2.957
 9428SOL    HW129183   4.920   0.088   2.919
 9428SOL    HW229184   5.060   0.166   2.890
 9429SOL     OW29185   0.291   3.672   2.541
 9429SOL    HW129186   0.383   3.710   2.534
 9429SOL    HW229187   0.292   3.577   2.509
 9430SOL     OW29188   6.241   6.432   1.458
 9430SOL    HW129189   6.240   6.529   1.482
 9430SOL    HW229190   6.335   6.402   1.442
 9431SOL     OW29191   6.533   4.272   2.210
 9431SOL    HW129192   6.505   4.228   2.125
 9431SOL    HW229193   6.622   4.317   2.196
 9432SOL     OW29194   6.832   6.623   3.564
 9432SOL    HW129195   6.835   6.603   3.662
 9432SOL    HW229196   6.915   6.672   3.537
 9433SOL     OW29197   3.255   5.336   5.179
 9433SOL    HW129198   3.209   5.372   5.261
 9433SOL    HW229199   3.202   5.359   5.098
 9434SOL     OW29200   5.128   5.200   2.444
 9434SOL    HW129201   5.067   5.182   2.521
 9434SOL    HW229202   5.098   5.284   2.397
 9435SOL     OW29203   1.536   0.638   4.580
 9435SOL    HW129204   1.461   0.635   4.647
 9435SOL    HW229205   1.609   0.577   4.609
 9436SOL     OW29206   2.633   3.036   6.734
 9436SOL    HW129207   2.605   3.129   6.756
 9436SOL    HW229208   2.719   3.015   6.781
 9437SOL     OW29209   1.341   4.576   3.947
 9437SOL    HW129210   1.416   4.633   3.979
 9437SOL    HW229211   1.255   4.607   3.988
 9438SOL     OW29212   1.218   6.500   2.153
 9438SOL    HW129213   1.268   6.483   2.068
 9438SOL    HW229214   1.279   6.542   2.220
 9439SOL     OW29215   0.276   2.784   1.802
 9439SOL    HW129216   0.223   2.742   1.876
 9439SOL    HW229217   0.373   2.779   1.823
 9440SOL     OW29218   5.070   6.528   5.947
 9440SOL    HW129219   5.097   6.480   6.031
 9440SOL    HW229220   5.035   6.618   5.971
 9441SOL     OW29221   1.632   4.816   5.538
 9441SOL    HW129222   1.688   4.735   5.522
 9441SOL    HW229223   1.662   4.890   5.477
 9442SOL     OW29224   0.107   3.444   1.186
 9442SOL    HW129225   0.103   3.469   1.089
 9442SOL    HW229226   0.065   3.516   1.241
 9443SOL     OW29227   1.534   3.740   1.935
 9443SOL    HW129228   1.513   3.792   2.018
 9443SOL    HW229229   1.631   3.749   1.913
 9444SOL     OW29230   0.415   3.560   6.913
 9444SOL    HW129231   0.335   3.607   6.877
 9444SOL    HW229232   0.474   3.530   6.838
 9445SOL     OW29233   5.740   3.673   1.335
 9445SOL    HW129234   5.763   3.652   1.240
 9445SOL    HW229235   5.662   3.617   1.364
 9446SOL     OW29236   6.728   5.930   1.527
 9446SOL    HW129237   6.810   5.929   1.585
 9446SOL    HW229238   6.653   5.886   1.575
 9447SOL     OW29239   5.685   3.249   2.032
 9447SOL    HW129240   5.726   3.302   2.107
 9447SOL    HW229241   5.634   3.311   1.972
 9448SOL     OW29242   6.026   6.762   0.413
 9448SOL    HW129243   5.982   6.833   0.358
 9448SOL    HW229244   6.047   6.683   0.355
 9449SOL     OW29245   6.459   5.102   5.258
 9449SOL    HW129246   6.364   5.101   5.225
 9449SOL    HW229247   6.472   5.179   5.320
 9450SOL     OW29248   3.469   4.934   4.363
 9450SOL    HW129249   3.405   4.913   4.438
 9450SOL    HW229250   3.563   4.928   4.397
 9451SOL     OW29251   5.027   5.232   5.972
 9451SOL    HW129252   5.056   5.215   5.877
 9451SOL    HW229253   5.064   5.320   6.002
 9452SOL     OW29254   2.370   4.698   1.707
 9452SOL    HW129255   2.462   4.732   1.725
 9452SOL    HW229256   2.346   4.630   1.776
 9453SOL     OW29257   2.825   5.236   2.839
 9453SOL    HW129258   2.781   5.173   2.904
 9453SOL    HW229259   2.807   5.330   2.867
 9454SOL     OW29260   2.017   3.112   5.329
 9454SOL    HW129261   1.926   3.110   5.287
 9454SOL    HW229262   2.086   3.123   5.257
 9455SOL     OW29263   3.503   1.594   2.300
 9455SOL    HW129264   3.490   1.661   2.373
 9455SOL    HW229265   3.547   1.637   2.222
 9456SOL     OW29266   1.274   3.501   1.324
 9456SOL    HW129267   1.192   3.487   1.380
 9456SOL    HW229268   1.267   3.447   1.240
 9457SOL     OW29269   0.803   3.660   0.937
 9457SOL    HW129270   0.778   3.670   0.841
 9457SOL    HW229271   0.737   3.600   0.983
 9458SOL     OW29272   6.690   5.827   5.320
 9458SOL    HW129273   6.776   5.862   5.282
 9458SOL    HW229274   6.632   5.796   5.245
 9459SOL     OW29275   6.262   5.557   1.629
 9459SOL    HW129276   6.340   5.552   1.692
 9459SOL    HW229277   6.186   5.505   1.667
 9460SOL     OW29278   1.049   2.123   5.226
 9460SOL    HW129279   1.023   2.050   5.290
 9460SOL    HW229280   1.093   2.083   5.146
 9461SOL     OW29281   1.371   0.853   3.833
 9461SOL    HW129282   1.282   0.815   3.860
 9461SOL    HW229283   1.358   0.945   3.796
 9462SOL     OW29284   1.003   3.362   2.396
 9462SOL    HW129285   1.097   3.329   2.383
 9462SOL    HW229286   0.947   3.289   2.433
 9463SOL     OW29287   5.530   1.355   0.321
 9463SOL    HW129288   5.455   1.412   0.289
 9463SOL    HW229289   5.571   1.397   0.402
 9464SOL     OW29290   5.927   0.378   6.033
 9464SOL    HW129291   5.865   0.456   6.027
 9464SOL    HW229292   5.877   0.294   6.011
 9465SOL     OW29293   6.519   1.138   3.987
 9465SOL    HW129294   6.424   1.123   4.015
 9465SOL    HW229295   6.576   1.064   4.024
 9466SOL     OW29296   3.014   2.152   6.558
 9466SOL    HW129297   3.086   2.218   6.538
 9466SOL    HW229298   2.943   2.156   6.487
 9467SOL     OW29299   2.072   3.273   1.977
 9467SOL    HW129300   2.128   3.356   1.971
 9467SOL    HW229301   2.103   3.218   2.055
 9468SOL     OW29302   0.098   3.464   5.616
 9468SOL    HW129303   0.163   3.413   5.560
 9468SOL    HW229304   0.013   3.479   5.565
 9469SOL     OW29305   6.279   4.874   2.182
 9469SOL    HW129306   6.318   4.856   2.092
 9469SOL    HW229307   6.343   4.929   2.236
 9470SOL     OW29308   4.701   3.817   0.704
 9470SOL    HW129309   4.696   3.885   0.631
 9470SOL    HW229310   4.653   3.734   0.676
 9471SOL     OW29311   0.547   1.755   5.490
 9471SOL    HW129312   0.581   1.740   5.583
 9471SOL    HW229313   0.576   1.845   5.458
 9472SOL     OW29314   6.448   4.446   4.201
 9472SOL    HW129315   6.444   4.367   4.139
 9472SOL    HW229316   6.541   4.455   4.236
 9473SOL     OW29317   2.896   5.339   6.185
 9473SOL    HW129318   2.799   5.318   6.180
 9473SOL    HW229319   2.948   5.269   6.135
 9474SOL     OW29320   4.043   5.031   2.059
 9474SOL    HW129321   3.972   4.992   2.001
 9474SOL    HW229322   4.053   5.128   2.040
 9475SOL     OW29323   2.554   3.463   1.427
 9475SOL    HW129324   2.589   3.556   1.435
 9475SOL    HW229325   2.599   3.417   1.351
 9476SOL     OW29326   3.525   3.410   5.765
 9476SOL    HW129327   3.570   3.409   5.676
 9476SOL    HW229328   3.578   3.465   5.829
 9477SOL     OW29329   1.187   2.646   1.501
 9477SOL    HW129330   1.202   2.664   1.403
 9477SOL    HW229331   1.261   2.589   1.535
 9478SOL     OW29332   5.921   4.698   5.532
 9478SOL    HW129333   5.901   4.649   5.617
 9478SOL    HW229334   5.905   4.637   5.455
 9479SOL     OW29335   6.067   6.173   6.374
 9479SOL    HW129336   6.162   6.183   6.343
 9479SOL    HW229337   6.067   6.162   6.474
 9480SOL     OW29338   5.806   4.798   0.007
 9480SOL    HW129339   5.759   4.807   6.940
 9480SOL    HW229340   5.792   4.706   0.043
 9481SOL     OW29341   0.065   3.835   2.192
 9481SOL    HW129342   0.057   3.800   2.285
 9481SOL    HW229343   0.150   3.802   2.151
 9482SOL     OW29344   4.590   1.125   1.917
 9482SOL    HW129345   4.660   1.132   1.987
 9482SOL    HW229346   4.577   1.029   1.893
 9483SOL     OW29347   1.648   1.703   6.530
 9483SOL    HW129348   1.677   1.770   6.462
 9483SOL    HW229349   1.714   1.702   6.606
 9484SOL     OW29350   6.746   1.501   3.834
 9484SOL    HW129351   6.649   1.510   3.810
 9484SOL    HW229352   6.793   1.586   3.811
 9485SOL     OW29353   0.884   0.429   2.250
 9485SOL    HW129354   0.792   0.401   2.221
 9485SOL    HW229355   0.902   0.521   2.218
 9486SOL     OW29356   3.054   6.012   1.364
 9486SOL    HW129357   3.005   5.955   1.298
 9486SOL    HW229358   3.019   5.993   1.456
 9487SOL     OW29359   3.257   3.460   4.039
 9487SOL    HW129360   3.249   3.484   4.136
 9487SOL    HW229361   3.281   3.542   3.987
 9488SOL     OW29362   1.284   6.637   1.219
 9488SOL    HW129363   1.262   6.711   1.156
 9488SOL    HW229364   1.329   6.674   1.300
 9489SOL     OW29365   4.013   4.843   0.589
 9489SOL    HW129366   3.934   4.899   0.562
 9489SOL    HW229367   3.983   4.770   0.650
 9490SOL     OW29368   5.129   1.005   1.659
 9490SOL    HW129369   5.107   0.929   1.597
 9490SOL    HW229370   5.097   0.983   1.751
 9491SOL     OW29371   5.652   4.779   5.870
 9491SOL    HW129372   5.607   4.703   5.822
 9491SOL    HW229373   5.750   4.763   5.874
 9492SOL     OW29374   3.350   4.100   1.577
 9492SOL    HW129375   3.445   4.068   1.583
 9492SOL    HW229376   3.312   4.071   1.489
 9493SOL     OW29377   4.502   6.248   2.873
 9493SOL    HW129378   4.434   6.315   2.843
 9493SOL    HW229379   4.554   6.285   2.950
 9494SOL     OW29380   4.514   3.317   5.413
 9494SOL    HW129381   4.506   3.416   5.404
 9494SOL    HW229382   4.450   3.273   5.350
 9495SOL     OW29383   5.791   2.563   5.241
 9495SOL    HW129384   5.824   2.477   5.281
 9495SOL    HW229385   5.716   2.543   5.178
 9496SOL     OW29386   5.546   4.146   6.988
 9496SOL    HW129387   5.564   4.177   6.894
 9496SOL    HW229388   5.574   4.051   6.998
 9497SOL     OW29389   5.699   6.074   6.681
 9497SOL    HW129390   5.616   6.071   6.737
 9497SOL    HW229391   5.774   6.030   6.731
 9498SOL     OW29392   3.843   0.221   6.159
 9498SOL    HW129393   3.842   0.251   6.063
 9498SOL    HW229394   3.806   0.129   6.165
 9499SOL     OW29395   3.215   4.031   5.381
 9499SOL    HW129396   3.291   4.081   5.422
 9499SOL    HW229397   3.180   4.081   5.302
 9500SOL     OW29398   5.010   5.812   1.755
 9500SOL    HW129399   5.041   5.717   1.768
 9500SOL    HW229400   4.981   5.824   1.660
 9501SOL     OW29401   3.165   1.215   4.698
 9501SOL    HW129402   3.174   1.221   4.598
 9501SOL    HW229403   3.145   1.121   4.725
 9502SOL     OW29404   5.951   2.717   5.392
 9502SOL    HW129405   6.040   2.671   5.387
 9502SOL    HW229406   5.888   2.674   5.327
 9503SOL     OW29407   1.082   6.912   1.455
 9503SOL    HW129408   1.053   6.892   1.361
 9503SOL    HW229409   1.069   6.831   1.512
 9504SOL     OW29410   0.882   2.725   6.972
 9504SOL    HW129411   0.876   2.820   7.001
 9504SOL    HW229412   0.815   2.670   0.002
 9505SOL     OW29413   5.866   2.766   3.546
 9505SOL    HW129414   5.773   2.797   3.525
 9505SOL    HW229415   5.930   2.806   3.479
 9506SOL     OW29416   6.720   3.808   0.393
 9506SOL    HW129417   6.627   3.790   0.425
 9506SOL    HW229418   6.783   3.745   0.439
 9507SOL     OW29419   1.041   1.452   3.764
 9507SOL    HW129420   1.053   1.454   3.665
 9507SOL    HW229421   1.121   1.491   3.809
 9508SOL     OW29422   5.957   1.881   0.917
 9508SOL    HW129423   6.009   1.808   0.962
 9508SOL    HW229424   5.859   1.863   0.927
 9509SOL     OW29425   2.297   6.277   5.887
 9509SOL    HW129426   2.338   6.215   5.954
 9509SOL    HW229427   2.206   6.244   5.863
 9510SOL     OW29428   6.081   4.681   3.516
 9510SOL    HW129429   6.115   4.695   3.609
 9510SOL    HW229430   6.063   4.769   3.474
 9511SOL     OW29431   0.904   1.543   0.931
 9511SOL    HW129432   0.819   1.595   0.940
 9511SOL    HW229433   0.982   1.604   0.946
 9512SOL     OW29434   1.082   2.372   3.778
 9512SOL    HW129435   1.093   2.301   3.848
 9512SOL    HW229436   1.122   2.458   3.810
 9513SOL     OW29437   2.095   3.860   4.470
 9513SOL    HW129438   2.103   3.935   4.404
 9513SOL    HW229439   2.134   3.777   4.430
 9514SOL     OW29440   1.899   2.867   6.787
 9514SOL    HW129441   1.865   2.957   6.758
 9514SOL    HW229442   1.959   2.830   6.716
 9515SOL     OW29443   1.661   5.778   6.194
 9515SOL    HW129444   1.715   5.705   6.152
 9515SOL    HW229445   1.671   5.862   6.140
 9516SOL     OW29446   4.943   3.661   4.125
 9516SOL    HW129447   5.043   3.653   4.122
 9516SOL    HW229448   4.906   3.642   4.034
 9517SOL     OW29449   0.265   5.706   1.818
 9517SOL    HW129450   0.252   5.731   1.914
 9517SOL    HW229451   0.324   5.625   1.812
 9518SOL     OW29452   0.323   2.358   6.054
 9518SOL    HW129453   0.412   2.311   6.048
 9518SOL    HW229454   0.335   2.445   6.101
 9519SOL     OW29455   3.347   3.787   3.214
 9519SOL    HW129456   3.319   3.812   3.122
 9519SOL    HW229457   3.442   3.756   3.212
 9520SOL     OW29458   6.746   0.226   5.117
 9520SOL    HW129459   6.811   0.214   5.193
 9520SOL    HW229460   6.680   0.296   5.142
 9521SOL     OW29461   3.271   0.362   0.940
 9521SOL    HW129462   3.366   0.385   0.963
 9521SOL    HW229463   3.221   0.446   0.920
 9522SOL     OW29464   3.351   5.921   1.901
 9522SOL    HW129465   3.369   5.833   1.856
 9522SOL    HW229466   3.298   5.980   1.839
 9523SOL     OW29467   2.452   5.143   4.148
 9523SOL    HW129468   2.366   5.096   4.167
 9523SOL    HW229469   2.516   5.080   4.105
 9524SOL     OW29470   1.634   4.142   1.653
 9524SOL    HW129471   1.713   4.203   1.651
 9524SOL    HW229472   1.552   4.195   1.676
 9525SOL     OW29473   2.090   2.827   5.421
 9525SOL    HW129474   2.157   2.885   5.375
 9525SOL    HW229475   2.136   2.753   5.468
 9526SOL     OW29476   5.402   4.430   6.911
 9526SOL    HW129477   5.445   4.359   6.855
 9526SOL    HW229478   5.453   4.441   6.996
 9527SOL     OW29479   3.720   6.538   3.485
 9527SOL    HW129480   3.773   6.611   3.439
 9527SOL    HW229481   3.625   6.568   3.495
 9528SOL     OW29482   5.554   1.965   1.283
 9528SOL    HW129483   5.583   1.938   1.191
 9528SOL    HW229484   5.481   2.033   1.277
 9529SOL     OW29485   6.014   1.727   1.701
 9529SOL    HW129486   5.979   1.634   1.694
 9529SOL    HW229487   6.112   1.728   1.679
 9530SOL     OW29488   0.771   5.445   3.791
 9530SOL    HW129489   0.739   5.521   3.847
 9530SOL    HW229490   0.778   5.475   3.696
 9531SOL     OW29491   3.758   4.905   2.644
 9531SOL    HW129492   3.696   4.899   2.565
 9531SOL    HW229493   3.799   4.996   2.648
 9532SOL     OW29494   5.797   5.049   2.501
 9532SOL    HW129495   5.860   5.052   2.424
 9532SOL    HW229496   5.844   5.014   2.582
 9533SOL     OW29497   2.243   4.725   3.336
 9533SOL    HW129498   2.279   4.790   3.404
 9533SOL    HW229499   2.320   4.681   3.290
 9534SOL     OW29500   5.511   4.767   5.456
 9534SOL    HW129501   5.527   4.804   5.365
 9534SOL    HW229502   5.447   4.690   5.451
 9535SOL     OW29503   1.014   0.885   5.533
 9535SOL    HW129504   1.098   0.845   5.570
 9535SOL    HW229505   0.939   0.819   5.542
 9536SOL     OW29506   3.906   3.964   4.592
 9536SOL    HW129507   3.933   3.965   4.496
 9536SOL    HW229508   3.957   3.893   4.640
 9537SOL     OW29509   1.507   1.051   4.077
 9537SOL    HW129510   1.541   1.107   4.002
 9537SOL    HW229511   1.431   1.098   4.122
 9538SOL     OW29512   3.216   0.655   4.777
 9538SOL    HW129513   3.142   0.640   4.712
 9538SOL    HW229514   3.180   0.691   4.863
 9539SOL     OW29515   3.526   2.897   2.948
 9539SOL    HW129516   3.599   2.913   3.014
 9539SOL    HW229517   3.549   2.942   2.861
 9540SOL     OW29518   4.792   4.797   4.065
 9540SOL    HW129519   4.750   4.739   3.995
 9540SOL    HW229520   4.720   4.847   4.114
 9541SOL     OW29521   1.652   5.765   4.869
 9541SOL    HW129522   1.707   5.753   4.951
 9541SOL    HW229523   1.555   5.753   4.892
 9542SOL     OW29524   6.016   4.513   4.358
 9542SOL    HW129525   5.966   4.592   4.394
 9542SOL    HW229526   6.094   4.544   4.304
 9543SOL     OW29527   2.459   0.513   5.855
 9543SOL    HW129528   2.517   0.530   5.775
 9543SOL    HW229529   2.506   0.546   5.937
 9544SOL     OW29530   5.423   3.340   3.868
 9544SOL    HW129531   5.379   3.361   3.781
 9544SOL    HW229532   5.362   3.364   3.943
 9545SOL     OW29533   1.309   4.759   1.938
 9545SOL    HW129534   1.401   4.729   1.914
 9545SOL    HW229535   1.295   4.752   2.037
 9546SOL     OW29536   2.727   1.568   6.483
 9546SOL    HW129537   2.711   1.487   6.540
 9546SOL    HW229538   2.710   1.651   6.536
 9547SOL     OW29539   3.671   5.868   3.808
 9547SOL    HW129540   3.601   5.938   3.821
 9547SOL    HW229541   3.750   5.889   3.865
 9548SOL     OW29542   1.231   4.542   6.746
 9548SOL    HW129543   1.315   4.519   6.697
 9548SOL    HW229544   1.197   4.630   6.713
 9549SOL     OW29545   4.446   2.221   1.499
 9549SOL    HW129546   4.420   2.280   1.576
 9549SOL    HW229547   4.452   2.126   1.531
 9550SOL     OW29548   5.089   3.043   1.580
 9550SOL    HW129549   5.178   3.051   1.625
 9550SOL    HW229550   5.023   3.005   1.644
 9551SOL     OW29551   6.750   2.202   6.544
 9551SOL    HW129552   6.826   2.144   6.573
 9551SOL    HW229553   6.712   2.167   6.459
 9552SOL     OW29554   2.714   1.364   6.672
 9552SOL    HW129555   2.811   1.362   6.698
 9552SOL    HW229556   2.661   1.406   6.745
 9553SOL     OW29557   5.830   2.182   6.896
 9553SOL    HW129558   5.762   2.137   6.839
 9553SOL    HW229559   5.790   2.263   6.938
 9554SOL     OW29560   1.960   6.648   4.206
 9554SOL    HW129561   2.015   6.712   4.152
 9554SOL    HW229562   2.001   6.637   4.297
 9555SOL     OW29563   6.518   0.588   3.954
 9555SOL    HW129564   6.487   0.627   4.040
 9555SOL    HW229565   6.563   0.500   3.971
 9556SOL     OW29566   2.289   3.998   0.851
 9556SOL    HW129567   2.293   4.094   0.823
 9556SOL    HW229568   2.309   3.940   0.772
 9557SOL     OW29569   4.730   0.609   1.938
 9557SOL    HW129570   4.753   0.551   1.860
 9557SOL    HW229571   4.698   0.552   2.014
 9558SOL     OW29572   5.357   6.619   6.284
 9558SOL    HW129573   5.314   6.536   6.247
 9558SOL    HW229574   5.354   6.692   6.216
 9559SOL     OW29575   1.886   3.823   0.620
 9559SOL    HW129576   1.948   3.850   0.694
 9559SOL    HW229577   1.907   3.729   0.592
 9560SOL     OW29578   3.238   6.641   2.259
 9560SOL    HW129579   3.235   6.548   2.221
 9560SOL    HW229580   3.319   6.651   2.316
 9561SOL     OW29581   1.164   0.884   1.073
 9561SOL    HW129582   1.116   0.920   1.153
 9561SOL    HW229583   1.155   0.948   0.997
 9562SOL     OW29584   2.897   5.167   3.761
 9562SOL    HW129585   2.869   5.189   3.668
 9562SOL    HW229586   2.896   5.251   3.817
 9563SOL     OW29587   1.025   6.292   0.898
 9563SOL    HW129588   1.026   6.389   0.923
 9563SOL    HW229589   0.958   6.245   0.956
 9564SOL     OW29590   1.711   6.986   0.381
 9564SOL    HW129591   1.730   6.905   0.435
 9564SOL    HW229592   1.760   0.044   0.419
 9565SOL     OW29593   3.757   1.190   4.077
 9565SOL    HW129594   3.727   1.212   3.984
 9565SOL    HW229595   3.701   1.116   4.113
 9566SOL     OW29596   2.419   6.888   0.512
 9566SOL    HW129597   2.332   6.897   0.464
 9566SOL    HW229598   2.472   6.813   0.472
 9567SOL     OW29599   6.220   4.683   0.824
 9567SOL    HW129600   6.176   4.744   0.890
 9567SOL    HW229601   6.207   4.720   0.731
 9568SOL     OW29602   4.151   1.900   0.071
 9568SOL    HW129603   4.226   1.909   0.005
 9568SOL    HW229604   4.132   1.803   0.086
 9569SOL     OW29605   5.531   0.226   1.960
 9569SOL    HW129606   5.533   0.325   1.949
 9569SOL    HW229607   5.446   0.199   2.007
 9570SOL     OW29608   6.801   2.747   1.140
 9570SOL    HW129609   6.771   2.652   1.133
 9570SOL    HW229610   6.747   2.804   1.077
 9571SOL     OW29611   3.014   2.301   0.232
 9571SOL    HW129612   2.960   2.297   0.148
 9571SOL    HW229613   3.101   2.255   0.218
 9572SOL     OW29614   2.219   4.038   3.305
 9572SOL    HW129615   2.165   4.045   3.389
 9572SOL    HW229616   2.202   3.949   3.262
 9573SOL     OW29617   6.981   1.057   4.758
 9573SOL    HW129618   6.979   1.060   4.858
 9573SOL    HW229619   6.961   1.148   4.722
 9574SOL     OW29620   3.940   2.963   1.218
 9574SOL    HW129621   3.988   2.999   1.298
 9574SOL    HW229622   3.927   2.864   1.229
 9575SOL     OW29623   5.828   6.562   1.786
 9575SOL    HW129624   5.906   6.557   1.848
 9575SOL    HW229625   5.852   6.518   1.699
 9576SOL     OW29626   1.156   0.793   0.328
 9576SOL    HW129627   1.066   0.804   0.371
 9576SOL    HW229628   1.153   0.832   0.236
 9577SOL     OW29629   6.541   5.769   1.660
 9577SOL    HW129630   6.484   5.813   1.729
 9577SOL    HW229631   6.568   5.678   1.691
 9578SOL     OW29632   1.063   2.602   2.987
 9578SOL    HW129633   1.140   2.562   2.937
 9578SOL    HW229634   1.032   2.684   2.939
 9579SOL     OW29635   5.765   6.619   2.435
 9579SOL    HW129636   5.720   6.703   2.405
 9579SOL    HW229637   5.729   6.542   2.383
 9580SOL     OW29638   4.839   4.692   1.494
 9580SOL    HW129639   4.752   4.743   1.495
 9580SOL    HW229640   4.827   4.606   1.446
 9581SOL     OW29641   6.155   0.770   0.098
 9581SOL    HW129642   6.101   0.741   0.019
 9581SOL    HW229643   6.159   0.870   0.102
 9582SOL     OW29644   4.009   5.485   3.990
 9582SOL    HW129645   4.085   5.449   4.045
 9582SOL    HW229646   3.925   5.437   4.016
 9583SOL     OW29647   3.337   4.613   1.645
 9583SOL    HW129648   3.420   4.655   1.682
 9583SOL    HW229649   3.327   4.520   1.683
 9584SOL     OW29650   1.939   4.259   4.260
 9584SOL    HW129651   2.010   4.287   4.194
 9584SOL    HW229652   1.858   4.316   4.247
 9585SOL     OW29653   4.986   5.971   1.539
 9585SOL    HW129654   5.077   5.998   1.509
 9585SOL    HW229655   4.939   6.050   1.579
 9586SOL     OW29656   4.446   4.963   1.533
 9586SOL    HW129657   4.473   4.876   1.575
 9586SOL    HW229658   4.528   5.018   1.515
 9587SOL     OW29659   2.592   6.322   1.590
 9587SOL    HW129660   2.619   6.235   1.549
 9587SOL    HW229661   2.569   6.387   1.517
 9588SOL     OW29662   6.327   6.183   0.405
 9588SOL    HW129663   6.395   6.239   0.453
 9588SOL    HW229664   6.356   6.087   0.407
 9589SOL     OW29665   1.498   3.953   6.410
 9589SOL    HW129666   1.506   3.917   6.503
 9589SOL    HW229667   1.424   3.906   6.362
 9590SOL     OW29668   5.414   1.478   2.150
 9590SOL    HW129669   5.371   1.417   2.217
 9590SOL    HW229670   5.382   1.572   2.166
 9591SOL     OW29671   3.061   0.153   6.341
 9591SOL    HW129672   2.986   0.183   6.282
 9591SOL    HW229673   3.078   0.056   6.326
 9592SOL     OW29674   2.541   4.237   6.721
 9592SOL    HW129675   2.601   4.259   6.798
 9592SOL    HW229676   2.458   4.193   6.756
 9593SOL     OW29677   1.643   1.557   5.657
 9593SOL    HW129678   1.729   1.606   5.641
 9593SOL    HW229679   1.662   1.467   5.695
 9594SOL     OW29680   1.382   6.059   3.800
 9594SOL    HW129681   1.410   6.153   3.819
 9594SOL    HW229682   1.463   6.000   3.796
 9595SOL     OW29683   0.383   3.080   3.871
 9595SOL    HW129684   0.414   3.168   3.836
 9595SOL    HW229685   0.462   3.018   3.880
 9596SOL     OW29686   0.231   5.911   1.227
 9596SOL    HW129687   0.331   5.919   1.231
 9596SOL    HW229688   0.202   5.829   1.275
 9597SOL     OW29689   1.002   3.977   2.848
 9597SOL    HW129690   0.949   4.044   2.899
 9597SOL    HW229691   1.064   4.024   2.785
 9598SOL     OW29692   1.820   3.640   2.850
 9598SOL    HW129693   1.848   3.733   2.875
 9598SOL    HW229694   1.880   3.574   2.896
 9599SOL     OW29695   3.080   0.030   3.481
 9599SOL    HW129696   3.043   7.010   3.564
 9599SOL    HW229697   3.046   7.000   3.401
 9600SOL     OW29698   3.072   0.574   0.885
 9600SOL    HW129699   3.006   0.645   0.910
 9600SOL    HW229700   3.164   0.604   0.908
 9601SOL     OW29701   6.318   4.627   1.212
 9601SOL    HW129702   6.367   4.712   1.232
 9601SOL    HW229703   6.384   4.553   1.199
 9602SOL     OW29704   5.014   4.241   5.540
 9602SOL    HW129705   5.049   4.328   5.572
 9602SOL    HW229706   4.983   4.186   5.618
 9603SOL     OW29707   5.580   6.996   5.635
 9603SOL    HW129708   5.671   0.011   5.616
 9603SOL    HW229709   5.513   0.050   5.631
 9604SOL     OW29710   5.212   0.575   0.510
 9604SOL    HW129711   5.196   0.481   0.541
 9604SOL    HW229712   5.186   0.639   0.583
 9605SOL     OW29713   6.876   4.848   3.407
 9605SOL    HW129714   6.837   4.927   3.361
 9605SOL    HW229715   6.803   4.794   3.449
 9606SOL     OW29716   1.024   1.319   6.635
 9606SOL    HW129717   1.114   1.357   6.653
 9606SOL    HW229718   0.995   1.344   6.543
 9607SOL     OW29719   3.052   1.892   6.267
 9607SOL    HW129720   3.067   1.832   6.346
 9607SOL    HW229721   2.958   1.883   6.235
 9608SOL     OW29722   6.552   4.419   3.006
 9608SOL    HW129723   6.483   4.482   2.969
 9608SOL    HW229724   6.546   4.418   3.105
 9609SOL     OW29725   3.821   2.552   6.409
 9609SOL    HW129726   3.832   2.474   6.470
 9609SOL    HW229727   3.882   2.626   6.438
 9610SOL     OW29728   1.951   4.093   2.680
 9610SOL    HW129729   1.915   4.151   2.608
 9610SOL    HW229730   2.036   4.050   2.650
 9611SOL     OW29731   2.037   6.353   1.229
 9611SOL    HW129732   2.068   6.372   1.322
 9611SOL    HW229733   1.939   6.332   1.230
 9612SOL     OW29734   0.759   3.242   2.239
 9612SOL    HW129735   0.725   3.336   2.231
 9612SOL    HW229736   0.853   3.238   2.203
 9613SOL     OW29737   6.090   5.926   3.488
 9613SOL    HW129738   6.125   6.004   3.435
 9613SOL    HW229739   6.156   5.851   3.483
 9614SOL     OW29740   4.256   2.274   3.261
 9614SOL    HW129741   4.310   2.233   3.335
 9614SOL    HW229742   4.161   2.244   3.268
 9615SOL     OW29743   2.534   2.489   0.923
 9615SOL    HW129744   2.537   2.445   1.013
 9615SOL    HW229745   2.619   2.468   0.874
 9616SOL     OW29746   3.777   2.798   0.933
 9616SOL    HW129747   3.692   2.757   0.967
 9616SOL    HW229748   3.851   2.779   0.997
 9617SOL     OW29749   2.143   3.082   3.857
 9617SOL    HW129750   2.127   3.121   3.767
 9617SOL    HW229751   2.202   3.001   3.849
 9618SOL     OW29752   3.251   1.079   0.807
 9618SOL    HW129753   3.160   1.120   0.805
 9618SOL    HW229754   3.319   1.150   0.826
 9619SOL     OW29755   1.793   0.723   5.676
 9619SOL    HW129756   1.875   0.670   5.698
 9619SOL    HW229757   1.805   0.767   5.587
 9620SOL     OW29758   5.007   0.359   4.892
 9620SOL    HW129759   4.942   0.284   4.884
 9620SOL    HW229760   4.964   0.435   4.941
 9621SOL     OW29761   1.848   2.682   2.198
 9621SOL    HW129762   1.930   2.718   2.153
 9621SOL    HW229763   1.780   2.659   2.128
 9622SOL     OW29764   5.744   1.423   1.109
 9622SOL    HW129765   5.826   1.426   1.167
 9622SOL    HW229766   5.667   1.463   1.158
 9623SOL     OW29767   3.092   2.960   6.377
 9623SOL    HW129768   3.137   2.875   6.404
 9623SOL    HW229769   3.054   2.950   6.285
 9624SOL     OW29770   5.727   3.419   2.922
 9624SOL    HW129771   5.798   3.349   2.914
 9624SOL    HW229772   5.756   3.490   2.986
 9625SOL     OW29773   5.680   6.132   0.439
 9625SOL    HW129774   5.733   6.102   0.360
 9625SOL    HW229775   5.696   6.070   0.516
 9626SOL     OW29776   3.840   5.210   0.667
 9626SOL    HW129777   3.867   5.260   0.750
 9626SOL    HW229778   3.792   5.126   0.693
 9627SOL     OW29779   1.121   6.052   6.201
 9627SOL    HW129780   1.140   6.130   6.260
 9627SOL    HW229781   1.044   6.073   6.140
 9628SOL     OW29782   4.421   6.346   0.948
 9628SOL    HW129783   4.493   6.282   0.921
 9628SOL    HW229784   4.351   6.350   0.877
 9629SOL     OW29785   2.601   0.421   1.330
 9629SOL    HW129786   2.552   0.420   1.417
 9629SOL    HW229787   2.632   0.328   1.309
 9630SOL     OW29788   6.572   0.871   6.051
 9630SOL    HW129789   6.509   0.939   6.013
 9630SOL    HW229790   6.637   0.843   5.981
 9631SOL     OW29791   6.445   0.021   6.395
 9631SOL    HW129792   6.383   0.086   6.352
 9631SOL    HW229793   6.523   0.070   6.433
 9632SOL     OW29794   1.819   6.327   1.885
 9632SOL    HW129795   1.821   6.421   1.919
 9632SOL    HW229796   1.909   6.285   1.898
 9633SOL     OW29797   5.926   5.607   0.033
 9633SOL    HW129798   5.900   5.697   0.069
 9633SOL    HW229799   5.846   5.547   0.034
 9634SOL     OW29800   1.327   6.217   4.611
 9634SOL    HW129801   1.228   6.221   4.596
 9634SOL    HW229802   1.371   6.290   4.558
 9635SOL     OW29803   2.696   5.428   4.563
 9635SOL    HW129804   2.754   5.347   4.553
 9635SOL    HW229805   2.603   5.400   4.586
 9636SOL     OW29806   4.066   1.312   5.224
 9636SOL    HW129807   4.107   1.403   5.215
 9636SOL    HW229808   4.093   1.255   5.147
 9637SOL     OW29809   1.653   2.034   6.480
 9637SOL    HW129810   1.704   2.113   6.514
 9637SOL    HW229811   1.671   2.022   6.382
 9638SOL     OW29812   6.579   3.373   5.345
 9638SOL    HW129813   6.541   3.461   5.376
 9638SOL    HW229814   6.659   3.390   5.287
 9639SOL     OW29815   4.924   1.366   2.635
 9639SOL    HW129816   4.834   1.328   2.654
 9639SOL    HW229817   4.972   1.384   2.721
 9640SOL     OW29818   2.402   2.685   2.993
 9640SOL    HW129819   2.478   2.657   3.050
 9640SOL    HW229820   2.324   2.624   3.010
 9641SOL     OW29821   5.725   0.055   0.720
 9641SOL    HW129822   5.687   0.011   0.639
 9641SOL    HW229823   5.741   0.152   0.701
 9642SOL     OW29824   3.149   0.274   4.645
 9642SOL    HW129825   3.188   0.282   4.553
 9642SOL    HW229826   3.215   0.307   4.712
 9643SOL     OW29827   5.258   4.787   3.815
 9643SOL    HW129828   5.312   4.809   3.735
 9643SOL    HW229829   5.270   4.858   3.884
 9644SOL     OW29830   1.248   3.024   6.373
 9644SOL    HW129831   1.190   2.958   6.421
 9644SOL    HW229832   1.328   2.978   6.336
 9645SOL     OW29833   2.814   5.262   5.306
 9645SOL    HW129834   2.899   5.315   5.312
 9645SOL    HW229835   2.766   5.265   5.394
 9646SOL     OW29836   4.064   4.788   2.497
 9646SOL    HW129837   4.086   4.873   2.448
 9646SOL    HW229838   3.965   4.774   2.497
 9647SOL     OW29839   6.564   3.516   1.001
 9647SOL    HW129840   6.542   3.450   0.930
 9647SOL    HW229841   6.493   3.586   1.004
 9648SOL     OW29842   4.603   2.698   0.969
 9648SOL    HW129843   4.607   2.777   1.030
 9648SOL    HW229844   4.695   2.673   0.940
 9649SOL     OW29845   2.138   5.618   0.304
 9649SOL    HW129846   2.043   5.626   0.275
 9649SOL    HW229847   2.156   5.683   0.378
 9650SOL     OW29848   6.599   5.734   1.988
 9650SOL    HW129849   6.674   5.689   1.940
 9650SOL    HW229850   6.571   5.680   2.067
 9651SOL     OW29851   0.727   1.225   6.596
 9651SOL    HW129852   0.708   1.193   6.503
 9651SOL    HW229853   0.824   1.248   6.604
 9652SOL     OW29854   0.204   4.895   3.059
 9652SOL    HW129855   0.187   4.887   2.960
 9652SOL    HW229856   0.153   4.823   3.107
 9653SOL     OW29857   5.345   5.194   4.549
 9653SOL    HW129858   5.318   5.199   4.453
 9653SOL    HW229859   5.445   5.201   4.556
 9654SOL     OW29860   2.210   2.722   1.912
 9654SOL    HW129861   2.237   2.626   1.914
 9654SOL    HW229862   2.283   2.777   1.871
 9655SOL     OW29863   6.793   1.498   6.515
 9655SOL    HW129864   6.875   1.548   6.542
 9655SOL    HW229865   6.753   1.541   6.433
 9656SOL     OW29866   3.421   0.347   2.665
 9656SOL    HW129867   3.367   0.279   2.714
 9656SOL    HW229868   3.374   0.435   2.666
 9657SOL     OW29869   6.431   1.049   4.783
 9657SOL    HW129870   6.510   1.064   4.843
 9657SOL    HW229871   6.454   0.978   4.716
 9658SOL     OW29872   6.576   2.652   1.707
 9658SOL    HW129873   6.551   2.562   1.671
 9658SOL    HW229874   6.552   2.723   1.641
 9659SOL     OW29875   0.638   4.452   0.204
 9659SOL    HW129876   0.644   4.430   0.301
 9659SOL    HW229877   0.549   4.492   0.183
 9660SOL     OW29878   0.844   5.214   0.407
 9660SOL    HW129879   0.777   5.264   0.462
 9660SOL    HW229880   0.928   5.268   0.401
 9661SOL     OW29881   4.173   6.623   0.635
 9661SOL    HW129882   4.232   6.543   0.643
 9661SOL    HW229883   4.208   6.697   0.692
 9662SOL     OW29884   6.114   1.422   4.659
 9662SOL    HW129885   6.205   1.382   4.665
 9662SOL    HW229886   6.045   1.350   4.671
 9663SOL     OW29887   2.295   5.116   2.819
 9663SOL    HW129888   2.277   5.145   2.913
 9663SOL    HW229889   2.359   5.179   2.776
 9664SOL     OW29890   3.776   6.481   2.214
 9664SOL    HW129891   3.702   6.451   2.153
 9664SOL    HW229892   3.778   6.424   2.296
 9665SOL     OW29893   5.552   4.413   4.813
 9665SOL    HW129894   5.570   4.485   4.746
 9665SOL    HW229895   5.482   4.351   4.777
 9666SOL     OW29896   5.485   4.234   3.011
 9666SOL    HW129897   5.453   4.166   3.077
 9666SOL    HW229898   5.470   4.326   3.047
 9667SOL     OW29899   4.062   3.628   4.320
 9667SOL    HW129900   4.021   3.551   4.271
 9667SOL    HW229901   4.050   3.711   4.266
 9668SOL     OW29902   0.618   1.003   5.354
 9668SOL    HW129903   0.585   1.096   5.368
 9668SOL    HW229904   0.598   0.974   5.260
 9669SOL     OW29905   1.231   6.221   0.736
 9669SOL    HW129906   1.220   6.285   0.659
 9669SOL    HW229907   1.150   6.226   0.794
 9670SOL     OW29908   4.959   5.023   6.811
 9670SOL    HW129909   4.906   5.097   6.769
 9670SOL    HW229910   5.043   5.009   6.759
 9671SOL     OW29911   6.948   5.642   5.464
 9671SOL    HW129912   6.978   5.551   5.492
 9671SOL    HW229913   6.848   5.647   5.471
 9672SOL     OW29914   0.583   6.426   4.868
 9672SOL    HW129915   0.521   6.476   4.809
 9672SOL    HW229916   0.532   6.382   4.941
 9673SOL     OW29917   3.357   4.057   6.655
 9673SOL    HW129918   3.383   4.133   6.596
 9673SOL    HW229919   3.428   3.986   6.651
 9674SOL     OW29920   3.286   5.929   2.218
 9674SOL    HW129921   3.369   5.984   2.215
 9674SOL    HW229922   3.211   5.978   2.175
 9675SOL     OW29923   6.426   2.448   1.864
 9675SOL    HW129924   6.518   2.412   1.879
 9675SOL    HW229925   6.410   2.459   1.766
 9676SOL     OW29926   0.817   3.624   4.475
 9676SOL    HW129927   0.823   3.610   4.376
 9676SOL    HW229928   0.770   3.547   4.517
 9677SOL     OW29929   1.933   3.207   6.067
 9677SOL    HW129930   1.992   3.287   6.073
 9677SOL    HW229931   1.898   3.199   5.974
 9678SOL     OW29932   3.696   3.842   3.513
 9678SOL    HW129933   3.749   3.911   3.561
 9678SOL    HW229934   3.651   3.781   3.579
 9679SOL     OW29935   1.391   2.668   1.804
 9679SOL    HW129936   1.370   2.613   1.724
 9679SOL    HW229937   1.454   2.741   1.779
 9680SOL     OW29938   6.101   5.572   3.255
 9680SOL    HW129939   6.060   5.601   3.341
 9680SOL    HW229940   6.028   5.559   3.187
 9681SOL     OW29941   2.077   0.884   2.377
 9681SOL    HW129942   2.080   0.791   2.415
 9681SOL    HW229943   2.094   0.950   2.449
 9682SOL     OW29944   5.289   4.729   3.017
 9682SOL    HW129945   5.240   4.700   2.934
 9682SOL    HW229946   5.231   4.789   3.071
 9683SOL     OW29947   4.496   6.569   6.969
 9683SOL    HW129948   4.414   6.610   7.009
 9683SOL    HW229949   4.577   6.611   7.010
 9684SOL     OW29950   1.172   4.032   4.869
 9684SOL    HW129951   1.176   4.011   4.771
 9684SOL    HW229952   1.255   4.080   4.896
 9685SOL     OW29953   0.885   2.795   0.784
 9685SOL    HW129954   0.917   2.841   0.867
 9685SOL    HW229955   0.824   2.856   0.734
 9686SOL     OW29956   6.223   0.918   1.689
 9686SOL    HW129957   6.150   0.945   1.626
 9686SOL    HW229958   6.211   0.823   1.716
 9687SOL     OW29959   2.750   0.029   3.709
 9687SOL    HW129960   2.777   6.957   3.737
 9687SOL    HW229961   2.795   0.096   3.768
 9688SOL     OW29962   0.129   1.285   2.809
 9688SOL    HW129963   0.097   1.348   2.880
 9688SOL    HW229964   0.202   1.228   2.846
 9689SOL     OW29965   2.607   6.283   6.462
 9689SOL    HW129966   2.631   6.371   6.503
 9689SOL    HW229967   2.610   6.290   6.363
 9690SOL     OW29968   6.253   5.130   1.072
 9690SOL    HW129969   6.251   5.066   1.149
 9690SOL    HW229970   6.326   5.197   1.086
 9691SOL     OW29971   1.798   5.483   2.335
 9691SOL    HW129972   1.851   5.491   2.250
 9691SOL    HW229973   1.846   5.422   2.398
 9692SOL     OW29974   2.792   5.217   1.407
 9692SOL    HW129975   2.832   5.305   1.380
 9692SOL    HW229976   2.694   5.228   1.423
 9693SOL     OW29977   6.277   6.310   1.722
 9693SOL    HW129978   6.266   6.369   1.642
 9693SOL    HW229979   6.349   6.347   1.780
 9694SOL     OW29980   1.237   2.595   6.606
 9694SOL    HW129981   1.179   2.515   6.590
 9694SOL    HW229982   1.274   2.591   6.699
 9695SOL     OW29983   6.818   4.567   1.685
 9695SOL    HW129984   6.785   4.502   1.753
 9695SOL    HW229985   6.832   4.656   1.728
 9696SOL     OW29986   3.824   3.041   1.514
 9696SOL    HW129987   3.741   3.089   1.540
 9696SOL    HW229988   3.882   3.028   1.594
 9697SOL     OW29989   0.228   5.394   6.934
 9697SOL    HW129990   0.150   5.435   6.887
 9697SOL    HW229991   0.242   5.301   6.900
 9698SOL     OW29992   5.799   2.005   5.159
 9698SOL    HW129993   5.756   1.915   5.154
 9698SOL    HW229994   5.828   2.033   5.068
 9699SOL     OW29995   1.912   3.508   7.007
 9699SOL    HW129996   1.840   3.577   7.016
 9699SOL    HW229997   1.871   3.417   7.000
 9700SOL     OW29998   3.719   4.130   5.048
 9700SOL    HW129999   3.733   4.106   4.952
 9700SOL    HW230000   3.626   4.164   5.060
 9701SOL     OW30001   4.531   5.355   4.689
 9701SOL    HW130002   4.435   5.357   4.717
 9701SOL    HW230003   4.560   5.448   4.666
 9702SOL     OW30004   4.462   1.390   0.882
 9702SOL    HW130005   4.555   1.427   0.895
 9702SOL    HW230006   4.420   1.431   0.802
 9703SOL     OW30007   2.736   5.579   4.305
 9703SOL    HW130008   2.802   5.654   4.298
 9703SOL    HW230009   2.735   5.543   4.398
 9704SOL     OW30010   3.822   0.030   3.348
 9704SOL    HW130011   3.728   0.065   3.343
 9704SOL    HW230012   3.881   0.100   3.388
 9705SOL     OW30013   3.265   4.412   0.146
 9705SOL    HW130014   3.198   4.430   0.219
 9705SOL    HW230015   3.282   4.314   0.139
 9706SOL     OW30016   5.853   2.839   2.350
 9706SOL    HW130017   5.929   2.804   2.295
 9706SOL    HW230018   5.889   2.903   2.418
 9707SOL     OW30019   2.675   4.905   2.684
 9707SOL    HW130020   2.728   4.985   2.657
 9707SOL    HW230021   2.593   4.899   2.626
 9708SOL     OW30022   2.199   1.599   3.351
 9708SOL    HW130023   2.222   1.552   3.437
 9708SOL    HW230024   2.256   1.563   3.277
 9709SOL     OW30025   1.951   6.399   2.981
 9709SOL    HW130026   1.884   6.430   3.049
 9709SOL    HW230027   1.906   6.339   2.915
 9710SOL     OW30028   0.333   1.158   2.990
 9710SOL    HW130029   0.396   1.221   3.035
 9710SOL    HW230030   0.292   1.097   3.058
 9711SOL     OW30031   1.346   3.760   5.064
 9711SOL    HW130032   1.294   3.830   5.113
 9711SOL    HW230033   1.316   3.758   4.968
 9712SOL     OW30034   5.142   1.922   4.441
 9712SOL    HW130035   5.206   1.848   4.421
 9712SOL    HW230036   5.161   2.000   4.381
 9713SOL     OW30037   6.854   5.051   2.707
 9713SOL    HW130038   6.896   5.137   2.738
 9713SOL    HW230039   6.888   5.029   2.615
 9714SOL     OW30040   2.142   2.722   1.257
 9714SOL    HW130041   2.165   2.629   1.228
 9714SOL    HW230042   2.223   2.766   1.295
 9715SOL     OW30043   5.071   5.873   4.821
 9715SOL    HW130044   5.000   5.829   4.765
 9715SOL    HW230045   5.160   5.862   4.777
 9716SOL     OW30046   4.234   1.653   6.431
 9716SOL    HW130047   4.270   1.562   6.410
 9716SOL    HW230048   4.154   1.645   6.490
 9717SOL     OW30049   6.159   5.771   4.044
 9717SOL    HW130050   6.191   5.816   4.128
 9717SOL    HW230051   6.178   5.831   3.965
 9718SOL     OW30052   4.126   3.108   1.393
 9718SOL    HW130053   4.200   3.155   1.345
 9718SOL    HW230054   4.114   3.149   1.484
 9719SOL     OW30055   0.587   2.077   0.318
 9719SOL    HW130056   0.490   2.052   0.321
 9719SOL    HW230057   0.639   2.002   0.278
 9720SOL     OW30058   6.928   0.311   1.796
 9720SOL    HW130059   6.955   0.270   1.883
 9720SOL    HW230060   6.851   0.373   1.811
 9721SOL     OW30061   6.610   3.849   2.110
 9721SOL    HW130062   6.604   3.942   2.073
 9721SOL    HW230063   6.560   3.844   2.196
 9722SOL     OW30064   0.688   0.615   4.049
 9722SOL    HW130065   0.750   0.675   3.998
 9722SOL    HW230066   0.696   0.521   4.014
 9723SOL     OW30067   0.084   0.979   3.587
 9723SOL    HW130068   0.121   0.903   3.640
 9723SOL    HW230069   0.103   0.965   3.490
 9724SOL     OW30070   3.467   2.398   1.063
 9724SOL    HW130071   3.470   2.362   1.156
 9724SOL    HW230072   3.493   2.326   0.998
 9725SOL     OW30073   4.780   3.202   5.355
 9725SOL    HW130074   4.695   3.242   5.389
 9725SOL    HW230075   4.762   3.109   5.323
 9726SOL     OW30076   4.877   6.556   4.844
 9726SOL    HW130077   4.939   6.514   4.777
 9726SOL    HW230078   4.799   6.596   4.797
 9727SOL     OW30079   1.400   3.182   5.989
 9727SOL    HW130080   1.336   3.255   5.963
 9727SOL    HW230081   1.464   3.166   5.913
 9728SOL     OW30082   2.663   5.545   6.663
 9728SOL    HW130083   2.583   5.594   6.697
 9728SOL    HW230084   2.670   5.558   6.564
 9729SOL     OW30085   2.261   4.864   2.732
 9729SOL    HW130086   2.255   4.950   2.782
 9729SOL    HW230087   2.329   4.872   2.658
 9730SOL     OW30088   6.464   3.103   2.286
 9730SOL    HW130089   6.516   3.074   2.205
 9730SOL    HW230090   6.528   3.128   2.359
 9731SOL     OW30091   3.614   4.987   0.341
 9731SOL    HW130092   3.646   5.063   0.285
 9731SOL    HW230093   3.545   5.019   0.405
 9732SOL     OW30094   6.162   6.202   3.027
 9732SOL    HW130095   6.190   6.117   2.983
 9732SOL    HW230096   6.243   6.259   3.043
 9733SOL     OW30097   5.025   4.650   5.442
 9733SOL    HW130098   5.009   4.611   5.351
 9733SOL    HW230099   5.038   4.576   5.508
 9734SOL     OW30100   5.718   2.275   4.223
 9734SOL    HW130101   5.655   2.307   4.152
 9734SOL    HW230102   5.806   2.253   4.181
 9735SOL     OW30103   1.785   4.458   1.490
 9735SOL    HW130104   1.785   4.476   1.588
 9735SOL    HW230105   1.698   4.417   1.463
 9736SOL     OW30106   4.122   0.876   6.789
 9736SOL    HW130107   4.080   0.793   6.826
 9736SOL    HW230108   4.114   0.950   6.856
 9737SOL     OW30109   4.107   2.182   5.024
 9737SOL    HW130110   4.164   2.261   5.044
 9737SOL    HW230111   4.086   2.180   4.926
 9738SOL     OW30112   1.749   0.928   3.203
 9738SOL    HW130113   1.761   0.859   3.131
 9738SOL    HW230114   1.775   1.018   3.168
 9739SOL     OW30115   5.818   4.892   1.647
 9739SOL    HW130116   5.836   4.937   1.560
 9739SOL    HW230117   5.735   4.931   1.688
 9740SOL     OW30118   6.116   4.979   3.089
 9740SOL    HW130119   6.194   4.923   3.117
 9740SOL    HW230120   6.129   5.072   3.121
 9741SOL     OW30121   4.369   2.133   2.473
 9741SOL    HW130122   4.423   2.181   2.542
 9741SOL    HW230123   4.274   2.127   2.504
 9742SOL     OW30124   5.478   0.975   3.589
 9742SOL    HW130125   5.456   1.067   3.556
 9742SOL    HW230126   5.394   0.920   3.589
 9743SOL     OW30127   1.819   3.228   5.819
 9743SOL    HW130128   1.871   3.176   5.751
 9743SOL    HW230129   1.824   3.325   5.797
 9744SOL     OW30130   2.026   0.990   2.135
 9744SOL    HW130131   1.940   1.039   2.125
 9744SOL    HW230132   2.040   0.965   2.231
 9745SOL     OW30133   0.094   2.707   5.270
 9745SOL    HW130134   0.146   2.773   5.216
 9745SOL    HW230135   7.018   2.712   5.245
 9746SOL     OW30136   6.121   0.926   4.689
 9746SOL    HW130137   6.114   0.994   4.616
 9746SOL    HW230138   6.109   0.834   4.652
 9747SOL     OW30139   0.665   0.066   6.072
 9747SOL    HW130140   0.624   6.999   6.047
 9747SOL    HW230141   0.604   0.140   6.044
 9748SOL     OW30142   1.035   6.180   3.916
 9748SOL    HW130143   1.077   6.089   3.918
 9748SOL    HW230144   0.936   6.170   3.924
 9749SOL     OW30145   0.044   4.141   4.336
 9749SOL    HW130146   0.136   4.105   4.321
 9749SOL    HW230147   0.034   4.166   4.432
 9750SOL     OW30148   4.561   4.846   3.772
 9750SOL    HW130149   4.659   4.862   3.779
 9750SOL    HW230150   4.522   4.908   3.703
 9751SOL     OW30151   1.567   2.115   0.550
 9751SOL    HW130152   1.524   2.197   0.588
 9751SOL    HW230153   1.651   2.141   0.502
 9752SOL     OW30154   4.328   0.942   6.014
 9752SOL    HW130155   4.279   0.948   5.927
 9752SOL    HW230156   4.267   0.971   6.088
 9753SOL     OW30157   0.106   5.900   5.312
 9753SOL    HW130158   0.200   5.878   5.339
 9753SOL    HW230159   0.052   5.919   5.394
 9754SOL     OW30160   1.220   1.530   6.695
 9754SOL    HW130161   1.306   1.581   6.698
 9754SOL    HW230162   1.154   1.580   6.640
 9755SOL     OW30163   3.533   4.442   5.504
 9755SOL    HW130164   3.565   4.531   5.472
 9755SOL    HW230165   3.450   4.455   5.559
 9756SOL     OW30166   6.198   2.247   6.263
 9756SOL    HW130167   6.290   2.231   6.227
 9756SOL    HW230168   6.204   2.291   6.353
 9757SOL     OW30169   5.990   2.171   3.726
 9757SOL    HW130170   5.998   2.268   3.746
 9757SOL    HW230171   6.070   2.122   3.762
 9758SOL     OW30172   2.437   0.457   6.773
 9758SOL    HW130173   2.429   0.556   6.777
 9758SOL    HW230174   2.376   0.416   6.842
 9759SOL     OW30175   2.966   6.346   0.978
 9759SOL    HW130176   3.043   6.370   0.918
 9759SOL    HW230177   2.998   6.340   1.072
 9760SOL     OW30178   6.082   4.314   5.676
 9760SOL    HW130179   6.070   4.232   5.731
 9760SOL    HW230180   6.134   4.382   5.728
 9761SOL     OW30181   5.804   5.605   1.847
 9761SOL    HW130182   5.726   5.543   1.842
 9761SOL    HW230183   5.777   5.690   1.892
 9762SOL     OW30184   2.448   1.747   4.755
 9762SOL    HW130185   2.480   1.838   4.782
 9762SOL    HW230186   2.521   1.700   4.706
 9763SOL     OW30187   2.698   1.802   0.937
 9763SOL    HW130188   2.739   1.793   0.847
 9763SOL    HW230189   2.765   1.775   1.007
 9764SOL     OW30190   0.915   1.786   2.704
 9764SOL    HW130191   0.991   1.845   2.678
 9764SOL    HW230192   0.871   1.822   2.786
 9765SOL     OW30193   0.889   1.860   5.549
 9765SOL    HW130194   0.964   1.921   5.525
 9765SOL    HW230195   0.802   1.908   5.538
 9766SOL     OW30196   3.243   0.401   2.228
 9766SOL    HW130197   3.197   0.322   2.268
 9766SOL    HW230198   3.198   0.485   2.258
 9767SOL     OW30199   5.249   0.538   4.824
 9767SOL    HW130200   5.240   0.597   4.904
 9767SOL    HW230201   5.173   0.473   4.822
 9768SOL     OW30202   4.394   1.979   2.777
 9768SOL    HW130203   4.459   2.007   2.848
 9768SOL    HW230204   4.427   1.895   2.734
 9769SOL     OW30205   1.139   1.693   0.942
 9769SOL    HW130206   1.193   1.635   1.003
 9769SOL    HW230207   1.195   1.722   0.865
 9770SOL     OW30208   5.913   4.790   5.876
 9770SOL    HW130209   5.933   4.865   5.812
 9770SOL    HW230210   5.999   4.746   5.902
 9771SOL     OW30211   4.479   5.269   6.112
 9771SOL    HW130212   4.427   5.252   6.029
 9771SOL    HW230213   4.438   5.217   6.188
 9772SOL     OW30214   6.657   0.867   1.785
 9772SOL    HW130215   6.697   0.826   1.702
 9772SOL    HW230216   6.683   0.812   1.865
 9773SOL     OW30217   6.339   5.560   3.705
 9773SOL    HW130218   6.394   5.572   3.623
 9773SOL    HW230219   6.306   5.466   3.710
 9774SOL     OW30220   6.285   5.091   3.574
 9774SOL    HW130221   6.188   5.070   3.580
 9774SOL    HW230222   6.337   5.008   3.556
 9775SOL     OW30223   1.976   2.708   4.840
 9775SOL    HW130224   1.975   2.774   4.915
 9775SOL    HW230225   1.972   2.615   4.876
 9776SOL     OW30226   0.455   6.279   5.049
 9776SOL    HW130227   0.367   6.314   5.080
 9776SOL    HW230228   0.463   6.182   5.072
 9777SOL     OW30229   5.624   4.466   6.159
 9777SOL    HW130230   5.552   4.533   6.177
 9777SOL    HW230231   5.669   4.488   6.073
 9778SOL     OW30232   4.630   6.988   2.287
 9778SOL    HW130233   4.603   0.010   2.201
 9778SOL    HW230234   4.613   0.031   2.362
 9779SOL     OW30235   2.667   2.229   5.605
 9779SOL    HW130236   2.625   2.195   5.522
 9779SOL    HW230237   2.750   2.281   5.582
 9780SOL     OW30238   3.241   4.484   6.913
 9780SOL    HW130239   3.251   4.453   7.008
 9780SOL    HW230240   3.327   4.472   6.865
 9781SOL     OW30241   1.494   5.026   4.602
 9781SOL    HW130242   1.551   4.984   4.673
 9781SOL    HW230243   1.498   4.971   4.519
 9782SOL     OW30244   6.419   0.565   1.533
 9782SOL    HW130245   6.455   0.639   1.476
 9782SOL    HW230246   6.488   0.538   1.600
 9783SOL     OW30247   5.075   1.238   2.039
 9783SOL    HW130248   5.012   1.248   1.962
 9783SOL    HW230249   5.169   1.243   2.006
 9784SOL     OW30250   4.577   0.527   3.668
 9784SOL    HW130251   4.636   0.499   3.591
 9784SOL    HW230252   4.520   0.450   3.695
 9785SOL     OW30253   0.971   3.005   1.947
 9785SOL    HW130254   1.024   2.927   1.914
 9785SOL    HW230255   0.967   3.074   1.875
 9786SOL     OW30256   2.941   5.916   5.133
 9786SOL    HW130257   3.002   5.881   5.204
 9786SOL    HW230258   2.995   5.952   5.057
 9787SOL     OW30259   5.051   4.447   2.152
 9787SOL    HW130260   5.070   4.544   2.133
 9787SOL    HW230261   4.984   4.412   2.086
 9788SOL     OW30262   6.436   1.723   5.612
 9788SOL    HW130263   6.336   1.724   5.614
 9788SOL    HW230264   6.468   1.628   5.614
 9789SOL     OW30265   2.098   5.594   4.505
 9789SOL    HW130266   2.044   5.674   4.480
 9789SOL    HW230267   2.190   5.604   4.467
 9790SOL     OW30268   6.043   2.408   4.538
 9790SOL    HW130269   6.000   2.340   4.479
 9790SOL    HW230270   6.135   2.428   4.505
 9791SOL     OW30271   0.415   2.227   1.148
 9791SOL    HW130272   0.385   2.141   1.190
 9791SOL    HW230273   0.445   2.209   1.054
 9792SOL     OW30274   4.191   5.386   1.255
 9792SOL    HW130275   4.197   5.304   1.198
 9792SOL    HW230276   4.224   5.465   1.203
 9793SOL     OW30277   5.123   6.067   1.794
 9793SOL    HW130278   5.218   6.058   1.822
 9793SOL    HW230279   5.079   5.978   1.794
 9794SOL     OW30280   4.380   2.711   6.698
 9794SOL    HW130281   4.443   2.668   6.763
 9794SOL    HW230282   4.296   2.737   6.745
 9795SOL     OW30283   1.576   3.278   4.182
 9795SOL    HW130284   1.633   3.203   4.150
 9795SOL    HW230285   1.633   3.346   4.228
 9796SOL     OW30286   2.794   4.904   6.676
 9796SOL    HW130287   2.850   4.914   6.759
 9796SOL    HW230288   2.720   4.839   6.693
 9797SOL     OW30289   4.448   3.142   5.648
 9797SOL    HW130290   4.475   3.178   5.737
 9797SOL    HW230291   4.474   3.208   5.577
 9798SOL     OW30292   2.342   1.696   1.269
 9798SOL    HW130293   2.379   1.607   1.242
 9798SOL    HW230294   2.366   1.765   1.200
 9799SOL     OW30295   3.132   3.985   1.913
 9799SOL    HW130296   3.093   4.069   1.875
 9799SOL    HW230297   3.066   3.943   1.974
 9800SOL     OW30298   4.374   4.984   6.568
 9800SOL    HW130299   4.301   4.919   6.587
 9800SOL    HW230300   4.456   4.934   6.537
 9801SOL     OW30301   4.047   5.214   0.012
 9801SOL    HW130302   4.053   5.307   6.998
 9801SOL    HW230303   4.112   5.156   6.984
 9802SOL     OW30304   6.888   3.612   0.823
 9802SOL    HW130305   6.814   3.589   0.760
 9802SOL    HW230306   6.851   3.618   0.916
 9803SOL     OW30307   6.201   0.718   6.661
 9803SOL    HW130308   6.102   0.711   6.645
 9803SOL    HW230309   6.224   0.675   6.748
 9804SOL     OW30310   6.219   5.736   4.331
 9804SOL    HW130311   6.297   5.676   4.314
 9804SOL    HW230312   6.139   5.681   4.356
 9805SOL     OW30313   1.793   5.190   6.824
 9805SOL    HW130314   1.699   5.218   6.807
 9805SOL    HW230315   1.851   5.221   6.749
 9806SOL     OW30316   0.264   1.767   2.770
 9806SOL    HW130317   0.290   1.831   2.697
 9806SOL    HW230318   0.330   1.692   2.774
 9807SOL     OW30319   4.138   2.764   0.779
 9807SOL    HW130320   4.178   2.730   0.864
 9807SOL    HW230321   4.175   2.855   0.759
 9808SOL     OW30322   0.925   1.353   4.708
 9808SOL    HW130323   0.989   1.428   4.726
 9808SOL    HW230324   0.954   1.272   4.759
 9809SOL     OW30325   0.626   0.847   4.824
 9809SOL    HW130326   0.558   0.785   4.862
 9809SOL    HW230327   0.694   0.869   4.893
 9810SOL     OW30328   3.740   1.057   3.510
 9810SOL    HW130329   3.654   1.100   3.539
 9810SOL    HW230330   3.769   1.095   3.422
 9811SOL     OW30331   0.612   6.600   2.657
 9811SOL    HW130332   0.514   6.611   2.669
 9811SOL    HW230333   0.651   6.684   2.619
 9812SOL     OW30334   4.958   2.330   5.781
 9812SOL    HW130335   4.876   2.305   5.832
 9812SOL    HW230336   4.988   2.252   5.727
 9813SOL     OW30337   6.609   4.737   0.259
 9813SOL    HW130338   6.561   4.726   0.172
 9813SOL    HW230339   6.591   4.658   0.318
 9814SOL     OW30340   0.279   0.028   5.447
 9814SOL    HW130341   0.200   6.994   5.477
 9814SOL    HW230342   0.310   0.085   5.522
 9815SOL     OW30343   6.077   3.321   2.507
 9815SOL    HW130344   6.021   3.402   2.492
 9815SOL    HW230345   6.083   3.302   2.605
 9816SOL     OW30346   0.383   6.517   6.306
 9816SOL    HW130347   0.389   6.474   6.396
 9816SOL    HW230348   0.464   6.495   6.252
 9817SOL     OW30349   2.999   6.662   0.070
 9817SOL    HW130350   2.952   6.744   0.037
 9817SOL    HW230351   3.083   6.648   0.018
 9818SOL     OW30352   0.718   6.751   3.452
 9818SOL    HW130353   0.720   6.743   3.353
 9818SOL    HW230354   0.623   6.742   3.484
 9819SOL     OW30355   0.204   3.602   4.773
 9819SOL    HW130356   0.250   3.585   4.860
 9819SOL    HW230357   0.271   3.603   4.699
 9820SOL     OW30358   3.760   1.915   5.653
 9820SOL    HW130359   3.794   1.887   5.564
 9820SOL    HW230360   3.660   1.918   5.651
 9821SOL     OW30361   4.295   2.600   1.585
 9821SOL    HW130362   4.228   2.674   1.590
 9821SOL    HW230363   4.384   2.638   1.560
 9822SOL     OW30364   3.534   6.202   5.593
 9822SOL    HW130365   3.499   6.141   5.523
 9822SOL    HW230366   3.507   6.296   5.572
 9823SOL     OW30367   2.010   0.470   2.811
 9823SOL    HW130368   2.013   0.570   2.823
 9823SOL    HW230369   2.003   0.426   2.900
 9824SOL     OW30370   0.911   6.451   5.198
 9824SOL    HW130371   0.850   6.461   5.277
 9824SOL    HW230372   0.888   6.520   5.129
 9825SOL     OW30373   5.383   6.169   5.727
 9825SOL    HW130374   5.317   6.244   5.723
 9825SOL    HW230375   5.337   6.083   5.704
 9826SOL     OW30376   2.042   5.720   4.889
 9826SOL    HW130377   2.123   5.665   4.911
 9826SOL    HW230378   1.961   5.661   4.885
 9827SOL     OW30379   1.714   5.246   1.882
 9827SOL    HW130380   1.795   5.260   1.826
 9827SOL    HW230381   1.632   5.249   1.824
 9828SOL     OW30382   4.349   2.295   4.428
 9828SOL    HW130383   4.442   2.332   4.420
 9828SOL    HW230384   4.322   2.295   4.524
 9829SOL     OW30385   4.561   5.573   5.548
 9829SOL    HW130386   4.554   5.527   5.636
 9829SOL    HW230387   4.579   5.670   5.562
 9830SOL     OW30388   6.021   2.144   3.020
 9830SOL    HW130389   6.120   2.150   3.032
 9830SOL    HW230390   5.978   2.127   3.109
 9831SOL     OW30391   0.383   3.818   3.009
 9831SOL    HW130392   0.386   3.912   3.040
 9831SOL    HW230393   0.475   3.789   2.980
 9832SOL     OW30394   4.700   4.761   4.440
 9832SOL    HW130395   4.783   4.721   4.479
 9832SOL    HW230396   4.626   4.758   4.507
 9833SOL     OW30397   3.823   4.028   3.666
 9833SOL    HW130398   3.849   4.025   3.762
 9833SOL    HW230399   3.743   4.086   3.654
 9834SOL     OW30400   2.888   6.248   6.299
 9834SOL    HW130401   2.801   6.253   6.348
 9834SOL    HW230402   2.887   6.170   6.236
 9835SOL     OW30403   3.924   3.943   3.940
 9835SOL    HW130404   3.882   4.007   4.004
 9835SOL    HW230405   3.961   3.864   3.989
 9836SOL     OW30406   0.303   4.281   6.098
 9836SOL    HW130407   0.353   4.195   6.110
 9836SOL    HW230408   0.320   4.317   6.006
 9837SOL     OW30409   5.372   2.138   3.377
 9837SOL    HW130410   5.278   2.157   3.407
 9837SOL    HW230411   5.372   2.057   3.318
 9838SOL     OW30412   1.702   6.792   1.193
 9838SOL    HW130413   1.739   6.720   1.252
 9838SOL    HW230414   1.746   6.879   1.215
 9839SOL     OW30415   5.156   0.002   3.861
 9839SOL    HW130416   5.057   7.016   3.847
 9839SOL    HW230417   5.201   0.022   3.774
 9840SOL     OW30418   6.118   1.308   6.966
 9840SOL    HW130419   6.096   1.352   0.032
 9840SOL    HW230420   6.197   1.353   6.924
 9841SOL     OW30421   0.231   6.508   2.999
 9841SOL    HW130422   0.136   6.530   2.978
 9841SOL    HW230423   0.239   6.412   3.023
 9842SOL     OW30424   3.482   1.361   6.575
 9842SOL    HW130425   3.465   1.409   6.489
 9842SOL    HW230426   3.399   1.360   6.630
 9843SOL     OW30427   0.824   0.418   1.285
 9843SOL    HW130428   0.756   0.424   1.212
 9843SOL    HW230429   0.884   0.340   1.269
 9844SOL     OW30430   4.782   7.006   3.917
 9844SOL    HW130431   4.693   6.960   3.910
 9844SOL    HW230432   4.852   6.939   3.943
 9845SOL     OW30433   2.101   3.117   2.608
 9845SOL    HW130434   2.081   3.052   2.682
 9845SOL    HW230435   2.022   3.175   2.592
 9846SOL     OW30436   6.077   2.428   1.199
 9846SOL    HW130437   6.071   2.351   1.135
 9846SOL    HW230438   5.996   2.430   1.257
 9847SOL     OW30439   4.431   4.046   0.035
 9847SOL    HW130440   4.353   4.108   0.028
 9847SOL    HW230441   4.408   3.971   0.097
 9848SOL     OW30442   3.207   4.098   5.807
 9848SOL    HW130443   3.140   4.140   5.867
 9848SOL    HW230444   3.161   4.029   5.749
 9849SOL     OW30445   0.477   2.465   4.581
 9849SOL    HW130446   0.500   2.409   4.660
 9849SOL    HW230447   0.530   2.434   4.502
 9850SOL     OW30448   0.934   0.331   4.501
 9850SOL    HW130449   0.987   0.377   4.572
 9850SOL    HW230450   0.947   0.379   4.414
 9851SOL     OW30451   3.571   4.902   4.648
 9851SOL    HW130452   3.632   4.896   4.727
 9851SOL    HW230453   3.481   4.864   4.672
 9852SOL     OW30454   2.109   0.372   6.386
 9852SOL    HW130455   2.104   0.472   6.382
 9852SOL    HW230456   2.025   0.333   6.348
 9853SOL     OW30457   6.443   4.572   3.511
 9853SOL    HW130458   6.375   4.510   3.472
 9853SOL    HW230459   6.514   4.520   3.557
 9854SOL     OW30460   0.698   4.242   5.737
 9854SOL    HW130461   0.650   4.156   5.751
 9854SOL    HW230462   0.671   4.281   5.650
 9855SOL     OW30463   1.114   4.881   1.306
 9855SOL    HW130464   1.032   4.937   1.320
 9855SOL    HW230465   1.176   4.893   1.384
 9856SOL     OW30466   5.738   4.302   3.314
 9856SOL    HW130467   5.742   4.337   3.407
 9856SOL    HW230468   5.694   4.370   3.255
 9857SOL     OW30469   4.134   0.297   5.163
 9857SOL    HW130470   4.134   0.197   5.165
 9857SOL    HW230471   4.213   0.332   5.214
 9858SOL     OW30472   6.130   6.433   2.535
 9858SOL    HW130473   6.123   6.532   2.528
 9858SOL    HW230474   6.059   6.398   2.595
 9859SOL     OW30475   0.116   5.189   3.102
 9859SOL    HW130476   0.147   5.096   3.118
 9859SOL    HW230477   0.194   5.248   3.082
 9860SOL     OW30478   1.127   2.905   4.497
 9860SOL    HW130479   1.207   2.952   4.535
 9860SOL    HW230480   1.083   2.852   4.569
 9861SOL     OW30481   3.037   2.160   3.183
 9861SOL    HW130482   3.008   2.177   3.089
 9861SOL    HW230483   2.985   2.220   3.245
 9862SOL     OW30484   0.986   4.190   0.247
 9862SOL    HW130485   1.006   4.288   0.242
 9862SOL    HW230486   0.887   4.177   0.254
 9863SOL     OW30487   3.567   6.066   0.861
 9863SOL    HW130488   3.581   6.011   0.943
 9863SOL    HW230489   3.638   6.043   0.794
 9864SOL     OW30490   2.566   5.481   5.233
 9864SOL    HW130491   2.589   5.571   5.271
 9864SOL    HW230492   2.615   5.410   5.285
 9865SOL     OW30493   0.563   5.641   5.222
 9865SOL    HW130494   0.554   5.574   5.296
 9865SOL    HW230495   0.638   5.704   5.242
 9866SOL     OW30496   6.394   4.742   5.248
 9866SOL    HW130497   6.374   4.804   5.324
 9866SOL    HW230498   6.330   4.665   5.250
 9867SOL     OW30499   4.125   1.776   2.331
 9867SOL    HW130500   4.156   1.857   2.281
 9867SOL    HW230501   4.199   1.710   2.336
 9868SOL     OW30502   2.112   3.967   4.014
 9868SOL    HW130503   2.054   3.980   3.934
 9868SOL    HW230504   2.114   3.870   4.038
 9869SOL     OW30505   6.130   2.816   0.814
 9869SOL    HW130506   6.093   2.907   0.831
 9869SOL    HW230507   6.140   2.768   0.901
 9870SOL     OW30508   2.537   1.978   2.193
 9870SOL    HW130509   2.514   1.990   2.289
 9870SOL    HW230510   2.455   1.987   2.137
 9871SOL     OW30511   6.123   4.903   4.318
 9871SOL    HW130512   6.130   4.961   4.400
 9871SOL    HW230513   6.179   4.942   4.245
 9872SOL     OW30514   0.607   5.088   6.238
 9872SOL    HW130515   0.522   5.037   6.230
 9872SOL    HW230516   0.682   5.025   6.260
 9873SOL     OW30517   1.470   1.611   5.844
 9873SOL    HW130518   1.526   1.602   5.762
 9873SOL    HW230519   1.411   1.692   5.836
 9874SOL     OW30520   0.334   2.824   5.111
 9874SOL    HW130521   0.371   2.822   5.203
 9874SOL    HW230522   0.351   2.914   5.070
 9875SOL     OW30523   6.635   5.991   0.814
 9875SOL    HW130524   6.705   6.015   0.881
 9875SOL    HW230525   6.640   6.055   0.737
 9876SOL     OW30526   0.929   6.604   3.541
 9876SOL    HW130527   0.966   6.643   3.625
 9876SOL    HW230528   0.856   6.662   3.506
 9877SOL     OW30529   0.631   5.161   5.034
 9877SOL    HW130530   0.561   5.224   5.001
 9877SOL    HW230531   0.651   5.181   5.130
 9878SOL     OW30532   2.958   2.765   6.698
 9878SOL    HW130533   2.934   2.761   6.601
 9878SOL    HW230534   3.036   2.825   6.710
 9879SOL     OW30535   6.660   4.997   6.690
 9879SOL    HW130536   6.700   5.078   6.647
 9879SOL    HW230537   6.677   4.917   6.632
 9880SOL     OW30538   2.955   1.199   0.623
 9880SOL    HW130539   2.936   1.171   0.529
 9880SOL    HW230540   2.872   1.237   0.663
 9881SOL     OW30541   6.237   1.213   3.539
 9881SOL    HW130542   6.218   1.126   3.494
 9881SOL    HW230543   6.333   1.217   3.566
 9882SOL     OW30544   3.366   3.030   5.168
 9882SOL    HW130545   3.290   3.038   5.104
 9882SOL    HW230546   3.438   3.095   5.143
 9883SOL     OW30547   2.596   0.390   2.004
 9883SOL    HW130548   2.604   0.448   1.923
 9883SOL    HW230549   2.572   0.446   2.083
 9884SOL     OW30550   3.096   2.669   5.808
 9884SOL    HW130551   2.998   2.675   5.791
 9884SOL    HW230552   3.139   2.611   5.739
 9885SOL     OW30553   5.449   2.843   5.239
 9885SOL    HW130554   5.355   2.813   5.254
 9885SOL    HW230555   5.449   2.940   5.214
 9886SOL     OW30556   3.641   5.937   1.640
 9886SOL    HW130557   3.603   5.889   1.561
 9886SOL    HW230558   3.591   6.024   1.652
 9887SOL     OW30559   3.200   0.566   6.471
 9887SOL    HW130560   3.106   0.594   6.490
 9887SOL    HW230561   3.261   0.645   6.480
 9888SOL     OW30562   6.425   6.075   3.782
 9888SOL    HW130563   6.489   6.151   3.790
 9888SOL    HW230564   6.340   6.107   3.742
 9889SOL     OW30565   0.126   5.923   3.189
 9889SOL    HW130566   0.215   5.920   3.142
 9889SOL    HW230567   0.141   5.930   3.287
 9890SOL     OW30568   0.834   3.603   1.574
 9890SOL    HW130569   0.795   3.605   1.482
 9890SOL    HW230570   0.933   3.615   1.568
 9891SOL     OW30571   5.992   5.756   1.498
 9891SOL    HW130572   6.088   5.743   1.474
 9891SOL    HW230573   5.985   5.784   1.594
 9892SOL     OW30574   1.872   5.304   4.039
 9892SOL    HW130575   1.871   5.211   4.076
 9892SOL    HW230576   1.927   5.363   4.098
 9893SOL     OW30577   4.888   5.323   3.916
 9893SOL    HW130578   4.940   5.239   3.903
 9893SOL    HW230579   4.908   5.387   3.842
 9894SOL     OW30580   4.548   3.238   5.877
 9894SOL    HW130581   4.597   3.150   5.877
 9894SOL    HW230582   4.612   3.311   5.902
 9895SOL     OW30583   5.641   2.084   6.747
 9895SOL    HW130584   5.575   2.157   6.730
 9895SOL    HW230585   5.638   2.018   6.672
 9896SOL     OW30586   4.438   3.436   0.379
 9896SOL    HW130587   4.459   3.352   0.430
 9896SOL    HW230588   4.518   3.463   0.325
 9897SOL     OW30589   6.820   2.084   4.084
 9897SOL    HW130590   6.737   2.113   4.035
 9897SOL    HW230591   6.804   1.994   4.125
 9898SOL     OW30592   1.172   5.562   5.547
 9898SOL    HW130593   1.135   5.653   5.532
 9898SOL    HW230594   1.110   5.494   5.508
 9899SOL     OW30595   5.014   5.138   1.919
 9899SOL    HW130596   4.970   5.153   2.008
 9899SOL    HW230597   5.024   5.225   1.871
 9900SOL     OW30598   0.900   3.505   3.073
 9900SOL    HW130599   0.880   3.408   3.070
 9900SOL    HW230600   0.907   3.535   3.168
 9901SOL     OW30601   2.856   1.876   5.348
 9901SOL    HW130602   2.779   1.867   5.285
 9901SOL    HW230603   2.901   1.787   5.359
 9902SOL     OW30604   4.617   4.035   6.840
 9902SOL    HW130605   4.603   3.942   6.804
 9902SOL    HW230606   4.553   4.051   6.915
 9903SOL     OW30607   3.685   1.373   1.268
 9903SOL    HW130608   3.780   1.394   1.290
 9903SOL    HW230609   3.681   1.314   1.187
 9904SOL     OW30610   6.441   0.619   2.044
 9904SOL    HW130611   6.365   0.682   2.032
 9904SOL    HW230612   6.509   0.660   2.105
 9905SOL     OW30613   1.512   6.195   5.813
 9905SOL    HW130614   1.545   6.112   5.859
 9905SOL    HW230615   1.566   6.274   5.843
 9906SOL     OW30616   3.238   3.518   5.786
 9906SOL    HW130617   3.145   3.494   5.814
 9906SOL    HW230618   3.277   3.443   5.733
 9907SOL     OW30619   1.644   6.464   2.302
 9907SOL    HW130620   1.644   6.424   2.394
 9907SOL    HW230621   1.738   6.478   2.272
 9908SOL     OW30622   1.083   3.649   4.818
 9908SOL    HW130623   1.044   3.733   4.857
 9908SOL    HW230624   1.023   3.572   4.838
 9909SOL     OW30625   3.698   6.705   2.616
 9909SOL    HW130626   3.721   6.710   2.713
 9909SOL    HW230627   3.600   6.722   2.604
 9910SOL     OW30628   0.403   4.275   2.284
 9910SOL    HW130629   0.486   4.226   2.257
 9910SOL    HW230630   0.413   4.308   2.378
 9911SOL     OW30631   3.116   4.919   3.330
 9911SOL    HW130632   3.212   4.930   3.304
 9911SOL    HW230633   3.108   4.926   3.430
 9912SOL     OW30634   4.524   0.014   1.135
 9912SOL    HW130635   4.594   0.055   1.193
 9912SOL    HW230636   4.527   0.056   1.044
 9913SOL     OW30637   4.831   1.941   2.572
 9913SOL    HW130638   4.863   1.864   2.628
 9913SOL    HW230639   4.789   2.010   2.631
 9914SOL     OW30640   1.765   5.734   5.772
 9914SOL    HW130641   1.769   5.831   5.751
 9914SOL    HW230642   1.704   5.688   5.707
 9915SOL     OW30643   5.518   3.671   4.602
 9915SOL    HW130644   5.423   3.650   4.624
 9915SOL    HW230645   5.574   3.588   4.614
 9916SOL     OW30646   2.430   3.197   1.076
 9916SOL    HW130647   2.488   3.267   1.118
 9916SOL    HW230648   2.348   3.184   1.131
 9917SOL     OW30649   2.429   3.352   5.313
 9917SOL    HW130650   2.516   3.307   5.295
 9917SOL    HW230651   2.386   3.311   5.394
 9918SOL     OW30652   1.959   1.557   5.064
 9918SOL    HW130653   2.034   1.614   5.029
 9918SOL    HW230654   1.974   1.462   5.038
 9919SOL     OW30655   0.002   5.259   2.838
 9919SOL    HW130656   0.063   5.215   2.904
 9919SOL    HW230657   6.984   5.342   2.879
 9920SOL     OW30658   4.044   6.536   1.778
 9920SOL    HW130659   4.001   6.576   1.859
 9920SOL    HW230660   4.143   6.545   1.785
 9921SOL     OW30661   4.626   0.100   3.031
 9921SOL    HW130662   4.527   0.115   3.033
 9921SOL    HW230663   4.672   0.171   3.085
 9922SOL     OW30664   4.576   3.333   1.458
 9922SOL    HW130665   4.572   3.254   1.519
 9922SOL    HW230666   4.585   3.301   1.363
 9923SOL     OW30667   6.393   1.187   6.202
 9923SOL    HW130668   6.351   1.278   6.200
 9923SOL    HW230669   6.334   1.125   6.254
 9924SOL     OW30670   5.448   0.721   3.235
 9924SOL    HW130671   5.414   0.782   3.164
 9924SOL    HW230672   5.377   0.706   3.304
 9925SOL     OW30673   2.516   2.594   4.702
 9925SOL    HW130674   2.560   2.658   4.765
 9925SOL    HW230675   2.517   2.502   4.740
 9926SOL     OW30676   1.436   1.357   0.359
 9926SOL    HW130677   1.497   1.326   0.286
 9926SOL    HW230678   1.426   1.456   0.354
 9927SOL     OW30679   0.822   2.719   2.486
 9927SOL    HW130680   0.824   2.695   2.389
 9927SOL    HW230681   0.853   2.814   2.497
 9928SOL     OW30682   6.699   3.202   2.431
 9928SOL    HW130683   6.770   3.257   2.474
 9928SOL    HW230684   6.721   3.105   2.441
 9929SOL     OW30685   2.305   4.087   5.967
 9929SOL    HW130686   2.301   4.029   6.048
 9929SOL    HW230687   2.399   4.112   5.948
 9930SOL     OW30688   0.180   5.943   0.181
 9930SOL    HW130689   0.204   5.874   0.250
 9930SOL    HW230690   0.256   6.006   0.169
 9931SOL     OW30691   2.848   5.173   6.795
 9931SOL    HW130692   2.798   5.244   6.844
 9931SOL    HW230693   2.785   5.118   6.741
 9932SOL     OW30694   1.871   2.407   0.139
 9932SOL    HW130695   1.867   2.318   0.184
 9932SOL    HW230696   1.861   2.395   0.041
 9933SOL     OW30697   0.925   1.829   3.589
 9933SOL    HW130698   0.936   1.913   3.641
 9933SOL    HW230699   1.001   1.767   3.609
 9934SOL     OW30700   4.633   1.670   6.817
 9934SOL    HW130701   4.569   1.636   6.886
 9934SOL    HW230702   4.657   1.596   6.755
 9935SOL     OW30703   2.630   2.200   1.069
 9935SOL    HW130704   2.729   2.196   1.085
 9935SOL    HW230705   2.591   2.272   1.126
 9936SOL     OW30706   6.319   6.506   6.088
 9936SOL    HW130707   6.307   6.512   6.187
 9936SOL    HW230708   6.323   6.410   6.060
 9937SOL     OW30709   0.867   0.346   3.621
 9937SOL    HW130710   0.954   0.312   3.585
 9937SOL    HW230711   0.883   0.435   3.666
 9938SOL     OW30712   6.957   1.841   3.054
 9938SOL    HW130713   7.002   1.788   3.126
 9938SOL    HW230714   6.926   1.779   2.981
 9939SOL     OW30715   3.532   4.283   1.339
 9939SOL    HW130716   3.456   4.321   1.287
 9939SOL    HW230717   3.557   4.194   1.302
 9940SOL     OW30718   0.008   1.008   3.321
 9940SOL    HW130719   6.968   0.929   3.321
 9940SOL    HW230720   6.989   1.081   3.376
 9941SOL     OW30721   5.532   5.027   0.168
 9941SOL    HW130722   5.493   4.999   0.080
 9941SOL    HW230723   5.497   4.967   0.240
 9942SOL     OW30724   5.080   5.076   2.826
 9942SOL    HW130725   5.050   4.983   2.801
 9942SOL    HW230726   5.180   5.077   2.833
 9943SOL     OW30727   1.806   4.172   5.703
 9943SOL    HW130728   1.876   4.179   5.774
 9943SOL    HW230729   1.744   4.097   5.725
 9944SOL     OW30730   0.794   5.015   5.964
 9944SOL    HW130731   0.720   4.971   6.014
 9944SOL    HW230732   0.881   4.995   6.009
 9945SOL     OW30733   6.797   3.561   5.966
 9945SOL    HW130734   6.783   3.487   5.899
 9945SOL    HW230735   6.730   3.551   6.040
 9946SOL     OW30736   5.262   2.016   1.848
 9946SOL    HW130737   5.166   2.004   1.824
 9946SOL    HW230738   5.281   2.113   1.861
 9947SOL     OW30739   1.029   1.872   3.960
 9947SOL    HW130740   0.974   1.800   3.919
 9947SOL    HW230741   0.981   1.960   3.951
 9948SOL     OW30742   5.604   7.015   4.712
 9948SOL    HW130743   5.540   0.056   4.759
 9948SOL    HW230744   5.624   0.030   4.621
 9949SOL     OW30745   6.450   5.226   3.401
 9949SOL    HW130746   6.467   5.324   3.414
 9949SOL    HW230747   6.387   5.193   3.471
 9950SOL     OW30748   5.260   3.960   5.228
 9950SOL    HW130749   5.174   4.008   5.244
 9950SOL    HW230750   5.334   4.027   5.221
 9951SOL     OW30751   0.667   1.857   3.498
 9951SOL    HW130752   0.765   1.865   3.516
 9951SOL    HW230753   0.625   1.948   3.504
 9952SOL     OW30754   0.915   5.052   1.831
 9952SOL    HW130755   0.929   5.143   1.869
 9952SOL    HW230756   0.825   5.018   1.858
 9953SOL     OW30757   5.925   2.868   3.925
 9953SOL    HW130758   5.970   2.927   3.858
 9953SOL    HW230759   5.871   2.924   3.987
 9954SOL     OW30760   3.814   1.468   6.853
 9954SOL    HW130761   3.757   1.387   6.834
 9954SOL    HW230762   3.778   1.514   6.934
 9955SOL     OW30763   5.420   4.453   0.826
 9955SOL    HW130764   5.475   4.413   0.899
 9955SOL    HW230765   5.360   4.383   0.787
 9956SOL     OW30766   2.145   3.426   3.354
 9956SOL    HW130767   2.050   3.400   3.368
 9956SOL    HW230768   2.204   3.350   3.381
 9957SOL     OW30769   5.412   0.322   0.223
 9957SOL    HW130770   5.367   0.412   0.226
 9957SOL    HW230771   5.495   0.324   0.278
 9958SOL     OW30772   5.378   6.225   0.136
 9958SOL    HW130773   5.311   6.256   0.068
 9958SOL    HW230774   5.332   6.211   0.223
 9959SOL     OW30775   4.892   5.001   0.673
 9959SOL    HW130776   4.989   4.985   0.657
 9959SOL    HW230777   4.847   4.915   0.697
 9960SOL     OW30778   0.522   0.014   0.422
 9960SOL    HW130779   0.590   7.005   0.355
 9960SOL    HW230780   0.482   6.954   0.467
 9961SOL     OW30781   2.919   5.402   1.240
 9961SOL    HW130782   2.946   5.327   1.179
 9961SOL    HW230783   2.997   5.428   1.297
 9962SOL     OW30784   2.864   0.217   1.572
 9962SOL    HW130785   2.854   0.204   1.671
 9962SOL    HW230786   2.788   0.273   1.538
 9963SOL     OW30787   0.686   0.638   5.910
 9963SOL    HW130788   0.680   0.585   5.994
 9963SOL    HW230789   0.731   0.726   5.929
 9964SOL     OW30790   4.666   4.390   6.004
 9964SOL    HW130791   4.609   4.471   5.989
 9964SOL    HW230792   4.623   4.310   5.963
 9965SOL     OW30793   2.590   5.513   3.877
 9965SOL    HW130794   2.623   5.479   3.965
 9965SOL    HW230795   2.661   5.501   3.808
 9966SOL     OW30796   3.552   4.952   2.461
 9966SOL    HW130797   3.503   4.917   2.381
 9966SOL    HW230798   3.487   4.982   2.530
 9967SOL     OW30799   6.795   6.677   3.108
 9967SOL    HW130800   6.731   6.658   3.034
 9967SOL    HW230801   6.756   6.647   3.195
 9968SOL     OW30802   3.760   6.216   0.140
 9968SOL    HW130803   3.832   6.284   0.128
 9968SOL    HW230804   3.780   6.161   0.221
 9969SOL     OW30805   0.966   5.964   3.390
 9969SOL    HW130806   0.960   6.056   3.427
 9969SOL    HW230807   0.942   5.898   3.461
 9970SOL     OW30808   6.738   3.797   1.539
 9970SOL    HW130809   6.661   3.862   1.542
 9970SOL    HW230810   6.791   3.804   1.624
 9971SOL     OW30811   1.069   5.340   3.569
 9971SOL    HW130812   1.041   5.254   3.527
 9971SOL    HW230813   0.989   5.384   3.611
 9972SOL     OW30814   2.850   3.843   6.669
 9972SOL    HW130815   2.941   3.868   6.702
 9972SOL    HW230816   2.796   3.926   6.656
 9973SOL     OW30817   2.310   2.375   3.298
 9973SOL    HW130818   2.342   2.282   3.278
 9973SOL    HW230819   2.293   2.384   3.396
 9974SOL     OW30820   1.259   3.003   2.722
 9974SOL    HW130821   1.199   3.013   2.643
 9974SOL    HW230822   1.310   2.917   2.714
 9975SOL     OW30823   2.432   4.676   7.003
 9975SOL    HW130824   2.438   4.579   0.008
 9975SOL    HW230825   2.523   4.709   6.978
 9976SOL     OW30826   3.661   4.361   6.206
 9976SOL    HW130827   3.571   4.337   6.172
 9976SOL    HW230828   3.670   4.328   6.301
 9977SOL     OW30829   4.728   7.013   5.318
 9977SOL    HW130830   4.801   6.944   5.312
 9977SOL    HW230831   4.701   0.005   5.413
 9978SOL     OW30832   0.867   3.546   6.762
 9978SOL    HW130833   0.910   3.543   6.672
 9978SOL    HW230834   0.890   3.633   6.807
 9979SOL     OW30835   3.563   3.219   5.073
 9979SOL    HW130836   3.572   3.315   5.047
 9979SOL    HW230837   3.649   3.187   5.112
 9980SOL     OW30838   2.360   1.591   0.787
 9980SOL    HW130839   2.419   1.573   0.866
 9980SOL    HW230840   2.416   1.601   0.705
 9981SOL     OW30841   6.345   2.234   0.906
 9981SOL    HW130842   6.403   2.302   0.862
 9981SOL    HW230843   6.252   2.270   0.915
 9982SOL     OW30844   1.939   2.045   4.429
 9982SOL    HW130845   1.930   2.138   4.465
 9982SOL    HW230846   1.937   2.049   4.329
 9983SOL     OW30847   0.995   3.193   2.120
 9983SOL    HW130848   1.091   3.188   2.147
 9983SOL    HW230849   0.972   3.112   2.065
 9984SOL     OW30850   0.297   5.386   1.214
 9984SOL    HW130851   0.248   5.301   1.228
 9984SOL    HW230852   0.377   5.389   1.275
 9985SOL     OW30853   5.014   4.820   6.987
 9985SOL    HW130854   4.957   4.834   0.047
 9985SOL    HW230855   4.995   4.891   6.920
 9986SOL     OW30856   5.408   5.062   6.815
 9986SOL    HW130857   5.459   5.146   6.796
 9986SOL    HW230858   5.336   5.050   6.748
 9987SOL     OW30859   5.110   3.013   1.303
 9987SOL    HW130860   5.171   3.090   1.290
 9987SOL    HW230861   5.077   3.011   1.397
 9988SOL     OW30862   5.820   6.079   3.883
 9988SOL    HW130863   5.842   6.033   3.797
 9988SOL    HW230864   5.748   6.146   3.867
 9989SOL     OW30865   6.996   5.362   2.601
 9989SOL    HW130866   0.003   5.455   2.625
 9989SOL    HW230867   7.008   5.302   2.680
 9990SOL     OW30868   0.187   6.610   3.963
 9990SOL    HW130869   0.145   6.657   4.041
 9990SOL    HW230870   0.163   6.657   3.879
 9991SOL     OW30871   1.674   4.790   3.180
 9991SOL    HW130872   1.750   4.742   3.136
 9991SOL    HW230873   1.704   4.826   3.268
 9992SOL     OW30874   3.103   4.410   0.980
 9992SOL    HW130875   3.029   4.473   1.003
 9992SOL    HW230876   3.067   4.317   0.977
 9993SOL     OW30877   3.361   6.194   4.351
 9993SOL    HW130878   3.343   6.095   4.346
 9993SOL    HW230879   3.459   6.210   4.347
 9994SOL     OW30880   5.607   5.539   4.875
 9994SOL    HW130881   5.671   5.495   4.938
 9994SOL    HW230882   5.540   5.473   4.842
 9995SOL     OW30883   2.951   0.178   5.069
 9995SOL    HW130884   2.859   0.198   5.103
 9995SOL    HW230885   2.973   0.241   4.995
 9996SOL     OW30886   3.094   3.453   0.918
 9996SOL    HW130887   3.150   3.418   0.994
 9996SOL    HW230888   3.001   3.417   0.926
 9997SOL     OW30889   5.957   2.520   3.593
 9997SOL    HW130890   5.931   2.612   3.564
 9997SOL    HW230891   5.942   2.511   3.692
 9998SOL     OW30892   4.891   4.377   2.389
 9998SOL    HW130893   4.955   4.441   2.348
 9998SOL    HW230894   4.864   4.309   2.321
 9999SOL     OW30895   0.771   0.121   3.779
 9999SOL    HW130896   0.792   0.181   3.702
 9999SOL    HW230897   0.674   0.099   3.779
10000SOL     OW30898   5.029   2.327   1.395
10000SOL    HW130899   5.049   2.424   1.381
10000SOL    HW230900   5.037   2.278   1.308
10001SOL     OW30901   4.300   6.204   1.923
10001SOL    HW130902   4.336   6.118   1.960
10001SOL    HW230903   4.229   6.239   1.984
10002SOL     OW30904   2.965   1.303   2.172
10002SOL    HW130905   2.883   1.246   2.164
10002SOL    HW230906   3.046   1.245   2.166
10003SOL     OW30907   1.579   0.662   3.846
10003SOL    HW130908   1.590   0.603   3.926
10003SOL    HW230909   1.509   0.731   3.864
10004SOL     OW30910   6.625   3.938   4.852
10004SOL    HW130911   6.541   3.919   4.801
10004SOL    HW230912   6.693   3.866   4.834
10005SOL     OW30913   2.274   5.193   3.099
10005SOL    HW130914   2.271   5.185   3.199
10005SOL    HW230915   2.359   5.239   3.072
10006SOL     OW30916   5.389   0.217   4.817
10006SOL    HW130917   5.397   0.161   4.899
10006SOL    HW230918   5.439   0.303   4.830
10007SOL     OW30919   1.650   5.249   4.653
10007SOL    HW130920   1.622   5.337   4.692
10007SOL    HW230921   1.575   5.184   4.661
10008SOL     OW30922   4.171   1.062   6.226
10008SOL    HW130923   4.228   1.034   6.304
10008SOL    HW230924   4.162   1.161   6.226
10009SOL     OW30925   1.479   3.092   2.385
10009SOL    HW130926   1.550   3.074   2.318
10009SOL    HW230927   1.519   3.136   2.465
10010SOL     OW30928   2.610   3.615   0.416
10010SOL    HW130929   2.611   3.640   0.319
10010SOL    HW230930   2.598   3.697   0.471
10011SOL     OW30931   2.117   3.717   6.992
10011SOL    HW130932   2.079   3.625   7.000
10011SOL    HW230933   2.075   3.776   0.040
10012SOL     OW30934   5.806   2.241   3.207
10012SOL    HW130935   5.766   2.267   3.295
10012SOL    HW230936   5.735   2.239   3.137
10013SOL     OW30937   0.320   5.745   5.164
10013SOL    HW130938   0.290   5.789   5.249
10013SOL    HW230939   0.420   5.733   5.167
10014SOL     OW30940   0.996   0.273   3.243
10014SOL    HW130941   1.039   0.202   3.299
10014SOL    HW230942   1.030   0.268   3.149
10015SOL     OW30943   4.349   4.502   5.683
10015SOL    HW130944   4.340   4.403   5.672
10015SOL    HW230945   4.432   4.523   5.734
10016SOL     OW30946   2.194   0.095   3.123
10016SOL    HW130947   2.161   0.071   3.214
10016SOL    HW230948   2.138   0.049   3.054
10017SOL     OW30949   2.526   2.066   2.448
10017SOL    HW130950   2.474   2.127   2.507
10017SOL    HW230951   2.578   2.002   2.504
10018SOL     OW30952   0.042   3.490   5.921
10018SOL    HW130953   0.050   3.483   5.821
10018SOL    HW230954   6.972   3.528   5.943
10019SOL     OW30955   0.340   1.933   2.534
10019SOL    HW130956   0.293   1.922   2.446
10019SOL    HW230957   0.303   2.012   2.582
10020SOL     OW30958   6.334   0.634   2.374
10020SOL    HW130959   6.306   0.711   2.316
10020SOL    HW230960   6.268   0.560   2.367
10021SOL     OW30961   1.002   3.821   2.490
10021SOL    HW130962   1.052   3.752   2.542
10021SOL    HW230963   1.060   3.856   2.417
10022SOL     OW30964   2.629   5.329   6.864
10022SOL    HW130965   2.619   5.389   6.944
10022SOL    HW230966   2.628   5.384   6.781
10023SOL     OW30967   1.973   0.060   5.837
10023SOL    HW130968   1.886   0.071   5.884
10023SOL    HW230969   1.982   0.131   5.767
10024SOL     OW30970   1.336   4.892   2.313
10024SOL    HW130971   1.291   4.810   2.275
10024SOL    HW230972   1.406   4.924   2.249
10025SOL     OW30973   1.188   4.513   1.931
10025SOL    HW130974   1.179   4.477   2.024
10025SOL    HW230975   1.229   4.604   1.935
10026SOL     OW30976   5.321   1.733   4.357
10026SOL    HW130977   5.419   1.748   4.371
10026SOL    HW230978   5.307   1.682   4.272
10027SOL     OW30979   2.641   1.825   5.566
10027SOL    HW130980   2.585   1.822   5.484
10027SOL    HW230981   2.706   1.900   5.560
10028SOL     OW30982   4.786   0.690   1.049
10028SOL    HW130983   4.733   0.733   0.977
10028SOL    HW230984   4.725   0.635   1.107
10029SOL     OW30985   0.286   3.596   5.031
10029SOL    HW130986   0.377   3.634   5.015
10029SOL    HW230987   0.238   3.652   5.099
10030SOL     OW30988   2.351   6.845   5.071
10030SOL    HW130989   2.376   6.930   5.024
10030SOL    HW230990   2.264   6.858   5.119
10031SOL     OW30991   2.833   4.846   3.891
10031SOL    HW130992   2.835   4.839   3.791
10031SOL    HW230993   2.800   4.759   3.929
10032SOL     OW30994   3.197   6.119   5.192
10032SOL    HW130995   3.188   6.191   5.124
10032SOL    HW230996   3.144   6.143   5.273
10033SOL     OW30997   3.682   0.976   3.138
10033SOL    HW130998   3.766   0.956   3.189
10033SOL    HW230999   3.705   1.000   3.044
10034SOL     OW31000   2.506   0.899   3.945
10034SOL    HW131001   2.422   0.904   3.999
10034SOL    HW231002   2.489   0.846   3.862
10035SOL     OW31003   5.590   2.755   2.341
10035SOL    HW131004   5.687   2.779   2.331
10035SOL    HW231005   5.536   2.839   2.348
10036SOL     OW31006   0.179   0.553   6.959
10036SOL    HW131007   0.080   0.543   6.949
10036SOL    HW231008   0.214   0.479   7.017
10037SOL     OW31009   6.179   0.228   0.253
10037SOL    HW131010   6.159   0.326   0.256
10037SOL    HW231011   6.277   0.213   0.259
10038SOL     OW31012   4.476   6.900   6.765
10038SOL    HW131013   4.485   6.883   6.863
10038SOL    HW231014   4.537   6.974   6.738
10039SOL     OW31015   6.151   5.279   3.136
10039SOL    HW131016   6.219   5.299   3.065
10039SOL    HW231017   6.164   5.341   3.213
10040SOL     OW31018   3.547   6.887   0.910
10040SOL    HW131019   3.471   6.840   0.865
10040SOL    HW231020   3.579   6.961   0.851
10041SOL     OW31021   6.797   5.218   4.978
10041SOL    HW131022   6.759   5.195   4.889
10041SOL    HW231023   6.841   5.308   4.973
10042SOL     OW31024   0.420   0.631   4.579
10042SOL    HW131025   0.481   0.552   4.572
10042SOL    HW231026   0.430   0.687   4.496
10043SOL     OW31027   0.653   0.976   3.506
10043SOL    HW131028   0.744   0.936   3.497
10043SOL    HW231029   0.661   1.073   3.529
10044SOL     OW31030   2.404   1.644   6.063
10044SOL    HW131031   2.309   1.650   6.093
10044SOL    HW231032   2.437   1.734   6.035
10045SOL     OW31033   4.036   6.658   4.753
10045SOL    HW131034   3.948   6.701   4.771
10045SOL    HW231035   4.036   6.616   4.663
10046SOL     OW31036   0.231   2.760   1.535
10046SOL    HW131037   0.160   2.700   1.499
10046SOL    HW231038   0.234   2.752   1.635
10047SOL     OW31039   6.849   1.665   4.916
10047SOL    HW131040   6.789   1.601   4.965
10047SOL    HW231041   6.839   1.756   4.956
10048SOL     OW31042   3.590   1.306   1.648
10048SOL    HW131043   3.559   1.314   1.742
10048SOL    HW231044   3.674   1.360   1.636
10049SOL     OW31045   1.944   0.249   5.426
10049SOL    HW131046   1.964   0.188   5.349
10049SOL    HW231047   1.902   0.197   5.500
10050SOL     OW31048   5.016   2.771   4.022
10050SOL    HW131049   4.949   2.704   3.988
10050SOL    HW231050   5.076   2.799   3.948
10051SOL     OW31051   6.015   2.968   4.953
10051SOL    HW131052   6.082   3.037   4.978
10051SOL    HW231053   5.940   3.011   4.903
10052SOL     OW31054   1.148   3.673   1.690
10052SOL    HW131055   1.240   3.712   1.679
10052SOL    HW231056   1.147   3.614   1.771
10053SOL     OW31057   3.585   5.378   3.395
10053SOL    HW131058   3.594   5.477   3.398
10053SOL    HW231059   3.672   5.336   3.419
10054SOL     OW31060   4.041   5.518   5.129
10054SOL    HW131061   4.084   5.558   5.210
10054SOL    HW231062   3.957   5.569   5.108
10055SOL     OW31063   6.202   2.609   5.359
10055SOL    HW131064   6.265   2.682   5.332
10055SOL    HW231065   6.176   2.556   5.278
10056SOL     OW31066   6.299   4.778   1.745
10056SOL    HW131067   6.305   4.680   1.723
10056SOL    HW231068   6.382   4.806   1.794
10057SOL     OW31069   3.741   2.105   4.398
10057SOL    HW131070   3.836   2.119   4.427
10057SOL    HW231071   3.686   2.075   4.476
10058SOL     OW31072   0.473   5.573   3.907
10058SOL    HW131073   0.448   5.635   3.982
10058SOL    HW231074   0.561   5.602   3.870
10059SOL     OW31075   5.684   0.984   1.185
10059SOL    HW131076   5.678   1.055   1.115
10059SOL    HW231077   5.603   0.926   1.182
10060SOL     OW31078   2.733   2.573   1.752
10060SOL    HW131079   2.769   2.552   1.661
10060SOL    HW231080   2.778   2.515   1.819
10061SOL     OW31081   6.225   1.591   4.421
10061SOL    HW131082   6.143   1.555   4.466
10061SOL    HW231083   6.267   1.520   4.365
10062SOL     OW31084   6.779   5.740   3.223
10062SOL    HW131085   6.833   5.781   3.150
10062SOL    HW231086   6.839   5.702   3.293
10063SOL     OW31087   0.960   3.293   3.392
10063SOL    HW131088   1.034   3.231   3.365
10063SOL    HW231089   0.998   3.380   3.423
10064SOL     OW31090   5.503   6.206   4.627
10064SOL    HW131091   5.532   6.294   4.665
10064SOL    HW231092   5.461   6.221   4.538
10065SOL     OW31093   1.632   6.307   2.543
10065SOL    HW131094   1.710   6.276   2.596
10065SOL    HW231095   1.556   6.243   2.556
10066SOL     OW31096   0.832   6.999   4.034
10066SOL    HW131097   0.743   6.952   4.034
10066SOL    HW231098   0.839   0.037   3.953
10067SOL     OW31099   4.653   4.525   4.234
10067SOL    HW131100   4.704   4.605   4.266
10067SOL    HW231101   4.562   4.524   4.275
10068SOL     OW31102   5.210   3.816   4.989
10068SOL    HW131103   5.138   3.752   4.962
10068SOL    HW231104   5.187   3.856   5.078
10069SOL     OW31105   2.928   1.583   3.520
10069SOL    HW131106   3.018   1.584   3.564
10069SOL    HW231107   2.863   1.534   3.578
10070SOL     OW31108   0.871   6.827   4.732
10070SOL    HW131109   0.958   6.827   4.683
10070SOL    HW231110   0.803   6.775   4.679
10071SOL     OW31111   4.793   5.791   4.228
10071SOL    HW131112   4.881   5.756   4.195
10071SOL    HW231113   4.732   5.714   4.246
10072SOL     OW31114   0.298   6.699   3.179
10072SOL    HW131115   0.272   6.639   3.104
10072SOL    HW231116   0.356   6.773   3.144
10073SOL     OW31117   0.187   4.874   5.639
10073SOL    HW131118   0.176   4.777   5.663
10073SOL    HW231119   0.284   4.898   5.642
10074SOL     OW31120   1.876   0.264   6.261
10074SOL    HW131121   1.877   0.168   6.290
10074SOL    HW231122   1.852   0.268   6.164
10075SOL     OW31123   1.241   2.577   3.855
10075SOL    HW131124   1.219   2.673   3.837
10075SOL    HW231125   1.227   2.557   3.952
10076SOL     OW31126   4.619   6.720   4.663
10076SOL    HW131127   4.554   6.725   4.587
10076SOL    HW231128   4.599   6.639   4.719
10077SOL     OW31129   4.187   2.045   5.930
10077SOL    HW131130   4.180   1.994   6.016
10077SOL    HW231131   4.132   2.128   5.936
10078SOL     OW31132   5.792   0.163   5.435
10078SOL    HW131133   5.768   0.075   5.395
10078SOL    HW231134   5.868   0.204   5.384
10079SOL     OW31135   1.213   3.240   1.453
10079SOL    HW131136   1.291   3.288   1.492
10079SOL    HW231137   1.204   3.150   1.495
10080SOL     OW31138   1.838   2.639   0.337
10080SOL    HW131139   1.877   2.638   0.245
10080SOL    HW231140   1.887   2.573   0.395
10081SOL     OW31141   0.840   0.515   6.514
10081SOL    HW131142   0.914   0.469   6.562
10081SOL    HW231143   0.842   0.491   6.417
10082SOL     OW31144   6.270   2.485   1.632
10082SOL    HW131145   6.187   2.436   1.657
10082SOL    HW231146   6.310   2.444   1.550
10083SOL     OW31147   4.434   0.325   3.767
10083SOL    HW131148   4.387   0.341   3.854
10083SOL    HW231149   4.526   0.289   3.785
10084SOL     OW31150   2.206   1.118   6.138
10084SOL    HW131151   2.238   1.074   6.053
10084SOL    HW231152   2.276   1.107   6.209
10085SOL     OW31153   0.604   5.827   2.854
10085SOL    HW131154   0.632   5.734   2.878
10085SOL    HW231155   0.523   5.823   2.795
10086SOL     OW31156   5.941   4.235   1.867
10086SOL    HW131157   5.934   4.327   1.905
10086SOL    HW231158   5.893   4.232   1.779
10087SOL     OW31159   1.212   0.060   4.271
10087SOL    HW131160   1.208   0.153   4.308
10087SOL    HW231161   1.197   0.063   4.173
10088SOL     OW31162   1.059   6.957   4.877
10088SOL    HW131163   0.977   6.915   4.838
10088SOL    HW231164   1.111   7.003   4.805
10089SOL     OW31165   1.850   2.108   1.964
10089SOL    HW131166   1.782   2.143   2.028
10089SOL    HW231167   1.862   2.010   1.978
10090SOL     OW31168   1.132   4.282   0.941
10090SOL    HW131169   1.181   4.367   0.918
10090SOL    HW231170   1.183   4.204   0.906
10091SOL     OW31171   1.067   3.229   4.436
10091SOL    HW131172   0.988   3.269   4.389
10091SOL    HW231173   1.089   3.141   4.395
10092SOL     OW31174   1.668   3.593   5.307
10092SOL    HW131175   1.730   3.589   5.229
10092SOL    HW231176   1.672   3.684   5.348
10093SOL     OW31177   6.453   5.682   5.534
10093SOL    HW131178   6.364   5.703   5.494
10093SOL    HW231179   6.512   5.639   5.465
10094SOL     OW31180   1.919   1.500   2.788
10094SOL    HW131181   1.988   1.550   2.841
10094SOL    HW231182   1.937   1.512   2.690
10095SOL     OW31183   6.867   1.056   6.285
10095SOL    HW131184   6.895   1.061   6.381
10095SOL    HW231185   6.769   1.074   6.278
10096SOL     OW31186   0.211   5.638   2.364
10096SOL    HW131187   0.123   5.605   2.330
10096SOL    HW231188   0.283   5.616   2.298
10097SOL     OW31189   1.727   0.942   1.196
10097SOL    HW131190   1.630   0.953   1.178
10097SOL    HW231191   1.775   0.920   1.111
10098SOL     OW31192   2.288   5.523   6.370
10098SOL    HW131193   2.254   5.491   6.282
10098SOL    HW231194   2.345   5.604   6.357
10099SOL     OW31195   6.920   4.106   5.161
10099SOL    HW131196   6.960   4.198   5.161
10099SOL    HW231197   6.836   4.105   5.107
10100SOL     OW31198   4.908   0.619   4.969
10100SOL    HW131199   4.978   0.676   5.012
10100SOL    HW231200   4.818   0.642   5.006
10101SOL     OW31201   6.667   4.670   2.536
10101SOL    HW131202   6.718   4.695   2.618
10101SOL    HW231203   6.614   4.587   2.553
10102SOL     OW31204   2.992   1.834   2.293
10102SOL    HW131205   2.958   1.805   2.203
10102SOL    HW231206   2.942   1.915   2.323
10103SOL     OW31207   2.406   1.606   5.677
10103SOL    HW131208   2.485   1.577   5.622
10103SOL    HW231209   2.390   1.540   5.750
10104SOL     OW31210   0.820   5.368   4.998
10104SOL    HW131211   0.814   5.324   4.909
10104SOL    HW231212   0.750   5.439   5.005
10105SOL     OW31213   1.925   0.833   6.664
10105SOL    HW131214   1.965   0.793   6.582
10105SOL    HW231215   1.826   0.824   6.661
10106SOL     OW31216   4.914   6.177   0.921
10106SOL    HW131217   4.850   6.241   0.964
10106SOL    HW231218   5.007   6.214   0.928
10107SOL     OW31219   6.056   1.306   6.003
10107SOL    HW131220   6.077   1.329   6.098
10107SOL    HW231221   6.138   1.269   5.958
10108SOL     OW31222   6.476   6.909   0.397
10108SOL    HW131223   6.424   6.854   0.331
10108SOL    HW231224   6.531   6.848   0.454
10109SOL     OW31225   4.635   5.715   3.731
10109SOL    HW131226   4.643   5.764   3.644
10109SOL    HW231227   4.626   5.617   3.713
10110SOL     OW31228   3.793   0.308   5.890
10110SOL    HW131229   3.868   0.373   5.899
10110SOL    HW231230   3.751   0.318   5.799
10111SOL     OW31231   6.630   3.181   3.059
10111SOL    HW131232   6.647   3.082   3.067
10111SOL    HW231233   6.615   3.204   2.963
10112SOL     OW31234   5.209   3.713   5.647
10112SOL    HW131235   5.220   3.730   5.745
10112SOL    HW231236   5.127   3.659   5.631
10113SOL     OW31237   3.957   6.959   6.815
10113SOL    HW131238   3.897   6.930   6.741
10113SOL    HW231239   3.909   6.954   6.902
10114SOL     OW31240   5.024   1.196   0.622
10114SOL    HW131241   5.061   1.280   0.582
10114SOL    HW231242   5.098   1.130   0.635
10115SOL     OW31243   1.858   2.315   3.859
10115SOL    HW131244   1.913   2.247   3.811
10115SOL    HW231245   1.768   2.322   3.815
10116SOL     OW31246   0.259   0.717   1.196
10116SOL    HW131247   0.278   0.660   1.116
10116SOL    HW231248   0.332   0.784   1.207
10117SOL     OW31249   5.989   0.312   5.304
10117SOL    HW131250   5.929   0.290   5.227
10117SOL    HW231251   6.022   0.406   5.294
10118SOL     OW31252   6.594   5.202   2.687
10118SOL    HW131253   6.675   5.152   2.717
10118SOL    HW231254   6.513   5.146   2.705
10119SOL     OW31255   2.687   0.973   5.567
10119SOL    HW131256   2.599   0.972   5.616
10119SOL    HW231257   2.671   0.988   5.470
10120SOL     OW31258   0.678   3.164   3.630
10120SOL    HW131259   0.693   3.242   3.569
10120SOL    HW231260   0.609   3.103   3.589
10121SOL     OW31261   5.586   4.795   5.157
10121SOL    HW131262   5.591   4.713   5.100
10121SOL    HW231263   5.563   4.874   5.099
10122SOL     OW31264   5.179   3.097   7.012
10122SOL    HW131265   5.175   3.152   6.929
10122SOL    HW231266   5.135   3.147   0.067
10123SOL     OW31267   6.877   6.445   0.719
10123SOL    HW131268   6.976   6.448   0.737
10123SOL    HW231269   6.830   6.506   0.783
10124SOL     OW31270   3.180   4.021   0.198
10124SOL    HW131271   3.255   3.987   0.255
10124SOL    HW231272   3.164   3.956   0.123
10125SOL     OW31273   1.400   0.491   2.739
10125SOL    HW131274   1.373   0.485   2.643
10125SOL    HW231275   1.466   0.565   2.751
10126SOL     OW31276   6.392   5.136   0.651
10126SOL    HW131277   6.446   5.122   0.568
10126SOL    HW231278   6.335   5.218   0.640
10127SOL     OW31279   3.349   5.440   5.531
10127SOL    HW131280   3.414   5.370   5.559
10127SOL    HW231281   3.259   5.420   5.569
10128SOL     OW31282   6.523   2.040   0.565
10128SOL    HW131283   6.508   1.984   0.483
10128SOL    HW231284   6.613   2.019   0.604
10129SOL     OW31285   5.390   2.321   3.678
10129SOL    HW131286   5.316   2.385   3.698
10129SOL    HW231287   5.437   2.349   3.594
10130SOL     OW31288   0.024   5.818   2.767
10130SOL    HW131289   0.051   5.730   2.727
10130SOL    HW231290   0.044   5.892   2.703
10131SOL     OW31291   0.722   1.642   2.411
10131SOL    HW131292   0.716   1.598   2.321
10131SOL    HW231293   0.770   1.581   2.474
10132SOL     OW31294   3.038   6.835   2.874
10132SOL    HW131295   3.065   6.822   2.970
10132SOL    HW231296   2.944   6.871   2.870
10133SOL     OW31297   4.525   5.995   3.644
10133SOL    HW131298   4.549   6.038   3.731
10133SOL    HW231299   4.466   5.916   3.661
10134SOL     OW31300   6.868   1.123   3.545
10134SOL    HW131301   6.846   1.133   3.642
10134SOL    HW231302   6.962   1.092   3.535
10135SOL     OW31303   4.271   4.949   2.894
10135SOL    HW131304   4.250   4.871   2.835
10135SOL    HW231305   4.197   5.016   2.889
10136SOL     OW31306   6.182   0.339   3.421
10136SOL    HW131307   6.243   0.305   3.493
10136SOL    HW231308   6.220   0.424   3.383
10137SOL     OW31309   6.629   5.670   4.685
10137SOL    HW131310   6.681   5.605   4.630
10137SOL    HW231311   6.629   5.641   4.780
10138SOL     OW31312   5.893   2.168   0.266
10138SOL    HW131313   5.885   2.164   0.366
10138SOL    HW231314   5.875   2.078   0.227
10139SOL     OW31315   3.373   2.898   3.540
10139SOL    HW131316   3.376   2.921   3.442
10139SOL    HW231317   3.389   2.800   3.551
10140SOL     OW31318   6.611   5.391   6.975
10140SOL    HW131319   6.691   5.415   6.920
10140SOL    HW231320   6.633   5.312   0.012
10141SOL     OW31321   2.202   1.265   4.712
10141SOL    HW131322   2.296   1.261   4.678
10141SOL    HW231323   2.157   1.178   4.692
10142SOL     OW31324   4.157   6.318   5.063
10142SOL    HW131325   4.192   6.403   5.025
10142SOL    HW231326   4.194   6.241   5.010
10143SOL     OW31327   4.747   0.158   1.263
10143SOL    HW131328   4.819   0.203   1.211
10143SOL    HW231329   4.787   0.113   1.343
10144SOL     OW31330   3.099   5.677   5.077
10144SOL    HW131331   3.145   5.760   5.047
10144SOL    HW231332   3.140   5.645   5.162
10145SOL     OW31333   3.059   5.747   6.037
10145SOL    HW131334   2.977   5.691   6.025
10145SOL    HW231335   3.092   5.779   5.948
10146SOL     OW31336   4.045   5.600   4.339
10146SOL    HW131337   3.991   5.615   4.422
10146SOL    HW231338   4.013   5.661   4.267
10147SOL     OW31339   4.737   4.226   3.929
10147SOL    HW131340   4.751   4.131   3.900
10147SOL    HW231341   4.651   4.233   3.979
10148SOL     OW31342   6.192   5.761   0.800
10148SOL    HW131343   6.159   5.778   0.707
10148SOL    HW231344   6.125   5.797   0.866
10149SOL     OW31345   4.620   1.888   1.381
10149SOL    HW131346   4.551   1.907   1.452
10149SOL    HW231347   4.574   1.872   1.294
10150SOL     OW31348   4.857   4.738   0.606
10150SOL    HW131349   4.818   4.693   0.525
10150SOL    HW231350   4.931   4.682   0.642
10151SOL     OW31351   1.136   0.100   6.578
10151SOL    HW131352   1.152   0.003   6.563
10151SOL    HW231353   1.063   0.131   6.516
10152SOL     OW31354   0.999   4.794   3.479
10152SOL    HW131355   1.042   4.839   3.558
10152SOL    HW231356   1.071   4.766   3.415
10153SOL     OW31357   4.654   6.221   3.558
10153SOL    HW131358   4.622   6.227   3.463
10153SOL    HW231359   4.602   6.152   3.606
10154SOL     OW31360   6.658   6.050   5.875
10154SOL    HW131361   6.604   6.099   5.807
10154SOL    HW231362   6.747   6.026   5.836
10155SOL     OW31363   3.946   0.630   5.732
10155SOL    HW131364   3.895   0.616   5.817
10155SOL    HW231365   3.882   0.638   5.656
10156SOL     OW31366   5.469   0.156   2.508
10156SOL    HW131367   5.391   0.095   2.520
10156SOL    HW231368   5.498   0.157   2.413
10157SOL     OW31369   6.067   1.315   6.295
10157SOL    HW131370   5.978   1.358   6.283
10157SOL    HW231371   6.134   1.385   6.323
10158SOL     OW31372   4.810   3.639   0.156
10158SOL    HW131373   4.771   3.725   0.122
10158SOL    HW231374   4.901   3.626   0.117
10159SOL     OW31375   2.388   2.989   6.221
10159SOL    HW131376   2.487   2.988   6.232
10159SOL    HW231377   2.356   3.084   6.220
10160SOL     OW31378   0.373   4.557   3.388
10160SOL    HW131379   0.327   4.639   3.422
10160SOL    HW231380   0.379   4.560   3.289
10161SOL     OW31381   3.244   4.825   6.577
10161SOL    HW131382   3.181   4.860   6.507
10161SOL    HW231383   3.218   4.732   6.602
10162SOL     OW31384   2.468   3.259   6.371
10162SOL    HW131385   2.380   3.225   6.337
10162SOL    HW231386   2.454   3.345   6.420
10163SOL     OW31387   6.277   3.821   6.166
10163SOL    HW131388   6.367   3.862   6.178
10163SOL    HW231389   6.223   3.833   6.250
10164SOL     OW31390   6.355   3.280   4.864
10164SOL    HW131391   6.352   3.269   4.963
10164SOL    HW231392   6.450   3.272   4.832
10165SOL     OW31393   0.755   2.333   4.552
10165SOL    HW131394   0.790   2.393   4.625
10165SOL    HW231395   0.745   2.386   4.468
10166SOL     OW31396   3.194   1.521   1.553
10166SOL    HW131397   3.132   1.459   1.600
10166SOL    HW231398   3.200   1.607   1.604
10167SOL     OW31399   5.525   1.320   6.484
10167SOL    HW131400   5.622   1.339   6.470
10167SOL    HW231401   5.472   1.363   6.411
10168SOL     OW31402   6.887   4.445   4.500
10168SOL    HW131403   6.878   4.457   4.599
10168SOL    HW231404   6.961   4.504   4.466
10169SOL     OW31405   6.325   4.841   3.217
10169SOL    HW131406   6.287   4.838   3.309
10169SOL    HW231407   6.423   4.823   3.220
10170SOL     OW31408   1.119   4.336   5.077
10170SOL    HW131409   1.113   4.329   4.977
10170SOL    HW231410   1.074   4.256   5.118
10171SOL     OW31411   6.842   4.179   6.018
10171SOL    HW131412   6.872   4.136   5.933
10171SOL    HW231413   6.895   4.143   6.094
10172SOL     OW31414   5.445   0.804   2.731
10172SOL    HW131415   5.429   0.880   2.794
10172SOL    HW231416   5.358   0.770   2.695
10173SOL     OW31417   1.907   1.717   0.941
10173SOL    HW131418   1.960   1.695   1.023
10173SOL    HW231419   1.957   1.782   0.885
10174SOL     OW31420   5.675   4.574   3.134
10174SOL    HW131421   5.581   4.543   3.120
10174SOL    HW231422   5.723   4.576   3.046
10175SOL     OW31423   6.294   2.466   4.427
10175SOL    HW131424   6.381   2.498   4.463
10175SOL    HW231425   6.275   2.511   4.340
10176SOL     OW31426   1.557   3.283   6.599
10176SOL    HW131427   1.475   3.246   6.643
10176SOL    HW231428   1.535   3.310   6.505
10177SOL     OW31429   3.555   6.848   0.170
10177SOL    HW131430   3.586   6.786   0.242
10177SOL    HW231431   3.509   6.927   0.211
10178SOL     OW31432   5.968   3.044   4.407
10178SOL    HW131433   6.007   2.956   4.434
10178SOL    HW231434   5.868   3.040   4.416
10179SOL     OW31435   0.627   2.093   6.468
10179SOL    HW131436   0.560   2.062   6.401
10179SOL    HW231437   0.580   2.130   6.549
10180SOL     OW31438   2.920   5.647   5.709
10180SOL    HW131439   2.885   5.605   5.792
10180SOL    HW231440   2.976   5.581   5.659
10181SOL     OW31441   5.512   3.580   1.491
10181SOL    HW131442   5.574   3.571   1.568
10181SOL    HW231443   5.434   3.518   1.503
10182SOL     OW31444   5.535   1.363   1.503
10182SOL    HW131445   5.594   1.293   1.462
10182SOL    HW231446   5.562   1.378   1.598
10183SOL     OW31447   1.208   1.897   6.672
10183SOL    HW131448   1.171   1.981   6.711
10183SOL    HW231449   1.217   1.907   6.573
10184SOL     OW31450   4.633   1.786   6.201
10184SOL    HW131451   4.543   1.801   6.244
10184SOL    HW231452   4.654   1.688   6.203
10185SOL     OW31453   4.886   6.759   0.943
10185SOL    HW131454   4.958   6.701   0.982
10185SOL    HW231455   4.842   6.811   1.016
10186SOL     OW31456   5.436   2.893   3.263
10186SOL    HW131457   5.400   2.834   3.191
10186SOL    HW231458   5.507   2.953   3.224
10187SOL     OW31459   0.593   2.135   1.796
10187SOL    HW131460   0.529   2.157   1.869
10187SOL    HW231461   0.672   2.088   1.834
10188SOL     OW31462   3.928   6.526   0.307
10188SOL    HW131463   3.932   6.475   0.393
10188SOL    HW231464   3.945   6.463   0.231
10189SOL     OW31465   2.285   6.450   5.283
10189SOL    HW131466   2.368   6.483   5.237
10189SOL    HW231467   2.232   6.394   5.220
10190SOL     OW31468   4.720   2.315   0.461
10190SOL    HW131469   4.725   2.309   0.561
10190SOL    HW231470   4.795   2.370   0.427
10191SOL     OW31471   5.111   4.480   6.625
10191SOL    HW131472   5.041   4.536   6.581
10191SOL    HW231473   5.175   4.539   6.674
10192SOL     OW31474   3.621   0.376   4.801
10192SOL    HW131475   3.673   0.444   4.852
10192SOL    HW231476   3.615   0.404   4.705
10193SOL     OW31477   4.403   4.293   1.089
10193SOL    HW131478   4.309   4.283   1.056
10193SOL    HW231479   4.464   4.303   1.010
10194SOL     OW31480   5.916   4.425   5.031
10194SOL    HW131481   5.974   4.359   4.983
10194SOL    HW231482   5.901   4.394   5.125
10195SOL     OW31483   6.009   4.376   1.449
10195SOL    HW131484   6.016   4.475   1.463
10195SOL    HW231485   6.022   4.355   1.352
10196SOL     OW31486   6.667   1.420   4.885
10196SOL    HW131487   6.619   1.414   4.797
10196SOL    HW231488   6.633   1.499   4.936
10197SOL     OW31489   6.610   0.738   4.862
10197SOL    HW131490   6.675   0.769   4.793
10197SOL    HW231491   6.518   0.735   4.822
10198SOL     OW31492   3.912   0.537   2.503
10198SOL    HW131493   3.909   0.443   2.468
10198SOL    HW231494   3.980   0.543   2.576
10199SOL     OW31495   1.095   2.899   5.300
10199SOL    HW131496   1.157   2.922   5.375
10199SOL    HW231497   1.023   2.838   5.334
10200SOL     OW31498   5.361   2.742   1.080
10200SOL    HW131499   5.288   2.711   1.142
10200SOL    HW231500   5.341   2.835   1.049
10201SOL     OW31501   1.438   4.158   1.071
10201SOL    HW131502   1.466   4.186   1.163
10201SOL    HW231503   1.344   4.187   1.054
10202SOL     OW31504   4.107   1.597   5.369
10202SOL    HW131505   4.117   1.594   5.469
10202SOL    HW231506   4.076   1.688   5.342
10203SOL     OW31507   5.566   2.373   5.157
10203SOL    HW131508   5.548   2.339   5.065
10203SOL    HW231509   5.635   2.316   5.201
10204SOL     OW31510   5.600   0.006   6.530
10204SOL    HW131511   5.513   0.025   6.484
10204SOL    HW231512   5.652   0.091   6.539
10205SOL     OW31513   1.220   0.764   6.756
10205SOL    HW131514   1.153   0.813   6.810
10205SOL    HW231515   1.173   0.709   6.686
10206SOL     OW31516   1.131   0.597   5.835
10206SOL    HW131517   1.092   0.651   5.909
10206SOL    HW231518   1.225   0.571   5.859
10207SOL     OW31519   1.570   1.894   5.787
10207SOL    HW131520   1.561   1.834   5.707
10207SOL    HW231521   1.481   1.935   5.807
10208SOL     OW31522   5.135   5.041   4.978
10208SOL    HW131523   5.042   5.034   5.014
10208SOL    HW231524   5.170   5.133   4.993
10209SOL     OW31525   6.823   0.177   5.931
10209SOL    HW131526   6.783   0.202   6.020
10209SOL    HW231527   6.759   0.198   5.858
10210SOL     OW31528   4.421   6.055   1.704
10210SOL    HW131529   4.360   6.064   1.782
10210SOL    HW231530   4.370   6.020   1.625
10211SOL     OW31531   3.884   6.492   5.563
10211SOL    HW131532   3.801   6.520   5.515
10211SOL    HW231533   3.905   6.559   5.635
10212SOL     OW31534   1.083   0.060   5.853
10212SOL    HW131535   1.060   6.991   5.815
10212SOL    HW231536   1.026   0.077   5.934
10213SOL     OW31537   5.564   2.062   0.340
10213SOL    HW131538   5.558   1.995   0.265
10213SOL    HW231539   5.541   2.153   0.305
10214SOL     OW31540   1.261   2.948   1.476
10214SOL    HW131541   1.247   2.864   1.528
10214SOL    HW231542   1.349   2.943   1.427
10215SOL     OW31543   3.645   3.544   2.635
10215SOL    HW131544   3.670   3.540   2.538
10215SOL    HW231545   3.728   3.553   2.690
10216SOL     OW31546   6.080   0.409   2.092
10216SOL    HW131547   6.143   0.336   2.066
10216SOL    HW231548   6.119   0.497   2.065
10217SOL     OW31549   2.838   1.011   3.925
10217SOL    HW131550   2.879   0.930   3.884
10217SOL    HW231551   2.743   1.019   3.894
10218SOL     OW31552   1.058   2.860   2.887
10218SOL    HW131553   1.120   2.914   2.830
10218SOL    HW231554   0.969   2.906   2.892
10219SOL     OW31555   0.590   1.335   2.220
10219SOL    HW131556   0.515   1.322   2.286
10219SOL    HW231557   0.553   1.369   2.134
10220SOL     OW31558   3.905   2.443   1.721
10220SOL    HW131559   3.888   2.541   1.730
10220SOL    HW231560   3.837   2.393   1.775
10221SOL     OW31561   1.335   6.320   2.776
10221SOL    HW131562   1.378   6.369   2.851
10221SOL    HW231563   1.275   6.382   2.725
10222SOL     OW31564   3.259   3.743   4.591
10222SOL    HW131565   3.260   3.761   4.493
10222SOL    HW231566   3.181   3.792   4.632
10223SOL     OW31567   0.908   5.721   1.098
10223SOL    HW131568   0.929   5.696   1.193
10223SOL    HW231569   0.821   5.679   1.071
10224SOL     OW31570   5.992   4.243   3.553
10224SOL    HW131571   5.957   4.335   3.570
10224SOL    HW231572   5.938   4.176   3.604
10225SOL     OW31573   2.199   3.538   5.856
10225SOL    HW131574   2.270   3.484   5.900
10225SOL    HW231575   2.177   3.498   5.766
10226SOL     OW31576   4.383   2.542   0.000
10226SOL    HW131577   4.409   2.515   0.093
10226SOL    HW231578   4.304   2.488   6.992
10227SOL     OW31579   6.158   4.110   0.768
10227SOL    HW131580   6.139   4.202   0.804
10227SOL    HW231581   6.135   4.107   0.671
10228SOL     OW31582   5.350   0.950   0.887
10228SOL    HW131583   5.285   0.968   0.813
10228SOL    HW231584   5.432   0.908   0.849
10229SOL     OW31585   0.745   3.482   4.827
10229SOL    HW131586   0.729   3.467   4.730
10229SOL    HW231587   0.826   3.432   4.855
10230SOL     OW31588   6.742   6.105   2.105
10230SOL    HW131589   6.768   6.017   2.143
10230SOL    HW231590   6.701   6.091   2.014
10231SOL     OW31591   1.400   6.207   3.108
10231SOL    HW131592   1.359   6.298   3.107
10231SOL    HW231593   1.488   6.209   3.059
10232SOL     OW31594   4.990   6.767   3.096
10232SOL    HW131595   5.008   6.864   3.113
10232SOL    HW231596   4.904   6.758   3.047
10233SOL     OW31597   4.277   4.180   6.619
10233SOL    HW131598   4.241   4.264   6.580
10233SOL    HW231599   4.346   4.141   6.557
10234SOL     OW31600   6.975   0.882   1.479
10234SOL    HW131601   6.995   0.810   1.413
10234SOL    HW231602   6.898   0.855   1.537
10235SOL     OW31603   0.972   1.266   3.542
10235SOL    HW131604   1.014   1.186   3.500
10235SOL    HW231605   0.996   1.269   3.639
10236SOL     OW31606   2.404   0.049   1.474
10236SOL    HW131607   2.347   0.112   1.422
10236SOL    HW231608   2.435   6.995   1.415
10237SOL     OW31609   0.651   3.644   6.579
10237SOL    HW131610   0.686   3.738   6.578
10237SOL    HW231611   0.694   3.593   6.653
10238SOL     OW31612   3.782   5.697   1.000
10238SOL    HW131613   3.738   5.778   1.040
10238SOL    HW231614   3.876   5.718   0.977
10239SOL     OW31615   1.641   2.334   4.541
10239SOL    HW131616   1.612   2.430   4.538
10239SOL    HW231617   1.683   2.315   4.630
10240SOL     OW31618   2.536   6.448   0.846
10240SOL    HW131619   2.469   6.468   0.773
10240SOL    HW231620   2.561   6.533   0.892
10241SOL     OW31621   3.996   2.489   1.472
10241SOL    HW131622   3.966   2.451   1.559
10241SOL    HW231623   4.088   2.454   1.450
10242SOL     OW31624   0.003   2.386   0.366
10242SOL    HW131625   6.969   2.359   0.446
10242SOL    HW231626   6.992   2.335   0.286
10243SOL     OW31627   2.453   5.143   1.239
10243SOL    HW131628   2.434   5.099   1.327
10243SOL    HW231629   2.428   5.240   1.243
10244SOL     OW31630   2.521   4.000   1.442
10244SOL    HW131631   2.510   4.027   1.538
10244SOL    HW231632   2.584   3.922   1.437
10245SOL     OW31633   3.851   4.563   0.660
10245SOL    HW131634   3.924   4.521   0.607
10245SOL    HW231635   3.790   4.615   0.600
10246SOL     OW31636   3.428   3.321   4.596
10246SOL    HW131637   3.382   3.240   4.632
10246SOL    HW231638   3.363   3.397   4.592
10247SOL     OW31639   1.113   3.613   4.477
10247SOL    HW131640   1.152   3.534   4.524
10247SOL    HW231641   1.020   3.629   4.510
10248SOL     OW31642   1.252   0.471   3.458
10248SOL    HW131643   1.248   0.546   3.525
10248SOL    HW231644   1.192   0.397   3.487
10249SOL     OW31645   2.179   4.621   6.421
10249SOL    HW131646   2.211   4.607   6.515
10249SOL    HW231647   2.208   4.543   6.365
10250SOL     OW31648   5.111   2.849   0.119
10250SOL    HW131649   5.153   2.919   0.060
10250SOL    HW231650   5.026   2.816   0.076
10251SOL     OW31651   2.069   0.286   4.564
10251SOL    HW131652   2.166   0.261   4.555
10251SOL    HW231653   2.058   0.384   4.548
10252SOL     OW31654   5.123   4.010   5.720
10252SOL    HW131655   5.161   3.955   5.794
10252SOL    HW231656   5.197   4.051   5.667
10253SOL     OW31657   4.164   6.511   6.727
10253SOL    HW131658   4.065   6.515   6.717
10253SOL    HW231659   4.193   6.578   6.795
10254SOL     OW31660   5.372   1.872   4.632
10254SOL    HW131661   5.300   1.894   4.566
10254SOL    HW231662   5.340   1.801   4.694
10255SOL     OW31663   3.637   5.413   1.980
10255SOL    HW131664   3.597   5.500   2.009
10255SOL    HW231665   3.565   5.345   1.966
10256SOL     OW31666   4.422   0.689   2.861
10256SOL    HW131667   4.323   0.681   2.858
10256SOL    HW231668   4.459   0.626   2.930
10257SOL     OW31669   3.112   5.269   2.801
10257SOL    HW131670   3.136   5.271   2.704
10257SOL    HW231671   3.014   5.248   2.810
10258SOL     OW31672   1.626   1.628   1.876
10258SOL    HW131673   1.536   1.613   1.834
10258SOL    HW231674   1.614   1.675   1.963
10259SOL     OW31675   0.780   3.586   4.209
10259SOL    HW131676   0.773   3.487   4.204
10259SOL    HW231677   0.705   3.628   4.158
10260SOL     OW31678   1.586   1.256   3.854
10260SOL    HW131679   1.559   1.305   3.937
10260SOL    HW231680   1.585   1.318   3.776
10261SOL     OW31681   6.497   3.806   0.753
10261SOL    HW131682   6.571   3.851   0.804
10261SOL    HW231683   6.414   3.806   0.809
10262SOL     OW31684   3.449   1.005   6.883
10262SOL    HW131685   3.484   0.943   6.953
10262SOL    HW231686   3.501   0.992   6.799
10263SOL     OW31687   5.607   0.684   1.977
10263SOL    HW131688   5.666   0.645   2.048
10263SOL    HW231689   5.548   0.612   1.941
10264SOL     OW31690   6.337   5.247   6.545
10264SOL    HW131691   6.374   5.154   6.552
10264SOL    HW231692   6.323   5.270   6.449
10265SOL     OW31693   2.177   1.876   0.320
10265SOL    HW131694   2.139   1.878   0.227
10265SOL    HW231695   2.147   1.957   0.370
10266SOL     OW31696   3.017   3.867   2.140
10266SOL    HW131697   3.049   3.776   2.168
10266SOL    HW231698   3.003   3.923   2.222
10267SOL     OW31699   5.827   0.994   0.715
10267SOL    HW131700   5.750   1.058   0.708
10267SOL    HW231701   5.812   0.918   0.652
10268SOL     OW31702   4.645   0.165   0.894
10268SOL    HW131703   4.734   0.127   0.867
10268SOL    HW231704   4.652   0.265   0.900
10269SOL     OW31705   2.248   2.357   6.339
10269SOL    HW131706   2.270   2.281   6.400
10269SOL    HW231707   2.159   2.340   6.296
10270SOL     OW31708   3.024   5.955   1.633
10270SOL    HW131709   3.108   5.901   1.633
10270SOL    HW231710   3.039   6.039   1.684
10271SOL     OW31711   1.596   2.258   0.211
10271SOL    HW131712   1.605   2.203   0.128
10271SOL    HW231713   1.586   2.354   0.187
10272SOL     OW31714   6.856   0.564   4.582
10272SOL    HW131715   6.780   0.505   4.609
10272SOL    HW231716   6.834   0.659   4.607
10273SOL     OW31717   2.314   4.900   3.531
10273SOL    HW131718   2.395   4.891   3.588
10273SOL    HW231719   2.317   4.986   3.481
10274SOL     OW31720   0.406   5.140   4.710
10274SOL    HW131721   0.421   5.057   4.655
10274SOL    HW231722   0.377   5.114   4.802
10275SOL     OW31723   0.305   0.349   2.916
10275SOL    HW131724   0.235   0.281   2.937
10275SOL    HW231725   0.265   0.440   2.921
10276SOL     OW31726   4.331   5.753   6.192
10276SOL    HW131727   4.422   5.793   6.185
10276SOL    HW231728   4.279   5.775   6.109
10277SOL     OW31729   0.976   6.516   4.526
10277SOL    HW131730   0.999   6.612   4.513
10277SOL    HW231731   0.887   6.508   4.570
10278SOL     OW31732   0.118   0.377   5.434
10278SOL    HW131733   0.217   0.365   5.449
10278SOL    HW231734   0.083   0.300   5.380
10279SOL     OW31735   1.856   5.624   4.207
10279SOL    HW131736   1.868   5.643   4.109
10279SOL    HW231737   1.910   5.543   4.232
10280SOL     OW31738   5.468   4.451   0.403
10280SOL    HW131739   5.520   4.372   0.372
10280SOL    HW231740   5.531   4.521   0.438
10281SOL     OW31741   6.537   2.159   3.618
10281SOL    HW131742   6.607   2.164   3.546
10281SOL    HW231743   6.473   2.086   3.597
10282SOL     OW31744   4.947   3.844   3.419
10282SOL    HW131745   4.881   3.895   3.363
10282SOL    HW231746   5.039   3.857   3.383
10283SOL     OW31747   0.302   4.150   0.919
10283SOL    HW131748   0.394   4.172   0.952
10283SOL    HW231749   0.268   4.069   0.967
10284SOL     OW31750   0.423   2.833   3.366
10284SOL    HW131751   0.356   2.794   3.303
10284SOL    HW231752   0.416   2.787   3.455
10285SOL     OW31753   4.773   6.077   4.241
10285SOL    HW131754   4.841   6.134   4.194
10285SOL    HW231755   4.778   5.984   4.207
10286SOL     OW31756   2.971   1.477   4.529
10286SOL    HW131757   2.875   1.467   4.553
10286SOL    HW231758   3.026   1.488   4.611
10287SOL     OW31759   2.296   5.509   2.617
10287SOL    HW131760   2.263   5.596   2.580
10287SOL    HW231761   2.219   5.453   2.647
10288SOL     OW31762   3.859   0.221   5.175
10288SOL    HW131763   3.827   0.251   5.265
10288SOL    HW231764   3.953   0.250   5.161
10289SOL     OW31765   2.440   6.227   6.877
10289SOL    HW131766   2.421   6.178   6.961
10289SOL    HW231767   2.514   6.181   6.827
10290SOL     OW31768   3.321   2.939   2.465
10290SOL    HW131769   3.256   2.938   2.541
10290SOL    HW231770   3.271   2.938   2.379
10291SOL     OW31771   3.271   1.487   2.284
10291SOL    HW131772   3.240   1.485   2.189
10291SOL    HW231773   3.371   1.489   2.287
10292SOL     OW31774   6.579   6.839   6.241
10292SOL    HW131775   6.538   6.909   6.300
10292SOL    HW231776   6.678   6.840   6.254
10293SOL     OW31777   0.787   3.840   3.795
10293SOL    HW131778   0.735   3.762   3.831
10293SOL    HW231779   0.803   3.827   3.697
10294SOL     OW31780   3.693   1.932   2.801
10294SOL    HW131781   3.718   1.991   2.724
10294SOL    HW231782   3.657   1.988   2.875
10295SOL     OW31783   0.992   2.243   0.021
10295SOL    HW131784   1.048   2.316   0.059
10295SOL    HW231785   0.895   2.266   0.033
10296SOL     OW31786   5.940   1.031   5.900
10296SOL    HW131787   6.013   1.027   5.832
10296SOL    HW231788   5.925   1.126   5.927
10297SOL     OW31789   2.922   1.796   6.632
10297SOL    HW131790   2.953   1.872   6.691
10297SOL    HW231791   2.890   1.833   6.545
10298SOL     OW31792   0.761   3.024   2.376
10298SOL    HW131793   0.764   3.100   2.312
10298SOL    HW231794   0.669   3.016   2.415
10299SOL     OW31795   4.414   6.435   2.233
10299SOL    HW131796   4.433   6.509   2.297
10299SOL    HW231797   4.317   6.438   2.206
10300SOL     OW31798   0.661   3.553   1.785
10300SOL    HW131799   0.571   3.595   1.773
10300SOL    HW231800   0.728   3.600   1.728
10301SOL     OW31801   4.579   0.761   6.642
10301SOL    HW131802   4.504   0.730   6.584
10301SOL    HW231803   4.623   0.682   6.685
10302SOL     OW31804   2.569   5.839   4.483
10302SOL    HW131805   2.565   5.773   4.408
10302SOL    HW231806   2.499   5.909   4.471
10303SOL     OW31807   0.969   6.397   4.823
10303SOL    HW131808   0.921   6.338   4.887
10303SOL    HW231809   0.909   6.473   4.796
10304SOL     OW31810   6.099   6.981   0.238
10304SOL    HW131811   6.121   0.051   0.275
10304SOL    HW231812   6.180   6.923   0.244
10305SOL     OW31813   2.443   3.873   6.112
10305SOL    HW131814   2.360   3.820   6.131
10305SOL    HW231815   2.502   3.873   6.192
10306SOL     OW31816   5.648   0.199   1.436
10306SOL    HW131817   5.576   0.133   1.414
10306SOL    HW231818   5.706   0.213   1.355
10307SOL     OW31819   3.037   0.632   4.577
10307SOL    HW131820   3.045   0.684   4.492
10307SOL    HW231821   3.085   0.544   4.567
10308SOL     OW31822   2.499   4.486   2.652
10308SOL    HW131823   2.410   4.508   2.610
10308SOL    HW231824   2.516   4.548   2.728
10309SOL     OW31825   6.603   1.479   5.621
10309SOL    HW131826   6.676   1.433   5.671
10309SOL    HW231827   6.630   1.492   5.525
10310SOL     OW31828   2.852   2.693   6.453
10310SOL    HW131829   2.897   2.722   6.369
10310SOL    HW231830   2.851   2.593   6.457
10311SOL     OW31831   5.480   6.344   6.707
10311SOL    HW131832   5.479   6.245   6.690
10311SOL    HW231833   5.481   6.393   6.619
10312SOL     OW31834   4.606   0.478   2.143
10312SOL    HW131835   4.666   0.400   2.160
10312SOL    HW231836   4.585   0.524   2.229
10313SOL     OW31837   4.713   6.566   2.759
10313SOL    HW131838   4.747   6.483   2.803
10313SOL    HW231839   4.613   6.562   2.753
10314SOL     OW31840   0.742   6.941   0.263
10314SOL    HW131841   0.772   6.876   0.332
10314SOL    HW231842   0.818   7.003   0.241
10315SOL     OW31843   5.232   6.303   3.414
10315SOL    HW131844   5.241   6.271   3.508
10315SOL    HW231845   5.207   6.226   3.355
10316SOL     OW31846   6.983   2.655   6.472
10316SOL    HW131847   0.053   2.632   6.506
10316SOL    HW231848   6.991   2.693   6.380
10317SOL     OW31849   3.446   5.998   5.899
10317SOL    HW131850   3.403   5.973   5.986
10317SOL    HW231851   3.418   6.091   5.873
10318SOL     OW31852   5.837   0.223   0.003
10318SOL    HW131853   5.835   0.137   0.054
10318SOL    HW231854   5.928   0.236   6.985
10319SOL     OW31855   0.434   4.700   4.272
10319SOL    HW131856   0.508   4.751   4.315
10319SOL    HW231857   0.394   4.753   4.198
10320SOL     OW31858   0.416   0.637   3.572
10320SOL    HW131859   0.362   0.678   3.498
10320SOL    HW231860   0.500   0.599   3.534
10321SOL     OW31861   5.793   2.283   1.626
10321SOL    HW131862   5.744   2.325   1.702
10321SOL    HW231863   5.751   2.195   1.602
10322SOL     OW31864   4.581   4.377   4.486
10322SOL    HW131865   4.515   4.438   4.530
10322SOL    HW231866   4.651   4.350   4.552
10323SOL     OW31867   0.322   4.438   5.176
10323SOL    HW131868   0.373   4.523   5.183
10323SOL    HW231869   0.310   4.399   5.267
10324SOL     OW31870   3.323   3.390   2.299
10324SOL    HW131871   3.357   3.296   2.300
10324SOL    HW231872   3.333   3.430   2.390
10325SOL     OW31873   0.162   5.767   2.060
10325SOL    HW131874   0.222   5.693   2.089
10325SOL    HW231875   0.076   5.762   2.111
10326SOL     OW31876   5.367   3.840   6.969
10326SOL    HW131877   5.333   3.790   6.889
10326SOL    HW231878   5.326   3.931   6.971
10327SOL     OW31879   2.857   4.162   1.273
10327SOL    HW131880   2.841   4.089   1.207
10327SOL    HW231881   2.836   4.129   1.365
10328SOL     OW31882   6.634   3.043   1.379
10328SOL    HW131883   6.726   3.041   1.418
10328SOL    HW231884   6.622   3.126   1.325
10329SOL     OW31885   3.202   1.573   2.931
10329SOL    HW131886   3.298   1.577   2.902
10329SOL    HW231887   3.169   1.666   2.949
10330SOL     OW31888   4.896   0.123   0.757
10330SOL    HW131889   4.981   0.074   0.777
10330SOL    HW231890   4.889   0.137   0.659
10331SOL     OW31891   6.672   5.623   0.108
10331SOL    HW131892   6.756   5.613   0.160
10331SOL    HW231893   6.644   5.533   0.073
10332SOL     OW31894   1.403   1.023   0.884
10332SOL    HW131895   1.316   1.071   0.888
10332SOL    HW231896   1.460   1.064   0.813
10333SOL     OW31897   0.925   5.747   4.205
10333SOL    HW131898   0.916   5.709   4.298
10333SOL    HW231899   0.958   5.676   4.143
10334SOL     OW31900   2.833   6.796   3.784
10334SOL    HW131901   2.837   6.698   3.801
10334SOL    HW231902   2.922   6.828   3.754
10335SOL     OW31903   0.375   3.994   5.989
10335SOL    HW131904   0.471   4.010   5.964
10335SOL    HW231905   0.337   3.923   5.930
10336SOL     OW31906   5.732   0.254   2.872
10336SOL    HW131907   5.691   0.163   2.873
10336SOL    HW231908   5.682   0.314   2.935
10337SOL     OW31909   6.320   5.729   0.363
10337SOL    HW131910   6.366   5.647   0.396
10337SOL    HW231911   6.280   5.711   0.273
10338SOL     OW31912   2.059   6.185   1.875
10338SOL    HW131913   2.078   6.111   1.939
10338SOL    HW231914   2.037   6.148   1.785
10339SOL     OW31915   6.941   2.901   5.621
10339SOL    HW131916   0.018   2.904   5.642
10339SOL    HW231917   6.889   2.912   5.706
10340SOL     OW31918   1.518   3.609   6.406
10340SOL    HW131919   1.529   3.533   6.343
10340SOL    HW231920   1.529   3.577   6.500
10341SOL     OW31921   2.192   2.899   2.363
10341SOL    HW131922   2.238   2.967   2.420
10341SOL    HW231923   2.115   2.941   2.316
10342SOL     OW31924   1.831   0.888   3.976
10342SOL    HW131925   1.869   0.837   3.899
10342SOL    HW231926   1.761   0.833   4.022
10343SOL     OW31927   2.187   5.666   0.947
10343SOL    HW131928   2.246   5.640   0.871
10343SOL    HW231929   2.115   5.597   0.958
10344SOL     OW31930   3.497   3.821   6.627
10344SOL    HW131931   3.511   3.798   6.723
10344SOL    HW231932   3.584   3.849   6.587
10345SOL     OW31933   1.438   2.960   5.198
10345SOL    HW131934   1.420   2.883   5.259
10345SOL    HW231935   1.444   3.044   5.252
10346SOL     OW31936   0.354   5.893   1.643
10346SOL    HW131937   0.423   5.951   1.687
10346SOL    HW231938   0.310   5.836   1.711
10347SOL     OW31939   4.572   1.045   4.202
10347SOL    HW131940   4.485   1.001   4.223
10347SOL    HW231941   4.582   1.054   4.103
10348SOL     OW31942   5.968   3.412   0.289
10348SOL    HW131943   6.025   3.442   0.365
10348SOL    HW231944   5.961   3.312   0.290
10349SOL     OW31945   0.523   0.090   6.333
10349SOL    HW131946   0.565   0.087   6.242
10349SOL    HW231947   0.560   0.016   6.389
10350SOL     OW31948   3.142   6.398   5.560
10350SOL    HW131949   3.101   6.469   5.503
10350SOL    HW231950   3.102   6.402   5.652
10351SOL     OW31951   4.446   5.115   5.841
10351SOL    HW131952   4.486   5.054   5.910
10351SOL    HW231953   4.360   5.076   5.808
10352SOL     OW31954   3.408   1.759   6.373
10352SOL    HW131955   3.471   1.837   6.371
10352SOL    HW231956   3.422   1.703   6.292
10353SOL     OW31957   6.365   2.789   4.568
10353SOL    HW131958   6.406   2.705   4.531
10353SOL    HW231959   6.274   2.769   4.603
10354SOL     OW31960   5.335   1.272   1.908
10354SOL    HW131961   5.350   1.364   1.943
10354SOL    HW231962   5.388   1.259   1.824
10355SOL     OW31963   2.729   6.058   2.477
10355SOL    HW131964   2.680   6.142   2.454
10355SOL    HW231965   2.771   6.020   2.394
10356SOL     OW31966   0.275   4.284   5.411
10356SOL    HW131967   0.235   4.197   5.384
10356SOL    HW231968   0.222   4.323   5.486
10357SOL     OW31969   2.281   2.103   6.447
10357SOL    HW131970   2.213   2.085   6.518
10357SOL    HW231971   2.260   2.049   6.366
10358SOL     OW31972   0.620   2.448   2.285
10358SOL    HW131973   0.629   2.365   2.231
10358SOL    HW231974   0.524   2.462   2.310
10359SOL     OW31975   0.395   1.473   1.612
10359SOL    HW131976   0.325   1.466   1.542
10359SOL    HW231977   0.370   1.543   1.678
10360SOL     OW31978   5.524   5.926   3.311
10360SOL    HW131979   5.623   5.916   3.302
10360SOL    HW231980   5.501   5.957   3.403
10361SOL     OW31981   2.877   5.481   2.336
10361SOL    HW131982   2.825   5.567   2.341
10361SOL    HW231983   2.975   5.502   2.339
10362SOL     OW31984   2.238   4.617   4.744
10362SOL    HW131985   2.331   4.581   4.734
10362SOL    HW231986   2.180   4.550   4.790
10363SOL     OW31987   5.022   0.397   3.378
10363SOL    HW131988   4.979   0.476   3.333
10363SOL    HW231989   4.950   0.336   3.412
10364SOL     OW31990   2.197   4.205   1.259
10364SOL    HW131991   2.292   4.231   1.275
10364SOL    HW231992   2.172   4.226   1.165
10365SOL     OW31993   5.024   5.398   6.982
10365SOL    HW131994   5.020   5.480   0.019
10365SOL    HW231995   5.017   5.424   6.886
10366SOL     OW31996   2.842   0.104   3.128
10366SOL    HW131997   2.872   0.183   3.181
10366SOL    HW231998   2.853   0.124   3.030
10367SOL     OW31999   5.735   2.333   3.494
10367SOL    HW132000   5.811   2.361   3.553
10367SOL    HW232001   5.711   2.408   3.432
10368SOL     OW32002   2.077   1.051   1.814
10368SOL    HW132003   2.113   1.136   1.853
10368SOL    HW232004   2.088   0.977   1.880
10369SOL     OW32005   3.944   2.768   0.147
10369SOL    HW132006   3.872   2.774   0.077
10369SOL    HW232007   3.918   2.824   0.225
10370SOL     OW32008   4.027   0.577   5.365
10370SOL    HW132009   3.981   0.556   5.279
10370SOL    HW232010   4.079   0.662   5.356
10371SOL     OW32011   4.941   5.894   5.296
10371SOL    HW132012   5.026   5.908   5.246
10371SOL    HW232013   4.877   5.967   5.274
10372SOL     OW32014   2.411   0.997   4.505
10372SOL    HW132015   2.376   1.043   4.424
10372SOL    HW232016   2.392   0.899   4.499
10373SOL     OW32017   0.978   6.489   4.003
10373SOL    HW132018   1.035   6.520   3.928
10373SOL    HW232019   1.031   6.429   4.063
10374SOL     OW32020   2.854   2.315   2.978
10374SOL    HW132021   2.891   2.275   2.895
10374SOL    HW232022   2.807   2.400   2.956
10375SOL     OW32023   5.955   2.132   1.053
10375SOL    HW132024   5.948   2.054   0.990
10375SOL    HW232025   5.971   2.098   1.146
10376SOL     OW32026   0.813   0.851   3.833
10376SOL    HW132027   0.908   0.838   3.862
10376SOL    HW232028   0.760   0.890   3.909
10377SOL     OW32029   0.478   0.413   4.022
10377SOL    HW132030   0.507   0.440   3.931
10377SOL    HW232031   0.476   0.313   4.029
10378SOL     OW32032   6.968   0.302   6.421
10378SOL    HW132033   6.981   0.295   6.322
10378SOL    HW232034   6.943   0.396   6.446
10379SOL     OW32035   5.328   1.359   4.352
10379SOL    HW132036   5.293   1.431   4.412
10379SOL    HW232037   5.275   1.275   4.366
10380SOL     OW32038   5.071   0.223   2.100
10380SOL    HW132039   5.038   0.148   2.157
10380SOL    HW232040   5.008   0.301   2.108
10381SOL     OW32041   4.569   4.606   5.879
10381SOL    HW132042   4.509   4.673   5.922
10381SOL    HW232043   4.649   4.652   5.840
10382SOL     OW32044   2.125   5.038   0.262
10382SOL    HW132045   2.221   5.038   0.290
10382SOL    HW232046   2.069   5.077   0.336
10383SOL     OW32047   0.801   2.804   1.130
10383SOL    HW132048   0.761   2.802   1.222
10383SOL    HW232049   0.880   2.865   1.129
10384SOL     OW32050   6.239   0.094   0.575
10384SOL    HW132051   6.270   0.074   0.482
10384SOL    HW232052   6.207   0.010   0.618
10385SOL     OW32053   6.473   1.565   6.421
10385SOL    HW132054   6.485   1.633   6.494
10385SOL    HW232055   6.469   1.474   6.462
10386SOL     OW32056   6.118   2.931   5.652
10386SOL    HW132057   6.189   2.947   5.583
10386SOL    HW232058   6.044   2.878   5.612
10387SOL     OW32059   1.417   2.555   3.137
10387SOL    HW132060   1.502   2.522   3.094
10387SOL    HW232061   1.340   2.504   3.100
10388SOL     OW32062   1.122   5.210   2.558
10388SOL    HW132063   1.151   5.302   2.532
10388SOL    HW232064   1.039   5.216   2.614
10389SOL     OW32065   0.940   4.752   2.978
10389SOL    HW132066   0.883   4.769   2.897
10389SOL    HW232067   0.884   4.719   3.053
10390SOL     OW32068   1.034   3.015   3.742
10390SOL    HW132069   1.072   3.107   3.733
10390SOL    HW232070   0.938   3.021   3.769
10391SOL     OW32071   2.611   6.285   6.189
10391SOL    HW132072   2.522   6.328   6.175
10391SOL    HW232073   2.622   6.209   6.124
10392SOL     OW32074   6.465   5.530   0.475
10392SOL    HW132075   6.565   5.519   0.470
10392SOL    HW232076   6.435   5.521   0.570
10393SOL     OW32077   1.291   1.147   4.209
10393SOL    HW132078   1.207   1.200   4.224
10393SOL    HW232079   1.323   1.111   4.297
10394SOL     OW32080   2.297   6.578   7.014
10394SOL    HW132081   2.320   6.675   0.002
10394SOL    HW232082   2.354   6.536   6.944
10395SOL     OW32083   0.364   1.141   4.740
10395SOL    HW132084   0.282   1.101   4.701
10395SOL    HW232085   0.406   1.204   4.674
10396SOL     OW32086   1.165   0.199   5.108
10396SOL    HW132087   1.245   0.258   5.107
10396SOL    HW232088   1.100   0.231   5.039
10397SOL     OW32089   4.132   1.471   3.277
10397SOL    HW132090   4.081   1.386   3.294
10397SOL    HW232091   4.121   1.497   3.181
10398SOL     OW32092   6.436   2.623   2.450
10398SOL    HW132093   6.500   2.563   2.498
10398SOL    HW232094   6.462   2.628   2.353
10399SOL     OW32095   5.771   2.214   5.298
10399SOL    HW132096   5.777   2.128   5.248
10399SOL    HW232097   5.782   2.197   5.396
10400SOL     OW32098   2.362   5.345   2.023
10400SOL    HW132099   2.287   5.410   2.036
10400SOL    HW232100   2.450   5.392   2.039
10401SOL     OW32101   0.514   6.279   1.917
10401SOL    HW132102   0.587   6.334   1.957
10401SOL    HW232103   0.456   6.337   1.860
10402SOL     OW32104   0.350   3.174   4.114
10402SOL    HW132105   0.371   3.126   4.029
10402SOL    HW232106   0.264   3.139   4.151
10403SOL     OW32107   5.316   0.769   2.025
10403SOL    HW132108   5.357   0.826   2.096
10403SOL    HW232109   5.251   0.823   1.971
10404SOL     OW32110   0.531   6.554   3.806
10404SOL    HW132111   0.505   6.515   3.894
10404SOL    HW232112   0.619   6.517   3.777
10405SOL     OW32113   1.864   6.238   5.772
10405SOL    HW132114   1.776   6.273   5.804
10405SOL    HW232115   1.923   6.314   5.745
10406SOL     OW32116   2.128   4.890   6.031
10406SOL    HW132117   2.101   4.977   6.074
10406SOL    HW232118   2.199   4.907   5.963
10407SOL     OW32119   0.947   1.670   0.418
10407SOL    HW132120   1.025   1.651   0.358
10407SOL    HW232121   0.864   1.633   0.377
10408SOL     OW32122   4.339   5.994   2.784
10408SOL    HW132123   4.321   6.011   2.881
10408SOL    HW232124   4.273   5.927   2.750
10409SOL     OW32125   6.138   4.613   2.653
10409SOL    HW132126   6.072   4.607   2.579
10409SOL    HW232127   6.106   4.678   2.722
10410SOL     OW32128   5.171   0.058   0.791
10410SOL    HW132129   5.168   0.116   0.873
10410SOL    HW232130   5.265   0.053   0.757
10411SOL     OW32131   2.297   4.644   2.873
10411SOL    HW132132   2.217   4.586   2.858
10411SOL    HW232133   2.287   4.729   2.822
10412SOL     OW32134   0.791   2.183   0.641
10412SOL    HW132135   0.750   2.092   0.630
10412SOL    HW232136   0.820   2.217   0.552
10413SOL     OW32137   0.463   1.704   6.836
10413SOL    HW132138   0.428   1.792   6.804
10413SOL    HW232139   0.405   1.631   6.800
10414SOL     OW32140   5.598   6.522   5.819
10414SOL    HW132141   5.576   6.486   5.910
10414SOL    HW232142   5.637   6.449   5.763
10415SOL     OW32143   0.568   5.659   3.207
10415SOL    HW132144   0.490   5.720   3.196
10415SOL    HW232145   0.645   5.710   3.245
10416SOL     OW32146   5.427   1.250   5.881
10416SOL    HW132147   5.371   1.316   5.832
10416SOL    HW232148   5.478   1.297   5.953
10417SOL     OW32149   3.608   5.021   4.112
10417SOL    HW132150   3.598   5.000   4.210
10417SOL    HW232151   3.525   5.065   4.078
10418SOL     OW32152   6.124   3.840   6.390
10418SOL    HW132153   6.047   3.884   6.341
10418SOL    HW232154   6.094   3.752   6.427
10419SOL     OW32155   2.697   1.343   4.734
10419SOL    HW132156   2.779   1.296   4.768
10419SOL    HW232157   2.631   1.275   4.703
10420SOL     OW32158   6.137   3.430   2.843
10420SOL    HW132159   6.115   3.367   2.917
10420SOL    HW232160   6.147   3.523   2.880
10421SOL     OW32161   0.778   4.550   4.384
10421SOL    HW132162   0.761   4.641   4.347
10421SOL    HW232163   0.817   4.558   4.476
10422SOL     OW32164   6.763   3.712   4.780
10422SOL    HW132165   6.692   3.645   4.797
10422SOL    HW232166   6.830   3.709   4.855
10423SOL     OW32167   3.110   5.095   4.305
10423SOL    HW132168   3.058   5.171   4.345
10423SOL    HW232169   3.080   5.009   4.347
10424SOL     OW32170   3.681   0.871   0.259
10424SOL    HW132171   3.606   0.935   0.278
10424SOL    HW232172   3.682   0.799   0.329
10425SOL     OW32173   1.228   2.253   0.932
10425SOL    HW132174   1.138   2.251   0.889
10425SOL    HW232175   1.274   2.165   0.917
10426SOL     OW32176   6.681   2.150   6.290
10426SOL    HW132177   6.623   2.207   6.232
10426SOL    HW232178   6.716   2.072   6.237
10427SOL     OW32179   5.392   6.647   4.524
10427SOL    HW132180   5.346   6.668   4.610
10427SOL    HW232181   5.335   6.583   4.471
10428SOL     OW32182   2.533   0.330   3.816
10428SOL    HW132183   2.610   0.378   3.858
10428SOL    HW232184   2.534   0.344   3.717
10429SOL     OW32185   1.604   2.810   1.667
10429SOL    HW132186   1.655   2.724   1.668
10429SOL    HW232187   1.603   2.847   1.574
10430SOL     OW32188   3.157   0.280   3.359
10430SOL    HW132189   3.079   0.331   3.323
10430SOL    HW232190   3.124   0.198   3.406
10431SOL     OW32191   3.961   0.305   2.878
10431SOL    HW132192   3.875   0.341   2.912
10431SOL    HW232193   3.972   0.211   2.910
10432SOL     OW32194   1.068   5.271   6.265
10432SOL    HW132195   1.083   5.231   6.174
10432SOL    HW232196   0.971   5.294   6.275
10433SOL     OW32197   2.386   0.329   2.877
10433SOL    HW132198   2.374   0.236   2.843
10433SOL    HW232199   2.331   0.340   2.961
10434SOL     OW32200   5.439   0.272   5.193
10434SOL    HW132201   5.379   0.227   5.258
10434SOL    HW232202   5.468   0.206   5.123
10435SOL     OW32203   2.086   1.931   0.076
10435SOL    HW132204   2.069   1.890   7.007
10435SOL    HW232205   2.008   1.987   0.102
10436SOL     OW32206   6.333   3.514   5.483
10436SOL    HW132207   6.305   3.418   5.494
10436SOL    HW232208   6.289   3.552   5.402
10437SOL     OW32209   5.756   6.429   5.071
10437SOL    HW132210   5.771   6.478   4.985
10437SOL    HW232211   5.837   6.376   5.094
10438SOL     OW32212   6.921   6.073   6.776
10438SOL    HW132213   6.871   6.139   6.831
10438SOL    HW232214   6.895   5.980   6.803
10439SOL     OW32215   6.549   6.193   4.860
10439SOL    HW132216   6.605   6.188   4.942
10439SOL    HW232217   6.535   6.101   4.823
10440SOL     OW32218   6.483   2.403   0.633
10440SOL    HW132219   6.388   2.394   0.604
10440SOL    HW232220   6.525   2.481   0.586
10441SOL     OW32221   4.566   1.840   0.286
10441SOL    HW132222   4.592   1.936   0.283
10441SOL    HW232223   4.526   1.818   0.375
10442SOL     OW32224   1.908   2.064   5.548
10442SOL    HW132225   1.840   2.004   5.504
10442SOL    HW232226   1.866   2.108   5.628
10443SOL     OW32227   0.435   1.829   1.930
10443SOL    HW132228   0.523   1.803   1.888
10443SOL    HW232229   0.452   1.882   2.013
10444SOL     OW32230   4.133   5.186   4.312
10444SOL    HW132231   4.061   5.220   4.372
10444SOL    HW232232   4.145   5.087   4.326
10445SOL     OW32233   0.538   3.119   3.013
10445SOL    HW132234   0.452   3.072   2.994
10445SOL    HW232235   0.521   3.195   3.075
10446SOL     OW32236   2.135   4.370   5.655
10446SOL    HW132237   2.149   4.421   5.570
10446SOL    HW232238   2.214   4.311   5.672
10447SOL     OW32239   0.414   2.379   2.724
10447SOL    HW132240   0.492   2.329   2.761
10447SOL    HW232241   0.387   2.451   2.788
10448SOL     OW32242   2.334   6.486   2.400
10448SOL    HW132243   2.298   6.538   2.477
10448SOL    HW232244   2.259   6.451   2.344
10449SOL     OW32245   3.744   4.945   4.904
10449SOL    HW132246   3.821   4.887   4.928
10449SOL    HW232247   3.775   5.040   4.899
10450SOL     OW32248   6.944   0.471   6.095
10450SOL    HW132249   6.936   0.529   6.177
10450SOL    HW232250   6.887   0.390   6.106
10451SOL     OW32251   3.204   1.281   3.177
10451SOL    HW132252   3.114   1.324   3.173
10451SOL    HW232253   3.208   1.219   3.256
10452SOL     OW32254   6.139   3.821   4.422
10452SOL    HW132255   6.143   3.742   4.483
10452SOL    HW232256   6.128   3.791   4.328
10453SOL     OW32257   3.881   5.980   3.590
10453SOL    HW132258   3.823   6.006   3.513
10453SOL    HW232259   3.824   5.941   3.663
10454SOL     OW32260   6.674   1.537   6.033
10454SOL    HW132261   6.681   1.605   5.961
10454SOL    HW232262   6.594   1.479   6.017
10455SOL     OW32263   6.731   5.540   3.659
10455SOL    HW132264   6.770   5.631   3.663
10455SOL    HW232265   6.679   5.523   3.743
10456SOL     OW32266   1.140   5.079   6.549
10456SOL    HW132267   1.051   5.117   6.522
10456SOL    HW232268   1.185   5.038   6.470
10457SOL     OW32269   3.893   2.392   0.122
10457SOL    HW132270   3.931   2.392   0.029
10457SOL    HW232271   3.938   2.464   0.176
10458SOL     OW32272   0.481   6.136   0.186
10458SOL    HW132273   0.570   6.175   0.163
10458SOL    HW232274   0.411   6.207   0.177
10459SOL     OW32275   0.152   5.093   0.881
10459SOL    HW132276   0.166   4.996   0.900
10459SOL    HW232277   0.161   5.110   0.783
10460SOL     OW32278   0.199   1.178   1.095
10460SOL    HW132279   0.212   1.192   0.997
10460SOL    HW232280   0.104   1.157   1.114
10461SOL     OW32281   6.806   5.203   6.489
10461SOL    HW132282   6.732   5.209   6.422
10461SOL    HW232283   6.844   5.294   6.505
10462SOL     OW32284   4.654   2.097   0.295
10462SOL    HW132285   4.641   2.108   0.196
10462SOL    HW232286   4.635   2.183   0.341
10463SOL     OW32287   4.997   2.350   6.625
10463SOL    HW132288   4.953   2.299   6.698
10463SOL    HW232289   4.933   2.417   6.587
10464SOL     OW32290   6.462   5.014   2.371
10464SOL    HW132291   6.390   5.059   2.424
10464SOL    HW232292   6.533   5.080   2.348
10465SOL     OW32293   5.571   4.494   1.557
10465SOL    HW132294   5.656   4.532   1.521
10465SOL    HW232295   5.592   4.425   1.627
10466SOL     OW32296   6.263   4.445   6.346
10466SOL    HW132297   6.261   4.538   6.309
10466SOL    HW232298   6.291   4.382   6.274
10467SOL     OW32299   1.005   3.623   0.331
10467SOL    HW132300   0.963   3.705   0.295
10467SOL    HW232301   0.979   3.544   0.276
10468SOL     OW32302   1.946   4.630   3.720
10468SOL    HW132303   2.026   4.687   3.738
10468SOL    HW232304   1.907   4.653   3.631
10469SOL     OW32305   0.481   1.499   3.891
10469SOL    HW132306   0.494   1.596   3.872
10469SOL    HW232307   0.443   1.454   3.809
10470SOL     OW32308   2.062   2.925   2.789
10470SOL    HW132309   2.116   2.848   2.822
10470SOL    HW232310   2.003   2.958   2.863
10471SOL     OW32311   2.939   6.392   6.690
10471SOL    HW132312   2.994   6.407   6.772
10471SOL    HW232313   2.960   6.301   6.652
10472SOL     OW32314   3.968   4.799   6.714
10472SOL    HW132315   3.878   4.788   6.670
10472SOL    HW232316   3.983   4.724   6.778
10473SOL     OW32317   5.617   4.909   0.607
10473SOL    HW132318   5.660   4.846   0.672
10473SOL    HW232319   5.592   4.994   0.654
10474SOL     OW32320   5.640   1.285   4.634
10474SOL    HW132321   5.739   1.292   4.650
10474SOL    HW232322   5.623   1.271   4.537
10475SOL     OW32323   1.875   5.581   1.174
10475SOL    HW132324   1.929   5.517   1.230
10475SOL    HW232325   1.912   5.583   1.081
10476SOL     OW32326   4.728   5.816   0.202
10476SOL    HW132327   4.638   5.790   0.235
10476SOL    HW232328   4.798   5.782   0.266
10477SOL     OW32329   6.593   5.243   3.983
10477SOL    HW132330   6.574   5.326   3.930
10477SOL    HW232331   6.664   5.262   4.050
10478SOL     OW32332   6.306   1.440   6.833
10478SOL    HW132333   6.290   1.521   6.777
10478SOL    HW232334   6.392   1.450   6.883
10479SOL     OW32335   0.973   2.494   1.766
10479SOL    HW132336   0.979   2.423   1.696
10479SOL    HW232337   0.891   2.550   1.751
10480SOL     OW32338   2.099   0.310   2.602
10480SOL    HW132339   2.081   0.371   2.679
10480SOL    HW232340   2.175   0.347   2.548
10481SOL     OW32341   6.623   1.077   2.055
10481SOL    HW132342   6.654   1.097   1.962
10481SOL    HW232343   6.533   1.119   2.070
10482SOL     OW32344   4.973   3.324   4.473
10482SOL    HW132345   4.945   3.252   4.537
10482SOL    HW232346   4.946   3.413   4.510
10483SOL     OW32347   6.163   6.564   0.185
10483SOL    HW132348   6.155   6.464   0.185
10483SOL    HW232349   6.134   6.599   0.096
10484SOL     OW32350   6.524   1.285   2.513
10484SOL    HW132351   6.561   1.377   2.507
10484SOL    HW232352   6.598   1.219   2.517
10485SOL     OW32353   5.804   3.908   5.621
10485SOL    HW132354   5.890   3.947   5.586
10485SOL    HW232355   5.729   3.970   5.601
10486SOL     OW32356   5.277   3.064   1.797
10486SOL    HW132357   5.251   3.105   1.884
10486SOL    HW232358   5.348   3.120   1.754
10487SOL     OW32359   5.892   6.483   1.532
10487SOL    HW132360   5.890   6.384   1.544
10487SOL    HW232361   5.920   6.504   1.438
10488SOL     OW32362   2.517   2.256   6.540
10488SOL    HW132363   2.530   2.343   6.493
10488SOL    HW232364   2.431   2.215   6.510
10489SOL     OW32365   0.934   5.898   6.324
10489SOL    HW132366   1.018   5.950   6.308
10489SOL    HW232367   0.955   5.800   6.318
10490SOL     OW32368   6.826   0.696   3.935
10490SOL    HW132369   6.814   0.624   4.005
10490SOL    HW232370   6.837   0.653   3.845
10491SOL     OW32371   1.593   4.361   5.426
10491SOL    HW132372   1.657   4.400   5.359
10491SOL    HW232373   1.621   4.386   5.518
10492SOL     OW32374   4.378   3.453   5.651
10492SOL    HW132375   4.312   3.443   5.577
10492SOL    HW232376   4.444   3.524   5.626
10493SOL     OW32377   2.886   0.789   1.484
10493SOL    HW132378   2.829   0.839   1.419
10493SOL    HW232379   2.888   0.692   1.459
10494SOL     OW32380   5.795   2.149   4.689
10494SOL    HW132381   5.866   2.162   4.619
10494SOL    HW232382   5.722   2.092   4.652
10495SOL     OW32383   1.197   6.748   7.005
10495SOL    HW132384   1.287   6.752   0.027
10495SOL    HW232385   1.154   6.838   7.009
10496SOL     OW32386   0.078   6.905   5.572
10496SOL    HW132387   0.032   6.985   5.610
10496SOL    HW232388   0.025   6.823   5.593
10497SOL     OW32389   1.605   1.095   1.457
10497SOL    HW132390   1.686   1.060   1.409
10497SOL    HW232391   1.633   1.160   1.527
10498SOL     OW32392   2.815   5.638   6.396
10498SOL    HW132393   2.856   5.726   6.372
10498SOL    HW232394   2.887   5.576   6.429
10499SOL     OW32395   3.578   5.455   2.982
10499SOL    HW132396   3.487   5.472   2.944
10499SOL    HW232397   3.643   5.522   2.944
10500SOL     OW32398   1.054   2.001   6.410
10500SOL    HW132399   1.010   1.964   6.328
10500SOL    HW232400   1.148   2.028   6.388
10501SOL     OW32401   1.440   3.447   2.882
10501SOL    HW132402   1.437   3.518   2.811
10501SOL    HW232403   1.529   3.447   2.926
10502SOL     OW32404   3.332   5.864   6.386
10502SOL    HW132405   3.361   5.919   6.464
10502SOL    HW232406   3.407   5.806   6.355
10503SOL     OW32407   2.727   3.270   6.221
10503SOL    HW132408   2.678   3.357   6.225
10503SOL    HW232409   2.748   3.240   6.314
10504SOL     OW32410   3.011   2.978   0.644
10504SOL    HW132411   2.920   3.011   0.671
10504SOL    HW232412   3.079   3.014   0.708
10505SOL     OW32413   6.730   6.446   1.669
10505SOL    HW132414   6.728   6.451   1.569
10505SOL    HW232415   6.772   6.359   1.696
10506SOL     OW32416   0.537   4.258   5.475
10506SOL    HW132417   0.444   4.261   5.437
10506SOL    HW232418   0.593   4.197   5.419
10507SOL     OW32419   1.384   0.537   5.950
10507SOL    HW132420   1.385   0.469   6.024
10507SOL    HW232421   1.478   0.556   5.922
10508SOL     OW32422   5.407   3.996   3.141
10508SOL    HW132423   5.400   3.896   3.137
10508SOL    HW232424   5.316   4.036   3.151
10509SOL     OW32425   1.654   0.306   6.034
10509SOL    HW132426   1.596   0.320   6.114
10509SOL    HW232427   1.706   0.389   6.016
10510SOL     OW32428   6.907   5.929   0.205
10510SOL    HW132429   6.883   5.834   0.225
10510SOL    HW232430   7.006   5.938   0.199
10511SOL     OW32431   4.740   3.006   0.444
10511SOL    HW132432   4.759   3.062   0.525
10511SOL    HW232433   4.820   2.952   0.421
10512SOL     OW32434   3.714   6.651   6.194
10512SOL    HW132435   3.781   6.612   6.130
10512SOL    HW232436   3.703   6.588   6.271
10513SOL     OW32437   0.105   2.134   0.204
10513SOL    HW132438   0.196   2.174   0.221
10513SOL    HW232439   0.089   2.129   0.106
10514SOL     OW32440   0.130   4.900   1.310
10514SOL    HW132441   0.054   4.945   1.356
10514SOL    HW232442   0.133   4.804   1.336
10515SOL     OW32443   6.794   2.393   3.871
10515SOL    HW132444   6.851   2.451   3.930
10515SOL    HW232445   6.702   2.385   3.910
10516SOL     OW32446   4.243   0.483   5.998
10516SOL    HW132447   4.219   0.564   5.944
10516SOL    HW232448   4.341   0.481   6.013
10517SOL     OW32449   0.031   1.940   2.765
10517SOL    HW132450   7.004   1.920   2.850
10517SOL    HW232451   0.101   1.871   2.748
10518SOL     OW32452   0.796   6.851   1.284
10518SOL    HW132453   0.825   6.771   1.337
10518SOL    HW232454   0.808   6.933   1.340
10519SOL     OW32455   2.844   3.708   5.231
10519SOL    HW132456   2.833   3.616   5.193
10519SOL    HW232457   2.754   3.742   5.260
10520SOL     OW32458   4.368   2.209   6.899
10520SOL    HW132459   4.298   2.202   6.970
10520SOL    HW232460   4.332   2.261   6.821
10521SOL     OW32461   6.740   5.940   1.271
10521SOL    HW132462   6.656   5.989   1.246
10521SOL    HW232463   6.747   5.934   1.370
10522SOL     OW32464   6.286   0.850   2.165
10522SOL    HW132465   6.212   0.913   2.189
10522SOL    HW232466   6.366   0.903   2.134
10523SOL     OW32467   0.183   5.860   6.707
10523SOL    HW132468   0.103   5.901   6.663
10523SOL    HW232469   0.261   5.865   6.645
10524SOL     OW32470   3.080   0.834   3.995
10524SOL    HW132471   3.027   0.859   4.076
10524SOL    HW232472   3.151   0.902   3.980
10525SOL     OW32473   2.354   6.045   4.738
10525SOL    HW132474   2.278   6.000   4.784
10525SOL    HW232475   2.438   6.030   4.789
10526SOL     OW32476   6.563   7.010   2.325
10526SOL    HW132477   6.636   0.055   2.343
10526SOL    HW232478   6.490   0.035   2.273
10527SOL     OW32479   0.994   2.225   4.859
10527SOL    HW132480   0.949   2.307   4.893
10527SOL    HW232481   1.066   2.251   4.794
10528SOL     OW32482   6.998   5.069   4.616
10528SOL    HW132483   0.029   4.987   4.642
10528SOL    HW232484   0.039   5.147   4.613
10529SOL     OW32485   6.983   6.838   3.903
10529SOL    HW132486   0.049   6.830   3.854
10529SOL    HW232487   6.989   6.914   3.968
10530SOL     OW32488   2.131   1.632   6.122
10530SOL    HW132489   2.138   1.650   6.220
10530SOL    HW232490   2.140   1.534   6.105
10531SOL     OW32491   1.754   2.885   5.248
10531SOL    HW132492   1.707   2.836   5.321
10531SOL    HW232493   1.720   2.979   5.244
10532SOL     OW32494   3.779   2.527   5.702
10532SOL    HW132495   3.824   2.569   5.780
10532SOL    HW232496   3.695   2.577   5.680
10533SOL     OW32497   2.544   1.220   5.800
10533SOL    HW132498   2.619   1.201   5.863
10533SOL    HW232499   2.480   1.285   5.841
10534SOL     OW32500   6.428   5.572   1.031
10534SOL    HW132501   6.484   5.620   1.099
10534SOL    HW232502   6.400   5.483   1.067
10535SOL     OW32503   0.506   0.997   2.147
10535SOL    HW132504   0.570   1.069   2.176
10535SOL    HW232505   0.488   1.006   2.049
10536SOL     OW32506   4.357   0.182   3.045
10536SOL    HW132507   4.330   0.199   2.950
10536SOL    HW232508   4.280   0.203   3.106
10537SOL     OW32509   1.280   4.847   1.531
10537SOL    HW132510   1.379   4.861   1.538
10537SOL    HW232511   1.238   4.869   1.619
10538SOL     OW32512   4.441   3.791   0.475
10538SOL    HW132513   4.477   3.710   0.522
10538SOL    HW232514   4.508   3.865   0.479
10539SOL     OW32515   0.519   3.628   6.091
10539SOL    HW132516   0.513   3.694   6.166
10539SOL    HW232517   0.439   3.569   6.092
10540SOL     OW32518   2.351   0.376   6.505
10540SOL    HW132519   2.259   0.358   6.472
10540SOL    HW232520   2.349   0.392   6.604
10541SOL     OW32521   3.388   3.102   0.157
10541SOL    HW132522   3.354   3.155   0.079
10541SOL    HW232523   3.398   3.162   0.236
10542SOL     OW32524   0.408   2.327   0.186
10542SOL    HW132525   0.487   2.269   0.207
10542SOL    HW232526   0.417   2.364   0.094
10543SOL     OW32527   1.285   0.694   5.597
10543SOL    HW132528   1.265   0.650   5.510
10543SOL    HW232529   1.227   0.654   5.668
10544SOL     OW32530   1.065   2.432   2.010
10544SOL    HW132531   1.039   2.345   2.053
10544SOL    HW232532   0.997   2.456   1.940
10545SOL     OW32533   6.442   0.335   2.469
10545SOL    HW132534   6.431   0.237   2.483
10545SOL    HW232535   6.359   0.383   2.497
10546SOL     OW32536   2.853   0.690   3.823
10546SOL    HW132537   2.850   0.690   3.723
10546SOL    HW232538   2.947   0.706   3.853
10547SOL     OW32539   4.327   1.622   1.225
10547SOL    HW132540   4.380   1.689   1.171
10547SOL    HW232541   4.375   1.535   1.226
10548SOL     OW32542   5.335   4.136   5.592
10548SOL    HW132543   5.355   4.201   5.665
10548SOL    HW232544   5.419   4.087   5.568
10549SOL     OW32545   1.246   1.088   1.671
10549SOL    HW132546   1.328   1.040   1.642
10549SOL    HW232547   1.271   1.178   1.707
10550SOL     OW32548   4.979   6.869   4.013
10550SOL    HW132549   5.074   6.897   3.999
10550SOL    HW232550   4.968   6.836   4.107
10551SOL     OW32551   1.274   2.700   6.043
10551SOL    HW132552   1.256   2.798   6.051
10551SOL    HW232553   1.364   2.680   6.082
10552SOL     OW32554   3.360   2.288   5.364
10552SOL    HW132555   3.325   2.194   5.365
10552SOL    HW232556   3.300   2.345   5.308
10553SOL     OW32557   1.851   5.050   0.037
10553SOL    HW132558   1.835   5.114   6.983
10553SOL    HW232559   1.887   4.964   7.021
10554SOL     OW32560   6.764   4.814   7.004
10554SOL    HW132561   6.848   4.867   7.020
10554SOL    HW232562   6.688   4.876   6.985
10555SOL     OW32563   3.106   1.973   1.353
10555SOL    HW132564   3.045   2.016   1.420
10555SOL    HW232565   3.173   1.916   1.400
10556SOL     OW32566   2.144   3.223   4.647
10556SOL    HW132567   2.160   3.292   4.718
10556SOL    HW232568   2.209   3.148   4.658
10557SOL     OW32569   0.124   2.706   3.513
10557SOL    HW132570   0.034   2.673   3.542
10557SOL    HW232571   0.132   2.804   3.533
10558SOL     OW32572   4.932   6.127   5.520
10558SOL    HW132573   4.963   6.034   5.539
10558SOL    HW232574   5.011   6.187   5.512
10559SOL     OW32575   4.310   2.383   0.264
10559SOL    HW132576   4.409   2.391   0.278
10559SOL    HW232577   4.262   2.435   0.335
10560SOL     OW32578   0.966   3.033   4.066
10560SOL    HW132579   0.903   3.030   3.988
10560SOL    HW232580   1.039   2.966   4.053
10561SOL     OW32581   2.402   3.995   0.046
10561SOL    HW132582   2.367   4.052   6.993
10561SOL    HW232583   2.501   4.007   0.055
10562SOL     OW32584   3.844   1.120   0.291
10562SOL    HW132585   3.932   1.073   0.300
10562SOL    HW232586   3.771   1.060   0.325
10563SOL     OW32587   1.404   1.775   5.253
10563SOL    HW132588   1.444   1.867   5.243
10563SOL    HW232589   1.460   1.722   5.317
10564SOL     OW32590   6.055   2.325   1.708
10564SOL    HW132591   6.065   2.287   1.800
10564SOL    HW232592   5.960   2.313   1.678
10565SOL     OW32593   5.593   1.813   5.044
10565SOL    HW132594   5.628   1.782   4.955
10565SOL    HW232595   5.562   1.908   5.036
10566SOL     OW32596   3.520   4.079   6.410
10566SOL    HW132597   3.472   4.167   6.420
10566SOL    HW232598   3.457   4.011   6.373
10567SOL     OW32599   1.904   4.049   3.815
10567SOL    HW132600   1.839   4.052   3.740
10567SOL    HW232601   1.876   4.113   3.887
10568SOL     OW32602   4.759   1.192   3.538
10568SOL    HW132603   4.694   1.150   3.475
10568SOL    HW232604   4.821   1.252   3.488
10569SOL     OW32605   5.499   3.053   4.396
10569SOL    HW132606   5.523   3.139   4.352
10569SOL    HW232607   5.429   3.006   4.342
10570SOL     OW32608   1.495   5.201   2.387
10570SOL    HW132609   1.545   5.204   2.473
10570SOL    HW232610   1.558   5.181   2.312
10571SOL     OW32611   6.395   6.783   3.359
10571SOL    HW132612   6.482   6.753   3.320
10571SOL    HW232613   6.409   6.869   3.408
10572SOL     OW32614   6.270   3.914   1.928
10572SOL    HW132615   6.171   3.928   1.926
10572SOL    HW232616   6.298   3.882   2.018
10573SOL     OW32617   6.083   5.492   4.938
10573SOL    HW132618   6.056   5.588   4.949
10573SOL    HW232619   6.147   5.484   4.862
10574SOL     OW32620   0.588   1.768   3.232
10574SOL    HW132621   0.493   1.799   3.231
10574SOL    HW232622   0.632   1.797   3.317
10575SOL     OW32623   1.394   0.135   5.453
10575SOL    HW132624   1.423   0.195   5.527
10575SOL    HW232625   1.296   0.119   5.459
10576SOL     OW32626   1.743   5.427   3.718
10576SOL    HW132627   1.692   5.379   3.646
10576SOL    HW232628   1.755   5.366   3.796
10577SOL     OW32629   1.545   2.657   5.934
10577SOL    HW132630   1.630   2.604   5.927
10577SOL    HW232631   1.494   2.651   5.848
10578SOL     OW32632   6.415   0.871   5.753
10578SOL    HW132633   6.489   0.831   5.699
10578SOL    HW232634   6.365   0.798   5.800
10579SOL     OW32635   4.340   1.796   0.817
10579SOL    HW132636   4.352   1.788   0.718
10579SOL    HW232637   4.320   1.892   0.840
10580SOL     OW32638   6.433   6.016   6.897
10580SOL    HW132639   6.410   6.043   6.990
10580SOL    HW232640   6.502   5.944   6.899
10581SOL     OW32641   5.275   0.790   3.541
10581SOL    HW132642   5.289   0.701   3.499
10581SOL    HW232643   5.180   0.797   3.573
10582SOL     OW32644   3.479   4.930   6.573
10582SOL    HW132645   3.461   5.015   6.622
10582SOL    HW232646   3.394   4.878   6.564
10583SOL     OW32647   4.240   1.526   0.345
10583SOL    HW132648   4.279   1.461   0.279
10583SOL    HW232649   4.141   1.517   0.346
10584SOL     OW32650   5.848   0.214   1.663
10584SOL    HW132651   5.809   0.200   1.572
10584SOL    HW232652   5.916   0.287   1.659
10585SOL     OW32653   1.256   3.389   6.566
10585SOL    HW132654   1.255   3.476   6.617
10585SOL    HW232655   1.214   3.318   6.621
10586SOL     OW32656   3.416   0.192   6.467
10586SOL    HW132657   3.391   0.128   6.394
10586SOL    HW232658   3.515   0.206   6.466
10587SOL     OW32659   6.088   4.362   0.817
10587SOL    HW132660   6.138   4.406   0.891
10587SOL    HW232661   5.991   4.387   0.822
10588SOL     OW32662   0.385   5.245   3.021
10588SOL    HW132663   0.433   5.168   2.979
10588SOL    HW232664   0.451   5.303   3.069
10589SOL     OW32665   6.300   1.801   4.008
10589SOL    HW132666   6.310   1.822   4.106
10589SOL    HW232667   6.223   1.739   3.996
10590SOL     OW32668   1.044   0.475   3.842
10590SOL    HW132669   1.040   0.412   3.920
10590SOL    HW232670   1.137   0.511   3.834
10591SOL     OW32671   1.156   2.810   0.550
10591SOL    HW132672   1.185   2.859   0.468
10591SOL    HW232673   1.121   2.720   0.524
10592SOL     OW32674   6.520   1.482   6.980
10592SOL    HW132675   6.560   1.492   0.051
10592SOL    HW232676   6.589   1.504   6.911
10593SOL     OW32677   1.928   4.622   1.303
10593SOL    HW132678   1.883   4.568   1.375
10593SOL    HW232679   1.919   4.719   1.324
10594SOL     OW32680   0.080   1.880   4.206
10594SOL    HW132681   0.130   1.964   4.182
10594SOL    HW232682   0.145   1.811   4.238
10595SOL     OW32683   3.602   6.128   6.431
10595SOL    HW132684   3.587   6.093   6.524
10595SOL    HW232685   3.646   6.057   6.376
10596SOL     OW32686   4.004   0.582   2.209
10596SOL    HW132687   3.924   0.527   2.235
10596SOL    HW232688   4.009   0.662   2.268
10597SOL     OW32689   1.778   0.540   5.165
10597SOL    HW132690   1.808   0.500   5.251
10597SOL    HW232691   1.827   0.627   5.150
10598SOL     OW32692   1.898   2.363   6.897
10598SOL    HW132693   1.864   2.301   6.826
10598SOL    HW232694   1.997   2.375   6.886
10599SOL     OW32695   5.711   1.516   0.175
10599SOL    HW132696   5.633   1.459   0.202
10599SOL    HW232697   5.789   1.458   0.154
10600SOL     OW32698   2.257   3.228   6.155
10600SOL    HW132699   2.200   3.310   6.148
10600SOL    HW232700   2.265   3.185   6.066
10601SOL     OW32701   3.229   6.197   6.199
10601SOL    HW132702   3.312   6.241   6.165
10601SOL    HW232703   3.229   6.100   6.174
10602SOL     OW32704   4.717   1.164   2.162
10602SOL    HW132705   4.775   1.244   2.175
10602SOL    HW232706   4.636   1.171   2.221
10603SOL     OW32707   1.586   5.624   4.480
10603SOL    HW132708   1.575   5.722   4.500
10603SOL    HW232709   1.583   5.573   4.566
10604SOL     OW32710   6.824   4.566   5.023
10604SOL    HW132711   6.862   4.575   5.115
10604SOL    HW232712   6.753   4.636   5.009
10605SOL     OW32713   1.613   4.972   6.885
10605SOL    HW132714   1.631   4.877   6.861
10605SOL    HW232715   1.697   5.015   6.918
10606SOL     OW32716   1.021   0.405   1.905
10606SOL    HW132717   1.085   0.341   1.947
10606SOL    HW232718   0.944   0.354   1.866
10607SOL     OW32719   5.626   4.821   6.828
10607SOL    HW132720   5.590   4.758   6.759
10607SOL    HW232721   5.550   4.872   6.869
10608SOL     OW32722   6.476   1.518   3.808
10608SOL    HW132723   6.441   1.493   3.899
10608SOL    HW232724   6.429   1.600   3.776
10609SOL     OW32725   3.806   6.593   1.073
10609SOL    HW132726   3.826   6.682   1.032
10609SOL    HW232727   3.866   6.578   1.152
10610SOL     OW32728   1.576   3.112   5.781
10610SOL    HW132729   1.673   3.136   5.783
10610SOL    HW232730   1.563   3.030   5.725
10611SOL     OW32731   5.641   2.858   5.696
10611SOL    HW132732   5.647   2.951   5.660
10611SOL    HW232733   5.575   2.806   5.643
10612SOL     OW32734   2.057   0.183   0.214
10612SOL    HW132735   2.066   0.085   0.228
10612SOL    HW232736   2.059   0.203   0.116
10613SOL     OW32737   0.195   6.225   5.691
10613SOL    HW132738   0.289   6.256   5.677
10613SOL    HW232739   0.195   6.146   5.752
10614SOL     OW32740   6.892   1.035   4.241
10614SOL    HW132741   6.978   0.984   4.235
10614SOL    HW232742   6.907   1.120   4.291
10615SOL     OW32743   5.238   5.724   5.224
10615SOL    HW132744   5.327   5.678   5.218
10615SOL    HW232745   5.168   5.656   5.246
10616SOL     OW32746   2.818   5.483   0.119
10616SOL    HW132747   2.756   5.409   0.146
10616SOL    HW232748   2.858   5.462   0.030
10617SOL     OW32749   1.290   2.153   0.013
10617SOL    HW132750   1.263   2.064   6.997
10617SOL    HW232751   1.317   2.144   0.109
10618SOL     OW32752   6.023   3.466   0.554
10618SOL    HW132753   6.039   3.381   0.605
10618SOL    HW232754   6.054   3.544   0.608
10619SOL     OW32755   1.161   4.090   3.601
10619SOL    HW132756   1.210   4.113   3.686
10619SOL    HW232757   1.063   4.081   3.621
10620SOL     OW32758   1.281   5.916   4.658
10620SOL    HW132759   1.250   5.898   4.751
10620SOL    HW232760   1.276   6.014   4.639
10621SOL     OW32761   2.426   5.819   1.111
10621SOL    HW132762   2.458   5.732   1.074
10621SOL    HW232763   2.398   5.879   1.035
10622SOL     OW32764   3.667   0.804   1.175
10622SOL    HW132765   3.722   0.870   1.225
10622SOL    HW232766   3.606   0.757   1.239
10623SOL     OW32767   6.429   1.775   3.682
10623SOL    HW132768   6.439   1.824   3.769
10623SOL    HW232769   6.334   1.777   3.653
10624SOL     OW32770   2.180   0.609   4.227
10624SOL    HW132771   2.124   0.526   4.224
10624SOL    HW232772   2.251   0.604   4.157
10625SOL     OW32773   0.421   3.352   0.053
10625SOL    HW132774   0.401   3.262   0.013
10625SOL    HW232775   0.412   3.422   7.003
10626SOL     OW32776   0.415   2.456   1.294
10626SOL    HW132777   0.430   2.377   1.236
10626SOL    HW232778   0.366   2.428   1.377
10627SOL     OW32779   6.162   6.158   3.681
10627SOL    HW132780   6.131   6.131   3.773
10627SOL    HW232781   6.127   6.092   3.614
10628SOL     OW32782   5.858   5.807   5.818
10628SOL    HW132783   5.782   5.872   5.815
10628SOL    HW232784   5.858   5.760   5.906
10629SOL     OW32785   2.834   5.577   5.995
10629SOL    HW132786   2.852   5.486   6.033
10629SOL    HW232787   2.749   5.613   6.033
10630SOL     OW32788   6.774   1.524   3.490
10630SOL    HW132789   6.848   1.482   3.543
10630SOL    HW232790   6.773   1.623   3.507
10631SOL     OW32791   0.602   6.824   4.096
10631SOL    HW132792   0.676   6.757   4.103
10631SOL    HW232793   0.523   6.782   4.051
10632SOL     OW32794   0.353   2.144   5.209
10632SOL    HW132795   0.362   2.083   5.130
10632SOL    HW232796   0.363   2.090   5.293
10633SOL     OW32797   1.283   5.163   1.398
10633SOL    HW132798   1.219   5.168   1.475
10633SOL    HW232799   1.243   5.208   1.319
10634SOL     OW32800   3.008   6.511   1.499
10634SOL    HW132801   3.066   6.509   1.418
10634SOL    HW232802   2.913   6.530   1.472
10635SOL     OW32803   2.823   1.393   1.095
10635SOL    HW132804   2.832   1.440   1.183
10635SOL    HW232805   2.912   1.355   1.068
10636SOL     OW32806   0.633   2.534   1.697
10636SOL    HW132807   0.603   2.621   1.658
10636SOL    HW232808   0.579   2.460   1.657
10637SOL     OW32809   3.370   4.220   5.192
10637SOL    HW132810   3.284   4.268   5.209
10637SOL    HW232811   3.423   4.214   5.276
10638SOL     OW32812   0.120   6.617   5.748
10638SOL    HW132813   0.097   6.592   5.842
10638SOL    HW232814   0.098   6.540   5.687
10639SOL     OW32815   2.467   0.383   4.460
10639SOL    HW132816   2.508   0.402   4.371
10639SOL    HW232817   2.506   0.444   4.529
10640SOL     OW32818   4.124   0.453   6.992
10640SOL    HW132819   4.073   0.369   6.971
10640SOL    HW232820   4.202   0.460   6.930
10641SOL     OW32821   5.712   1.675   6.909
10641SOL    HW132822   5.639   1.609   6.926
10641SOL    HW232823   5.797   1.643   6.950
10642SOL     OW32824   0.151   3.124   1.547
10642SOL    HW132825   0.236   3.176   1.536
10642SOL    HW232826   0.075   3.176   1.508
10643SOL     OW32827   2.811   3.064   5.869
10643SOL    HW132828   2.891   3.123   5.859
10643SOL    HW232829   2.837   2.978   5.912
10644SOL     OW32830   4.449   1.213   4.598
10644SOL    HW132831   4.513   1.190   4.526
10644SOL    HW232832   4.372   1.264   4.559
10645SOL     OW32833   2.919   0.963   5.009
10645SOL    HW132834   2.924   1.063   5.004
10645SOL    HW232835   2.830   0.933   4.975
10646SOL     OW32836   0.777   3.874   6.645
10646SOL    HW132837   0.777   3.974   6.645
10646SOL    HW232838   0.847   3.841   6.709
10647SOL     OW32839   0.200   5.147   1.223
10647SOL    HW132840   0.168   5.065   1.270
10647SOL    HW232841   0.159   5.152   1.132
10648SOL     OW32842   4.681   3.059   6.590
10648SOL    HW132843   4.697   3.155   6.566
10648SOL    HW232844   4.605   3.053   6.655
10649SOL     OW32845   0.421   5.060   5.938
10649SOL    HW132846   0.325   5.090   5.946
10649SOL    HW232847   0.446   5.007   6.019
10650SOL     OW32848   3.331   6.485   3.706
10650SOL    HW132849   3.279   6.404   3.734
10650SOL    HW232850   3.328   6.553   3.779
10651SOL     OW32851   4.166   6.645   6.317
10651SOL    HW132852   4.263   6.636   6.294
10651SOL    HW232853   4.131   6.731   6.281
10652SOL     OW32854   3.241   0.980   6.480
10652SOL    HW132855   3.246   1.074   6.446
10652SOL    HW232856   3.332   0.940   6.481
10653SOL     OW32857   5.235   3.359   4.080
10653SOL    HW132858   5.189   3.270   4.074
10653SOL    HW232859   5.225   3.395   4.173
10654SOL     OW32860   4.155   0.398   0.527
10654SOL    HW132861   4.214   0.392   0.608
10654SOL    HW232862   4.151   0.493   0.495
10655SOL     OW32863   2.795   5.778   1.685
10655SOL    HW132864   2.721   5.838   1.715
10655SOL    HW232865   2.882   5.828   1.692
10656SOL     OW32866   6.810   2.900   6.624
10656SOL    HW132867   6.896   2.850   6.626
10656SOL    HW232868   6.750   2.868   6.698
10657SOL     OW32869   6.055   0.929   1.434
10657SOL    HW132870   6.118   0.862   1.395
10657SOL    HW232871   6.042   1.004   1.369
10658SOL     OW32872   6.884   5.658   5.154
10658SOL    HW132873   6.821   5.616   5.218
10658SOL    HW232874   6.977   5.654   5.190
10659SOL     OW32875   5.827   0.908   0.380
10659SOL    HW132876   5.731   0.918   0.353
10659SOL    HW232877   5.861   0.819   0.348
10660SOL     OW32878   4.797   4.741   5.744
10660SOL    HW132879   4.780   4.839   5.738
10660SOL    HW232880   4.842   4.710   5.660
10661SOL     OW32881   0.359   6.879   2.680
10661SOL    HW132882   0.412   6.891   2.764
10661SOL    HW232883   0.397   6.938   2.609
10662SOL     OW32884   5.862   1.517   0.627
10662SOL    HW132885   5.934   1.587   0.625
10662SOL    HW232886   5.877   1.452   0.553
10663SOL     OW32887   0.146   0.465   0.558
10663SOL    HW132888   0.102   0.514   0.633
10663SOL    HW232889   0.243   0.451   0.580
10664SOL     OW32890   2.066   4.857   0.066
10664SOL    HW132891   2.134   4.864   7.014
10664SOL    HW232892   2.066   4.942   0.120
10665SOL     OW32893   6.710   1.073   0.601
10665SOL    HW132894   6.703   1.172   0.590
10665SOL    HW232895   6.758   1.052   0.687
10666SOL     OW32896   1.460   6.737   0.075
10666SOL    HW132897   1.560   6.728   0.082
10666SOL    HW232898   1.436   6.833   0.060
10667SOL     OW32899   3.640   1.803   4.943
10667SOL    HW132900   3.689   1.824   4.859
10667SOL    HW232901   3.705   1.787   5.017
10668SOL     OW32902   2.046   1.049   5.701
10668SOL    HW132903   1.948   1.035   5.719
10668SOL    HW232904   2.062   1.049   5.602
10669SOL     OW32905   0.996   6.562   6.403
10669SOL    HW132906   0.913   6.619   6.405
10669SOL    HW232907   0.975   6.470   6.435
10670SOL     OW32908   6.538   4.604   5.578
10670SOL    HW132909   6.598   4.669   5.530
10670SOL    HW232910   6.553   4.512   5.540
10671SOL     OW32911   1.828   1.367   3.505
10671SOL    HW132912   1.866   1.377   3.414
10671SOL    HW232913   1.866   1.286   3.549
10672SOL     OW32914   6.970   3.189   0.432
10672SOL    HW132915   6.974   3.288   0.443
10672SOL    HW232916   6.957   3.167   0.335
10673SOL     OW32917   2.814   3.429   5.169
10673SOL    HW132918   2.754   3.354   5.197
10673SOL    HW232919   2.906   3.394   5.152
10674SOL     OW32920   3.607   1.992   2.121
10674SOL    HW132921   3.518   2.011   2.162
10674SOL    HW232922   3.658   2.078   2.111
10675SOL     OW32923   0.594   0.490   6.138
10675SOL    HW132924   0.546   0.567   6.181
10675SOL    HW232925   0.528   0.424   6.103
10676SOL     OW32926   6.828   0.496   6.572
10676SOL    HW132927   6.817   0.482   6.670
10676SOL    HW232928   6.744   0.533   6.533
10677SOL     OW32929   6.875   0.662   0.391
10677SOL    HW132930   6.862   0.761   0.397
10677SOL    HW232931   6.952   0.642   0.331
10678SOL     OW32932   2.619   6.537   3.035
10678SOL    HW132933   2.707   6.550   2.990
10678SOL    HW232934   2.615   6.594   3.117
10679SOL     OW32935   5.648   5.204   4.401
10679SOL    HW132936   5.628   5.292   4.443
10679SOL    HW232937   5.677   5.217   4.307
10680SOL     OW32938   1.588   2.271   3.769
10680SOL    HW132939   1.545   2.361   3.776
10680SOL    HW232940   1.518   2.200   3.776
10681SOL     OW32941   0.250   1.063   5.770
10681SOL    HW132942   0.263   0.997   5.844
10681SOL    HW232943   0.220   1.016   5.688
10682SOL     OW32944   6.803   1.689   2.851
10682SOL    HW132945   6.724   1.749   2.863
10682SOL    HW232946   6.776   1.594   2.869
10683SOL     OW32947   1.969   1.653   4.511
10683SOL    HW132948   1.998   1.702   4.429
10683SOL    HW232949   1.933   1.718   4.578
10684SOL     OW32950   5.233   5.795   0.817
10684SOL    HW132951   5.228   5.893   0.801
10684SOL    HW232952   5.291   5.752   0.749
10685SOL     OW32953   0.212   2.508   2.220
10685SOL    HW132954   0.117   2.487   2.240
10685SOL    HW232955   0.268   2.490   2.301
10686SOL     OW32956   3.704   4.752   0.496
10686SOL    HW132957   3.720   4.837   0.445
10686SOL    HW232958   3.609   4.749   0.526
10687SOL     OW32959   0.739   5.172   2.098
10687SOL    HW132960   0.813   5.238   2.098
10687SOL    HW232961   0.763   5.095   2.157
10688SOL     OW32962   6.601   5.500   2.139
10688SOL    HW132963   6.664   5.482   2.063
10688SOL    HW232964   6.654   5.516   2.223
10689SOL     OW32965   0.329   0.898   1.797
10689SOL    HW132966   0.266   0.941   1.732
10689SOL    HW232967   0.401   0.962   1.822
10690SOL     OW32968   4.677   5.554   1.779
10690SOL    HW132969   4.620   5.617   1.832
10690SOL    HW232970   4.631   5.466   1.770
10691SOL     OW32971   6.852   1.534   1.201
10691SOL    HW132972   6.783   1.605   1.209
10691SOL    HW232973   6.839   1.466   1.274
10692SOL     OW32974   4.538   6.156   3.863
10692SOL    HW132975   4.485   6.081   3.904
10692SOL    HW232976   4.550   6.229   3.929
10693SOL     OW32977   6.030   2.238   1.972
10693SOL    HW132978   5.958   2.265   2.035
10693SOL    HW232979   6.081   2.161   2.010
10694SOL     OW32980   3.898   6.215   0.716
10694SOL    HW132981   3.847   6.275   0.778
10694SOL    HW232982   3.840   6.137   0.690
10695SOL     OW32983   5.899   3.421   4.259
10695SOL    HW132984   5.997   3.415   4.276
10695SOL    HW232985   5.866   3.511   4.286
10696SOL     OW32986   6.437   6.540   1.150
10696SOL    HW132987   6.483   6.611   1.204
10696SOL    HW232988   6.341   6.534   1.178
10697SOL     OW32989   2.642   6.127   3.332
10697SOL    HW132990   2.572   6.059   3.308
10697SOL    HW232991   2.657   6.188   3.254
10698SOL     OW32992   3.020   0.783   3.268
10698SOL    HW132993   3.067   0.715   3.212
10698SOL    HW232994   2.958   0.836   3.211
10699SOL     OW32995   1.967   2.209   2.393
10699SOL    HW132996   1.985   2.146   2.469
10699SOL    HW232997   1.868   2.220   2.382
10700SOL     OW32998   6.472   1.053   1.393
10700SOL    HW132999   6.379   1.066   1.359
10700SOL    HW233000   6.473   1.061   1.492
10701SOL     OW33001   3.346   6.383   0.584
10701SOL    HW133002   3.440   6.412   0.565
10701SOL    HW233003   3.286   6.417   0.512
10702SOL     OW33004   6.233   2.998   1.357
10702SOL    HW133005   6.250   2.997   1.258
10702SOL    HW233006   6.153   2.942   1.378
10703SOL     OW33007   4.082   3.279   3.793
10703SOL    HW133008   4.110   3.375   3.789
10703SOL    HW233009   4.064   3.246   3.700
10704SOL     OW33010   5.372   6.621   1.877
10704SOL    HW133011   5.366   6.528   1.840
10704SOL    HW233012   5.448   6.627   1.942
10705SOL     OW33013   0.386   2.220   6.550
10705SOL    HW133014   0.417   2.266   6.467
10705SOL    HW233015   0.290   2.195   6.541
10706SOL     OW33016   3.615   1.102   2.280
10706SOL    HW133017   3.608   1.169   2.354
10706SOL    HW233018   3.569   1.138   2.199
10707SOL     OW33019   6.248   0.194   5.818
10707SOL    HW133020   6.250   0.123   5.889
10707SOL    HW233021   6.154   0.226   5.806
10708SOL     OW33022   4.117   1.133   1.417
10708SOL    HW133023   4.212   1.102   1.414
10708SOL    HW233024   4.055   1.055   1.408
10709SOL     OW33025   0.335   6.322   6.065
10709SOL    HW133026   0.255   6.338   6.007
10709SOL    HW233027   0.309   6.333   6.161
10710SOL     OW33028   6.344   5.678   3.095
10710SOL    HW133029   6.267   5.670   3.160
10710SOL    HW233030   6.430   5.666   3.144
10711SOL     OW33031   1.765   5.606   5.202
10711SOL    HW133032   1.764   5.706   5.196
10711SOL    HW233033   1.818   5.578   5.282
10712SOL     OW33034   4.341   1.116   5.280
10712SOL    HW133035   4.429   1.143   5.241
10712SOL    HW233036   4.268   1.134   5.214
10713SOL     OW33037   1.273   6.246   1.446
10713SOL    HW133038   1.215   6.316   1.488
10713SOL    HW233039   1.220   6.161   1.435
10714SOL     OW33040   6.910   5.271   5.267
10714SOL    HW133041   6.926   5.176   5.295
10714SOL    HW233042   6.871   5.272   5.175
10715SOL     OW33043   6.194   1.459   3.420
10715SOL    HW133044   6.191   1.368   3.461
10715SOL    HW233045   6.288   1.492   3.417
10716SOL     OW33046   6.287   0.657   3.040
10716SOL    HW133047   6.360   0.676   3.106
10716SOL    HW233048   6.298   0.565   3.003
10717SOL     OW33049   6.483   6.524   1.802
10717SOL    HW133050   6.558   6.524   1.736
10717SOL    HW233051   6.485   6.440   1.856
10718SOL     OW33052   0.560   4.206   6.164
10718SOL    HW133053   0.548   4.262   6.245
10718SOL    HW233054   0.588   4.264   6.087
10719SOL     OW33055   4.296   1.119   2.499
10719SOL    HW133056   4.224   1.097   2.432
10719SOL    HW233057   4.267   1.087   2.589
10720SOL     OW33058   0.650   3.341   0.233
10720SOL    HW133059   0.568   3.319   0.179
10720SOL    HW233060   0.623   3.393   0.314
10721SOL     OW33061   4.608   2.638   3.891
10721SOL    HW133062   4.648   2.572   3.955
10721SOL    HW233063   4.508   2.635   3.898
10722SOL     OW33064   0.166   4.308   0.732
10722SOL    HW133065   0.192   4.242   0.803
10722SOL    HW233066   0.127   4.389   0.775
10723SOL     OW33067   6.473   4.301   0.058
10723SOL    HW133068   6.453   4.370   0.128
10723SOL    HW233069   6.512   4.220   0.102
10724SOL     OW33070   3.886   6.811   5.239
10724SOL    HW133071   3.956   6.741   5.226
10724SOL    HW233072   3.849   6.805   5.332
10725SOL     OW33073   6.772   6.753   4.851
10725SOL    HW133074   6.794   6.798   4.764
10725SOL    HW233075   6.789   6.816   4.926
10726SOL     OW33076   5.066   1.055   5.041
10726SOL    HW133077   5.107   1.110   5.114
10726SOL    HW233078   5.138   1.019   4.982
10727SOL     OW33079   2.039   5.933   6.790
10727SOL    HW133080   2.115   5.953   6.853
10727SOL    HW233081   2.028   5.834   6.782
10728SOL     OW33082   5.800   5.816   3.338
10728SOL    HW133083   5.885   5.832   3.388
10728SOL    HW233084   5.750   5.742   3.382
10729SOL     OW33085   5.509   3.464   4.122
10729SOL    HW133086   5.559   3.422   4.198
10729SOL    HW233087   5.494   3.397   4.050
10730SOL     OW33088   1.938   5.524   2.935
10730SOL    HW133089   2.002   5.581   2.987
10730SOL    HW233090   1.857   5.506   2.991
10731SOL     OW33091   4.613   6.707   6.561
10731SOL    HW133092   4.590   6.779   6.627
10731SOL    HW233093   4.695   6.659   6.591
10732SOL     OW33094   5.922   6.032   2.961
10732SOL    HW133095   5.831   6.067   2.938
10732SOL    HW233096   5.967   6.097   3.023
10733SOL     OW33097   0.257   1.029   6.370
10733SOL    HW133098   0.211   0.990   6.290
10733SOL    HW233099   0.305   1.113   6.344
10734SOL     OW33100   1.799   0.665   4.365
10734SOL    HW133101   1.752   0.720   4.296
10734SOL    HW233102   1.744   0.583   4.385
10735SOL     OW33103   6.927   6.683   2.308
10735SOL    HW133104   6.863   6.746   2.265
10735SOL    HW233105   6.877   6.608   2.352
10736SOL     OW33106   5.639   6.328   3.829
10736SOL    HW133107   5.679   6.370   3.748
10736SOL    HW233108   5.574   6.392   3.870
10737SOL     OW33109   6.240   1.197   2.328
10737SOL    HW133110   6.289   1.191   2.416
10737SOL    HW233111   6.180   1.118   2.319
10738SOL     OW33112   3.622   0.368   1.232
10738SOL    HW133113   3.635   0.302   1.306
10738SOL    HW233114   3.580   0.452   1.268
10739SOL     OW33115   5.469   2.684   4.038
10739SOL    HW133116   5.500   2.624   4.112
10739SOL    HW233117   5.435   2.770   4.077
10740SOL     OW33118   2.930   0.233   5.941
10740SOL    HW133119   2.990   0.162   5.906
10740SOL    HW233120   2.872   0.196   6.014
10741SOL     OW33121   2.018   2.174   3.702
10741SOL    HW133122   1.942   2.171   3.638
10741SOL    HW233123   2.089   2.109   3.674
10742SOL     OW33124   6.063   6.379   2.836
10742SOL    HW133125   6.154   6.401   2.801
10742SOL    HW233126   6.072   6.322   2.918
10743SOL     OW33127   2.889   2.047   5.572
10743SOL    HW133128   2.912   2.142   5.552
10743SOL    HW233129   2.890   1.994   5.486
10744SOL     OW33130   1.934   1.306   0.452
10744SOL    HW133131   1.967   1.213   0.463
10744SOL    HW233132   1.849   1.319   0.504
10745SOL     OW33133   1.484   4.480   2.195
10745SOL    HW133134   1.441   4.389   2.193
10745SOL    HW233135   1.538   4.493   2.112
10746SOL     OW33136   1.487   6.511   6.551
10746SOL    HW133137   1.566   6.566   6.579
10746SOL    HW233138   1.470   6.524   6.454
10747SOL     OW33139   6.342   1.279   4.629
10747SOL    HW133140   6.381   1.209   4.689
10747SOL    HW233141   6.416   1.336   4.592
10748SOL     OW33142   3.177   6.437   1.295
10748SOL    HW133143   3.204   6.500   1.222
10748SOL    HW233144   3.157   6.347   1.255
10749SOL     OW33145   5.833   4.208   1.622
10749SOL    HW133146   5.808   4.115   1.596
10749SOL    HW233147   5.880   4.252   1.545
10750SOL     OW33148   4.124   2.286   4.258
10750SOL    HW133149   4.203   2.289   4.319
10750SOL    HW233150   4.155   2.296   4.163
10751SOL     OW33151   0.486   6.135   4.242
10751SOL    HW133152   0.555   6.123   4.313
10751SOL    HW233153   0.442   6.224   4.253
10752SOL     OW33154   6.518   6.536   0.333
10752SOL    HW133155   6.563   6.455   0.370
10752SOL    HW233156   6.431   6.551   0.381
10753SOL     OW33157   5.505   0.024   4.086
10753SOL    HW133158   5.414   0.061   4.067
10753SOL    HW233159   5.498   6.971   4.153
10754SOL     OW33160   0.630   4.125   2.659
10754SOL    HW133161   0.679   4.040   2.641
10754SOL    HW233162   0.667   4.197   2.600
10755SOL     OW33163   0.177   2.550   0.955
10755SOL    HW133164   0.122   2.598   1.024
10755SOL    HW233165   0.116   2.509   0.887
10756SOL     OW33166   1.090   0.678   0.677
10756SOL    HW133167   1.178   0.630   0.672
10756SOL    HW233168   1.104   0.774   0.652
10757SOL     OW33169   0.425   3.650   1.714
10757SOL    HW133170   0.388   3.558   1.723
10757SOL    HW233171   0.381   3.710   1.781
10758SOL     OW33172   0.662   0.245   0.220
10758SOL    HW133173   0.591   0.304   0.180
10758SOL    HW233174   0.623   0.193   0.296
10759SOL     OW33175   2.590   2.471   5.866
10759SOL    HW133176   2.567   2.407   5.792
10759SOL    HW233177   2.571   2.428   5.954
10760SOL     OW33178   1.334   4.708   6.478
10760SOL    HW133179   1.321   4.800   6.442
10760SOL    HW233180   1.251   4.654   6.464
10761SOL     OW33181   1.173   1.694   5.886
10761SOL    HW133182   1.158   1.596   5.900
10761SOL    HW233183   1.165   1.715   5.789
10762SOL     OW33184   3.009   5.855   6.356
10762SOL    HW133185   2.995   5.869   6.454
10762SOL    HW233186   3.107   5.866   6.335
10763SOL     OW33187   5.061   0.308   3.751
10763SOL    HW133188   5.041   0.236   3.684
10763SOL    HW233189   5.160   0.318   3.760
10764SOL     OW33190   4.404   6.665   4.499
10764SOL    HW133191   4.364   6.654   4.408
10764SOL    HW233192   4.376   6.588   4.557
10765SOL     OW33193   0.387   2.215   2.250
10765SOL    HW133194   0.333   2.278   2.195
10765SOL    HW233195   0.354   2.216   2.344
10766SOL     OW33196   2.330   4.821   0.200
10766SOL    HW133197   2.363   4.784   0.113
10766SOL    HW233198   2.231   4.809   0.207
10767SOL     OW33199   1.240   5.085   0.210
10767SOL    HW133200   1.156   5.071   0.158
10767SOL    HW233201   1.282   4.996   0.231
10768SOL     OW33202   5.233   6.407   6.795
10768SOL    HW133203   5.330   6.387   6.779
10768SOL    HW233204   5.214   6.405   6.894
10769SOL     OW33205   2.979   3.297   4.308
10769SOL    HW133206   3.028   3.212   4.330
10769SOL    HW233207   2.931   3.286   4.221
10770SOL     OW33208   5.583   0.252   3.123
10770SOL    HW133209   5.494   0.233   3.081
10770SOL    HW233210   5.631   0.167   3.141
10771SOL     OW33211   4.612   6.047   5.822
10771SOL    HW133212   4.631   6.122   5.758
10771SOL    HW233213   4.589   6.084   5.911
10772SOL     OW33214   5.983   5.346   2.540
10772SOL    HW133215   6.037   5.357   2.456
10772SOL    HW233216   5.893   5.308   2.516
10773SOL     OW33217   0.023   3.419   0.936
10773SOL    HW133218   6.989   3.484   0.882
10773SOL    HW233219   6.982   3.363   0.992
10774SOL     OW33220   1.065   3.627   0.959
10774SOL    HW133221   0.968   3.620   0.937
10774SOL    HW233222   1.099   3.539   0.991
10775SOL     OW33223   1.689   4.277   0.541
10775SOL    HW133224   1.646   4.241   0.624
10775SOL    HW233225   1.660   4.372   0.528
10776SOL     OW33226   0.701   2.493   4.344
10776SOL    HW133227   0.760   2.527   4.270
10776SOL    HW233228   0.650   2.569   4.384
10777SOL     OW33229   2.740   0.902   1.271
10777SOL    HW133230   2.671   0.968   1.300
10777SOL    HW233231   2.811   0.948   1.217
10778SOL     OW33232   5.454   0.440   2.533
10778SOL    HW133233   5.443   0.340   2.535
10778SOL    HW233234   5.543   0.464   2.571
10779SOL     OW33235   5.556   3.567   5.354
10779SOL    HW133236   5.468   3.557   5.400
10779SOL    HW233237   5.559   3.507   5.274
10780SOL     OW33238   1.848   5.528   4.821
10780SOL    HW133239   1.767   5.586   4.813
10780SOL    HW233240   1.890   5.516   4.731
10781SOL     OW33241   5.674   2.301   4.904
10781SOL    HW133242   5.760   2.314   4.953
10781SOL    HW233243   5.689   2.240   4.826
10782SOL     OW33244   1.056   1.466   5.488
10782SOL    HW133245   1.030   1.479   5.393
10782SOL    HW233246   0.989   1.405   5.532
10783SOL     OW33247   0.917   2.505   3.598
10783SOL    HW133248   0.963   2.585   3.636
10783SOL    HW233249   0.974   2.424   3.612
10784SOL     OW33250   4.067   5.574   2.900
10784SOL    HW133251   3.992   5.508   2.899
10784SOL    HW233252   4.078   5.612   2.991
10785SOL     OW33253   1.115   5.165   1.634
10785SOL    HW133254   1.123   5.073   1.673
10785SOL    HW233255   1.019   5.186   1.619
10786SOL     OW33256   4.443   1.741   2.633
10786SOL    HW133257   4.499   1.658   2.633
10786SOL    HW233258   4.437   1.778   2.541
10787SOL     OW33259   4.321   0.883   3.579
10787SOL    HW133260   4.356   0.844   3.494
10787SOL    HW233261   4.236   0.933   3.560
10788SOL     OW33262   1.878   3.932   0.145
10788SOL    HW133263   1.784   3.964   0.161
10788SOL    HW233264   1.896   3.931   0.046
10789SOL     OW33265   6.742   1.534   1.738
10789SOL    HW133266   6.798   1.528   1.821
10789SOL    HW233267   6.676   1.458   1.737
10790SOL     OW33268   0.689   1.617   5.962
10790SOL    HW133269   0.758   1.585   5.897
10790SOL    HW233270   0.662   1.543   6.022
10791SOL     OW33271   1.608   2.005   3.613
10791SOL    HW133272   1.587   2.102   3.621
10791SOL    HW233273   1.524   1.953   3.603
10792SOL     OW33274   3.997   1.740   2.558
10792SOL    HW133275   3.900   1.734   2.532
10792SOL    HW233276   4.052   1.751   2.475
10793SOL     OW33277   4.159   1.869   4.578
10793SOL    HW133278   4.216   1.817   4.642
10793SOL    HW233279   4.094   1.807   4.534
10794SOL     OW33280   5.329   2.111   1.118
10794SOL    HW133281   5.320   2.012   1.105
10794SOL    HW233282   5.347   2.155   1.030
10795SOL     OW33283   6.756   3.428   3.128
10795SOL    HW133284   6.816   3.480   3.068
10795SOL    HW233285   6.729   3.343   3.082
10796SOL     OW33286   0.476   6.870   6.085
10796SOL    HW133287   0.383   6.890   6.117
10796SOL    HW233288   0.472   6.846   5.988
10797SOL     OW33289   4.303   4.839   6.872
10797SOL    HW133290   4.281   4.834   6.775
10797SOL    HW233291   4.257   4.764   6.921
10798SOL     OW33292   1.475   6.570   6.297
10798SOL    HW133293   1.548   6.626   6.258
10798SOL    HW233294   1.388   6.619   6.289
10799SOL     OW33295   2.890   0.992   2.881
10799SOL    HW133296   2.810   1.001   2.821
10799SOL    HW233297   2.954   1.066   2.863
10800SOL     OW33298   2.526   6.975   5.675
10800SOL    HW133299   2.620   6.986   5.644
10800SOL    HW233300   2.523   6.910   5.751
10801SOL     OW33301   2.880   6.015   6.150
10801SOL    HW133302   2.896   5.959   6.231
10801SOL    HW233303   2.940   5.984   6.076
10802SOL     OW33304   0.807   5.176   4.027
10802SOL    HW133305   0.800   5.134   4.117
10802SOL    HW233306   0.740   5.249   4.019
10803SOL     OW33307   0.085   4.145   4.647
10803SOL    HW133308   0.153   4.177   4.712
10803SOL    HW233309   7.018   4.189   4.665
10804SOL     OW33310   4.832   4.579   1.019
10804SOL    HW133311   4.760   4.638   0.983
10804SOL    HW233312   4.903   4.634   1.060
10805SOL     OW33313   3.728   5.997   0.592
10805SOL    HW133314   3.752   5.905   0.562
10805SOL    HW233315   3.644   6.027   0.545
10806SOL     OW33316   6.359   4.015   6.380
10806SOL    HW133317   6.285   3.955   6.409
10806SOL    HW233318   6.445   3.985   6.420
10807SOL     OW33319   4.712   0.414   4.181
10807SOL    HW133320   4.778   0.397   4.108
10807SOL    HW233321   4.732   0.502   4.224
10808SOL     OW33322   0.408   1.973   0.092
10808SOL    HW133323   0.334   2.018   0.042
10808SOL    HW233324   0.486   1.958   0.031
10809SOL     OW33325   3.394   0.913   3.229
10809SOL    HW133326   3.405   0.818   3.260
10809SOL    HW233327   3.483   0.950   3.203
10810SOL     OW33328   1.024   1.595   6.892
10810SOL    HW133329   1.073   1.680   6.909
10810SOL    HW233330   1.081   1.534   6.837
10811SOL     OW33331   4.852   4.527   6.148
10811SOL    HW133332   4.903   4.589   6.088
10811SOL    HW233333   4.805   4.458   6.093
10812SOL     OW33334   6.962   2.477   2.307
10812SOL    HW133335   6.941   2.442   2.398
10812SOL    HW233336   6.908   2.560   2.291
10813SOL     OW33337   3.131   5.509   2.379
10813SOL    HW133338   3.194   5.437   2.347
10813SOL    HW233339   3.121   5.502   2.478
10814SOL     OW33340   1.969   6.017   5.395
10814SOL    HW133341   1.998   6.052   5.306
10814SOL    HW233342   1.870   6.008   5.397
10815SOL     OW33343   4.427   2.474   3.508
10815SOL    HW133344   4.415   2.418   3.590
10815SOL    HW233345   4.416   2.417   3.427
10816SOL     OW33346   2.067   2.318   1.921
10816SOL    HW133347   1.980   2.332   1.968
10816SOL    HW233348   2.078   2.222   1.897
10817SOL     OW33349   4.465   6.943   1.901
10817SOL    HW133350   4.555   6.900   1.894
10817SOL    HW233351   4.419   6.939   1.813
10818SOL     OW33352   4.645   2.948   6.200
10818SOL    HW133353   4.637   3.046   6.218
10818SOL    HW233354   4.598   2.926   6.114
10819SOL     OW33355   0.869   3.879   5.442
10819SOL    HW133356   0.834   3.793   5.479
10819SOL    HW233357   0.939   3.916   5.503
10820SOL     OW33358   0.050   0.402   4.660
10820SOL    HW133359   0.107   0.375   4.582
10820SOL    HW233360   7.018   0.484   4.635
10821SOL     OW33361   6.700   0.142   1.261
10821SOL    HW133362   6.682   0.227   1.211
10821SOL    HW233363   6.799   0.131   1.273
10822SOL     OW33364   0.668   4.811   0.616
10822SOL    HW133365   0.703   4.848   0.701
10822SOL    HW233366   0.722   4.730   0.590
10823SOL     OW33367   1.001   2.078   1.815
10823SOL    HW133368   1.084   2.103   1.865
10823SOL    HW233369   0.984   2.146   1.744
10824SOL     OW33370   5.640   0.606   3.083
10824SOL    HW133371   5.572   0.643   3.146
10824SOL    HW233372   5.714   0.564   3.135
10825SOL     OW33373   3.665   1.950   1.448
10825SOL    HW133374   3.624   1.871   1.402
10825SOL    HW233375   3.598   2.024   1.454
10826SOL     OW33376   6.859   2.479   1.652
10826SOL    HW133377   6.805   2.468   1.568
10826SOL    HW233378   6.819   2.552   1.707
10827SOL     OW33379   1.502   2.711   4.109
10827SOL    HW133380   1.458   2.793   4.147
10827SOL    HW233381   1.555   2.736   4.028
10828SOL     OW33382   1.070   6.310   0.199
10828SOL    HW133383   0.975   6.339   0.211
10828SOL    HW233384   1.110   6.358   0.120
10829SOL     OW33385   2.433   3.659   1.675
10829SOL    HW133386   2.430   3.581   1.738
10829SOL    HW233387   2.406   3.742   1.724
10830SOL     OW33388   5.209   1.740   3.996
10830SOL    HW133389   5.237   1.664   4.054
10830SOL    HW233390   5.116   1.725   3.963
10831SOL     OW33391   5.221   3.077   3.065
10831SOL    HW133392   5.212   3.149   2.995
10831SOL    HW233393   5.164   3.101   3.143
10832SOL     OW33394   6.640   2.454   2.580
10832SOL    HW133395   6.708   2.522   2.607
10832SOL    HW233396   6.619   2.395   2.658
10833SOL     OW33397   2.785   0.220   4.519
10833SOL    HW133398   2.833   0.171   4.591
10833SOL    HW233399   2.694   0.180   4.507
10834SOL     OW33400   0.009   1.465   5.428
10834SOL    HW133401   6.934   1.477   5.401
10834SOL    HW233402   0.066   1.530   5.378
10835SOL     OW33403   6.920   2.337   2.524
10835SOL    HW133404   6.869   2.285   2.457
10835SOL    HW233405   6.945   2.278   2.601
10836SOL     OW33406   1.807   2.771   0.815
10836SOL    HW133407   1.851   2.717   0.887
10836SOL    HW233408   1.709   2.775   0.831
10837SOL     OW33409   1.211   5.654   1.433
10837SOL    HW133410   1.277   5.590   1.472
10837SOL    HW233411   1.252   5.701   1.355
10838SOL     OW33412   6.483   0.153   0.699
10838SOL    HW133413   6.517   0.091   0.769
10838SOL    HW233414   6.388   0.130   0.676
10839SOL     OW33415   1.812   1.577   0.003
10839SOL    HW133416   1.766   1.657   6.986
10839SOL    HW233417   1.759   1.495   7.001
10840SOL     OW33418   3.707   5.178   2.702
10840SOL    HW133419   3.612   5.146   2.705
10840SOL    HW233420   3.715   5.264   2.752
10841SOL     OW33421   4.790   3.364   6.006
10841SOL    HW133422   4.879   3.320   6.017
10841SOL    HW233423   4.793   3.428   5.929
10842SOL     OW33424   6.811   2.739   1.423
10842SOL    HW133425   6.739   2.738   1.354
10842SOL    HW233426   6.864   2.823   1.414
10843SOL     OW33427   0.737   1.160   2.048
10843SOL    HW133428   0.819   1.201   2.007
10843SOL    HW233429   0.694   1.226   2.110
10844SOL     OW33430   3.319   6.933   3.528
10844SOL    HW133431   3.225   6.969   3.524
10844SOL    HW233432   3.384   7.009   3.520
10845SOL     OW33433   1.681   3.009   0.740
10845SOL    HW133434   1.741   3.060   0.679
10845SOL    HW233435   1.731   2.934   0.783
10846SOL     OW33436   3.654   1.723   2.092
10846SOL    HW133437   3.611   1.692   2.007
10846SOL    HW233438   3.631   1.820   2.108
10847SOL     OW33439   3.580   2.649   6.349
10847SOL    HW133440   3.535   2.573   6.303
10847SOL    HW233441   3.677   2.630   6.360
10848SOL     OW33442   0.888   0.805   0.450
10848SOL    HW133443   0.876   0.852   0.362
10848SOL    HW233444   0.813   0.828   0.511
10849SOL     OW33445   2.529   5.065   4.421
10849SOL    HW133446   2.483   5.011   4.351
10849SOL    HW233447   2.498   5.160   4.415
10850SOL     OW33448   5.888   0.461   1.895
10850SOL    HW133449   5.819   0.523   1.933
10850SOL    HW233450   5.951   0.432   1.967
10851SOL     OW33451   4.114   1.898   6.173
10851SOL    HW133452   4.039   1.940   6.223
10851SOL    HW233453   4.156   1.827   6.231
10852SOL     OW33454   0.199   6.700   6.256
10852SOL    HW133455   0.273   6.639   6.284
10852SOL    HW233456   0.116   6.679   6.308
10853SOL     OW33457   2.107   0.763   4.833
10853SOL    HW133458   2.070   0.854   4.853
10853SOL    HW233459   2.050   0.718   4.765
10854SOL     OW33460   0.224   6.454   1.162
10854SOL    HW133461   0.142   6.400   1.178
10854SOL    HW233462   0.305   6.397   1.176
10855SOL     OW33463   1.461   5.431   2.100
10855SOL    HW133464   1.466   5.478   2.012
10855SOL    HW233465   1.397   5.478   2.160
10856SOL     OW33466   6.133   0.286   6.405
10856SOL    HW133467   6.049   0.284   6.458
10856SOL    HW233468   6.170   0.380   6.406
10857SOL     OW33469   6.354   0.515   5.123
10857SOL    HW133470   6.311   0.591   5.172
10857SOL    HW233471   6.314   0.508   5.032
10858SOL     OW33472   1.888   2.070   0.202
10858SOL    HW133473   1.856   2.065   0.296
10858SOL    HW233474   1.812   2.052   0.139
10859SOL     OW33475   1.121   6.056   2.182
10859SOL    HW133476   1.214   6.094   2.175
10859SOL    HW233477   1.055   6.131   2.184
10860SOL     OW33478   5.792   3.586   1.092
10860SOL    HW133479   5.867   3.638   1.052
10860SOL    HW233480   5.779   3.501   1.042
10861SOL     OW33481   3.202   3.073   1.713
10861SOL    HW133482   3.213   3.154   1.657
10861SOL    HW233483   3.115   3.028   1.691
10862SOL     OW33484   3.400   3.169   5.420
10862SOL    HW133485   3.352   3.140   5.337
10862SOL    HW233486   3.416   3.090   5.478
10863SOL     OW33487   2.167   0.831   3.327
10863SOL    HW133488   2.105   0.812   3.403
10863SOL    HW233489   2.165   0.756   3.262
10864SOL     OW33490   3.027   4.219   1.765
10864SOL    HW133491   3.105   4.275   1.740
10864SOL    HW233492   2.964   4.272   1.822
10865SOL     OW33493   4.079   1.499   2.975
10865SOL    HW133494   4.163   1.452   2.949
10865SOL    HW233495   4.070   1.583   2.922
10866SOL     OW33496   6.997   3.675   3.254
10866SOL    HW133497   6.931   3.636   3.318
10866SOL    HW233498   6.968   3.656   3.160
10867SOL     OW33499   4.701   2.666   0.676
10867SOL    HW133500   4.644   2.588   0.703
10867SOL    HW233501   4.665   2.749   0.719
10868SOL     OW33502   1.419   6.954   4.935
10868SOL    HW133503   1.356   7.007   4.878
10868SOL    HW233504   1.489   7.015   4.973
10869NA      NA33505   6.988   1.147   6.119
10870NA      NA33506   4.522   4.458   5.133
10871NA      NA33507   1.280   5.045   2.475
10872NA      NA33508   5.887   4.091   3.345
10873NA      NA33509   3.793   2.353   5.515
10874NA      NA33510   2.144   4.529   0.442
10875NA      NA33511   1.234   5.235   6.729
10876NA      NA33512   3.800   4.403   1.067
10877NA      NA33513   4.734   5.073   0.268
10878NA      NA33514   3.228   0.916   6.948
10879NA      NA33515   5.505   6.938   1.672
10880NA      NA33516   2.459   6.320   5.731
10881NA      NA33517   4.024   5.119   1.719
10882NA      NA33518   3.890   3.230   6.620
   7.02067   7.02067   7.02067
